Membrane in water
40344
    1TMC1    C1    1   2.581   2.892  11.901 -0.0680 -0.5365 -0.8342
    1TMC1    C2    2   2.577   2.960  11.782  0.6104  0.0021  0.0998
    1TMC1    C3    3   2.697   2.978  11.722 -0.1834 -0.2078 -0.1989
    1TMC1    C4    4   2.699   2.835  11.958 -0.8444  0.0123  0.4142
    1TMC1    C5    5   2.819   2.878  11.902 -0.6295 -0.2177  0.1378
    1TMC1    C6    6   2.821   2.941  11.781 -0.1485  0.3203 -0.3223
    1TMC1     C    7   2.464   2.857  11.967 -1.0326  0.1849 -0.5776
    1TMC1     O    8   2.370   2.933  11.989  0.0478  0.0740  0.5366
    1TMC1     H    9   2.481   2.985  11.737  0.3085 -2.0632 -0.3992
    1TMC1    H1   10   2.700   2.787  12.055 -0.2251  0.8482  0.8303
    1TMC1    H2   11   2.915   2.985  11.748 -0.7961  1.5643 -0.4740
    1TMC1    C7   12   2.943   2.868  11.979  0.5080 -0.0241  0.1443
    1TMC1    C8   13   2.695   3.095  11.632  0.2428 -0.6678  0.1552
    1TMC1    O1   14   3.041   2.923  11.933 -0.3941 -0.3738  0.1904
    1TMC1    O2   15   2.600   3.174  11.643 -0.3636  0.3012 -0.4438
    1TMC1    O3   16   2.936   2.795  12.097 -0.2841 -0.4318  0.4010
    1TMC1    H3   17   2.871   2.722  12.088 -1.3253  0.6501 -0.9286
    1TMC1    O5   18   2.796   3.085  11.547 -0.0388 -0.0810  0.3477
    1TMC1    H5   19   2.841   2.998  11.545 -0.5414 -0.3043 -1.0807
    2MPD2     C   20   2.209   2.516  12.265  0.1537  0.1563  0.9084
    2MPD2    C1   21   2.166   2.634  12.207  0.6004  0.0881 -0.0179
    2MPD2    C2   22   2.245   2.706  12.123  0.3250  0.0653  0.1246
    2MPD2    C3   23   2.373   2.660  12.097  0.0741  0.7700  0.0951
    2MPD2    C4   24   2.407   2.529  12.132  0.2098  0.1673 -0.4434
    2MPD2    C5   25   2.331   2.460  12.219  0.0742  0.4132  0.3422
    2MPD2     H   26   2.203   2.792  12.073  0.7238  1.4643  2.2114
    2MPD2    H1   27   2.499   2.487  12.092  0.5233  0.3284  0.1035
    2MPD2    H2   28   2.146   2.453  12.328  1.2561 -2.4718 -0.5890
    2MPD2    H3   29   2.369   2.370  12.266 -0.6041 -0.0550 -0.0115
    2MPD2     N   30   2.475   2.725  12.013  0.0435  0.6335  0.3619
    2MPD2    H5   31   2.562   2.673  12.003 -0.8263 -0.4303 -1.7155
    2MPD2    N1   32   2.037   2.681  12.239 -0.0131 -0.1397 -0.3519
    2MPD2    H7   33   1.995   2.755  12.184 -1.7786 -1.7100 -1.1211
    3TMC1    C1   34   1.224   3.570  10.645  0.1164 -0.3159  0.5113
    3TMC1    C2   35   1.283   3.683  10.601 -0.0341  0.0679 -0.1714
    3TMC1    C3   36   1.413   3.681  10.567 -0.0495  0.7799  0.0460
    3TMC1    C4   37   1.283   3.448  10.640  0.7111 -1.2599  0.2884
    3TMC1    C5   38   1.418   3.458  10.602 -0.6942 -0.8682 -0.1110
    3TMC1    C6   39   1.485   3.574  10.564  0.0293  1.2422  0.6723
    3TMC1     C   40   1.087   3.567  10.677 -0.2128  0.2446 -0.4644
    3TMC1     O   41   1.023   3.474  10.632  0.0512 -0.3301 -0.0435
    3TMC1     H   42   1.228   3.776  10.608 -0.7527 -0.0291 -4.5472
    3TMC1    H1   43   1.235   3.353  10.664 -0.0292 -1.0827 -0.4880
    3TMC1    H2   44   1.590   3.578  10.537  0.4301  0.6119  2.0858
    3TMC1    C7   45   1.505   3.344  10.610 -0.1311 -0.1687  0.2764
    3TMC1    C8   46   1.483   3.809  10.555  0.0149  0.1080 -0.0496
    3TMC1    O1   47   1.472   3.227  10.599 -0.2388 -0.5336 -0.0691
    3TMC1    O2   48   1.572   3.815  10.475 -0.0409  0.2748  0.0325
    3TMC1    O3   49   1.613   3.385  10.680 -0.4598 -0.1652  0.4849
    3TMC1    H3   50   1.611   3.473  10.723 -2.5855 -0.9624  2.0359
    3TMC1    O5   51   1.454   3.882  10.666  0.4804  0.2382  0.3330
    3TMC1    H5   52   1.386   3.839  10.722 -1.0367 -0.3696 -1.9756
    4MPD2     C   53   0.667   3.841  10.808 -0.5574 -0.6623  0.0875
    4MPD2    C1   54   0.776   3.917  10.836  0.3285 -0.3231  0.0792
    4MPD2    C2   55   0.904   3.857  10.820 -0.2686  0.1110 -0.0162
    4MPD2    C3   56   0.915   3.730  10.768 -0.5007  0.9364 -0.7391
    4MPD2    C4   57   0.803   3.669  10.725  0.1899 -0.4109  0.0757
    4MPD2    C5   58   0.680   3.720  10.754  0.4658 -0.0114  0.5269
    4MPD2     H   59   0.995   3.912  10.841 -0.2515  0.5221 -1.1352
    4MPD2    H1   60   0.822   3.570  10.685 -0.1175 -0.3656 -0.1883
    4MPD2    H2   61   0.564   3.873  10.820 -0.2190  0.4894 -0.0643
    4MPD2    H3   62   0.591   3.660  10.738  0.3154 -0.2941  2.4015
    4MPD2     N   63   1.051   3.682  10.743 -0.4114 -0.0740  0.2014
    4MPD2    H5   64   1.133   3.723  10.786  0.0389 -0.9713  0.1939
    4MPD2    N1   65   0.777   4.051  10.889 -0.0042  0.4697 -0.3179
    4MPD2    H7   66   0.871   4.085  10.902  1.1774 -3.2567  1.0374
    5TCq1    O1   67   2.900   1.089  11.625  0.0110  0.2259  0.2954
    5TCq1    C1   68   2.830   0.973  11.617  0.4738  0.0511  0.2681
    5TCq1    O2   69   2.829   0.896  11.523  0.2943 -0.2334 -0.2285
    5TCq1    C2   70   2.719   0.967  11.714 -0.3479 -0.4367  0.2974
    5TCq1    C3   71   2.747   0.957  11.846 -0.2986 -0.4710 -0.3503
    5TCq1    C4   72   2.656   0.912  11.931 -0.0309  0.1657  0.0072
    5TCq1    C5   73   2.529   0.889  11.890 -0.1475 -0.6418  0.0841
    5TCq1    C6   74   2.502   0.889  11.749 -1.1506 -0.5236 -0.2207
    5TCq1    C7   75   2.601   0.924  11.659  0.1981 -0.1073  0.0081
    5TCq1    C8   76   2.368   0.893  11.698 -0.4505  0.0431 -0.1328
    5TCq1    O4   77   2.347   0.912  11.577 -1.0089 -0.1919  0.0436
    5TCq1    C9   78   2.686   0.884  12.072 -0.1062 -0.0938 -0.7222
    5TCq1    O5   79   2.602   0.823  12.139 -0.0322 -0.2529  0.0071
    5TCq1    O6   80   2.799   0.921  12.117  0.3893  0.4490  0.0515
    5TCq1    H1   81   2.870   1.133  11.707 -1.1278  1.0173 -0.5394
    5TCq1    H2   82   2.844   0.976  11.890  0.0251 -0.7833 -0.9215
    5TCq1    H3   83   2.463   0.858  11.970 -0.3921 -0.0265  0.1238
    5TCq1    H4   84   2.593   0.940  11.553  1.4062  0.0874 -0.0539
    6MPD2     C   85   2.058   0.912  11.901 -0.2671 -0.0132  0.4218
    6MPD2    C1   86   2.135   0.897  11.787 -0.1925  0.9317 -0.4177
    6MPD2    C2   87   2.071   0.890  11.669 -0.6677  0.4849  0.7293
    6MPD2    C3   88   1.939   0.894  11.652  0.4329 -0.1055  0.6429
    6MPD2    C4   89   1.859   0.899  11.764  0.6448  0.3313  0.3330
    6MPD2    C5   90   1.921   0.913  11.885 -0.4239  0.5784  0.0370
    6MPD2     H   91   2.125   0.883  11.575 -1.7006  0.2522  0.1617
    6MPD2    H1   92   1.751   0.903  11.768  0.6259  1.4219 -1.2257
    6MPD2    H2   93   2.097   0.903  12.002  1.4887 -1.1837 -0.3623
    6MPD2    H3   94   1.856   0.923  11.971 -1.3091 -1.4496 -0.3960
    6MPD2     N   95   1.884   0.885  11.522  0.2834  0.7942 -0.4562
    6MPD2    H5   96   1.951   0.896  11.446  1.4243 -0.7292  0.3255
    6MPD2    N1   97   2.278   0.905  11.801 -0.1450  0.3150  0.8041
    6MPD2    H7   98   2.312   0.884  11.895 -1.4743 -1.6996  0.8238
    7TCq1    O1   99   3.134   0.353  13.505  0.1450  0.3119 -0.2002
    7TCq1    C1  100   3.163   0.239  13.440 -0.1682  0.5508 -0.2794
    7TCq1    O2  101   3.237   0.223  13.343  0.0099  0.0577 -0.2162
    7TCq1    C2  102   3.166   0.140  13.546  0.2608 -0.6415  0.2037
    7TCq1    C3  103   3.068   0.143  13.643  1.3500 -0.2791  0.1259
    7TCq1    C4  104   3.066   0.044  13.729 -0.3714 -0.0337 -0.2036
    7TCq1    C5  105   3.139   4.666  13.706 -0.3575 -0.1594  0.5498
    7TCq1    C6  106   3.231   4.668  13.600  0.0412  0.2388  0.0472
    7TCq1    C7  107   3.253   0.031  13.524 -1.0189 -0.0746  0.0987
    7TCq1    C8  108   3.327   4.557  13.602 -0.0822 -0.4455 -0.8685
    7TCq1    O4  109   3.275   4.446  13.621 -0.1532 -0.3168  0.2861
    7TCq1    C9  110   2.993   0.058  13.856 -0.2622 -0.6112 -0.4037
    7TCq1    O5  111   2.976   0.175  13.903 -0.0655  1.0843 -0.2566
    7TCq1    O6  112   2.986   4.688  13.920  0.4499 -0.1823  0.0051
    7TCq1    H1  113   3.106   0.344  13.598  1.8255 -1.1621  0.1582
    7TCq1    H2  114   2.996   0.223  13.655  1.2815 -0.8640  3.3911
    7TCq1    H3  115   3.146   4.583  13.775  1.5147 -0.1928  0.3023
    7TCq1    H4  116   3.328   0.041  13.447 -1.2645 -3.1903 -0.5541
    8MPD2     C  117   3.773   4.380  13.430 -0.4328 -0.0100  0.4852
    8MPD2    C1  118   3.654   4.317  13.442 -0.1901  0.5454  0.8711
    8MPD2    C2  119   3.546   4.381  13.491  0.2868 -0.5985  0.7258
    8MPD2    C3  120   3.563   4.509  13.533 -0.3136  0.4585 -0.0059
    8MPD2    C4  121   3.681   4.571  13.523 -0.1120  0.2851  0.2824
    8MPD2    C5  122   3.787   4.505  13.482  0.4645 -0.7540  0.3185
    8MPD2     H  123   3.446   4.340  13.496 -0.3619  1.1801  2.0828
    8MPD2    H1  124   3.681   4.678  13.543 -1.5273  0.6100 -1.4503
    8MPD2    H2  125   3.857   4.324  13.390  1.2083  2.2356  0.7956
    8MPD2    H3  126   3.885   4.552  13.483  0.0752  0.0845 -0.6731
    8MPD2     N  127   3.456   4.590  13.573 -0.2207 -0.3262  0.0003
    8MPD2    H5  128   3.475   4.689  13.587  0.1052 -0.3565 -0.2341
    8MPD2    N1  129   3.653   4.181  13.391  0.2135 -0.1653  0.3909
    8MPD2    H7  130   3.748   4.147  13.378  0.2404  0.0287  0.0712
    9TMC1    C1  131   0.699   4.213  11.734  0.1483  0.1628 -0.8165
    9TMC1    C2  132   0.605   4.304  11.776  0.0483  0.8737 -0.4779
    9TMC1    C3  133   0.657   4.423  11.816  0.0884  0.3312  0.8540
    9TMC1    C4  134   0.837   4.243  11.731  0.5474 -0.0577  0.1762
    9TMC1    C5  135   0.880   4.368  11.761 -0.2025 -0.4243 -0.0380
    9TMC1    C6  136   0.788   4.462  11.795 -1.4345 -0.1121  0.5348
    9TMC1     C  137   0.648   4.099  11.667  0.3380 -0.8563  0.6230
    9TMC1     O  138   0.525   4.094  11.641  0.0940  0.9576  0.3713
    9TMC1     H  139   0.500   4.278  11.773  0.9883 -2.9642 -0.1824
    9TMC1    H1  140   0.897   4.169  11.679  0.1238 -0.1685 -0.1494
    9TMC1    H2  141   0.818   4.564  11.816 -0.1164 -0.1876 -0.9915
    9TMC1    C7  142   1.018   4.411  11.749  0.3937 -0.0909 -0.7368
    9TMC1    C8  143   0.566   4.532  11.824  0.1906  0.4614 -0.6506
    9TMC1    O1  144   1.036   4.521  11.699 -0.1842  0.0913 -0.2866
    9TMC1    O2  145   0.605   4.644  11.789 -0.7510 -0.2303 -0.5301
    9TMC1    O3  146   1.084   4.302  11.714 -0.2753  0.2952 -0.4950
    9TMC1    H3  147   1.058   4.229  11.774 -0.1236  0.5071 -0.1748
    9TMC1    O5  148   0.448   4.492  11.876 -0.0426 -0.1776 -0.3972
    9TMC1    H5  149   0.455   4.407  11.925 -0.0518  0.1649  0.2030
   10MPD2     C  150   0.613   3.827  11.559 -0.1579  0.3697  0.3794
   10MPD2    C1  151   0.731   3.869  11.609 -0.3117 -0.4241  0.3894
   10MPD2    C2  152   0.842   3.789  11.607  0.7177  0.1011 -0.5909
   10MPD2    C3  153   0.834   3.660  11.557 -0.6175 -0.8025 -0.2420
   10MPD2    C4  154   0.712   3.620  11.515 -0.4676  0.5152  0.3721
   10MPD2    C5  155   0.607   3.700  11.510 -0.3432 -0.1183 -0.1663
   10MPD2     H  156   0.929   3.832  11.656  1.1130  1.1929 -2.2457
   10MPD2    H1  157   0.696   3.515  11.490  1.4674  0.3450 -0.1416
   10MPD2    H2  158   0.520   3.883  11.552  0.3251  1.2688  1.1701
   10MPD2    H3  159   0.513   3.654  11.481  0.3908 -0.5912 -1.8044
   10MPD2     N  160   0.938   3.567  11.560  0.4115 -0.1344 -0.3109
   10MPD2    H5  161   0.907   3.476  11.529  1.1070 -0.7972  0.9284
   10MPD2    N1  162   0.748   3.997  11.663 -0.2004  0.3760 -0.5023
   10MPD2    H7  163   0.843   4.021  11.690 -0.3313 -0.7646  0.9623
   11TCq1    O1  164   1.418   3.448  14.251  0.3916 -0.1838 -0.4404
   11TCq1    C1  165   1.397   3.373  14.365 -0.2254  0.5625  0.6241
   11TCq1    O2  166   1.285   3.364  14.416 -0.3566  0.4905  0.4126
   11TCq1    C2  167   1.489   3.261  14.367  0.3496 -0.5179  0.2234
   11TCq1    C3  168   1.624   3.279  14.391 -0.7637  0.1952  0.6846
   11TCq1    C4  169   1.706   3.173  14.381  0.2989  1.0060 -0.9546
   11TCq1    C5  170   1.663   3.042  14.372  0.7054  0.8793 -0.1860
   11TCq1    C6  171   1.531   3.023  14.359 -0.3142  0.0860 -0.4597
   11TCq1    C7  172   1.444   3.132  14.356 -0.4110  0.3401  0.6060
   11TCq1    C8  173   1.485   2.885  14.341 -0.1266 -0.2994  0.9477
   11TCq1    O4  174   1.364   2.876  14.351 -0.7163 -0.1616  0.8962
   11TCq1    C9  175   1.852   3.183  14.406 -0.4888  0.2765  0.1134
   11TCq1    O5  176   1.889   3.282  14.469  0.3032  0.2508 -0.5768
   11TCq1    O6  177   1.931   3.085  14.380 -0.2105  0.6100  0.4929
   11TCq1    H1  178   1.497   3.428  14.196  1.4801 -1.8985  1.7281
   11TCq1    H2  179   1.661   3.380  14.407 -0.4680  0.5101 -2.0710
   11TCq1    H3  180   1.734   2.962  14.386 -1.4083 -1.0068 -0.1720
   11TCq1    H4  181   1.341   3.119  14.322  0.6945  1.0246 -3.0533
   12MPD2     C  182   1.436   2.595  14.355  0.0336  0.5679 -0.0131
   12MPD2    C1  183   1.542   2.655  14.292 -0.5199  0.2708  0.1741
   12MPD2    C2  184   1.638   2.569  14.230 -0.4238  0.7724 -0.5938
   12MPD2    C3  185   1.621   2.431  14.232 -0.4620  0.5815 -0.8315
   12MPD2    C4  186   1.509   2.378  14.297  0.2471  0.5991 -0.4600
   12MPD2    C5  187   1.423   2.458  14.358  0.1703 -0.0203 -0.0538
   12MPD2     H  188   1.733   2.602  14.189  0.1718  1.7590  1.5477
   12MPD2    H1  189   1.488   2.272  14.301 -0.3351  0.7469  0.2701
   12MPD2    H2  190   1.358   2.651  14.405  0.4670  1.8081 -0.7438
   12MPD2    H3  191   1.337   2.416  14.410 -0.5498  1.8535  0.2663
   12MPD2     N  192   1.713   2.351  14.157 -0.3059  0.1948 -0.2357
   12MPD2    H5  193   1.789   2.397  14.109 -0.2201 -1.1889 -1.4021
   12MPD2    N1  194   1.572   2.793  14.299 -0.1822 -0.2094  0.6175
   12MPD2    H7  195   1.664   2.809  14.259 -1.9055  1.3699 -2.6313
   13TCq1    O1  196   1.854   4.206  11.622  0.4541 -0.2908  0.1878
   13TCq1    C1  197   1.728   4.172  11.645 -0.2256 -0.3640  0.1827
   13TCq1    O2  198   1.641   4.241  11.689  0.5509  0.0770  0.0515
   13TCq1    C2  199   1.711   4.029  11.602 -0.5467  0.2712 -0.4233
   13TCq1    C3  200   1.804   3.947  11.650  1.1147 -0.4747 -0.5495
   13TCq1    C4  201   1.790   3.812  11.610 -0.3024 -0.4338 -0.1264
   13TCq1    C5  202   1.683   3.765  11.534  0.4821  0.4410  0.5788
   13TCq1    C6  203   1.588   3.859  11.503 -0.4088 -0.1996 -0.1550
   13TCq1    C7  204   1.594   3.987  11.548 -0.4432  0.3439  0.2158
   13TCq1    C8  205   1.469   3.816  11.417 -0.2337  0.2982 -0.2084
   13TCq1    O4  206   1.363   3.877  11.421  0.1646  0.1059  0.3963
   13TCq1    C9  207   1.877   3.724  11.674  0.8317 -0.0376  0.0262
   13TCq1    O5  208   1.861   3.603  11.640  0.3753  0.1810 -0.8455
   13TCq1    O6  209   1.961   3.767  11.760  0.4079  0.8739  0.3836
   13TCq1    H1  210   1.908   4.138  11.576  0.6949  0.5177 -0.7315
   13TCq1    H2  211   1.882   3.975  11.720 -0.0062  1.4925 -0.0714
   13TCq1    H3  212   1.652   3.662  11.522 -1.9766  1.1696  0.6321
   13TCq1    H4  213   1.520   4.063  11.528  0.0744  0.8668  0.2782
   14MPD2     C  214   1.484   3.563  11.160  0.2701 -0.0027  1.0627
   14MPD2    C1  215   1.416   3.640  11.258  0.0631 -0.5024  0.0408
   14MPD2    C2  216   1.281   3.659  11.242 -0.5310  0.5987  0.3595
   14MPD2    C3  217   1.213   3.591  11.144  0.2891  0.7509  0.2464
   14MPD2    C4  218   1.274   3.504  11.054  0.0346 -0.5519 -0.1838
   14MPD2    C5  219   1.408   3.489  11.071  0.1270 -0.4164 -0.1645
   14MPD2     H  220   1.225   3.724  11.308  0.3867  1.1500  0.5860
   14MPD2    H1  221   1.211   3.457  10.979 -0.3546 -0.9673  0.4007
   14MPD2    H2  222   1.592   3.554  11.154  0.3291  1.7085 -0.4509
   14MPD2    H3  223   1.457   3.434  10.992  1.0518  0.0102  0.1034
   14MPD2     N  224   1.071   3.613  11.136  0.5803 -0.1566 -0.2009
   14MPD2    H5  225   1.036   3.671  11.212 -1.0126  2.2163 -2.7342
   14MPD2    N1  226   1.499   3.718  11.337  0.0040  0.0509 -0.5562
   14MPD2    H7  227   1.599   3.700  11.332  0.4560  2.1025  1.1093
   15TCq1    O1  228   4.524   2.701   1.561 -0.3290 -0.1769  0.0503
   15TCq1    C1  229   4.430   2.606   1.546  0.4586 -0.4530  0.4010
   15TCq1    O2  230   4.344   2.579   1.626  0.0733  0.2211 -0.3771
   15TCq1    C2  231   4.413   2.572   1.405  0.0954  0.3800 -0.8316
   15TCq1    C3  232   4.467   2.656   1.310  0.5214 -0.7395 -0.1051
   15TCq1    C4  233   4.443   2.618   1.181 -0.2886  0.6136  0.2115
   15TCq1    C5  234   4.373   2.509   1.150  0.6418  0.0356  0.7458
   15TCq1    C6  235   4.324   2.426   1.254  0.5701  0.9648  0.2908
   15TCq1    C7  236   4.337   2.464   1.382 -0.2544 -0.7123 -0.0839
   15TCq1    C8  237   4.272   2.297   1.218 -0.7098  0.9033  0.2585
   15TCq1    O4  238   4.288   2.254   1.105  0.1314  0.2009 -0.0166
   15TCq1    C9  239   4.502   2.692   1.071  0.1754 -0.7541 -0.8959
   15TCq1    O5  240   4.481   2.649   0.954 -0.2070  0.2650 -0.0738
   15TCq1    O6  241   4.570   2.796   1.103 -1.2530  0.2809 -0.1670
   15TCq1    H1  242   4.594   2.695   1.492  0.6293  2.9527  0.7457
   15TCq1    H2  243   4.516   2.750   1.333 -0.4806 -0.0402 -0.8201
   15TCq1    H3  244   4.346   2.483   1.048 -0.8462 -0.4287  1.2599
   15TCq1    H4  245   4.314   2.401   1.467  1.3767 -1.8062 -0.4444
   16MPD2     C  246   3.972   2.136   1.365 -0.0888  0.0925  0.5076
   16MPD2    C1  247   4.093   2.136   1.299 -0.1665  0.5578 -0.0247
   16MPD2    C2  248   4.140   2.019   1.237 -0.2781 -1.5053  0.1831
   16MPD2    C3  249   4.056   1.904   1.234 -0.1572  0.9927 -0.4607
   16MPD2    C4  250   3.930   1.907   1.297  0.1878  0.1275  0.2423
   16MPD2    C5  251   3.890   2.025   1.351  0.5150 -0.0123  0.7894
   16MPD2     H  252   4.237   2.002   1.194 -0.0189  0.2989  0.0706
   16MPD2    H1  253   3.869   1.819   1.311 -0.0013  0.1638 -0.3437
   16MPD2    H2  254   3.946   2.224   1.422  0.4815 -1.1257  2.6309
   16MPD2    H3  255   3.797   2.024   1.407  0.0021  2.4086 -0.0221
   16MPD2     N  256   4.112   1.779   1.190  0.5035  0.0763  0.3303
   16MPD2    H5  257   4.211   1.773   1.169  0.1789 -1.3610 -0.7872
   16MPD2    N1  258   4.165   2.260   1.300 -0.5630  0.1500 -0.1064
   16MPD2    H7  259   4.127   2.323   1.369 -3.2169 -0.6512 -0.8220
   17TMC1    C1  260   0.981   2.909  11.417  0.0347 -0.2781  0.2896
   17TMC1    C2  261   0.967   3.044  11.457 -0.4225 -0.1432  0.3226
   17TMC1    C3  262   0.857   3.084  11.529 -0.1925  0.5610 -0.3233
   17TMC1    C4  263   0.876   2.824  11.445  0.2320 -0.1596 -0.0520
   17TMC1    C5  264   0.763   2.869  11.516  0.3961  0.6157  1.0287
   17TMC1    C6  265   0.760   2.994  11.567  0.1510 -0.1856 -0.1846
   17TMC1     C  266   1.017   2.893  11.276  0.7355 -0.0631  0.4418
   17TMC1     O  267   0.947   2.814  11.216  0.0971  0.0210  0.1491
   17TMC1     H  268   1.031   3.127  11.428  1.2313 -0.8099  2.0823
   17TMC1    H1  269   0.872   2.724  11.402 -3.4675  1.2502 -3.0055
   17TMC1    H2  270   0.667   3.030  11.610 -0.6199 -0.4606 -1.6100
   17TMC1    C7  271   0.666   2.771  11.562 -0.4826 -0.2736 -0.5705
   17TMC1    C8  272   0.814   3.218  11.529 -0.5758  0.3391  0.1579
   17TMC1    O1  273   0.611   2.758  11.673 -0.3584  1.1380  0.4988
   17TMC1    O2  274   0.861   3.300  11.455  0.3925 -0.1886 -0.1591
   17TMC1    O3  275   0.639   2.698  11.453 -0.1790 -0.1773  0.5556
   17TMC1    H3  276   0.673   2.730  11.366  0.9774 -2.4801  0.1509
   17TMC1    O5  277   0.726   3.244  11.632  0.0109  0.3811  0.3994
   17TMC1    H5  278   0.713   3.172  11.697 -2.6043  0.8182  0.3427
   18MPD2     C  279   1.095   2.951  10.995  0.3534 -0.0125  0.0279
   18MPD2    C1  280   1.170   2.987  11.104  1.6290 -0.7498 -0.7134
   18MPD2    C2  281   1.293   3.047  11.088 -0.2066 -0.0031 -0.2652
   18MPD2    C3  282   1.343   3.076  10.958  0.3541 -0.1052 -1.1757
   18MPD2    C4  283   1.262   3.047  10.853 -0.6597  0.1204 -0.5973
   18MPD2    C5  284   1.143   2.985  10.871 -0.0219 -0.2040  0.0505
   18MPD2     H  285   1.350   3.075  11.176 -2.0210  1.7827  0.3339
   18MPD2    H1  286   1.291   3.077  10.753  1.3815  1.5456  0.4433
   18MPD2    H2  287   0.998   2.903  11.002  0.7194 -0.7305  0.2299
   18MPD2    H3  288   1.086   2.965  10.781  0.8567  0.5436 -0.6744
   18MPD2     N  289   1.466   3.140  10.929  0.1837 -0.1236 -0.5118
   18MPD2    H5  290   1.481   3.158  10.831  0.0993  1.2593 -0.2718
   18MPD2    N1  291   1.122   2.965  11.236 -0.3280  0.4237  0.0486
   18MPD2    H7  292   1.186   3.007  11.303  1.2394 -0.2963 -1.0082
   19TMC2    C1  293   2.909   3.341  14.394  0.7938  0.5608 -0.4766
   19TMC2    C2  294   2.823   3.446  14.350 -0.0242  0.9408 -0.3284
   19TMC2    C3  295   2.697   3.404  14.312  0.0652 -0.6161 -0.5232
   19TMC2    C4  296   2.859   3.213  14.403  0.1126 -0.6139 -0.7372
   19TMC2    C5  297   2.736   3.179  14.364 -0.2562 -0.4969  0.2054
   19TMC2    C6  298   2.650   3.273  14.312  0.3320  0.4028 -0.0837
   19TMC2     C  299   3.056   3.372  14.394  0.9759  0.2725 -0.1517
   19TMC2     O  300   3.081   3.491  14.374  0.0701  0.0630  0.8875
   19TMC2     H  301   2.858   3.545  14.323  2.4304  0.9159  2.7717
   19TMC2    H1  302   2.920   3.141  14.456  2.4093  0.2545 -2.2444
   19TMC2    H2  303   2.553   3.246  14.272  0.3642  4.7712 -3.1917
   19TMC2    C7  304   2.728   3.049  14.311 -0.3312 -0.1018  0.2804
   19TMC2    C8  305   2.600   3.504  14.264  0.5499  0.6993  0.4201
   19TMC2    O1  306   2.831   3.000  14.263  0.3083 -0.0177 -0.0157
   19TMC2    O2  307   2.496   3.470  14.211 -0.0753 -0.0783  0.0918
   19TMC2    O5  308   2.632   3.620  14.331  0.5592 -0.2394  0.0110
   19TMC2    H5  309   2.712   3.626  14.387  1.6501 -2.2883 -1.3485
   20MPD2     C  310   3.340   3.378  14.441  0.3427  0.0895 -0.2026
   20MPD2    C1  311   3.277   3.262  14.437 -0.1024  0.7170  0.3081
   20MPD2    C2  312   3.344   3.143  14.462 -0.7534 -0.0131 -0.0179
   20MPD2    C3  313   3.480   3.152  14.486  0.5361  0.0377 -0.7783
   20MPD2    C4  314   3.546   3.277  14.484 -1.1232  0.3588 -0.4282
   20MPD2    C5  315   3.473   3.383  14.457  0.1486 -0.1056 -0.1419
   20MPD2     H  316   3.302   3.043  14.453 -0.6644 -0.2111  1.6595
   20MPD2    H1  317   3.652   3.282  14.504 -0.9943 -0.9210 -0.7866
   20MPD2    H2  318   3.291   3.470  14.411 -1.1832 -1.0155 -1.1035
   20MPD2    H3  319   3.526   3.477  14.446  0.3423  0.0612  2.2490
   20MPD2     N  320   3.560   3.039  14.511  0.3234  0.3427 -0.5205
   20MPD2    H5  321   3.660   3.053  14.518  0.1322  0.3189  2.0998
   20MPD2    N1  322   3.138   3.263  14.414  0.6189 -0.0514  0.5251
   20MPD2    H7  323   3.091   3.173  14.421  2.8730 -1.2523  0.3473
   21TMC2    C1  324   0.574   3.062  14.283  0.2899  0.1108  0.1489
   21TMC2    C2  325   0.707   3.019  14.290  0.0751 -1.0234 -0.2318
   21TMC2    C3  326   0.752   2.969  14.409  0.2792 -0.0857  0.3840
   21TMC2    C4  327   0.491   3.059  14.397  0.2214 -1.2735  0.0505
   21TMC2    C5  328   0.541   3.005  14.516  0.4880  0.2689  0.4434
   21TMC2    C6  329   0.668   2.963  14.515 -0.5828  0.1105  0.3117
   21TMC2     C  330   0.529   3.143  14.172 -0.5101  0.7482  0.3236
   21TMC2     O  331   0.534   3.077  14.065 -0.3448  0.4949 -0.5206
   21TMC2     H  332   0.779   3.030  14.210 -0.8925  0.5729 -0.8895
   21TMC2    H1  333   0.388   3.093  14.401  1.1395  1.4281  1.1061
   21TMC2    H2  334   0.704   2.930  14.612  1.7105 -0.1220 -0.6246
   21TMC2    C7  335   0.504   3.068  14.640 -0.3764  0.0744 -0.4345
   21TMC2    C8  336   0.885   2.905  14.403  0.4055  0.1677 -0.0782
   21TMC2    O1  337   0.555   3.029  14.745  0.3398 -0.2852  0.1293
   21TMC2    O2  338   0.970   2.920  14.312 -0.8593 -0.1391  0.4932
   21TMC2    O5  339   0.874   2.816  14.503 -0.5061 -0.2266 -0.4163
   21TMC2    H5  340   0.790   2.810  14.553  0.2220 -3.1645  0.4342
   22MPD2     C  341   0.658   3.554  14.445  0.4303  0.2096 -0.5029
   22MPD2    C1  342   0.719   3.431  14.429  0.2497  0.2669  0.3011
   22MPD2    C2  343   0.659   3.345  14.347 -0.0257  0.2158 -0.3075
   22MPD2    C3  344   0.532   3.367  14.288 -0.1431  0.5271  0.0012
   22MPD2    C4  345   0.468   3.491  14.310 -0.1397  0.5251 -0.0735
   22MPD2    C5  346   0.538   3.584  14.379 -0.2392 -0.3539  1.1089
   22MPD2     H  347   0.716   3.254  14.331  3.5987  1.7956  3.6474
   22MPD2    H1  348   0.369   3.514  14.273 -0.6728  0.6523  1.4262
   22MPD2    H2  349   0.705   3.623  14.514 -1.1428 -2.0429  2.7955
   22MPD2    H3  350   0.489   3.679  14.395 -1.7828 -1.1419  0.9661
   22MPD2     N  351   0.477   3.269  14.200 -1.0330 -0.8206  0.0702
   22MPD2    H5  352   0.392   3.295  14.150 -1.3769 -0.8081  0.6590
   22MPD2    N1  353   0.828   3.380  14.495 -0.1608 -0.1191 -0.4810
   22MPD2    H7  354   0.852   3.282  14.479  2.1915  0.4115 -0.2108
   23TMC2    C1  355   2.023   4.442  14.818 -0.1144 -0.0035 -0.2529
   23TMC2    C2  356   2.080   4.523  14.725  0.0463 -0.6259 -0.3123
   23TMC2    C3  357   2.025   4.520  14.600 -0.4679  0.4702 -0.5004
   23TMC2    C4  358   1.928   4.354  14.795 -0.0049 -0.0159 -0.1029
   23TMC2    C5  359   1.880   4.348  14.667  0.7409  0.2746  0.1183
   23TMC2    C6  360   1.933   4.426  14.569  0.3424  0.7484 -0.5390
   23TMC2     C  361   2.098   4.445  14.948  0.4707 -0.3149  0.4045
   23TMC2     O  362   2.084   4.345  15.016  0.1395  0.0532  0.3083
   23TMC2     H  363   2.167   4.587  14.731 -0.3491  0.1016 -2.2867
   23TMC2    H1  364   1.899   4.285  14.874 -0.7638  1.1066  0.5886
   23TMC2    H2  365   1.897   4.427  14.467 -4.0801  0.8516  1.0359
   23TMC2    C7  366   1.765   4.256  14.650  0.1649  0.3081  0.6179
   23TMC2    C8  367   2.057   4.610  14.494  0.5856  0.5449  0.2881
   23TMC2    O1  368   1.759   4.174  14.739 -0.0127 -0.1338  0.3004
   23TMC2    O2  369   2.040   4.578  14.376 -0.2401  0.0616  0.2689
   23TMC2    O5  370   2.084   4.733  14.537  0.1236 -0.3340 -0.6212
   23TMC2    H5  371   2.101   0.009  14.633 -2.3876 -0.9626 -0.0919
   24MPD2     C  372   2.409   4.672  15.292  0.4248 -0.3471  0.2391
   24MPD2    C1  373   2.351   4.550  15.298 -0.1878 -0.2581  0.1732
   24MPD2    C2  374   2.267   4.506  15.191  0.2285  0.3839 -0.0247
   24MPD2    C3  375   2.239   4.601  15.092  0.0731 -0.7900 -0.8194
   24MPD2    C4  376   2.279   4.733  15.106 -0.0310 -0.4502  0.0892
   24MPD2    C5  377   2.364   0.028  15.206 -0.1508  0.6602  0.2565
   24MPD2     H  378   2.230   4.407  15.171  0.1074  0.3872  0.1892
   24MPD2    H1  379   2.243   0.068  15.035  0.7204 -0.4376 -0.2725
   24MPD2    H2  380   2.474   4.719  15.366 -0.3102  1.7656 -0.4506
   24MPD2    H3  381   2.402   0.129  15.208  3.1746 -0.5504 -2.5119
   24MPD2     N  382   2.160   4.561  14.978  0.0962 -0.1493 -0.3941
   24MPD2    H5  383   2.140   4.625  14.901  1.5199  1.0597  0.2228
   24MPD2    N1  384   2.396   4.462  15.398 -0.3520 -0.7406  0.5105
   24MPD2    H7  385   2.449   4.509  15.471 -0.4240 -1.1840  0.8504
   25TMC2    C1  386   1.049   2.423  11.914 -0.9705 -0.2019 -0.0786
   25TMC2    C2  387   1.160   2.382  11.982  0.8797  0.2028 -0.2953
   25TMC2    C3  388   1.166   2.353  12.118 -0.0911 -0.2891  0.4730
   25TMC2    C4  389   0.928   2.439  11.979 -1.0635 -0.3538 -0.6433
   25TMC2    C5  390   0.932   2.405  12.115  0.8405 -0.0496 -0.8490
   25TMC2    C6  391   1.046   2.366  12.186  0.1804 -0.2984 -0.0765
   25TMC2     C  392   1.067   2.450  11.772  0.1631  0.4118 -0.6999
   25TMC2     O  393   1.170   2.503  11.729 -0.0725 -0.1422  0.3437
   25TMC2     H  394   1.255   2.395  11.931  0.7428  2.4886  0.0344
   25TMC2    H1  395   0.859   2.502  11.925 -0.3690 -0.1067 -1.2360
   25TMC2    H2  396   1.038   2.343  12.291  1.4803  1.2398  0.3578
   25TMC2    C7  397   0.811   2.391  12.187  0.3246  0.2541 -0.1681
   25TMC2    C8  398   1.293   2.376  12.193  0.5551  0.2426  0.4090
   25TMC2    O1  399   0.818   2.322  12.291 -0.4751  0.1198 -0.1339
   25TMC2    O2  400   1.381   2.451  12.147  0.4348  0.2301  0.3189
   25TMC2    O5  401   1.303   2.292  12.290 -0.2605 -0.1617 -0.2135
   25TMC2    H5  402   1.224   2.235  12.305 -0.9015  1.0804  1.2229
   26MPD2     C  403   0.918   2.409  11.281  0.5935  0.6012 -0.4988
   26MPD2    C1  404   0.829   2.333  11.353  0.0835 -0.0600  0.0864
   26MPD2    C2  405   0.836   2.349  11.495 -0.2074 -0.7116  0.7830
   26MPD2    C3  406   0.951   2.404  11.553 -0.6948 -0.0700  0.1143
   26MPD2    C4  407   1.034   2.481  11.477 -0.2284  0.2053  0.9733
   26MPD2    C5  408   1.020   2.479  11.339  0.4013  0.6078  0.2178
   26MPD2     H  409   0.766   2.300  11.563  0.9047  2.0800  3.9396
   26MPD2    H1  410   1.123   2.522  11.523  1.8165 -1.0528 -1.8336
   26MPD2    H2  411   0.908   2.428  11.175 -2.1336  1.1434 -0.1315
   26MPD2    H3  412   1.089   2.531  11.274  1.3252 -0.8697  0.0110
   26MPD2     N  413   0.968   2.392  11.696  0.0173  0.3191 -0.3503
   26MPD2    H5  414   0.894   2.344  11.746 -0.9940 -0.9238 -3.0243
   26MPD2    N1  415   0.740   2.250  11.289  0.6559  0.4095 -0.2691
   26MPD2    H7  416   0.740   2.255  11.187 -0.1594 -2.0329 -0.3986
   27TMC2    C1  417   4.176   4.710  12.363  0.5330  0.0599  0.0234
   27TMC2    C2  418   4.155   0.095  12.309 -0.1024  0.6258 -0.2789
   27TMC2    C3  419   4.175   0.200  12.389 -0.1814  0.2073  0.6002
   27TMC2    C4  420   4.230   4.692  12.485 -0.0720 -0.0311  0.9357
   27TMC2    C5  421   4.269   0.063  12.559  0.5357 -0.2686 -0.1592
   27TMC2    C6  422   4.247   0.187  12.509 -0.7049 -0.2129 -0.1397
   27TMC2     C  423   4.116   4.591  12.291  0.9684  0.0687  0.7678
   27TMC2     O  424   4.084   4.610  12.174  0.8543 -0.7776 -0.3189
   27TMC2     H  425   4.094   0.098  12.219  0.1648  0.8697 -0.4553
   27TMC2    H1  426   4.254   4.595  12.527 -1.6027 -0.9724 -0.3745
   27TMC2    H2  427   4.268   0.275  12.569 -1.7074 -1.2692  1.7551
   27TMC2    C7  428   4.394   0.045  12.637 -0.6366  0.1111  0.1695
   27TMC2    C8  429   4.144   0.334  12.345  0.1527  0.2814 -0.1192
   27TMC2    O1  430   4.435   4.667  12.645  0.0634 -0.1610  0.2840
   27TMC2    O2  431   4.236   0.407  12.311 -0.0366 -0.2803  0.1616
   27TMC2    O5  432   4.011   0.343  12.332  0.1900 -0.5885 -0.1402
   27TMC2    H5  433   3.957   0.269  12.367 -0.1312 -0.7428 -0.9446
   28MPD2     C  434   3.897   4.137  12.246  0.7162 -0.1693  0.1312
   28MPD2    C1  435   3.912   4.160  12.382  0.5407  0.0264  0.4361
   28MPD2    C2  436   3.990   4.267  12.419 -0.3137  0.5122 -0.3753
   28MPD2    C3  437   4.041   4.354  12.329 -0.3327 -0.3608 -0.7955
   28MPD2    C4  438   4.022   4.328  12.194  0.3583 -1.0818  0.5345
   28MPD2    C5  439   3.949   4.225  12.159  0.8007 -0.6503 -0.1853
   28MPD2     H  440   4.012   4.289  12.523 -3.0377 -1.3022  0.5998
   28MPD2    H1  441   4.067   4.395  12.122  1.0339 -0.4537  1.5448
   28MPD2    H2  442   3.837   4.059  12.200 -1.8432  0.6020  2.1738
   28MPD2    H3  443   3.920   4.206  12.056  1.0827  1.5910 -0.6716
   28MPD2     N  444   4.093   4.481  12.370 -0.3250 -0.6680 -0.3911
   28MPD2    H5  445   4.097   4.484  12.472  2.9991 -1.7215 -0.5154
   28MPD2    N1  446   3.848   4.076  12.470 -0.3735  0.7394 -0.0426
   28MPD2    H7  447   3.767   4.030  12.429 -0.4770  0.6254  0.2847
   29TMC2    C1  448   4.116   1.385  14.179  0.4674 -0.2698  0.5875
   29TMC2    C2  449   4.052   1.388  14.299 -0.3073 -0.5779 -0.1395
   29TMC2    C3  450   4.084   1.503  14.376  0.0078  0.5166  0.3904
   29TMC2    C4  451   4.217   1.470  14.145  0.1511 -0.0714 -0.1806
   29TMC2    C5  452   4.242   1.579  14.229 -0.6131 -0.4567 -0.5035
   29TMC2    C6  453   4.165   1.605  14.340 -0.5139  0.6150 -0.7496
   29TMC2     C  454   4.093   1.268  14.100 -0.0386 -0.6703  0.6625
   29TMC2     O  455   4.057   1.171  14.160  0.2547 -0.9118 -0.0471
   29TMC2     H  456   3.974   1.316  14.322  0.3786 -0.9509  1.0437
   29TMC2    H1  457   4.278   1.450  14.058 -0.8458  2.3415 -1.4488
   29TMC2    H2  458   4.183   1.677  14.420  3.2496 -0.5544 -0.5335
   29TMC2    C7  459   4.297   1.693  14.161  0.2772 -0.7345  0.1112
   29TMC2    C8  460   4.007   1.532  14.498 -0.5291  0.1771  0.1346
   29TMC2    O1  461   4.325   1.670  14.041  0.6532  0.2217 -0.1540
   29TMC2    O2  462   3.966   1.642  14.524  0.3224  0.0151 -0.1465
   29TMC2    O5  463   3.943   1.423  14.526 -0.6825  0.4316 -0.6712
   29TMC2    H5  464   3.994   1.340  14.510 -1.4542 -0.0261 -0.7287
   30MPD2     C  465   4.200   1.009  13.679 -0.0533 -0.4675  0.2823
   30MPD2    C1  466   4.210   0.971  13.809 -0.0308 -0.1723 -0.3579
   30MPD2    C2  467   4.163   1.059  13.907  0.7266 -0.5140  0.8245
   30MPD2    C3  468   4.131   1.192  13.873 -0.2900  0.0699  0.1726
   30MPD2    C4  469   4.132   1.228  13.746  0.3397  0.1786 -0.4922
   30MPD2    C5  470   4.151   1.136  13.648  0.1747 -0.4595  0.0340
   30MPD2     H  471   4.159   1.024  14.009 -2.5019 -0.8061  0.5761
   30MPD2    H1  472   4.106   1.330  13.724  0.6518  0.3730  0.0290
   30MPD2    H2  473   4.231   0.960  13.587  2.2718  2.3041 -0.4102
   30MPD2    H3  474   4.143   1.172  13.546 -1.5539 -1.4368 -0.1832
   30MPD2     N  475   4.110   1.290  13.969  0.1469  0.8484 -0.2586
   30MPD2    H5  476   4.103   1.386  13.935  0.2513  0.0731 -2.5151
   30MPD2    N1  477   4.250   0.844  13.848  0.4743  0.3245  0.0264
   30MPD2    H7  478   4.253   0.828  13.948 -0.2885 -0.6704 -0.1144
   31TMC2    C1  479   1.862   0.366  15.684  0.5454  0.3236  0.7870
   31TMC2    C2  480   1.759   0.446  15.730 -1.1697 -0.3344  0.3340
   31TMC2    C3  481   1.762   0.505  15.851 -0.1361 -0.2328 -0.0482
   31TMC2    C4  482   1.964   0.346  15.772 -0.6010 -0.5660  0.2562
   31TMC2    C5  483   1.965   0.409  15.891 -0.4149  0.1482 -0.2280
   31TMC2    C6  484   1.861   0.482  15.941 -0.6617  0.3355 -0.3184
   31TMC2     C  485   1.900   0.407  15.544  0.5124 -0.7851 -0.1632
   31TMC2     O  486   1.847   0.506  15.490 -0.0092 -0.5746 -0.4841
   31TMC2     H  487   1.678   0.468  15.661 -2.0319  0.1658  1.5160
   31TMC2    H1  488   2.054   0.289  15.749 -0.7207 -0.4873 -0.4155
   31TMC2    H2  489   1.852   0.508  16.046  0.8673 -3.2360  0.6730
   31TMC2    C7  490   2.084   0.385  15.969  0.1612  0.3697 -0.1111
   31TMC2    C8  491   1.626   0.510  15.897  0.0232  0.1927  0.3748
   31TMC2    O1  492   2.138   0.274  15.968  0.1362 -0.3833  0.3250
   31TMC2    O2  493   1.601   0.465  16.007  0.6301  0.0575 -0.4966
   31TMC2    O5  494   1.580   0.626  15.848  0.1624 -0.2963 -0.0754
   31TMC2    H5  495   1.593   0.627  15.751  2.7110 -1.8933  0.2622
   32MPD2     C  496   2.237   0.423  15.161 -0.2117  0.8531  0.5398
   32MPD2    C1  497   2.105   0.475  15.169 -0.3825 -0.2915 -0.0104
   32MPD2    C2  498   2.026   0.442  15.276 -0.3142 -0.1425 -0.1807
   32MPD2    C3  499   2.073   0.361  15.378 -0.7904 -0.1320 -0.4564
   32MPD2    C4  500   2.202   0.315  15.368  0.1421 -0.2478  0.1987
   32MPD2    C5  501   2.285   0.352  15.269  0.6306  0.7416  0.0916
   32MPD2     H  502   1.924   0.481  15.273  0.1175  0.9938 -0.2577
   32MPD2    H1  503   2.250   0.252  15.443  1.5852  0.5991 -0.0241
   32MPD2    H2  504   2.299   0.446  15.076 -1.7512 -1.5285 -1.2280
   32MPD2    H3  505   2.393   0.342  15.280  0.7432  0.4587 -1.3492
   32MPD2     N  506   1.998   0.324  15.493 -0.2800 -0.2997  0.0322
   32MPD2    H5  507   2.032   0.253  15.556 -0.3834  0.5093  0.9986
   32MPD2    N1  508   2.065   0.547  15.053  0.1435 -0.9733  0.2393
   32MPD2    H7  509   2.130   0.537  14.976  0.4435 -1.3489  0.5370
   33TMC2    C1  510   1.538   4.057  11.029 -0.4945  0.0044 -0.3686
   33TMC2    C2  511   1.416   4.029  11.081  0.0483  0.5686  0.4960
   33TMC2    C3  512   1.306   4.081  11.005  0.1411 -0.1278  0.1743
   33TMC2    C4  513   1.555   4.108  10.902  0.1169  0.0479 -0.0235
   33TMC2    C5  514   1.448   4.164  10.841  1.0305  0.0944  0.0749
   33TMC2    C6  515   1.321   4.156  10.888  0.0894  0.2592 -0.7501
   33TMC2     C  516   1.630   3.949  11.034  0.4106 -0.0868 -0.4891
   33TMC2     O  517   1.622   3.862  10.949  0.1571 -0.3496  0.0772
   33TMC2     H  518   1.409   3.954  11.159  3.3196 -0.0821  0.1482
   33TMC2    H1  519   1.652   4.110  10.853 -0.1771  0.0830 -0.6044
   33TMC2    H2  520   1.237   4.143  10.820  0.4021  1.9040 -1.4452
   33TMC2    C7  521   1.463   4.232  10.718 -0.5485 -0.1181 -0.6693
   33TMC2    C8  522   1.184   4.017  11.022 -0.2989 -0.8457 -0.3282
   33TMC2    O1  523   1.545   4.192  10.635 -0.3878 -0.0367 -0.1941
   33TMC2    O2  524   1.185   3.898  11.056  0.3573 -0.6545 -0.3479
   33TMC2    O5  525   1.081   4.098  10.985  0.1974  0.2407  1.3751
   33TMC2    H5  526   1.116   4.188  10.969  0.9468 -1.0269 -4.0836
   34MPD2     C  527   2.010   3.678  11.281 -0.2143  0.0029 -0.4150
   34MPD2    C1  528   1.936   3.650  11.167 -0.2709  0.6624  0.2862
   34MPD2    C2  529   1.842   3.741  11.123 -0.3600 -0.3372  0.5089
   34MPD2    C3  530   1.819   3.864  11.185  0.3727 -0.2194  0.7400
   34MPD2    C4  531   1.901   3.891  11.298 -0.5259 -0.0800  1.0326
   34MPD2    C5  532   1.994   3.797  11.343  0.3145  0.4568  0.1075
   34MPD2     H  533   1.782   3.721  11.034 -0.0192 -0.0392  0.2171
   34MPD2    H1  534   1.888   3.976  11.364  1.4089  1.4564 -0.5731
   34MPD2    H2  535   2.083   3.607  11.318  0.3835  1.4879  1.2420
   34MPD2    H3  536   2.044   3.816  11.438  2.6522 -0.6742 -0.9079
   34MPD2     N  537   1.714   3.948  11.144  0.2608  0.1135  0.6290
   34MPD2    H5  538   1.708   4.030  11.203  2.6699 -0.3994  1.5726
   34MPD2    N1  539   1.940   3.523  11.113  0.3520  0.2083  0.2119
   34MPD2    H7  540   1.949   3.443  11.176 -1.3445  0.4752  0.8151
   35TMC2    C1  541   2.971   4.663  11.651 -0.9217  0.0146 -0.2053
   35TMC2    C2  542   2.868   0.008  11.622 -0.4899  0.5082 -0.2582
   35TMC2    C3  543   2.746   4.692  11.609 -0.2372  0.4402  0.9041
   35TMC2    C4  544   2.954   4.528  11.665 -0.0615 -0.0874  0.2809
   35TMC2    C5  545   2.823   4.481  11.643  0.5028 -0.0595  0.3726
   35TMC2    C6  546   2.718   4.566  11.626  0.1405 -0.2734 -0.3977
   35TMC2     C  547   3.092   4.725  11.675 -0.3720  0.3402  0.8553
   35TMC2     O  548   3.101   0.105  11.655 -0.5499  0.2251  0.6351
   35TMC2     H  549   2.895   0.110  11.597  0.1922  0.7892  1.5851
   35TMC2    H1  550   3.033   4.455  11.651  1.4041  2.4212 -4.5694
   35TMC2    H2  551   2.615   4.532  11.630 -0.2577  1.1383  1.1034
   35TMC2    C7  552   2.787   4.343  11.645 -0.4217  0.2450 -0.1481
   35TMC2    C8  553   2.642   0.039  11.577 -0.2702  1.5149 -0.6674
   35TMC2    O1  554   2.667   4.323  11.635 -0.5875 -0.1283 -0.1085
   35TMC2    O2  555   2.545   0.056  11.648  0.1143  0.2735  0.0414
   35TMC2    O5  556   2.687   0.109  11.473 -0.6195  0.0718  0.5540
   35TMC2    H5  557   2.762   0.068  11.426 -1.4134 -0.2495 -0.4199
   36MPD2     C  558   3.589   4.710  11.786 -0.3353  0.6455 -0.1821
   36MPD2    C1  559   3.526   4.590  11.814  0.0277 -0.2159 -0.1081
   36MPD2    C2  560   3.397   4.581  11.793  0.0397  0.2214  0.5713
   36MPD2    C3  561   3.322   4.680  11.747 -0.7677  0.1536  0.1641
   36MPD2    C4  562   3.380   0.061  11.716 -0.0816  0.0854  0.3426
   36MPD2    C5  563   3.515   0.076  11.735  0.0167 -0.8054 -0.0936
   36MPD2     H  564   3.344   4.490  11.818 -1.1488  1.2848  1.9403
   36MPD2    H1  565   3.326   0.144  11.672 -0.5715  0.3829  1.4906
   36MPD2    H2  566   3.694   4.732  11.796 -0.0854 -0.9165  0.5689
   36MPD2    H3  567   3.560   0.173  11.721 -0.1299 -1.1833 -3.0928
   36MPD2     N  568   3.190   4.642  11.712 -0.0403 -0.4735  0.4287
   36MPD2    H5  569   3.168   4.548  11.743  1.4586 -1.0576 -0.2816
   36MPD2    N1  570   3.612   4.486  11.866  0.5011 -0.0847  0.0141
   36MPD2    H7  571   3.711   4.508  11.875  0.3299  0.7318 -0.1003
   37TMC2    C1  572   1.015   0.018  11.917 -0.1509  0.4456 -0.1169
   37TMC2    C2  573   0.907   0.070  11.852 -0.0610 -0.1865 -0.2159
   37TMC2    C3  574   0.938   0.130  11.738 -0.0267 -0.5145  0.0831
   37TMC2    C4  575   1.139   0.020  11.871  0.1423  0.3183  0.5386
   37TMC2    C5  576   1.167   0.084  11.758  0.1456  1.0505  0.6618
   37TMC2    C6  577   1.066   0.145  11.691 -0.0580 -0.5358  0.7450
   37TMC2     C  578   0.978   4.658  12.022 -0.7086 -0.0984 -0.2814
   37TMC2     O  579   0.875   4.687  12.079 -0.1772 -0.1801 -0.6525
   37TMC2     H  580   0.805   0.066  11.889  0.7096 -2.0548  1.6744
   37TMC2    H1  581   1.214   4.735  11.946  0.9717  1.5015  0.0815
   37TMC2    H2  582   1.082   0.212  11.607  1.3257  1.0857  2.3024
   37TMC2    C7  583   1.298   0.066  11.708  0.2545  0.0563  0.4940
   37TMC2    C8  584   0.837   0.217  11.674 -0.0746  0.4082 -0.3577
   37TMC2    O1  585   1.365   4.709  11.755 -0.4635 -0.3598  0.2322
   37TMC2    O2  586   0.871   0.307  11.598  0.0218 -0.0753 -0.3703
   37TMC2    O5  587   0.716   0.160  11.679  0.2299  0.4269 -0.5160
   37TMC2    H5  588   0.723   0.071  11.720  2.5816  0.7195 -0.3090
   38MPD2     C  589   1.001   4.181  12.230 -0.3673  0.4716  0.1641
   38MPD2    C1  590   1.120   4.207  12.163  0.1532  0.1269  0.2223
   38MPD2    C2  591   1.139   4.332  12.100 -1.3046 -0.0463 -0.2757
   38MPD2    C3  592   1.035   4.428  12.107 -0.2490 -0.1200  0.5263
   38MPD2    C4  593   0.914   4.387  12.158  0.5470 -0.0760 -0.0455
   38MPD2    C5  594   0.899   4.266  12.227  0.0693 -0.5516  0.3912
   38MPD2     H  595   1.238   4.353  12.061 -1.2256 -2.2634 -1.2600
   38MPD2    H1  596   0.821   4.442  12.161 -0.0483 -1.0979  0.4088
   38MPD2    H2  597   0.986   4.092  12.289  0.0430 -0.3490 -0.9719
   38MPD2    H3  598   0.803   4.228  12.262  0.2038 -1.6276 -0.4099
   38MPD2     N  599   1.063   4.552  12.040  0.1488 -0.6151  0.0986
   38MPD2    H5  600   1.157   4.560  12.003  0.5114 -0.7506  0.9733
   38MPD2    N1  601   1.222   4.107  12.168 -0.8324  0.6018  1.1013
   38MPD2    H7  602   1.312   4.144  12.139 -0.6523 -1.2114 -0.6218
   39TMC2    C1  603   4.175   0.763   1.618  0.4647 -0.7938 -0.0685
   39TMC2    C2  604   4.224   0.638   1.654  0.1043  0.8714  0.6146
   39TMC2    C3  605   4.346   0.634   1.717 -0.1674  0.2247 -0.1474
   39TMC2    C4  606   4.249   0.877   1.641 -0.0354 -1.0119 -0.0166
   39TMC2    C5  607   4.372   0.866   1.701  0.3112  0.0580 -0.5439
   39TMC2    C6  608   4.421   0.738   1.736 -0.1720 -0.2229  0.3677
   39TMC2     C  609   4.059   0.771   1.528 -0.0865  0.4113 -0.5562
   39TMC2     O  610   4.080   0.858   1.443  0.5219  0.2495  0.2457
   39TMC2     H  611   4.164   0.548   1.643  3.3473 -1.0719 -1.3783
   39TMC2    H1  612   4.199   0.967   1.607 -3.4647 -2.2210  1.8850
   39TMC2    H2  613   4.506   0.737   1.803  0.2146 -0.5072 -0.1315
   39TMC2    C7  614   4.447   0.981   1.755 -0.0288  0.1767 -0.0463
   39TMC2    C8  615   4.405   0.510   1.753  0.2411 -0.2455 -0.1117
   39TMC2    O1  616   4.532   0.957   1.840  0.1212  0.2343 -0.3153
   39TMC2    O2  617   4.348   0.401   1.756 -0.1439  0.2156 -0.2767
   39TMC2    O5  618   4.538   0.519   1.726  0.3219  0.0681  0.3176
   39TMC2    H5  619   4.558   0.599   1.674 -2.9333  1.2261  0.8448
   40MPD2     C  620   3.726   0.604   1.540 -0.5768  0.0856 -0.5590
   40MPD2    C1  621   3.820   0.694   1.498  0.5080  0.1727  0.0732
   40MPD2    C2  622   3.805   0.758   1.376  0.5595  0.5228 -0.6202
   40MPD2    C3  623   3.677   0.755   1.317 -0.1936 -0.5338 -0.2545
   40MPD2    C4  624   3.580   0.666   1.365  0.3841  0.3146 -0.1567
   40MPD2    C5  625   3.604   0.593   1.479  0.0677 -0.0851  0.3259
   40MPD2     H  626   3.879   0.831   1.345  0.3006  0.7913 -0.6100
   40MPD2    H1  627   3.476   0.678   1.339 -0.0184  0.0007  1.3533
   40MPD2    H2  628   3.751   0.539   1.624 -0.3423  0.5563 -0.2675
   40MPD2    H3  629   3.526   0.530   1.521 -0.3845  0.4046  0.2296
   40MPD2     N  630   3.645   0.838   1.205  0.1253  0.3749 -0.2438
   40MPD2    H5  631   3.560   0.825   1.152 -0.5205 -0.1409  0.9049
   40MPD2    N1  632   3.947   0.689   1.559  0.7750 -0.5717  0.2428
   40MPD2    H7  633   3.956   0.642   1.649  1.8009 -3.4184 -1.3501
   41TMC2    C1  634   2.538   4.723  13.792 -0.5806  0.4657 -0.2144
   41TMC2    C2  635   2.555   0.048  13.910 -0.3069 -0.2452  0.8178
   41TMC2    C3  636   2.633   0.155  13.915 -0.4138  0.2467 -0.0104
   41TMC2    C4  637   2.571   0.041  13.670 -0.5064 -0.6541 -0.3085
   41TMC2    C5  638   2.635   0.160  13.677 -0.0569  0.3270 -0.0261
   41TMC2    C6  639   2.683   0.209  13.799 -0.7267 -0.6446 -0.0556
   41TMC2     C  640   2.495   4.581  13.795  0.3094 -0.5919  0.2451
   41TMC2     O  641   2.430   4.541  13.699 -0.1511  0.3435  0.0609
   41TMC2     H  642   2.536   0.005  14.008  3.1305 -0.9658  1.1948
   41TMC2    H1  643   2.540   4.731  13.578 -1.2373 -0.0800 -0.3661
   41TMC2    H2  644   2.753   0.291  13.800  1.9008 -2.9087  1.1129
   41TMC2    C7  645   2.662   0.236  13.554  0.0318  0.5005  0.1336
   41TMC2    C8  646   2.666   0.213  14.050  0.0266 -0.3349  0.6478
   41TMC2    O1  647   2.664   0.357  13.574 -0.4354 -0.2849  0.5315
   41TMC2    O2  648   2.575   0.234  14.134  0.1964  0.3163 -0.3612
   41TMC2    O5  649   2.797   0.217  14.068  0.0539 -0.0261  0.2377
   41TMC2    H5  650   2.856   0.190  13.994 -2.0173  0.0740 -1.4815
   42MPD2     C  651   2.442   4.291  13.876  0.5053  0.4804 -0.5704
   42MPD2    C1  652   2.520   4.385  13.943  0.0001  0.5945 -0.4427
   42MPD2    C2  653   2.584   4.343  14.064  0.2012  0.3028  0.4239
   42MPD2    C3  654   2.549   4.218  14.123  0.0330  0.3259 -0.4936
   42MPD2    C4  655   2.460   4.137  14.053 -0.1052 -0.4781  0.0832
   42MPD2    C5  656   2.403   4.172  13.935 -0.0606  0.4776  0.4151
   42MPD2     H  657   2.648   4.413  14.117  1.3742 -0.4129 -0.0467
   42MPD2    H1  658   2.415   4.047  14.092 -3.4214  0.8909 -0.5889
   42MPD2    H2  659   2.402   4.311  13.777 -1.7911  1.7342  0.6044
   42MPD2    H3  660   2.339   4.110  13.875  0.4081 -0.4217  0.8388
   42MPD2     N  661   2.592   4.179  14.253 -0.4212 -0.1491  0.0412
   42MPD2    H5  662   2.566   4.081  14.269 -0.1599 -0.1966  0.1673
   42MPD2    N1  663   2.547   4.513  13.904  0.0264 -0.2486 -0.1631
   42MPD2    H7  664   2.624   4.556  13.953 -0.5454  1.1343 -0.4812
   43TMC2    C1  665   4.315   2.299  17.687  0.1448  0.0515  0.1415
   43TMC2    C2  666   4.268   2.275  17.555  0.7076  0.4632  0.1914
   43TMC2    C3  667   4.185   2.370  17.499 -0.2732 -0.2836 -0.1139
   43TMC2    C4  668   4.288   2.413   0.007  0.4555 -0.3679 -0.5103
   43TMC2    C5  669   4.214   2.509  17.693  0.2724  0.1890 -0.3140
   43TMC2    C6  670   4.158   2.488  17.569 -1.0055  0.1711  0.1810
   43TMC2     C  671   4.374   2.187   0.010  0.2597 -0.8842  0.2629
   43TMC2     O  672   4.420   2.089  17.701 -0.2913 -0.4417 -0.8469
   43TMC2     H  673   4.285   2.177  17.510  0.6439 -0.2185  1.6510
   43TMC2    H1  674   4.338   2.434   0.101  1.1941 -2.7545 -0.3641
   43TMC2    H2  675   4.103   2.561  17.511 -0.8150  1.3261  1.4671
   43TMC2    C7  676   4.151   2.616   0.020  0.6220 -0.0419  0.5829
   43TMC2    C8  677   4.133   2.366  17.371  0.3013 -0.0633 -0.4275
   43TMC2    O1  678   4.056   2.676  17.721  0.1853  0.5387 -0.0576
   43TMC2    O2  679   4.055   2.456  17.333  0.4572 -0.3137  0.5100
   43TMC2    O5  680   4.215   2.283  17.297 -0.1315 -0.3276  0.6911
   43TMC2    H5  681   4.251   2.219  17.362  0.2442 -0.9541 -0.1347
   44MPD2     C  682   4.520   1.897   0.408  0.0735 -0.2112 -0.7434
   44MPD2    C1  683   4.572   1.920   0.283  0.0244  0.0303  0.1328
   44MPD2    C2  684   4.529   2.019   0.201 -0.1389  0.4641  0.5152
   44MPD2    C3  685   4.423   2.101   0.236 -0.3807 -0.8996 -0.4437
   44MPD2    C4  686   4.367   2.082   0.362  0.7540  0.2977  0.6208
   44MPD2    C5  687   4.419   1.978   0.448 -0.4083  0.1674 -0.6885
   44MPD2     H  688   4.576   2.023   0.103 -0.4998  1.6581  0.3942
   44MPD2    H1  689   4.275   2.127   0.398 -0.1555 -0.0669 -1.2520
   44MPD2    H2  690   4.556   1.825   0.481 -0.0537  0.8315  0.3419
   44MPD2    H3  691   4.381   1.967   0.549 -1.4065 -1.2677 -1.2216
   44MPD2     N  692   4.362   2.194   0.149 -0.1318  0.5358  0.2019
   44MPD2    H5  693   4.300   2.260   0.194 -1.3028 -0.2907 -0.2113
   44MPD2    N1  694   4.681   1.839   0.237  0.3011  0.1970  0.6588
   44MPD2    H7  695   4.731   1.862   0.152  1.1609 -0.2855  1.0339
   45TMC2    C1  696   0.365   0.116  10.061 -0.1985 -0.4789  0.4483
   45TMC2    C2  697   0.354   0.074   9.935  0.0136  0.2622 -0.4938
   45TMC2    C3  698   0.401   0.151   9.835  0.4635  0.3255 -0.0258
   45TMC2    C4  699   0.446   0.226  10.096  0.3651 -0.0615 -0.6624
   45TMC2    C5  700   0.480   0.308   9.997  0.2726  0.0390  0.1717
   45TMC2    C6  701   0.450   0.273   9.863 -0.5284  0.5495  0.6070
   45TMC2     C  702   0.329   0.020  10.166  0.2255 -0.0919 -0.2602
   45TMC2     O  703   0.356   0.055  10.281 -0.3804  0.4651  0.4249
   45TMC2     H  704   0.313   4.720   9.899  0.2577 -0.5701  1.3882
   45TMC2    H1  705   0.451   0.258  10.199  0.8540 -1.6452 -0.1892
   45TMC2    H2  706   0.491   0.332   9.782 -1.1157  0.0063 -0.0872
   45TMC2    C7  707   0.502   0.451  10.040  0.0584 -0.7238 -0.7649
   45TMC2    C8  708   0.413   0.098   9.705  0.0520  0.1774  0.5209
   45TMC2    O1  709   0.507   0.477  10.159 -0.3411  0.1029 -0.0611
   45TMC2    O2  710   0.440   4.720   9.683 -0.1484  0.4758 -0.0344
   45TMC2    O5  711   0.383   0.202   9.622 -0.1222 -0.2650  0.0168
   45TMC2    H5  712   0.343   0.280   9.666 -1.6087 -0.1754 -1.4716
   46MPD2     C  713   0.314   4.512  10.317  0.2024 -0.3057 -0.4241
   46MPD2    C1  714   0.248   4.527  10.200  0.4103  0.6631 -1.0093
   46MPD2    C2  715   0.182   4.417  10.149  0.4146  0.4055 -0.0658
   46MPD2    C3  716   0.169   4.300  10.227  0.2076  0.3314 -0.2890
   46MPD2    C4  717   0.238   4.288  10.346  0.3471 -1.0019  0.0851
   46MPD2    C5  718   0.318   4.397  10.382  0.3753  0.4162 -0.0355
   46MPD2     H  719   0.143   4.410  10.048  0.9240  3.0077 -0.4301
   46MPD2    H1  720   0.244   4.201  10.410  2.2028 -0.2339  0.9608
   46MPD2    H2  721   0.393   4.580  10.347 -2.8173  2.2354  1.7965
   46MPD2    H3  722   0.383   4.374  10.465  1.2790  2.8324 -0.0715
   46MPD2     N  723   0.073   4.197  10.198  0.4534 -0.1747  0.1389
   46MPD2    H5  724   0.007   4.217  10.124 -0.1674 -1.5609  0.3291
   46MPD2    N1  725   0.257   4.648  10.123  0.0892 -0.5220 -0.2100
   46MPD2    H7  726   0.218   4.650  10.030 -1.9413 -1.1811  0.6239
   47TMC2    C1  727   1.844   0.495   9.643 -0.1844  0.1946 -0.3209
   47TMC2    C2  728   1.799   0.467   9.515  0.4679  0.7372 -0.0296
   47TMC2    C3  729   1.698   0.389   9.509 -0.6797 -0.5312 -0.2005
   47TMC2    C4  730   1.788   0.450   9.756 -0.6881 -0.1885 -0.4977
   47TMC2    C5  731   1.678   0.377   9.738  0.2599 -0.8264  0.1540
   47TMC2    C6  732   1.626   0.342   9.613 -0.3492  0.8731  0.2366
   47TMC2     C  733   1.963   0.571   9.651  0.3005  0.1229 -0.4622
   47TMC2     O  734   1.985   0.655   9.569  0.3884 -0.0189  0.4273
   47TMC2     H  735   1.851   0.514   9.432  2.0438 -0.5792  0.2086
   47TMC2    H1  736   1.826   0.453   9.857  0.5992 -2.3805 -0.9133
   47TMC2    H2  737   1.526   0.304   9.593 -0.2459  0.8895 -0.3140
   47TMC2    C7  738   1.620   0.314   9.851 -0.2029  0.1450 -0.0025
   47TMC2    C8  739   1.641   0.353   9.385  0.5219 -0.0849 -0.2109
   47TMC2    O1  740   1.700   0.282   9.938  0.1283 -0.1397 -0.2385
   47TMC2    O2  741   1.562   0.262   9.363 -0.4145 -0.5894  0.7717
   47TMC2    O5  742   1.666   0.456   9.298 -0.0914  0.1258  0.2991
   47TMC2    H5  743   1.673   0.542   9.345 -0.8916 -0.0830  0.7905
   48MPD2     C  744   2.203   0.725   9.756 -0.0011 -0.4083 -0.4487
   48MPD2    C1  745   2.160   0.604   9.804 -0.1143  0.3477 -0.2418
   48MPD2    C2  746   2.224   0.556   9.916  0.4288  0.1935  0.0342
   48MPD2    C3  747   2.331   0.622   9.979  0.1437 -0.0429  0.3942
   48MPD2    C4  748   2.370   0.745   9.932 -0.4719  0.3577 -0.5435
   48MPD2    C5  749   2.304   0.793   9.820 -0.0018  0.2041 -0.1794
   48MPD2     H  750   2.193   0.462   9.961 -3.0663  1.1504 -0.4034
   48MPD2    H1  751   2.454   0.801   9.970  0.0304  0.0051 -1.1390
   48MPD2    H2  752   2.150   0.775   9.675 -0.6237 -1.1279 -0.4921
   48MPD2    H3  753   2.331   0.888   9.777  1.2766 -0.8148 -1.6110
   48MPD2     N  754   2.381   0.564  10.092  0.1766 -1.0547  0.2791
   48MPD2    H5  755   2.347   0.469  10.105 -0.4738 -0.7237  0.9799
   48MPD2    N1  756   2.045   0.536   9.763  0.3571 -0.1924 -0.4440
   48MPD2    H7  757   2.033   0.449   9.814  1.1317 -0.1966 -0.2726
   49TMC2    C1  758   1.269   2.742  10.069 -0.7237 -0.1969  0.2758
   49TMC2    C2  759   1.383   2.755   9.992  0.5182 -0.0915  0.4223
   49TMC2    C3  760   1.400   2.664   9.888 -0.5401 -0.4830 -0.2330
   49TMC2    C4  761   1.190   2.633  10.056 -0.2342 -0.4781  0.7136
   49TMC2    C5  762   1.228   2.539   9.968 -0.2043  0.0351 -0.3986
   49TMC2    C6  763   1.329   2.548   9.882 -1.1478  0.2728 -0.3946
   49TMC2     C  764   1.239   2.854  10.153 -0.1828  0.8303 -1.3167
   49TMC2     O  765   1.276   2.966  10.127  0.2124 -0.9343  0.4360
   49TMC2     H  766   1.454   2.836  10.009 -0.2708  0.4084  1.3133
   49TMC2    H1  767   1.096   2.625  10.110 -0.4242  1.7775  0.7224
   49TMC2    H2  768   1.344   2.479   9.800 -0.6307 -0.3421  0.2246
   49TMC2    C7  769   1.190   2.401   9.988  0.0021 -0.2804 -0.0336
   49TMC2    C8  770   1.512   2.689   9.796  0.1227 -0.3226  1.1671
   49TMC2    O1  771   1.202   2.321   9.893 -0.3024 -0.2934 -0.2151
   49TMC2    O2  772   1.569   2.797   9.785  0.2906  0.0532 -0.0374
   49TMC2    O5  773   1.545   2.573   9.728 -0.6089  0.3358 -0.2604
   49TMC2    H5  774   1.511   2.496   9.778 -0.3090  0.9884  0.9437
   50MPD2     C  775   1.106   3.045  10.363  0.5790 -0.7457  0.8185
   50MPD2    C1  776   1.087   2.905  10.350 -0.4350  0.4032  0.8414
   50MPD2    C2  777   1.011   2.852  10.453 -0.2593  0.3292 -0.3125
   50MPD2    C3  778   0.947   2.927  10.556  0.4179  0.6450  0.2155
   50MPD2    C4  779   0.965   3.060  10.559 -0.2071  0.0056 -0.4684
   50MPD2    C5  780   1.042   3.121  10.462  0.2635  0.1448 -0.1830
   50MPD2     H  781   0.987   2.746  10.444  1.0804 -0.0339  0.4447
   50MPD2    H1  782   0.919   3.116  10.638  1.6141 -1.9838  2.0106
   50MPD2    H2  783   1.156   3.096  10.282 -2.0718 -0.8629 -0.8721
   50MPD2    H3  784   1.061   3.227  10.472  0.5153  0.1186 -0.3596
   50MPD2     N  785   0.849   2.883  10.651  0.1000  0.1051 -1.1171
   50MPD2    H5  786   0.806   2.949  10.715  0.2251 -0.8513 -0.0358
   50MPD2    N1  787   1.145   2.822  10.249 -0.3733 -0.4124  0.7294
   50MPD2    H7  788   1.106   2.729  10.260 -1.3035 -0.1272 -0.1980
   51TMC2    C1  789   1.058   0.685   1.545 -0.6420 -0.0319 -0.3021
   51TMC2    C2  790   0.937   0.737   1.586 -0.7805 -0.5575  0.1673
   51TMC2    C3  791   0.928   0.871   1.590  0.3737 -0.2342 -0.3752
   51TMC2    C4  792   1.161   0.761   1.495 -0.6638  0.1378 -0.4167
   51TMC2    C5  793   1.147   0.894   1.512  0.0011 -0.0738 -0.1383
   51TMC2    C6  794   1.035   0.950   1.568 -0.0469 -0.4691  0.3985
   51TMC2     C  795   1.076   0.541   1.528 -0.1036  0.2391 -0.4103
   51TMC2     O  796   1.189   0.509   1.491 -0.2026  0.3140  0.2791
   51TMC2     H  797   0.849   0.676   1.598 -1.0125 -0.3455 -0.4105
   51TMC2    H1  798   1.252   0.715   1.457 -1.2644 -0.9483 -0.5405
   51TMC2    H2  799   1.037   1.054   1.600  0.1638  0.1237 -1.5486
   51TMC2    C7  800   1.266   0.983   1.511 -0.1073  0.1649 -1.2044
   51TMC2    C8  801   0.823   0.939   1.670 -0.0799 -0.6111  0.6044
   51TMC2    O1  802   1.247   1.103   1.526  0.3586 -0.4573 -0.1996
   51TMC2    O2  803   0.821   1.061   1.681 -0.2086  0.1116 -0.1365
   51TMC2    O5  804   0.783   0.848   1.760  0.1301 -0.0372 -0.4373
   51TMC2    H5  805   0.834   0.764   1.757 -0.7204 -0.6547  2.0031
   52MPD2     C  806   0.957   0.048   1.535  0.1939  0.5728 -0.1701
   52MPD2    C1  807   1.067   0.115   1.479 -0.0102  0.3046  0.1406
   52MPD2    C2  808   1.070   0.252   1.475 -0.1726  0.2802  0.7336
   52MPD2    C3  809   0.970   0.329   1.542  0.4430  0.6019  0.2336
   52MPD2    C4  810   0.858   0.259   1.587  0.2059  1.2135 -0.1275
   52MPD2    C5  811   0.851   0.122   1.572 -0.0067  0.2856  0.2337
   52MPD2     H  812   1.150   0.294   1.416  0.7068 -2.1384  0.2291
   52MPD2    H1  813   0.768   0.306   1.625  0.2189  0.6009  0.6566
   52MPD2    H2  814   0.949   4.679   1.518  0.9062  0.5614 -0.4356
   52MPD2    H3  815   0.756   0.072   1.592 -0.8624  2.3773  1.4130
   52MPD2     N  816   0.966   0.466   1.551 -0.5942  0.2787  0.4055
   52MPD2    H5  817   0.879   0.512   1.576 -0.2213  0.2595  1.7103
   52MPD2    N1  818   1.173   0.051   1.398 -0.2365 -0.1285 -0.4540
   52MPD2    H7  819   1.240   0.106   1.345 -1.9064  2.0755 -0.2969
   53TMC2    C1  820   1.965   4.610  11.560  0.1422 -0.6868 -0.0726
   53TMC2    C2  821   2.095   4.590  11.520  0.0257 -0.0980  0.4536
   53TMC2    C3  822   2.172   4.509  11.602  0.5601 -0.4216 -1.0813
   53TMC2    C4  823   1.916   4.563  11.677  0.0202  0.3726  0.6824
   53TMC2    C5  824   1.999   4.498  11.763 -0.7399 -0.2569  0.1499
   53TMC2    C6  825   2.128   4.463  11.724  0.1592 -0.2025  0.3201
   53TMC2     C  826   1.887   4.710  11.486 -0.0766 -0.4775 -0.2337
   53TMC2     O  827   1.956   0.040  11.419 -0.0354  0.1744 -0.5751
   53TMC2     H  828   2.139   4.625  11.428 -0.5022 -0.7714 -0.0541
   53TMC2    H1  829   1.816   4.574  11.717  0.4875  1.3223  1.5682
   53TMC2    H2  830   2.178   4.387  11.783  0.2575 -1.0328 -0.8267
   53TMC2    C7  831   1.940   4.475  11.896  0.5942 -0.1497 -0.0335
   53TMC2    C8  832   2.304   4.469  11.563  0.4675 -0.7051  0.0750
   53TMC2    O1  833   1.820   4.503  11.918 -0.2870  0.2188  0.0692
   53TMC2    O2  834   2.349   4.493  11.451 -0.2564 -0.1596  0.2583
   53TMC2    O5  835   2.373   4.461  11.678  0.3819  0.1558  0.5126
   53TMC2    H5  836   2.329   4.503  11.754 -0.2088 -0.0102  0.2585
   54MPD2     C  837   1.732   0.226  11.497  0.2168  0.5274 -0.0367
   54MPD2    C1  838   1.685   0.110  11.534 -0.4894 -0.0230  0.3783
   54MPD2    C2  839   1.564   0.103  11.595  0.2032 -0.0392 -0.4053
   54MPD2    C3  840   1.470   0.203  11.597  0.1800 -0.5156 -0.2327
   54MPD2    C4  841   1.512   0.331  11.557  0.0947 -0.5038 -0.2561
   54MPD2    C5  842   1.642   0.334  11.505 -0.4943 -0.3554 -0.5188
   54MPD2     H  843   1.532   0.002  11.617 -3.6811  1.0984 -0.8501
   54MPD2    H1  844   1.450   0.420  11.556 -0.6036 -1.0047 -1.2580
   54MPD2    H2  845   1.828   0.251  11.454  1.0819  2.2425  2.8453
   54MPD2    H3  846   1.684   0.429  11.473 -0.4368 -0.5516 -1.0308
   54MPD2     N  847   1.336   0.177  11.640 -0.3142 -0.4251 -0.6204
   54MPD2    H5  848   1.276   0.258  11.647 -1.7447 -1.4718 -0.6749
   54MPD2    N1  849   1.766   4.733  11.544 -0.2560 -0.3157 -0.4900
   54MPD2    H7  850   1.725   4.661  11.603  0.3738 -0.6687 -0.4837
   55TMC2    C1  851   2.644   1.996  17.121  0.3718  0.0730  0.2937
   55TMC2    C2  852   2.633   1.943  16.998  0.2245  0.1700  0.1055
   55TMC2    C3  853   2.619   1.807  16.980 -0.0215  0.6441  0.5198
   55TMC2    C4  854   2.650   1.919  17.237  1.1529 -0.1965  0.3573
   55TMC2    C5  855   2.649   1.780  17.216  0.6434  0.3296 -0.1240
   55TMC2    C6  856   2.628   1.732  17.090  0.2234 -0.2255 -0.0621
   55TMC2     C  857   2.606   2.132  17.141 -0.7131 -0.7713  0.9947
   55TMC2     O  858   2.573   2.163  17.253 -0.4487 -0.3180 -0.3923
   55TMC2     H  859   2.633   1.996  16.903 -1.7807  1.6681  0.9349
   55TMC2    H1  860   2.669   1.974  17.328  0.3502 -0.4796  0.6966
   55TMC2    H2  861   2.581   1.634  17.083 -0.4716  0.0577  0.5269
   55TMC2    C7  862   2.647   1.699  17.330 -0.2958  0.0335  0.2456
   55TMC2    C8  863   2.644   1.751  16.845 -0.4518 -0.2629  0.1154
   55TMC2    O1  864   2.643   1.577  17.306 -0.8779 -0.1621  0.0384
   55TMC2    O2  865   2.620   1.818  16.749 -0.1203  0.1556 -0.3890
   55TMC2    O5  866   2.749   1.663  16.857 -0.4379 -0.2979 -0.6792
   55TMC2    H5  867   2.775   1.641  16.949 -0.2057 -1.4189 -1.0028
   56MPD2     C  868   2.606   2.404  16.891 -0.2192  0.6383  0.2291
   56MPD2    C1  869   2.599   2.347  17.014  0.4371 -0.0004 -0.8388
   56MPD2    C2  870   2.577   2.424  17.127 -0.7226 -0.2165 -0.2785
   56MPD2    C3  871   2.546   2.559  17.114 -0.2451  0.2132  0.2118
   56MPD2    C4  872   2.545   2.617  16.987  0.1809 -0.2873 -0.4497
   56MPD2    C5  873   2.583   2.539  16.884 -0.8975 -0.0366  0.6948
   56MPD2     H  874   2.589   2.383  17.226 -1.6507  1.3814  0.5051
   56MPD2    H1  875   2.534   2.722  16.963  0.5745 -0.1659 -0.0979
   56MPD2    H2  876   2.632   2.351  16.800  0.9483  1.6375 -0.0193
   56MPD2    H3  877   2.589   2.589  16.788  1.9699 -0.3400  0.7187
   56MPD2     N  878   2.516   2.633  17.229  0.5888  0.1385 -0.4115
   56MPD2    H5  879   2.529   2.575  17.311 -1.4363 -1.4538 -1.2070
   56MPD2    N1  880   2.618   2.206  17.030 -0.1071  0.4589  0.6523
   56MPD2    H7  881   2.636   2.159  16.941 -0.4896  0.2010  0.7116
   57TMC2    C1  882   1.708   3.168  13.973  0.4877 -0.2856  0.3474
   57TMC2    C2  883   1.733   3.048  14.038 -0.5742  0.5121 -0.3675
   57TMC2    C3  884   1.868   3.012  14.041  0.5733 -0.1704 -0.2736
   57TMC2    C4  885   1.808   3.251  13.932 -0.0471  0.1931  0.0723
   57TMC2    C5  886   1.933   3.203  13.921 -0.1754 -0.3494 -0.6042
   57TMC2    C6  887   1.965   3.077  13.974 -0.3926 -0.1885  0.1894
   57TMC2     C  888   1.578   3.221  14.011  0.1965 -0.8487  0.3152
   57TMC2     O  889   1.572   3.338  14.039 -0.2317  0.5025  0.0817
   57TMC2     H  890   1.657   2.989  14.089  0.1815 -0.8779 -0.8507
   57TMC2    H1  891   1.788   3.353  13.903  0.8247 -0.2218 -1.9719
   57TMC2    H2  892   2.065   3.039  13.996  0.1945  0.9404 -0.5066
   57TMC2    C7  893   2.023   3.276  13.836 -0.3215  0.2791 -0.9936
   57TMC2    C8  894   1.900   2.881  14.097 -0.2845  0.0548 -0.5275
   57TMC2    O1  895   1.998   3.396  13.819 -0.1986 -0.1381 -0.2136
   57TMC2    O2  896   1.832   2.831  14.182  0.0098 -0.3168 -0.2575
   57TMC2    O5  897   1.997   2.817  14.027 -0.0355  0.2908 -0.6232
   57TMC2    H5  898   2.021   2.868  13.947 -0.2301 -0.1301 -0.9472
   58MPD2     C  899   1.084   3.133  14.097 -0.0874 -0.0168  0.1579
   58MPD2    C1  900   1.145   3.258  14.096  0.4579  0.5231 -0.0780
   58MPD2    C2  901   1.277   3.257  14.059  0.0974  0.1019 -0.1577
   58MPD2    C3  902   1.342   3.135  14.047 -0.2191  0.7131 -0.1724
   58MPD2    C4  903   1.273   3.017  14.041 -0.2093  0.1176 -0.1462
   58MPD2    C5  904   1.143   3.013  14.072  0.2817 -0.0920  0.0811
   58MPD2     H  905   1.341   3.344  14.052 -4.6870  3.6068  0.0421
   58MPD2    H1  906   1.318   2.920  14.021 -0.3446 -0.2801  1.5019
   58MPD2    H2  907   0.976   3.124  14.105 -0.2004  1.8102  0.6628
   58MPD2    H3  908   1.086   2.922  14.086 -0.3519  0.4170  0.8182
   58MPD2     N  909   1.474   3.125  14.010  0.3406 -0.0664  0.0395
   58MPD2    H5  910   1.510   3.033  13.989 -0.4327 -0.9159  2.4067
   58MPD2    N1  911   1.079   3.374  14.132 -0.0225 -0.1421  0.5201
   58MPD2    H7  912   1.127   3.463  14.123 -0.2228 -0.0231  0.6338
   59TMC2    C1  913   3.811   3.493  12.782  0.3485 -0.3971 -0.1729
   59TMC2    C2  914   3.835   3.361  12.827 -0.5373  0.5138  0.2459
   59TMC2    C3  915   3.798   3.259  12.748  0.3604 -0.8504 -0.4497
   59TMC2    C4  916   3.753   3.524  12.662 -0.5801 -0.2775 -0.6520
   59TMC2    C5  917   3.709   3.418  12.588 -0.3798  0.1588  0.0268
   59TMC2    C6  918   3.735   3.289  12.630 -0.4503  0.3989  0.1925
   59TMC2     C  919   3.835   3.606  12.871 -1.0074  0.2931 -0.3249
   59TMC2     O  920   3.745   3.687  12.876  0.0500  0.0834 -0.7341
   59TMC2     H  921   3.845   3.346  12.934 -1.3301  0.4732  0.3151
   59TMC2    H1  922   3.741   3.631  12.643  1.9933  0.5251  2.3130
   59TMC2    H2  923   3.707   3.204  12.569  0.3681  0.0458  0.3001
   59TMC2    C7  924   3.681   3.425  12.441  0.5757 -0.0688 -0.4588
   59TMC2    C8  925   3.844   3.123  12.771  0.0533 -0.5324 -0.0855
   59TMC2    O1  926   3.706   3.320  12.378  0.3270  0.2484 -0.3736
   59TMC2    O2  927   3.804   3.026  12.712  0.3213  0.4832 -0.1303
   59TMC2    O5  928   3.965   3.142  12.830  0.1236  0.2723  0.3247
   59TMC2    H5  929   3.986   3.238  12.829 -1.7253  0.6531 -2.3065
   60MPD2     C  930   3.943   3.797  13.056 -0.6544  0.5001  0.3620
   60MPD2    C1  931   4.002   3.675  13.039 -0.5449 -0.5245 -0.0558
   60MPD2    C2  932   4.124   3.637  13.098  0.1804  0.4347  0.0092
   60MPD2    C3  933   4.184   3.708  13.198 -0.2398 -0.1157  0.1837
   60MPD2    C4  934   4.126   3.833  13.222  0.1508 -0.2544 -0.9361
   60MPD2    C5  935   4.011   3.873  13.156  0.7797  0.4953  0.5648
   60MPD2     H  936   4.176   3.547  13.066 -0.7001 -0.8355  2.0950
   60MPD2    H1  937   4.165   3.899  13.299  0.2339  1.0840 -2.1368
   60MPD2    H2  938   3.855   3.830  13.001 -0.6470 -0.1105 -0.0095
   60MPD2    H3  939   3.959   3.967  13.169  2.0422  1.3192 -0.3419
   60MPD2     N  940   4.308   3.676  13.255 -0.3349  0.0467  0.0885
   60MPD2    H5  941   4.355   3.752  13.304 -0.0262  0.0120 -0.1560
   60MPD2    N1  942   3.948   3.586  12.946 -0.4740 -0.4394  0.4239
   60MPD2    H7  943   3.998   3.500  12.930 -0.2677 -0.5396  1.5955
   61TMC2    C1  944   3.144   0.065  15.821  0.4807  0.0859  1.2923
   61TMC2    C2  945   3.194   0.088  15.944 -0.1389 -0.6693 -0.1313
   61TMC2    C3  946   3.223   0.212  15.981 -0.2570  0.3686 -0.2958
   61TMC2    C4  947   3.121   0.167  15.734  1.0958  0.9738 -0.0973
   61TMC2    C5  948   3.148   0.292  15.776  0.1134 -0.7029 -0.0130
   61TMC2    C6  949   3.210   0.322  15.897  0.0102 -0.3830 -0.0715
   61TMC2     C  950   3.157   4.669  15.773  0.3528  0.0102 -0.3214
   61TMC2     O  951   3.162   4.577  15.850  0.1452  0.0953  0.6904
   61TMC2     H  952   3.213   4.738  16.003  1.3233 -0.7399 -0.6941
   61TMC2    H1  953   3.087   0.149  15.633  0.8148  0.2364  0.1313
   61TMC2    H2  954   3.239   0.420  15.932 -0.9832 -0.3847  0.7561
   61TMC2    C7  955   3.139   0.400  15.685  0.3864 -0.0731  0.3448
   61TMC2    C8  956   3.286   0.208  16.110 -0.1546 -0.8801 -0.5758
   61TMC2    O1  957   3.195   0.501  15.715  0.6141  0.3088  0.9805
   61TMC2    O2  958   3.241   0.141  16.206  0.2454  0.4432  0.1864
   61TMC2    O5  959   3.346   0.325  16.129 -0.3350 -0.1365 -0.2829
   61TMC2    H5  960   3.403   0.355  16.055  0.5214  1.8993  1.2109
   62MPD2     C  961   3.231   4.430  15.601  0.1933  0.5511  1.0746
   62MPD2    C1  962   3.248   4.562  15.568  0.4488 -0.3397  0.7798
   62MPD2    C2  963   3.302   4.593  15.444 -0.0961  0.1263  0.4533
   62MPD2    C3  964   3.352   4.495  15.359 -0.2875 -0.2564  0.4600
   62MPD2    C4  965   3.331   4.367  15.401  0.2931 -0.2363 -0.3453
   62MPD2    C5  966   3.273   4.332  15.518  0.3530  0.2893 -1.1019
   62MPD2     H  967   3.304   4.698  15.419  4.1930  0.0675  0.6120
   62MPD2    H1  968   3.361   4.278  15.347  1.7073 -0.4232  0.7373
   62MPD2    H2  969   3.187   4.403  15.697 -0.9157 -0.2452  0.3509
   62MPD2    H3  970   3.258   4.228  15.547 -3.8280  0.9168 -1.0071
   62MPD2     N  971   3.414   4.516  15.231  0.0747 -0.2121  0.4253
   62MPD2    H5  972   3.427   4.438  15.168 -1.7103 -2.2172  2.5305
   62MPD2    N1  973   3.203   4.669  15.643 -0.3639  0.0513 -0.7060
   62MPD2    H7  974   3.208   0.021  15.597 -2.1736  1.2149  1.3966
   63TMC2    C1  975   2.383   0.998  10.683 -0.4839 -0.1057  0.4708
   63TMC2    C2  976   2.505   1.049  10.715  0.8976 -0.0030  0.3191
   63TMC2    C3  977   2.538   1.169  10.659  0.0650  0.3865 -0.4029
   63TMC2    C4  978   2.293   1.058  10.592 -1.3566 -0.4139 -0.6393
   63TMC2    C5  979   2.342   1.172  10.546  0.1706  0.4478 -0.0902
   63TMC2    C6  980   2.459   1.236  10.576 -0.6902  0.3725  0.9076
   63TMC2     C  981   2.343   0.877  10.750 -0.1996 -0.4436 -0.4709
   63TMC2     O  982   2.433   0.814  10.806 -0.2283  0.2490  0.3447
   63TMC2     H  983   2.575   0.988  10.771  0.8688  0.6621  1.0844
   63TMC2    H1  984   2.200   1.019  10.552 -0.8660 -1.0326 -1.1828
   63TMC2    H2  985   2.494   1.332  10.540 -1.0117 -0.3013 -1.2263
   63TMC2    C7  986   2.253   1.255  10.458 -0.0833  0.0775 -0.2565
   63TMC2    C8  987   2.677   1.213  10.648  0.7425  0.3906 -0.2648
   63TMC2    O1  988   2.137   1.217  10.448  0.0875 -0.0280 -0.3192
   63TMC2    O2  989   2.721   1.288  10.562  0.6548  0.0289 -0.1417
   63TMC2    O5  990   2.749   1.181  10.756 -0.6018 -0.1106 -0.1357
   63TMC2    H5  991   2.688   1.166  10.831 -0.3063 -0.9642 -0.0576
   64MPD2     C  992   2.000   0.520  10.877  0.2020 -0.3735 -0.0394
   64MPD2    C1  993   2.139   0.521  10.883 -0.1007  0.5427  0.2606
   64MPD2    C2  994   2.206   0.628  10.839 -0.6258 -0.9854 -0.0269
   64MPD2    C3  995   2.140   0.743  10.795 -0.1337 -0.0612  0.4895
   64MPD2    C4  996   2.004   0.746  10.794  0.1031 -0.1536 -0.4526
   64MPD2    C5  997   1.932   0.631  10.835  0.2623  0.3013  0.3061
   64MPD2     H  998   2.314   0.622  10.848 -0.6024  0.2932  0.4654
   64MPD2    H1  999   1.952   0.835  10.760  0.8663 -0.1627 -1.6262
   64MPD2    H2 1000   1.930   0.443  10.910  0.9458 -0.0621  2.2612
   64MPD2    H3 1001   1.825   0.624  10.842  0.4712 -1.8503  1.2961
   64MPD2     N 1002   2.209   0.858  10.742  0.3488 -0.3521  0.7590
   64MPD2    H5 1003   2.152   0.934  10.706 -0.8356 -0.7540  1.7852
   64MPD2    N1 1004   2.220   0.407  10.924 -0.0663 -0.8437  0.1451
   64MPD2    H7 1005   2.319   0.419  10.945  0.4569 -0.7307 -2.3592
   65TMC2    C1 1006   4.601   4.431  15.783 -0.0701 -0.4556 -0.9753
   65TMC2    C2 1007   4.720   4.499  15.761  0.4132  0.2739  0.8107
   65TMC2    C3 1008   4.717   4.635  15.739 -0.6322  0.1594 -0.0618
   65TMC2    C4 1009   4.484   4.499  15.770 -0.0862 -0.0502 -0.0429
   65TMC2    C5 1010   4.484   4.630  15.733 -0.0193 -0.3363 -0.3574
   65TMC2    C6 1011   4.594   4.700  15.725 -0.2606 -0.0530  0.1147
   65TMC2     C 1012   4.600   4.293  15.832 -0.1936 -0.3810  0.1553
   65TMC2     O 1013   4.688   4.253  15.905 -0.7294  0.3474 -0.0552
   65TMC2     H 1014   0.072   4.441  15.772 -0.2281 -0.5554  1.6592
   65TMC2    H1 1015   4.389   4.447  15.776 -0.8674  1.3152 -0.6418
   65TMC2    H2 1016   4.589   0.068  15.704  0.5849 -0.4343 -2.0035
   65TMC2    C7 1017   4.363   4.706  15.738 -0.9565  0.0595 -0.6622
   65TMC2    C8 1018   0.103   4.703  15.727  0.1417  0.0828  0.2000
   65TMC2    O1 1019   4.355   0.076  15.679  0.0452 -0.1713 -0.1691
   65TMC2    O2 1020   0.189   4.692  15.814 -0.3983  0.3515  0.3427
   65TMC2    O5 1021   0.078   0.084  15.670  0.3835  0.8482 -0.0605
   65TMC2    H5 1022   0.039   0.063  15.582  0.6740 -0.8291  0.2043
   66MPD2     C 1023   4.528   4.005  15.887  0.3483 -1.0531  0.4581
   66MPD2    C1 1024   4.459   4.087  15.806 -0.1509 -0.5771  0.1859
   66MPD2    C2 1025   4.342   4.045  15.748 -0.1128 -0.0303  0.0382
   66MPD2    C3 1026   4.299   3.914  15.759 -0.1428  0.0662 -0.1223
   66MPD2    C4 1027   4.377   3.840  15.843 -0.5368 -0.0799 -0.4142
   66MPD2    C5 1028   4.483   3.882  15.908 -0.1023  0.3960 -0.0602
   66MPD2     H 1029   4.295   4.122  15.687  2.6036  1.8626  0.3618
   66MPD2    H1 1030   4.344   3.742  15.875  0.5138 -0.3388 -0.1284
   66MPD2    H2 1031   4.633   4.028  15.906  0.6374 -1.1172 -0.9907
   66MPD2    H3 1032   4.539   3.813  15.970  1.1119 -1.7235 -3.4680
   66MPD2     N 1033   4.184   3.854  15.709 -0.8541  0.3388 -0.1621
   66MPD2    H5 1034   4.159   3.757  15.723 -1.2972  0.7901  2.1471
   66MPD2    N1 1035   4.498   4.220  15.775 -0.5186 -0.9943 -0.8526
   66MPD2    H7 1036   4.452   4.269  15.699 -1.0884  0.1413  0.2299
   67TMC2    C1 1037   4.061   3.808  14.157  0.4172 -0.6101  0.2046
   67TMC2    C2 1038   4.051   3.942  14.163  0.2941  0.1086 -0.9617
   67TMC2    C3 1039   4.125   4.004  14.260 -0.5233 -0.3989  0.1049
   67TMC2    C4 1040   4.133   3.737  14.253  0.0010  0.0024  0.3187
   67TMC2    C5 1041   4.214   3.801  14.340  0.2586 -0.5361  0.2285
   67TMC2    C6 1042   4.203   3.939  14.349 -0.3074  0.3605 -0.3868
   67TMC2     C 1043   3.980   3.727  14.075 -0.1235  0.0746 -0.2017
   67TMC2     O 1044   4.024   3.624  14.020 -0.4636  0.4942  0.3299
   67TMC2     H 1045   3.983   4.000  14.102  0.4882  0.9293 -0.3965
   67TMC2    H1 1046   4.132   3.629  14.249 -1.9291 -0.0702  3.0984
   67TMC2    H2 1047   4.279   3.988  14.409  1.0291 -1.1388 -0.8467
   67TMC2    C7 1048   4.324   3.718  14.396 -0.4291 -0.0227 -0.5754
   67TMC2    C8 1049   4.139   4.145  14.244 -0.0886 -0.1251 -0.0806
   67TMC2    O1 1050   4.330   3.603  14.354  0.3573 -0.0803  0.2461
   67TMC2    O2 1051   4.112   4.202  14.138  0.5540 -0.5353  0.0721
   67TMC2    O5 1052   4.197   4.204  14.352  0.1541 -0.5319  0.1760
   67TMC2    H5 1053   4.201   4.146  14.431  1.2113 -0.0235  0.5095
   68MPD2     C 1054   3.791   3.675  13.844  0.3747  0.2849  0.2894
   68MPD2    C1 1055   3.760   3.749  13.959  0.3199  0.3928  0.2723
   68MPD2    C2 1056   3.639   3.810  13.966  0.2133 -0.1451  0.1991
   68MPD2    C3 1057   3.553   3.802  13.858  0.1754  0.1338  0.7419
   68MPD2    C4 1058   3.589   3.743  13.737  0.2631  0.4853  0.3825
   68MPD2    C5 1059   3.702   3.669  13.735 -1.0016  0.0867  0.5946
   68MPD2     H 1060   3.607   3.868  14.051 -0.6051  2.0147 -1.5801
   68MPD2    H1 1061   3.519   3.735  13.655  1.1804  0.7805 -0.4230
   68MPD2    H2 1062   3.886   3.623  13.837  0.3790  0.4792 -1.0152
   68MPD2    H3 1063   3.731   3.611  13.648 -1.9062 -0.8714  0.9252
   68MPD2     N 1064   3.421   3.858  13.862  0.4936  0.6482  0.0151
   68MPD2    H5 1065   3.375   3.885  13.776  1.0134  1.6593  0.0515
   68MPD2    N1 1066   3.853   3.780  14.067  1.1397 -0.7592  0.1936
   68MPD2    H7 1067   3.824   3.842  14.142 -0.8898 -2.6005  0.9129
   69TMC2    C1 1068   1.670   0.226  12.375  0.4281  0.1970  0.6828
   69TMC2    C2 1069   1.559   0.301  12.387 -0.1353 -0.1623 -0.1021
   69TMC2    C3 1070   1.567   0.437  12.352  0.3509  0.1774  0.0752
   69TMC2    C4 1071   1.790   0.280  12.342 -0.4857 -0.7442 -0.2190
   69TMC2    C5 1072   1.798   0.416  12.322  0.5885 -0.0537  0.2397
   69TMC2    C6 1073   1.687   0.498  12.323  0.1954 -0.4103 -0.6094
   69TMC2     C 1074   1.661   0.089  12.424  1.2177  0.0446  0.5035
   69TMC2     O 1075   1.578   0.074  12.513 -0.3503  0.4421 -0.4413
   69TMC2     H 1076   1.461   0.255  12.394  0.1170 -0.6900 -0.0622
   69TMC2    H1 1077   1.877   0.216  12.355  0.4884  0.2906 -1.7739
   69TMC2    H2 1078   1.696   0.606  12.323  0.4851 -0.4345 -1.0060
   69TMC2    C7 1079   1.934   0.457  12.295  0.3470  0.1396  0.9250
   69TMC2    C8 1080   1.452   0.518  12.374  0.5760  0.6356 -0.4030
   69TMC2    O1 1081   2.013   0.372  12.265  0.5567 -0.3944  0.3273
   69TMC2    O2 1082   1.403   0.500  12.488  0.2333 -0.2382  0.1794
   69TMC2    O5 1083   1.460   0.626  12.297  0.2649 -0.2715 -0.2387
   69TMC2    H5 1084   1.504   0.603  12.213 -0.4564  1.0761 -0.9900
   70MPD2     C 1085   1.945   4.605  12.434 -0.0621 -0.2474 -0.3578
   70MPD2    C1 1086   1.821   4.650  12.461 -0.1088  0.0129 -0.6956
   70MPD2    C2 1087   1.752   4.586  12.568  0.5941  0.6903  0.5328
   70MPD2    C3 1088   1.820   4.508  12.649 -0.4964  0.2508 -0.5886
   70MPD2    C4 1089   1.954   4.470  12.624 -0.9469 -0.5058 -0.0024
   70MPD2    C5 1090   2.013   4.516  12.511  0.0463  0.5000  0.3000
   70MPD2     H 1091   1.647   4.611  12.573  0.7392  1.2294  0.9334
   70MPD2    H1 1092   2.023   4.421  12.692 -1.6516 -1.3127  0.1383
   70MPD2    H2 1093   1.981   4.642  12.339 -1.0982 -1.2001 -1.1328
   70MPD2    H3 1094   2.111   4.478  12.482 -1.0001 -1.2078 -1.0090
   70MPD2     N 1095   1.758   4.458  12.763 -0.3219  0.1940  0.2494
   70MPD2    H5 1096   1.812   4.428  12.844  2.7821  5.3871  0.0917
   70MPD2    N1 1097   1.767   0.015  12.385 -0.1457 -0.7222  0.4596
   70MPD2    H7 1098   1.816   0.055  12.305 -0.3479  0.5281  0.9621
   71TMC2    C1 1099   3.219   0.391   1.255 -0.2057  0.5525  0.4028
   71TMC2    C2 1100   3.326   0.391   1.336  0.7357  0.6553  0.1014
   71TMC2    C3 1101   3.306   0.336   1.457 -0.1755 -0.2910 -0.5706
   71TMC2    C4 1102   3.093   0.369   1.297  0.1169 -0.3595 -0.3859
   71TMC2    C5 1103   3.076   0.319   1.428  0.2432 -1.1634 -0.0107
   71TMC2    C6 1104   3.182   0.300   1.508  0.3468 -0.0650 -0.1467
   71TMC2     C 1105   3.244   0.423   1.116 -0.5501 -0.2930 -0.3372
   71TMC2     O 1106   3.344   0.492   1.094 -0.4793 -0.3366 -0.4604
   71TMC2     H 1107   3.426   0.406   1.297  0.6126 -1.3708 -1.0080
   71TMC2    H1 1108   3.005   0.391   1.238  0.5738  0.8969 -0.5915
   71TMC2    H2 1109   3.176   0.254   1.606 -1.9817 -0.2779 -0.4022
   71TMC2    C7 1110   2.949   0.319   1.501  0.9602  0.4976  0.5094
   71TMC2    C8 1111   3.426   0.270   1.503  0.1416  0.2825  0.0342
   71TMC2    O1 1112   2.948   0.334   1.624  0.4051 -0.5311 -0.2695
   71TMC2    O2 1113   3.506   0.213   1.429  0.0107 -0.2456 -0.4023
   71TMC2    O5 1114   3.414   0.250   1.639  0.0761 -0.3953  0.3360
   71TMC2    H5 1115   3.363   0.319   1.686  0.0368 -0.4554  0.3823
   72MPD2     C 1116   3.141   0.387   0.616 -0.1643 -0.1713 -0.5330
   72MPD2    C1 1117   3.230   0.469   0.686 -0.7705  0.0884  0.1297
   72MPD2    C2 1118   3.236   0.466   0.823 -0.1019  0.7242 -0.5099
   72MPD2    C3 1119   3.150   0.389   0.891  0.2763 -0.1054 -0.5454
   72MPD2    C4 1120   3.063   0.307   0.827  0.9359  0.0889 -0.0098
   72MPD2    C5 1121   3.059   0.309   0.684 -0.4972 -0.1615 -0.4907
   72MPD2     H 1122   3.301   0.542   0.865  0.8774 -0.0699 -0.5997
   72MPD2    H1 1123   2.989   0.250   0.882  1.9460 -1.8199 -0.6235
   72MPD2    H2 1124   3.122   0.396   0.509  0.1678  2.4335 -0.3839
   72MPD2    H3 1125   2.986   0.246   0.635 -1.2722  0.9525 -0.7709
   72MPD2     N 1126   3.149   0.374   1.030  0.4657 -0.5695  0.2387
   72MPD2    H5 1127   3.075   0.321   1.077  0.4168  0.1992  1.0327
   72MPD2    N1 1128   3.314   0.572   0.626  0.7591 -0.3617 -0.6731
   72MPD2    H7 1129   3.375   0.629   0.684  0.1827  2.4660 -2.8573
   73TMC2    C1 1130   3.237   2.917  14.125  0.0737 -0.1164  0.3759
   73TMC2    C2 1131   3.156   2.936  14.238 -0.2189  0.3435 -0.5432
   73TMC2    C3 1132   3.132   2.830  14.317  0.3419  0.0135 -0.4441
   73TMC2    C4 1133   3.281   2.796  14.091 -0.8159 -0.0499 -0.2308
   73TMC2    C5 1134   3.265   2.689  14.182  0.7751  1.0670  0.5051
   73TMC2    C6 1135   3.182   2.708  14.291 -0.7997 -0.1290  0.2299
   73TMC2     C 1136   3.324   3.027  14.083 -0.0506  0.4803 -1.9252
   73TMC2     O 1137   3.429   2.994  14.029 -0.1556 -0.2534 -0.5015
   73TMC2     H 1138   3.115   3.033  14.264 -1.5879  0.0512 -1.6505
   73TMC2    H1 1139   3.335   2.785  13.997 -0.2396 -2.2818  0.3663
   73TMC2    H2 1140   3.152   2.623  14.351 -2.2126  0.7869  0.8372
   73TMC2    C7 1141   3.391   2.625  14.209  0.1167 -0.2033  0.3927
   73TMC2    C8 1142   3.041   2.854  14.429  0.0175  0.2042 -0.1313
   73TMC2    O1 1143   3.405   2.528  14.288  0.0376 -0.4212  0.2153
   73TMC2    O2 1144   3.080   2.936  14.514 -0.2727 -0.1223 -0.1166
   73TMC2    O5 1145   2.973   2.745  14.459 -0.3171 -0.1507 -0.1662
   73TMC2    H5 1146   2.950   2.698  14.377  1.2096 -0.3072 -0.4996
   74MPD2     C 1147   3.504   3.504  14.062  0.2208 -0.4853 -0.2682
   74MPD2    C1 1148   3.561   3.388  14.096 -0.3559 -0.9138 -0.4009
   74MPD2    C2 1149   3.487   3.272  14.118 -0.4747 -0.6491  0.0229
   74MPD2    C3 1150   3.353   3.273  14.100 -0.6743  0.1605 -0.4350
   74MPD2    C4 1151   3.287   3.394  14.082  0.5929 -0.0258 -0.2745
   74MPD2    C5 1152   3.369   3.497  14.044 -0.6202  0.0347  0.6060
   74MPD2     H 1153   3.531   3.176  14.142 -2.0749 -1.5994 -0.8586
   74MPD2    H1 1154   3.181   3.407  14.064  0.8594  1.6455 -0.6919
   74MPD2    H2 1155   3.549   3.598  14.032 -1.1935  0.0036 -0.8567
   74MPD2    H3 1156   3.326   3.593  14.017  1.4549  0.5785 -0.7353
   74MPD2     N 1157   3.272   3.152  14.107  0.2650 -0.9054 -0.5442
   74MPD2    H5 1158   3.172   3.166  14.112  0.2541 -2.0826  2.3419
   74MPD2    N1 1159   3.704   3.383  14.085 -0.3261 -0.0874  0.1281
   74MPD2    H7 1160   3.741   3.467  14.042 -1.7254  1.3092  1.6000
   75TMC2    C1 1161   3.244   3.982  13.962 -1.0403  0.2647  0.5651
   75TMC2    C2 1162   3.251   4.095  14.038 -0.6435 -0.3902 -0.2524
   75TMC2    C3 1163   3.186   4.204  13.985 -0.3207  0.2185  0.5896
   75TMC2    C4 1164   3.204   3.986  13.835  0.2949  0.4386 -0.0721
   75TMC2    C5 1165   3.166   4.101  13.781 -0.9180 -0.1470 -0.2442
   75TMC2    C6 1166   3.151   4.217  13.856  0.0581  0.5394 -0.3181
   75TMC2     C 1167   3.360   3.900  13.980  0.7189 -0.1546 -0.2879
   75TMC2     O 1168   3.391   3.878  14.098 -0.1905  0.1534  0.2972
   75TMC2     H 1169   3.316   4.107  14.124 -1.5307  0.7930  0.2456
   75TMC2    H1 1170   3.195   3.892  13.780  2.5994  0.9353 -1.3001
   75TMC2    H2 1171   3.086   4.295  13.817  0.3346  0.8054 -0.2470
   75TMC2    C7 1172   3.090   4.094  13.655  0.0526  0.5749  0.5305
   75TMC2    C8 1173   3.249   4.323  14.028 -1.1074 -0.1267 -0.2310
   75TMC2    O1 1174   3.036   3.988  13.631 -0.1365 -0.1156  0.2440
   75TMC2    O2 1175   3.349   4.361  13.970  0.0234 -0.1727 -0.4822
   75TMC2    O5 1176   3.219   4.320  14.156  0.0571  0.2663 -0.3154
   75TMC2    H5 1177   3.131   4.283  14.179  0.0809 -0.1396 -0.8661
   76TMC2    C1 1178   2.716   4.189  12.100  0.4223  0.7861 -0.4195
   76TMC2    C2 1179   2.610   4.156  12.186  0.0087 -0.5406 -0.5136
   76TMC2    C3 1180   2.632   4.047  12.263 -0.8674 -0.4852 -0.2851
   76TMC2    C4 1181   2.833   4.119  12.107  0.0965 -0.8157  0.1564
   76TMC2    C5 1182   2.846   4.015  12.199  0.2457 -0.4437  0.0617
   76TMC2    C6 1183   2.743   3.983  12.277  0.6158  0.8835  0.2062
   76TMC2     C 1184   2.705   4.327  12.051  0.3691 -1.4442  0.0356
   76TMC2     O 1185   2.592   4.382  12.047 -0.3896  0.3523 -1.1384
   76TMC2     H 1186   2.523   4.216  12.210  1.4358  2.1128 -1.9744
   76TMC2    H1 1187   2.921   4.147  12.050  0.5462 -0.0661  1.2171
   76TMC2    H2 1188   2.754   3.911  12.358  0.1630  1.1446  0.4957
   76TMC2    C7 1189   2.981   4.005  12.246  0.7534 -0.2320  0.2481
   76TMC2    C8 1190   2.529   3.998  12.356 -0.3256 -0.2810  0.0956
   76TMC2    O1 1191   3.058   3.941  12.179 -0.2825  0.0313 -0.2263
   76TMC2    O2 1192   2.557   3.950  12.463 -0.0239  0.1066  0.4137
   76TMC2    O5 1193   2.409   4.010  12.292  0.1051  0.3999  0.1075
   76TMC2    H5 1194   2.427   4.043  12.202  0.7285  0.5731  0.2938
   77MPD2     C 1195   2.958   0.031  11.984  0.0029  0.1502  0.7256
   77MPD2    C1 1196   2.817   0.002  11.969  0.4047  0.0453  0.7583
   77MPD2    C2 1197   2.773   4.606  11.984  0.3769 -0.3527 -0.5669
   77MPD2    C3 1198   2.865   4.506  11.995 -0.5812  0.1577  0.2137
   77MPD2    C4 1199   3.000   4.540  12.000 -0.1015 -0.2254  0.4898
   77MPD2    C5 1200   3.046   4.661  12.007 -0.0929 -0.1040  0.1586
   77MPD2     H 1201   2.668   4.582  11.976  0.6198 -1.3817 -0.5924
   77MPD2    H1 1202   3.063   4.464  12.044  1.7454  0.8541 -0.2838
   77MPD2    H2 1203   2.995   0.132  11.985 -0.6657  0.4001 -0.9907
   77MPD2    H3 1204   3.151   4.671  12.033 -0.2305  2.2485 -0.1356
   77MPD2     N 1205   2.829   4.369  12.020  0.3048  0.2358 -0.7996
   77MPD2    H5 1206   2.900   4.297  12.033 -0.5808 -0.6871 -1.1315
   77MPD2    N1 1207   2.720   0.105  11.962 -0.0627  0.0378  0.3714
   77MPD2    H7 1208   2.627   0.076  11.988 -0.2257 -0.5963 -0.9383
   78TMC2    C1 1209   3.490   0.204   1.035 -0.2419 -0.0356  0.3414
   78TMC2    C2 1210   3.489   0.280   0.923  0.1092  0.4890 -0.0116
   78TMC2    C3 1211   3.586   0.371   0.906 -1.0686  0.1131  0.3102
   78TMC2    C4 1212   3.595   0.212   1.128 -0.3131  0.0040  0.0521
   78TMC2    C5 1213   3.690   0.301   1.103 -0.7128 -0.0710 -0.0260
   78TMC2    C6 1214   3.692   0.387   0.997 -0.1102 -0.6321 -0.3713
   78TMC2     C 1215   3.378   0.121   1.059 -0.0492 -0.0764  0.1079
   78TMC2     O 1216   3.306   0.091   0.963  0.0340 -0.3546 -0.2459
   78TMC2     H 1217   3.405   0.274   0.855 -0.4456 -0.5847  0.7608
   78TMC2    H1 1218   3.600   0.155   1.220  1.9297 -1.5149 -1.0169
   78TMC2    H2 1219   3.773   0.453   0.970 -0.1847  0.1151  1.2564
   78TMC2    C7 1220   3.803   0.307   1.193  0.0900  0.2099 -0.7970
   78TMC2    C8 1221   3.570   0.464   0.796  0.0967  0.0278  0.1973
   78TMC2    O1 1222   3.894   0.368   1.147 -0.1352 -0.0287 -0.0406
   78TMC2    O2 1223   3.632   0.569   0.788  0.2589 -0.0029  0.4660
   78TMC2    O5 1224   3.563   0.379   0.689 -0.1592 -0.1375 -0.0846
   78TMC2    H5 1225   3.528   0.292   0.717  0.0982  0.2739  1.5255
   79MPD1     C 1226   3.033   4.632   1.370 -0.5789 -0.2589 -0.3385
   79MPD1    C1 1227   3.027   4.671   1.235  0.6031 -0.2364 -0.9743
   79MPD1    C2 1228   3.131   0.000   1.171  0.0058  0.1203  0.8565
   79MPD1    C3 1229   3.253   0.018   1.247  0.1643  0.1623  0.3430
   79MPD1    C4 1230   3.262   4.702   1.378  0.0079  0.8032  0.2137
   79MPD1    C5 1231   3.157   4.638   1.430  0.3921 -0.3348 -0.1291
   79MPD1     H 1232   3.118   0.042   1.072  0.3542  0.9918  1.1708
   79MPD1    H1 1233   3.352   4.701   1.438 -0.5993  0.3738  1.1059
   79MPD1    H2 1234   2.958   4.582   1.430 -0.4938 -1.4684 -1.2327
   79MPD1    H3 1235   3.164   4.602   1.532  2.6016 -2.6467 -1.1074
   79MPD1     N 1236   3.368   0.082   1.193  0.2041  0.3386  0.3276
   79MPD1    H5 1237   3.447   0.102   1.253 -0.7739  1.6705  1.1790
   79MPD1    N1 1238   2.900   4.657   1.177  0.0613 -0.0990  0.2011
   79MPD1    H6 1239   2.905   4.675   1.077 -0.6865  3.9991  0.9156
   79MPD1    H7 1240   2.856   4.565   1.172 -2.0882  0.9843 -1.1973
   80TMC2    C1 1241   0.952   2.951  12.337 -0.5543  0.3246  0.4230
   80TMC2    C2 1242   0.861   2.981  12.239 -0.6801  0.7121 -0.0301
   80TMC2    C3 1243   0.728   2.975  12.269 -0.6660  0.1095  0.4361
   80TMC2    C4 1244   0.911   2.923  12.466  0.9142 -0.4721 -0.0454
   80TMC2    C5 1245   0.774   2.924  12.493  0.5810 -0.6167 -0.2197
   80TMC2    C6 1246   0.683   2.949  12.398  0.0433  0.0932 -0.2680
   80TMC2     C 1247   1.090   2.955  12.298  0.3870  0.2815  1.0857
   80TMC2     O 1248   1.162   2.868  12.352  0.3226 -0.0994  0.5184
   80TMC2     H 1249   0.892   2.993  12.136 -0.8032  1.2454 -0.0051
   80TMC2    H1 1250   0.988   2.901  12.539 -1.0416 -1.4839  1.7355
   80TMC2    H2 1251   0.575   2.947  12.416  0.1333 -0.3744  0.2565
   80TMC2    C7 1252   0.727   2.946  12.623  0.2354 -0.6707 -0.1028
   80TMC2    C8 1253   0.632   2.988  12.163 -0.4823  0.6399  0.0179
   80TMC2    O1 1254   0.607   2.938  12.642 -0.4609 -0.1339 -0.2462
   80TMC2    O2 1255   0.646   2.927  12.056 -0.1776 -0.8441  0.2304
   80TMC2    O5 1256   0.571   3.105  12.181 -0.3770 -0.1122  0.0192
   80TMC2    H5 1257   0.582   3.148  12.269 -2.1006  2.7882 -1.1628
   81MPD2     C 1258   1.364   3.043  12.193  0.9665 -0.0696  0.1346
   81MPD2    C1 1259   1.249   3.117  12.189  0.1366 -0.8414 -0.1970
   81MPD2    C2 1260   1.258   3.249  12.162  0.1259  0.4653 -0.1124
   81MPD2    C3 1261   1.384   3.307  12.147  0.1586  0.1512  0.0854
   81MPD2    C4 1262   1.500   3.230  12.155  0.5978  0.6898  0.4019
   81MPD2    C5 1263   1.487   3.100  12.182  0.5792 -0.1317 -0.0096
   81MPD2     H 1264   1.172   3.316  12.163 -0.3164 -0.0989 -0.5887
   81MPD2    H1 1265   1.602   3.262  12.139  1.2815 -2.1120 -0.9479
   81MPD2    H2 1266   1.358   2.936  12.209  0.4912 -0.0592  0.0466
   81MPD2    H3 1267   1.575   3.040  12.203  1.7005  0.6854 -2.4495
   81MPD2     N 1268   1.408   3.442  12.127 -0.4319 -0.5020  0.3645
   81MPD2    H5 1269   1.504   3.472  12.117  0.6530 -3.1503  2.7561
   81MPD2    N1 1270   1.121   3.065  12.222 -0.1403  0.4458 -0.3940
   81MPD2    H7 1271   1.050   3.133  12.193 -1.6051  0.3235  2.8815
   82TMC2    C1 1272   3.400   4.022  11.003  1.2550 -0.1042 -0.1009
   82TMC2    C2 1273   3.445   4.135  11.059  0.0527  0.9953 -0.1783
   82TMC2    C3 1274   3.470   4.122  11.191 -0.3626  0.5374  0.3664
   82TMC2    C4 1275   3.390   3.901  11.066  0.0921  0.6351 -0.4711
   82TMC2    C5 1276   3.432   3.890  11.196 -0.0647  0.2555  0.6568
   82TMC2    C6 1277   3.469   4.001  11.261  0.0292 -0.3688 -0.0652
   82TMC2     C 1278   3.402   4.027  10.857  0.6463  0.0159 -0.0475
   82TMC2     O 1279   3.460   4.120  10.802  0.0422 -0.3483  0.2199
   82TMC2     H 1280   3.439   4.226  11.000 -0.0085  1.2650  0.2441
   82TMC2    H1 1281   3.351   3.815  11.014  1.0226  0.5990 -1.1024
   82TMC2    H2 1282   3.484   4.000  11.369  0.2133  0.7534 -0.0855
   82TMC2    C7 1283   3.481   3.767  11.249 -0.5866  0.7640 -0.1787
   82TMC2    C8 1284   3.555   4.219  11.258  0.0457 -0.8729 -0.2246
   82TMC2    O1 1285   3.556   3.774  11.343 -0.0734  0.4513 -0.0150
   82TMC2    O2 1286   3.648   4.187  11.331 -0.5337 -0.3841 -0.3063
   82TMC2    O5 1287   3.525   4.341  11.201  0.7183 -0.4753 -0.6729
   82TMC2    H5 1288   3.438   4.348  11.158  0.3719  0.6441  0.2191
   83MPD2     C 1289   3.281   3.816  10.408  0.2306 -0.2349  0.4395
   83MPD2    C1 1290   3.358   3.923  10.431  0.3847  1.1308  0.9016
   83MPD2    C2 1291   3.386   3.958  10.567  0.2255 -0.2648 -0.2804
   83MPD2    C3 1292   3.327   3.883  10.667 -0.7036 -0.3463 -0.1629
   83MPD2    C4 1293   3.271   3.761  10.631 -0.9310  1.2779 -0.9229
   83MPD2    C5 1294   3.248   3.723  10.506  0.2367 -0.0587 -0.7475
   83MPD2     H 1295   3.438   4.051  10.587 -1.1935  1.0602 -2.7849
   83MPD2    H1 1296   3.247   3.702  10.718  2.3633 -0.5468 -1.2289
   83MPD2    H2 1297   3.254   3.784  10.308 -1.6322  1.7357  0.3093
   83MPD2    H3 1298   3.197   3.631  10.480  0.6883 -0.3988 -0.4261
   83MPD2     N 1299   3.344   3.913  10.801 -0.0264 -0.2215 -0.0786
   83MPD2    H5 1300   3.304   3.843  10.862 -2.2011  0.6574 -0.4773
   83MPD2    N1 1301   3.395   4.003  10.321  0.2982  0.5416  0.5126
   83MPD2    H7 1302   3.349   3.984  10.233 -1.1526  0.3788  1.2927
   84TMC2    C1 1303   0.504   2.811  10.864  0.8117  0.4806  0.3545
   84TMC2    C2 1304   0.497   2.692  10.932 -0.7332  0.7423  0.0635
   84TMC2    C3 1305   0.598   2.602  10.914 -0.1788 -0.1816 -0.0656
   84TMC2    C4 1306   0.611   2.833  10.773 -0.4560 -0.3715 -1.0163
   84TMC2    C5 1307   0.710   2.733  10.761  0.3744  0.1268 -0.4167
   84TMC2    C6 1308   0.701   2.612  10.823 -0.5371 -0.3810 -0.5611
   84TMC2     C 1309   0.420   2.914  10.918  0.4949 -0.3822  0.4117
   84TMC2     O 1310   0.335   2.877  11.000 -0.0041  0.4575 -0.4103
   84TMC2     H 1311   0.420   2.674  11.006  0.5518  0.8495  1.4354
   84TMC2    H1 1312   0.611   2.920  10.709 -2.4254  1.9520  2.1124
   84TMC2    H2 1313   0.761   2.523  10.809  0.7452  0.3648  0.2357
   84TMC2    C7 1314   0.817   2.755  10.674 -0.1927 -0.5431  0.3451
   84TMC2    C8 1315   0.591   2.489  11.010  0.5419 -0.0236 -0.3165
   84TMC2    O1 1316   0.882   2.661  10.630  0.3095  0.2970  0.6269
   84TMC2    O2 1317   0.501   2.465  11.086 -0.1518 -0.3042 -0.1144
   84TMC2    O5 1318   0.714   2.440  11.022  0.4117  0.5984 -0.0667
   84TMC2    H5 1319   0.785   2.494  10.983  0.3536  0.0969 -0.8713
   85TMC2    C1 1320   1.763   0.840  16.183  0.1479 -0.3344  0.8551
   85TMC2    C2 1321   1.662   0.813  16.101 -0.3076 -0.0257 -0.1236
   85TMC2    C3 1322   1.638   0.897  15.997  0.3294 -0.4566 -0.4526
   85TMC2    C4 1323   1.851   0.940  16.156  0.1930 -0.3113 -0.4854
   85TMC2    C5 1324   1.828   1.026  16.056  0.1784  0.7643  0.1200
   85TMC2    C6 1325   1.712   1.010  15.984  0.2863  0.3693 -0.2818
   85TMC2     C 1326   1.814   0.739  16.275 -0.2925  0.0019  0.0089
   85TMC2     O 1327   1.921   0.758  16.329 -0.3565  1.0538 -0.0459
   85TMC2     H 1328   1.591   0.731  16.109 -0.0526 -0.1973  0.3595
   85TMC2    H1 1329   1.938   0.948  16.221 -0.8195 -1.7444  1.0785
   85TMC2    H2 1330   1.671   1.090  15.922 -2.0411 -1.1474 -0.7168
   85TMC2    C7 1331   1.921   1.134  16.040 -0.1790  0.6196 -0.1459
   85TMC2    C8 1332   1.501   0.917  15.962  0.8794  1.0242  0.5166
   85TMC2    O1 1333   2.039   1.100  16.058  0.3084 -0.0897 -0.2886
   85TMC2    O2 1334   1.425   0.945  16.054 -0.0005  0.3704 -0.2858
   85TMC2    O5 1335   1.495   0.971  15.838  0.1396  0.2066  0.2479
   85TMC2    H5 1336   1.570   0.942  15.782 -0.0030  0.8848 -0.2993
   86MPD2     C 1337   1.775   0.271  16.512 -0.6738  1.1172 -0.2356
   86MPD2    C1 1338   1.649   0.306  16.462 -0.4602  0.1574  0.0126
   86MPD2    C2 1339   1.640   0.427  16.391 -0.0590 -0.3012  0.2450
   86MPD2    C3 1340   1.751   0.515  16.371 -0.9122 -0.1107 -0.3478
   86MPD2    C4 1341   1.874   0.470  16.420 -1.0557  0.2137 -0.0186
   86MPD2    C5 1342   1.888   0.351  16.496 -0.6400 -0.0703  0.2117
   86MPD2     H 1343   1.545   0.452  16.346 -1.1611 -0.8222  2.2978
   86MPD2    H1 1344   1.958   0.532  16.391 -0.1630 -1.5379 -1.1174
   86MPD2    H2 1345   1.787   0.175  16.559  1.9534  0.1787 -2.8005
   86MPD2    H3 1346   1.984   0.322  16.538 -0.2931  2.0268  0.8857
   86MPD2     N 1347   1.725   0.638  16.299 -0.5051 -0.1358 -0.1982
   86MPD2    H5 1348   1.629   0.655  16.270 -0.2458 -0.2459 -1.1144
   86MPD2    N1 1349   1.534   0.227  16.477 -0.0471 -0.2354 -0.1837
   86MPD2    H7 1350   1.455   0.248  16.418 -0.1749  1.4818  0.6233
   87TMC2    C1 1351   3.839   3.418   0.924 -0.4967 -0.2308  0.5189
   87TMC2    C2 1352   3.933   3.490   0.992  0.2484 -0.3859 -0.2451
   87TMC2    C3 1353   3.908   3.535   1.123  0.3648  0.4190  0.4057
   87TMC2    C4 1354   3.713   3.401   0.982 -0.3482  0.4245 -0.0217
   87TMC2    C5 1355   3.691   3.448   1.110  0.2852 -0.1712 -0.1959
   87TMC2    C6 1356   3.787   3.511   1.181  1.3958 -0.1312  0.4028
   87TMC2     C 1357   3.848   3.380   0.785  0.1455 -0.7106  0.5576
   87TMC2     O 1358   3.741   3.358   0.719 -0.2553 -0.0440  0.8594
   87TMC2     H 1359   4.027   3.518   0.945 -1.2567  0.4009 -2.7892
   87TMC2    H1 1360   3.635   3.343   0.934  0.5962 -1.2277  0.4659
   87TMC2    H2 1361   3.763   3.558   1.276 -1.5606 -1.4398  0.3178
   87TMC2    C7 1362   3.555   3.433   1.152  0.3407 -0.5556  0.4184
   87TMC2    C8 1363   4.000   3.636   1.178  0.0174 -0.1203  0.1634
   87TMC2    O1 1364   3.498   3.336   1.108 -0.1628 -0.1840 -0.1036
   87TMC2    O2 1365   4.092   3.682   1.114 -0.2836 -0.0629  0.1582
   87TMC2    O5 1366   3.981   3.653   1.308  0.0101  0.6767 -0.7883
   87TMC2    H5 1367   3.917   3.593   1.352  1.7475 -0.8496 -0.3274
   88MPD2     C 1368   3.282   3.481   1.293 -1.0056 -0.0148 -0.1665
   88MPD2    C1 1369   3.372   3.578   1.255 -0.2085  0.1036  0.9996
   88MPD2    C2 1370   3.337   3.712   1.273 -0.1516  0.4605 -0.1792
   88MPD2    C3 1371   3.220   3.746   1.332  0.0068 -0.6022  0.2902
   88MPD2    C4 1372   3.130   3.651   1.367 -0.0473 -1.1329  0.6602
   88MPD2    C5 1373   3.160   3.518   1.346  1.1203 -0.2070 -0.1035
   88MPD2     H 1374   3.413   3.782   1.241 -1.0866  1.0784 -1.0614
   88MPD2    H1 1375   3.033   3.674   1.411 -0.8187 -0.4061 -1.4367
   88MPD2    H2 1376   3.314   3.377   1.291  0.7665  0.5593 -2.1661
   88MPD2    H3 1377   3.090   3.440   1.372 -1.7066  2.3245 -0.0371
   88MPD2     N 1378   3.180   3.871   1.355  0.0968  0.2874  0.1171
   88MPD2    H5 1379   3.087   3.875   1.396  0.7261 -0.1359  1.6009
   88MPD2    N1 1380   3.508   3.548   1.213  0.0083 -0.2895 -0.4153
   88MPD2    H7 1381   3.571   3.627   1.207 -1.7019  1.0242 -0.8813
   89TMC2    C1 1382   4.360   1.811   1.567  0.5776  0.1031  0.0472
   89TMC2    C2 1383   4.368   1.946   1.613  0.7422 -0.1818 -0.0187
   89TMC2    C3 1384   4.407   2.035   1.519 -0.0759  0.2160 -0.3460
   89TMC2    C4 1385   4.381   1.778   1.434 -0.1556  0.3976  0.0872
   89TMC2    C5 1386   4.431   1.877   1.356 -0.4733  0.0973  0.0747
   89TMC2    C6 1387   4.438   2.005   1.394  0.6027 -0.1560  0.8051
   89TMC2     C 1388   4.421   1.717   1.663 -0.3866  0.6719  0.0286
   89TMC2     O 1389   4.471   1.766   1.763 -0.3974  0.6794 -0.4781
   89TMC2     H 1390   4.367   1.963   1.720 -1.2997  0.9781 -0.2296
   89TMC2    H1 1391   4.407   1.677   1.403 -0.3901 -0.2868  2.1440
   89TMC2    H2 1392   4.444   2.087   1.323 -1.9875  0.0269  0.7900
   89TMC2    C7 1393   4.456   1.841   1.217 -0.2623  0.1304  0.7422
   89TMC2    C8 1394   4.413   2.170   1.558  0.0538 -0.3785  0.0933
   89TMC2    O1 1395   4.392   1.749   1.167  0.1295  0.3706  1.0106
   89TMC2    O2 1396   4.332   2.226   1.627  0.1088  0.4059  0.3026
   89TMC2    O5 1397   4.531   2.206   1.510  0.1990 -0.0602 -0.1590
   89TMC2    H5 1398   4.571   2.132   1.459  0.0399 -0.3413  0.1208
   90MPD2     C 1399   4.579   1.257   1.817 -0.0952  0.4855 -0.4989
   90MPD2    C1 1400   4.477   1.229   1.723  0.5638  0.6879  0.1267
   90MPD2    C2 1401   4.426   1.342   1.656  0.2719  0.5339 -0.4112
   90MPD2    C3 1402   4.456   1.472   1.693 -0.3226 -0.2605  0.5851
   90MPD2    C4 1403   4.561   1.495   1.786  0.2993  0.7891  0.1762
   90MPD2    C5 1404   4.625   1.381   1.836  0.2452  0.1423 -0.5993
   90MPD2     H 1405   4.364   1.329   1.569 -0.4794  1.1824  0.0247
   90MPD2    H1 1406   4.607   1.589   1.816 -0.9328  1.7800 -1.0457
   90MPD2    H2 1407   4.630   1.176   1.867 -1.0182 -0.3684 -0.9391
   90MPD2    H3 1408   4.703   1.394   1.909  0.4962  0.8503 -0.9846
   90MPD2     N 1409   4.394   1.584   1.632  0.1444 -0.1058 -0.1283
   90MPD2    H5 1410   4.328   1.562   1.558  1.6589 -2.0259 -0.9185
   90MPD2    N1 1411   4.425   1.102   1.694  0.0962 -0.5400  0.4094
   90MPD2    H7 1412   4.355   1.099   1.620 -0.9797 -2.4783  1.4928
   91TMC2    C1 1413   1.513   1.108  16.382  0.1315  0.1143 -0.1878
   91TMC2    C2 1414   1.543   1.198  16.279  0.2723 -0.2658  0.1167
   91TMC2    C3 1415   1.443   1.230  16.197  0.1786 -0.1470  0.3611
   91TMC2    C4 1416   1.381   1.067  16.403  0.3101 -0.0665  0.1208
   91TMC2    C5 1417   1.287   1.099  16.321 -0.3457  0.2843  0.7337
   91TMC2    C6 1418   1.314   1.183  16.211  0.4304  0.1124  0.2203
   91TMC2     C 1419   1.625   1.055  16.464 -0.8699  0.0660  0.1524
   91TMC2     O 1420   1.603   0.958  16.532 -0.0085  1.3710  0.1072
   91TMC2     H 1421   1.645   1.232  16.265  0.2611 -0.2002  0.1967
   91TMC2    H1 1422   1.358   1.006  16.490  0.1421 -2.3638 -1.5391
   91TMC2    H2 1423   1.232   1.209  16.145  0.2519 -0.6649  0.1398
   91TMC2    C7 1424   1.158   1.026  16.322  0.3308  0.0822 -0.0808
   91TMC2    C8 1425   1.474   1.337  16.096  0.3279  0.4310  0.3254
   91TMC2    O1 1426   1.128   0.972  16.427  0.1147 -0.6136 -0.3983
   91TMC2    O2 1427   1.576   1.328  16.028  0.4996 -0.1264  0.0579
   91TMC2    O5 1428   1.362   1.402  16.064  0.3718  0.4702 -0.0669
   91TMC2    H5 1429   1.304   1.399  16.144  0.5779  1.3464  0.1177
   92MPD2     C 1430   1.833   1.032  16.677 -0.0261  0.5955  0.6278
   92MPD2    C1 1431   1.842   1.118  16.574  0.8077 -0.1351  0.5498
   92MPD2    C2 1432   1.954   1.203  16.567  0.4136  0.0000 -0.3751
   92MPD2    C3 1433   2.050   1.196  16.657 -0.4479  0.1083  0.1670
   92MPD2    C4 1434   2.032   1.111  16.767 -0.6154  0.4648  0.5779
   92MPD2    C5 1435   1.919   1.037  16.780 -0.0891  0.0616 -0.3329
   92MPD2     H 1436   1.956   1.265  16.478 -3.5454  0.7780  0.0757
   92MPD2    H1 1437   2.095   1.102  16.856  2.0161  1.9720 -1.1417
   92MPD2    H2 1438   1.755   0.956  16.682  0.9505 -0.3849  1.0349
   92MPD2    H3 1439   1.918   0.959  16.855 -2.5650 -1.2413 -1.7474
   92MPD2     N 1440   2.170   1.252  16.625  0.3014  0.0896 -0.0932
   92MPD2    H5 1441   2.181   1.301  16.537  0.9292 -0.1691 -0.1610
   92MPD2    N1 1442   1.734   1.138  16.479  0.5180  0.1698 -0.6416
   92MPD2    H7 1443   1.739   1.219  16.418 -3.2305  1.1432  0.3310
   93TMC2    C1 1444   3.557   1.447  14.043  0.6459 -0.1931 -0.2020
   93TMC2    C2 1445   3.515   1.482  14.168  0.1378  0.6245  0.4244
   93TMC2    C3 1446   3.612   1.532  14.255 -0.1506 -0.1066  0.2566
   93TMC2    C4 1447   3.684   1.443  14.006 -0.1637  1.1451  0.3514
   93TMC2    C5 1448   3.776   1.502  14.089 -0.4987  0.0087 -0.0013
   93TMC2    C6 1449   3.743   1.555  14.214  0.4463  0.0523  0.3247
   93TMC2     C 1450   3.462   1.383  13.952  0.2528  0.0304 -0.2207
   93TMC2     O 1451   3.507   1.321  13.852 -0.6244  0.0366 -0.4667
   93TMC2     H 1452   3.417   1.463  14.211  0.0206 -1.0618 -0.5745
   93TMC2    H1 1453   3.703   1.438  13.900 -0.7984  2.2254  0.1848
   93TMC2    H2 1454   3.816   1.611  14.270  0.6292  0.0659  0.0757
   93TMC2    C7 1455   3.873   1.582  14.003 -0.0827 -0.1695 -0.2971
   93TMC2    C8 1456   3.578   1.602  14.376 -0.2357  0.0585 -0.4301
   93TMC2    O1 1457   3.930   1.516  13.918  0.1535  0.2957  0.3291
   93TMC2    O2 1458   3.666   1.642  14.445 -0.5225  0.7463  0.1139
   93TMC2    O5 1459   3.460   1.667  14.350  0.1381 -0.1567 -0.8282
   93TMC2    H5 1460   3.420   1.639  14.264 -2.0902 -0.0913  0.1969
   94MPD2     C 1461   3.220   1.286  13.811 -0.5403 -0.1169  0.2405
   94MPD2    C1 1462   3.220   1.357  13.931  1.0438 -0.0836  0.4655
   94MPD2    C2 1463   3.100   1.414  13.976  0.3535 -0.5474 -0.0481
   94MPD2    C3 1464   2.984   1.403  13.901  0.1929 -0.7623  0.3951
   94MPD2    C4 1465   2.992   1.336  13.776  0.0435 -0.0105  0.2922
   94MPD2    C5 1466   3.110   1.281  13.733 -0.2930 -0.3240  0.1520
   94MPD2     H 1467   3.105   1.477  14.064  2.1383  0.5094 -0.9090
   94MPD2    H1 1468   2.906   1.333  13.710  0.7599  1.1931 -0.6863
   94MPD2    H2 1469   3.305   1.230  13.774 -0.2925 -0.2319  0.9793
   94MPD2    H3 1470   3.105   1.240  13.632  0.3979  0.1795 -0.0836
   94MPD2     N 1471   2.865   1.481  13.923 -0.0246  1.0759  0.4136
   94MPD2    H5 1472   2.804   1.499  13.844 -0.2700 -1.7486 -0.0487
   94MPD2    N1 1473   3.335   1.400  13.998 -0.3847 -0.3079  0.2726
   94MPD2    H7 1474   3.326   1.475  14.067  1.4965  0.0847  0.0935
   95TMC2    C1 1475   3.441   3.019  15.910 -0.8101 -0.2863 -0.8209
   95TMC2    C2 1476   3.363   2.989  16.024 -0.1945  0.1400 -0.5606
   95TMC2    C3 1477   3.343   2.858  16.059  0.1902 -0.4659  0.4918
   95TMC2    C4 1478   3.496   2.917  15.835  1.0217  0.5819 -1.0676
   95TMC2    C5 1479   3.459   2.789  15.878  0.3007  1.2188  0.3337
   95TMC2    C6 1480   3.381   2.754  15.987 -0.2541 -0.0555 -0.6221
   95TMC2     C 1481   3.494   3.148  15.891  0.5028 -0.3830  0.4138
   95TMC2     O 1482   3.563   3.156  15.787 -0.1144 -0.4013  0.2806
   95TMC2     H 1483   3.307   3.067  16.075  0.9916  1.8519 -1.8981
   95TMC2    H1 1484   3.549   2.932  15.742  0.4969  0.6503 -1.3549
   95TMC2    H2 1485   3.395   2.655  16.029 -1.3472 -0.3950 -1.0489
   95TMC2    C7 1486   3.546   2.680  15.835  0.2476 -0.1419 -0.0384
   95TMC2    C8 1487   3.260   2.831  16.175 -0.0795 -0.3557  0.2397
   95TMC2    O1 1488   3.511   2.559  15.844  0.2436 -0.1255  0.1486
   95TMC2    O2 1489   3.224   2.930  16.247  0.2716  0.2067  0.2209
   95TMC2    O5 1490   3.179   2.727  16.140 -0.2356  0.3540 -0.4235
   95TMC2    H5 1491   3.204   2.679  16.058  1.9420  1.1988 -0.2452
   96MPD2     C 1492   3.592   3.640  15.997  0.6222 -0.3629 -0.2797
   96MPD2    C1 1493   3.628   3.570  15.880 -0.1627 -0.1812  0.0399
   96MPD2    C2 1494   3.596   3.432  15.876  0.4562 -0.9774  0.9145
   96MPD2    C3 1495   3.518   3.374  15.977 -0.4071 -0.5349  0.4035
   96MPD2    C4 1496   3.472   3.450  16.081  0.8457 -0.2022  0.1182
   96MPD2    C5 1497   3.523   3.579  16.101  0.3244 -0.0832 -0.9543
   96MPD2     H 1498   3.646   3.362  15.810 -0.5871  0.3270 -1.2405
   96MPD2    H1 1499   3.413   3.413  16.164 -0.1127  1.8399  0.3485
   96MPD2    H2 1500   3.631   3.740  16.013 -1.3578  0.5423 -0.9956
   96MPD2    H3 1501   3.509   3.635  16.193  1.2263 -0.5049 -0.5600
   96MPD2     N 1502   3.477   3.241  15.986 -0.0714  0.4168 -0.7529
   96MPD2    H5 1503   3.421   3.218  16.068  1.3113  0.2804  0.1431
   96MPD2    N1 1504   3.711   3.637  15.786  0.0953 -0.3390  0.3131
   96MPD2    H7 1505   3.734   3.732  15.813 -1.2309  0.1741 -0.3261
   97TMC2    C1 1506   0.730   1.549  17.622  0.0077 -0.0600  0.5040
   97TMC2    C2 1507   0.691   1.499  17.497 -0.1652  0.3790 -0.9158
   97TMC2    C3 1508   0.767   1.531  17.387 -0.5528 -0.5106 -0.3216
   97TMC2    C4 1509   0.838   1.632  17.634 -0.0272  0.5880  1.1582
   97TMC2    C5 1510   0.909   1.660  17.519 -0.1037 -0.2506 -0.1599
   97TMC2    C6 1511   0.878   1.609  17.392 -0.1869  0.6096  0.1493
   97TMC2     C 1512   0.679   1.497  17.743 -1.2655  0.2088  0.3123
   97TMC2     O 1513   0.754   1.515   0.085  0.1308  0.1632 -0.4296
   97TMC2     H 1514   0.594   1.454  17.480 -0.8078  0.5381  2.3255
   97TMC2    H1 1515   0.871   1.677  17.727 -0.0180 -0.9165  1.8885
   97TMC2    H2 1516   0.935   1.625  17.301  0.3202  1.7555  0.6580
   97TMC2    C7 1517   1.025   1.756  17.533  0.4482 -0.2683  0.0034
   97TMC2    C8 1518   0.696   1.499  17.258  0.0337  0.0623 -0.0169
   97TMC2    O1 1519   1.053   1.783  17.648  0.2090 -0.4454 -0.5948
   97TMC2    O2 1520   0.574   1.498  17.255  0.1098 -0.0443 -0.3546
   97TMC2    O5 1521   0.779   1.552  17.168  0.3788  0.2902  0.0032
   97TMC2    H5 1522   0.872   1.535  17.195 -0.4548 -2.5069  1.0954
   98MPD2     C 1523   0.341   1.334   0.345  0.7302  0.7506 -0.3772
   98MPD2    C1 1524   0.472   1.372   0.362 -0.1713  0.2503  0.5119
   98MPD2    C2 1525   0.550   1.396   0.251 -0.4366 -0.2931 -0.0396
   98MPD2    C3 1526   0.492   1.402   0.125 -0.4143  0.1313 -0.5297
   98MPD2    C4 1527   0.363   1.357   0.114  0.8709  0.1299  0.4099
   98MPD2    C5 1528   0.287   1.315   0.224  0.1424  0.2383  0.0112
   98MPD2     H 1529   0.656   1.409   0.271 -0.7336  2.2133 -0.0581
   98MPD2    H1 1530   0.318   1.367   0.015  0.6612 -2.5347  0.2274
   98MPD2    H2 1531   0.270   1.315   0.424 -1.8223  0.3011 -2.7924
   98MPD2    H3 1532   0.190   1.271   0.208  0.3203 -0.2602  0.3295
   98MPD2     N 1533   0.553   1.444   0.000 -0.0128  0.7051  0.2910
   98MPD2    H5 1534   0.491   1.442  17.673 -1.6699 -0.8432  1.6170
   98MPD2    N1 1535   0.523   1.377   0.495 -0.0386  0.2154  0.5158
   98MPD2    H7 1536   0.454   1.371   0.569 -0.3006 -0.5250  0.2051
   99TMC2    C1 1537   4.408   3.007   0.710 -0.7406 -0.0523  0.3920
   99TMC2    C2 1538   4.523   2.931   0.701 -0.1340 -0.0914 -0.2193
   99TMC2    C3 1539   4.608   2.938   0.807  0.5571  0.2378 -0.2660
   99TMC2    C4 1540   4.380   3.078   0.827 -0.4063  0.3698 -0.1311
   99TMC2    C5 1541   4.474   3.077   0.927 -0.8425 -0.1364  0.5076
   99TMC2    C6 1542   4.590   3.007   0.915 -0.0513  0.7744  0.5129
   99TMC2     C 1543   4.288   2.978   0.626 -0.2436  1.1998 -0.9564
   99TMC2     O 1544   4.174   3.002   0.672  0.5638  0.1682  0.8913
   99TMC2     H 1545   4.547   2.869   0.615 -2.1499 -0.0173 -0.8553
   99TMC2    H1 1546   4.285   3.130   0.836 -0.7749 -0.7332  2.3856
   99TMC2    H2 1547   4.664   2.995   0.993  0.5774 -1.9841 -0.5174
   99TMC2    C7 1548   4.424   3.084   1.058 -0.0420  0.3788 -0.1909
   99TMC2    C8 1549   4.716   2.841   0.796 -0.5566  0.0433  0.7521
   99TMC2    O1 1550   4.508   3.107   1.146 -0.1360  0.1877  0.0183
   99TMC2    O2 1551   0.024   2.804   0.690 -0.0172 -0.9146 -1.0112
   99TMC2    O5 1552   0.015   2.801   0.919  0.2556 -0.0983 -0.7930
   99TMC2    H5 1553   4.673   2.803   0.976 -0.4785 -1.9238 -1.7544
  100MPD2     C 1554   4.084   2.931   0.416 -0.7194 -0.2316  0.7805
  100MPD2    C1 1555   4.219   2.880   0.418 -0.1191  0.2346  0.1301
  100MPD2    C2 1556   4.263   2.793   0.318 -0.2592  0.1182 -0.0256
  100MPD2    C3 1557   4.175   2.739   0.225  0.6421  1.1828 -0.0657
  100MPD2    C4 1558   4.046   2.795   0.228  0.0321 -0.1607  0.9007
  100MPD2    C5 1559   4.003   2.889   0.317  0.2900 -0.1034 -0.5809
  100MPD2     H 1560   4.368   2.767   0.325 -0.4651 -0.5168  0.7847
  100MPD2    H1 1561   3.971   2.757   0.159  0.5018  0.4157  0.0698
  100MPD2    H2 1562   4.049   3.010   0.482 -0.3116  1.7716 -1.4154
  100MPD2    H3 1563   3.901   2.926   0.313  0.3328 -0.0010 -0.7307
  100MPD2     N 1564   4.222   2.644   0.133  0.5422 -0.4376 -0.4821
  100MPD2    H5 1565   4.309   2.594   0.146 -0.5704 -1.7792  1.7785
  100MPD2    N1 1566   4.318   2.919   0.501  0.4998 -0.1544 -0.2917
  100MPD2    H7 1567   4.411   2.882   0.488  0.4424 -1.3144  2.5575
  101TMC2    C1 1568   0.525   3.544  12.695 -0.0804  0.5445 -0.3752
  101TMC2    C2 1569   0.533   3.452  12.604  0.4472 -0.1302  0.4320
  101TMC2    C3 1570   0.637   3.463  12.518 -0.3153 -0.3080  0.0675
  101TMC2    C4 1571   0.600   3.657  12.696 -0.3764 -0.4182  0.0599
  101TMC2    C5 1572   0.704   3.669  12.612  0.2159  0.2432 -0.2229
  101TMC2    C6 1573   0.716   3.572  12.515 -0.5031 -0.4521 -0.2055
  101TMC2     C 1574   0.453   3.511  12.816  0.1535 -0.5961 -0.2699
  101TMC2     O 1575   0.432   3.610  12.889 -0.1489 -0.2683 -0.4034
  101TMC2     H 1576   0.469   3.365  12.601  0.6815 -0.2512 -1.2616
  101TMC2    H1 1577   0.579   3.736  12.766  0.5541  0.5617 -0.7603
  101TMC2    H2 1578   0.805   3.562  12.454 -1.2070 -0.8012 -1.1626
  101TMC2    C7 1579   0.793   3.780  12.603 -0.6796 -1.3005  0.3330
  101TMC2    C8 1580   0.671   3.337  12.449  0.1372 -0.0650 -0.4076
  101TMC2    O1 1581   0.870   3.786  12.508  0.2109 -0.0953 -0.1089
  101TMC2    O2 1582   0.586   3.263  12.402 -0.4536  0.5422 -0.1252
  101TMC2    O5 1583   0.801   3.310  12.467  0.2904 -0.2927  0.3587
  101TMC2    H5 1584   0.849   3.386  12.506  3.4785 -0.7072 -2.7026
  102MPD2     C 1585   0.394   3.193  12.967 -0.4427 -0.4340  0.1794
  102MPD2    C1 1586   0.367   3.325  12.944 -0.0340  0.3032  0.0166
  102MPD2    C2 1587   0.265   3.380  13.012 -0.0015 -0.9551 -0.4605
  102MPD2    C3 1588   0.210   3.326  13.124  0.3998 -0.3949  0.2378
  102MPD2    C4 1589   0.250   3.196  13.155  0.1049 -0.0049 -0.1287
  102MPD2    C5 1590   0.333   3.125  13.071 -0.2746 -0.6601 -0.3209
  102MPD2     H 1591   0.230   3.479  12.986 -1.5191 -2.0573 -2.5940
  102MPD2    H1 1592   0.191   3.133  13.221  1.6599 -0.3537  0.9165
  102MPD2    H2 1593   0.471   3.146  12.906 -0.7822 -0.3717 -0.2937
  102MPD2    H3 1594   0.358   3.023  13.095  0.0834  0.3065  3.4337
  102MPD2     N 1595   0.098   3.388  13.190  0.0975 -0.3633  0.0167
  102MPD2    H5 1596   0.062   3.473  13.148  0.4340 -0.6387 -0.8330
  102MPD2    N1 1597   0.433   3.378  12.833  0.6412  0.0383 -0.0386
  102MPD2    H7 1598   0.499   3.317  12.786 -1.4379 -0.2027 -2.6486
  103TMC2    C1 1599   3.196   4.539  12.804 -0.3162  0.7096  0.8529
  103TMC2    C2 1600   3.319   4.597  12.798 -0.5317 -1.0822  0.0245
  103TMC2    C3 1601   3.340   4.703  12.874 -0.0591 -0.3452 -0.2857
  103TMC2    C4 1602   3.113   4.570  12.907  0.5229 -0.0049  0.9171
  103TMC2    C5 1603   3.143   4.672  12.991  0.2811  0.3856  0.2184
  103TMC2    C6 1604   3.262   4.738  12.985  1.2261 -0.5517  0.0140
  103TMC2     C 1605   3.145   4.440  12.712 -0.4454 -0.5653  0.4234
  103TMC2     O 1606   3.022   4.434  12.698 -0.4767  0.0810  0.2987
  103TMC2     H 1607   3.387   4.576  12.716  0.5552 -0.9170  0.8847
  103TMC2    H1 1608   3.009   4.537  12.911  0.1077  0.9457 -1.9936
  103TMC2    H2 1609   3.291   0.075  13.056 -0.0936  0.9755 -1.0914
  103TMC2    C7 1610   3.033   4.727  13.068  0.5990 -0.0906  0.0073
  103TMC2    C8 1611   3.473   0.021  12.865 -0.6536  0.6540 -0.8959
  103TMC2    O1 1612   2.928   4.664  13.078  0.6591 -0.3428  0.1897
  103TMC2    O2 1613   3.566   4.692  12.822 -0.5982  0.2204  0.5237
  103TMC2    O5 1614   3.442   0.140  12.808  0.6221  0.1769 -0.3236
  103TMC2    H5 1615   3.352   0.174  12.824 -0.1623 -1.4012 -1.3369
  104MPD2     C 1616   3.350   4.180  12.548  0.4398  0.1155 -0.0750
  104MPD2    C1 1617   3.238   4.261  12.570  0.2295  0.0649 -1.4136
  104MPD2    C2 1618   3.121   4.229  12.506 -0.1650  0.5234 -0.2942
  104MPD2    C3 1619   3.119   4.125  12.413  0.4253 -0.0104 -0.6354
  104MPD2    C4 1620   3.234   4.046  12.391 -0.1676  0.2995 -0.1306
  104MPD2    C5 1621   3.346   4.067  12.465  0.0538 -0.0500  0.2201
  104MPD2     H 1622   3.029   4.286  12.520 -0.0610  0.3996  0.8607
  104MPD2    H1 1623   3.225   3.957  12.331 -0.4874  0.6262 -0.5736
  104MPD2    H2 1624   3.444   4.198  12.600  2.1398 -2.5015 -2.2226
  104MPD2    H3 1625   3.434   4.003  12.466 -1.5374 -2.2117  0.8231
  104MPD2     N 1626   2.996   4.092  12.352  0.5096 -0.2052  0.6314
  104MPD2    H5 1627   2.915   4.146  12.377  0.4046 -0.2882  0.4731
  104MPD2    N1 1628   3.255   4.368  12.663  0.4938  0.0283  0.7542
  104MPD2    H7 1629   3.349   4.380  12.699  1.1119 -0.8187 -0.5927
  105TMC2    C1 1630   3.813   2.955  17.672 -0.6809 -0.3427 -0.0706
  105TMC2    C2 1631   3.721   2.887  17.749 -0.5821 -0.1886  0.4184
  105TMC2    C3 1632   3.689   2.940   0.120 -0.2281  0.4542 -0.3292
  105TMC2    C4 1633   3.872   3.072  17.715  0.3484  0.1301  0.5820
  105TMC2    C5 1634   3.839   3.122   0.082  0.9669  0.2218 -0.9983
  105TMC2    C6 1635   3.748   3.055   0.163 -0.2918 -0.9476 -0.2985
  105TMC2     C 1636   3.870   2.879  17.560  0.1353  0.5233  0.0978
  105TMC2     O 1637   3.798   2.786  17.519  0.2167  0.2726  0.0146
  105TMC2     H 1638   3.679   2.797  17.704  0.6094  0.3912 -1.8189
  105TMC2    H1 1639   3.941   3.130  17.655  1.1616 -2.3804 -0.9081
  105TMC2    H2 1640   3.726   3.088   0.264 -1.6527  3.4055 -2.0319
  105TMC2    C7 1641   3.944   3.200   0.153 -0.7248 -0.2614  0.9680
  105TMC2    C8 1642   3.586   2.884   0.210  0.1317 -0.1841 -0.0180
  105TMC2    O1 1643   4.053   3.203   0.096 -0.0822 -0.0391  0.2092
  105TMC2    O2 1644   3.585   2.916   0.328 -0.5504  0.4297 -0.2349
  105TMC2    O5 1645   3.484   2.833   0.136  0.0095 -0.0548 -0.6664
  105TMC2    H5 1646   3.500   2.828   0.040 -0.5956 -0.7945 -0.7300
  106MPD2     C 1647   4.143   2.886  17.131 -0.7777 -0.3654  0.0297
  106MPD2    C1 1648   4.175   2.997  17.202  0.0130  0.2050 -0.2546
  106MPD2    C2 1649   4.113   3.014  17.324  1.2589  0.1232  0.6560
  106MPD2    C3 1650   4.024   2.916  17.369 -0.2677 -0.4057 -0.4528
  106MPD2    C4 1651   4.007   2.802  17.309  0.8121  0.3191  0.4047
  106MPD2    C5 1652   4.076   2.784  17.194 -0.2785  0.0489  0.0351
  106MPD2     H 1653   4.130   3.104  17.382  2.3886  1.5960 -1.9743
  106MPD2    H1 1654   3.944   2.722  17.347  0.8679  0.9595  1.8644
  106MPD2    H2 1655   4.185   2.866  17.033 -0.2848 -0.0563  0.1758
  106MPD2    H3 1656   4.061   2.690  17.143 -1.0799  0.2706 -0.1246
  106MPD2     N 1657   3.959   2.957  17.490 -0.3214 -0.0664 -0.0514
  106MPD2    H5 1658   3.987   3.048  17.527 -0.7517  0.7076 -1.6045
  106MPD2    N1 1659   4.260   3.098  17.157 -0.7550  0.5414  0.0084
  106MPD2    H7 1660   4.262   3.189  17.202 -0.8113  0.0901  0.9126
  107TMC2    C1 1661   4.641   3.290  11.451  0.3389  0.9541  0.0149
  107TMC2    C2 1662   4.528   3.375  11.451  0.2994  0.3750  0.5426
  107TMC2    C3 1663   4.533   3.496  11.375  1.0545  0.6750 -0.4170
  107TMC2    C4 1664   0.011   3.318  11.367 -0.2569 -0.4099 -0.4383
  107TMC2    C5 1665   4.736   3.427  11.286  1.2485 -0.7459  0.1253
  107TMC2    C6 1666   4.634   3.524  11.286  0.0528  0.3776  0.6695
  107TMC2     C 1667   4.644   3.181  11.549 -0.2837  1.0591 -0.3747
  107TMC2     O 1668   4.547   3.166  11.620  0.9460  0.0077 -0.0818
  107TMC2     H 1669   4.447   3.370  11.523  0.7292  2.0334  1.1254
  107TMC2    H1 1670   0.103   3.261  11.363  1.6052  2.5604  0.2279
  107TMC2    H2 1671   4.628   3.603  11.212 -2.2970  0.3534  0.8460
  107TMC2    C7 1672   0.083   3.432  11.169  0.2536  0.0668 -0.3879
  107TMC2    C8 1673   4.419   3.584  11.394 -0.3718 -0.3664  0.3654
  107TMC2    O1 1674   0.084   3.537  11.102 -0.0734 -0.1137 -0.1194
  107TMC2    O2 1675   4.323   3.554  11.463 -0.4878  0.3820  0.1002
  107TMC2    O5 1676   4.419   3.676  11.300  0.3222 -0.3071 -0.5017
  107TMC2    H5 1677   4.503   3.712  11.263 -0.2916  2.4313  0.7883
  108MPD2     C 1678   0.157   2.950  11.687 -0.3666  0.4195 -0.6121
  108MPD2    C1 1679   0.066   3.054  11.687 -0.2201  0.3416  0.1756
  108MPD2    C2 1680   0.016   3.104  11.802 -0.3795  0.0786 -0.6651
  108MPD2    C3 1681   0.057   3.060  11.921  0.2395  0.0377 -0.0063
  108MPD2    C4 1682   0.136   2.945  11.928  0.8333  0.2155 -0.2950
  108MPD2    C5 1683   0.187   2.893  11.813  0.2078 -0.0115  0.5693
  108MPD2     H 1684   4.696   3.196  11.799 -0.5315 -0.0169 -0.6102
  108MPD2    H1 1685   0.167   2.911  12.026  3.3591  0.0196 -1.1640
  108MPD2    H2 1686   0.195   2.899  11.599  2.0271  0.3741  0.4607
  108MPD2    H3 1687   0.246   2.803  11.824  1.0617  0.6321  1.2013
  108MPD2     N 1688   0.030   3.130  12.042 -0.6488  0.2026 -0.3617
  108MPD2    H5 1689   0.093   3.124  12.122 -0.1675  1.1190 -0.6689
  108MPD2    N1 1690   0.023   3.112  11.565 -0.8713 -0.1043  0.1688
  108MPD2    H7 1691   0.072   3.079  11.483 -0.0185 -0.8243  0.9809
  109TMC2    C1 1692   0.433   0.307   0.597 -0.1901 -0.1725 -0.0852
  109TMC2    C2 1693   0.473   0.215   0.502  0.0842 -0.0577 -0.4191
  109TMC2    C3 1694   0.612   0.210   0.476  0.4546 -0.0777 -0.5141
  109TMC2    C4 1695   0.521   0.383   0.675  0.0690 -0.3656  0.2141
  109TMC2    C5 1696   0.654   0.356   0.652 -0.5895  0.0526  0.1558
  109TMC2    C6 1697   0.702   0.269   0.555  0.6962  0.3337 -0.1230
  109TMC2     C 1698   0.297   0.357   0.592 -0.1903 -0.5124  0.1627
  109TMC2     O 1699   0.256   0.383   0.479 -0.3282 -0.6972 -0.3377
  109TMC2     H 1700   0.400   0.166   0.439  0.5063  0.6598 -1.4550
  109TMC2    H1 1701   0.493   0.456   0.751  1.1855 -1.8324  2.0318
  109TMC2    H2 1702   0.806   0.243   0.538  0.2906 -0.8739 -0.7580
  109TMC2    C7 1703   0.755   0.440   0.700 -0.0883  0.8214 -0.0974
  109TMC2    C8 1704   0.668   0.139   0.358  0.1493  0.4972  0.2518
  109TMC2    O1 1705   0.866   0.387   0.696 -0.6019 -0.0845 -0.2194
  109TMC2    O2 1706   0.758   0.191   0.287  0.5140 -0.3247  0.3400
  109TMC2    O5 1707   0.569   0.069   0.302 -0.2193 -0.3431  0.5470
  109TMC2    H5 1708   0.533   0.006   0.368 -0.1712  2.0210  2.8224
  110MPD2     C 1709   4.596   0.494   0.819  0.7841  0.4319 -0.4518
  110MPD2    C1 1710   4.688   0.451   0.918 -0.9241 -0.4038  0.1137
  110MPD2    C2 1711   0.077   0.407   0.879 -0.5292 -0.5583  0.4121
  110MPD2    C3 1712   0.116   0.421   0.747  0.4200 -0.3455  0.5354
  110MPD2    C4 1713   0.037   0.485   0.654  0.0295 -0.2716  0.0076
  110MPD2    C5 1714   4.647   0.517   0.698 -0.3223 -0.2176  0.2818
  110MPD2     H 1715   0.140   0.351   0.948  2.7419 -1.3638 -3.2069
  110MPD2    H1 1716   0.056   0.498   0.548 -2.1011 -0.6185 -0.4099
  110MPD2    H2 1717   4.495   0.512   0.852  1.0064 -1.2926  1.2522
  110MPD2    H3 1718   4.569   0.544   0.628  0.7737  1.9113 -0.1097
  110MPD2     N 1719   0.245   0.376   0.719  0.1118 -0.2131 -0.2395
  110MPD2    H5 1720   0.298   0.355   0.803 -0.1771  0.5827  0.1398
  110MPD2    N1 1721   4.641   0.438   1.053  0.0100  0.4183 -0.4006
  110MPD2    H7 1722   4.548   0.469   1.078  0.0557 -1.2458  1.7817
  111TMC2    C1 1723   0.642   0.382  12.101 -0.0847  0.3982 -0.0582
  111TMC2    C2 1724   0.545   0.400  12.200 -0.5615  0.1836  0.8022
  111TMC2    C3 1725   0.583   0.353  12.325 -0.7525 -0.8488  0.6482
  111TMC2    C4 1726   0.762   0.325  12.114 -0.0962  0.3875 -0.3957
  111TMC2    C5 1727   0.788   0.276  12.239  0.3822  0.2579 -0.3615
  111TMC2    C6 1728   0.703   0.297  12.347  0.7489 -0.4423  0.0413
  111TMC2     C 1729   0.604   0.402  11.962 -0.2948  0.2587  0.8099
  111TMC2     O 1730   0.694   0.415  11.885  0.3044 -0.2385 -0.0761
  111TMC2     H 1731   0.467   0.474  12.183 -0.4286  0.2809  0.6083
  111TMC2    H1 1732   0.831   0.317  12.031 -1.4857 -3.1310 -1.2307
  111TMC2    H2 1733   0.724   0.271  12.450  1.1956  0.6356  0.2257
  111TMC2    C7 1734   0.909   0.206  12.263  0.2353 -0.2508  0.2695
  111TMC2    C8 1735   0.522   0.436  12.423  0.0161  0.8261 -0.8723
  111TMC2    O1 1736   0.920   0.135  12.364 -0.4554 -0.6366  0.3593
  111TMC2    O2 1737   0.494   0.554  12.402 -0.5969 -0.4170  0.0655
  111TMC2    O5 1738   0.436   0.355  12.481  0.1097 -0.3187 -0.3926
  111TMC2    H5 1739   0.460   0.260  12.484 -0.4112 -0.4266  0.2061
  112MPD2     C 1740   0.266   0.302  11.570 -0.8115  0.2678  0.3888
  112MPD2    C1 1741   0.373   0.395  11.574  0.1317  0.3272 -0.0380
  112MPD2    C2 1742   0.443   0.416  11.691 -0.6616 -0.6440 -0.0024
  112MPD2    C3 1743   0.414   0.341  11.801  0.8823 -0.1444 -0.1691
  112MPD2    C4 1744   0.310   0.247  11.798  0.3103 -0.1233 -0.7223
  112MPD2    C5 1745   0.240   0.230  11.679  0.0226 -0.2409  0.1810
  112MPD2     H 1746   0.528   0.484  11.690 -2.2699  1.3843  0.6601
  112MPD2    H1 1747   0.287   0.180  11.880 -0.6947  2.3143  0.9678
  112MPD2    H2 1748   0.204   0.293  11.482 -0.3393  0.4730  0.0324
  112MPD2    H3 1749   0.167   0.150  11.679  1.9707 -2.0315 -0.1489
  112MPD2     N 1750   0.479   0.353  11.927 -0.2767  0.0103  0.2556
  112MPD2    H5 1751   0.438   0.301  12.004  1.3244 -1.6376  0.0102
  112MPD2    N1 1752   0.416   0.478  11.465  0.2228 -0.3793  0.0599
  112MPD2    H7 1753   0.465   0.564  11.486 -1.4300  0.8621 -1.0732
  113TMC2    C1 1754   3.043   2.681   0.503 -0.4233 -0.0552 -0.0514
  113TMC2    C2 1755   2.980   2.774   0.417 -0.4499  0.2756 -0.2919
  113TMC2    C3 1756   2.904   2.717   0.323  0.0102 -0.7215 -0.2960
  113TMC2    C4 1757   3.030   2.543   0.494  0.4691  0.2907 -0.6536
  113TMC2    C5 1758   2.947   2.495   0.407  1.0940  0.0480 -0.1966
  113TMC2    C6 1759   2.889   2.577   0.319  0.0568  0.1996  0.5987
  113TMC2     C 1760   3.149   2.723   0.597  0.8111  0.3792  0.5094
  113TMC2     O 1761   3.122   2.820   0.668 -0.2290  0.4408 -0.4401
  113TMC2     H 1762   2.995   2.881   0.427 -1.6597  0.6142 -2.0846
  113TMC2    H1 1763   3.067   2.481   0.576 -0.9129  0.1307 -0.1493
  113TMC2    H2 1764   2.837   2.527   0.238 -1.4427  0.4839  1.3944
  113TMC2    C7 1765   2.912   2.353   0.410 -0.2431  0.2736  0.1926
  113TMC2    C8 1766   2.852   2.778   0.210 -0.4245 -0.0729  0.9885
  113TMC2    O1 1767   2.866   2.306   0.308 -0.8162 -0.7134 -0.1193
  113TMC2    O2 1768   2.836   2.733   0.093 -0.0326  0.4841 -0.1209
  113TMC2    O5 1769   2.842   2.909   0.250  0.3967 -0.3323 -0.7080
  113TMC2    H5 1770   2.824   2.925   0.345  0.6918  0.7718 -0.8276
  114MPD2     C 1771   3.588   2.628   0.844  0.6052  0.1842 -0.1442
  114MPD2    C1 1772   3.503   2.735   0.867 -0.6117 -0.8591  0.0980
  114MPD2    C2 1773   3.386   2.733   0.784 -0.1671  0.2142  0.1065
  114MPD2    C3 1774   3.364   2.641   0.676  0.3255  0.6552 -0.1010
  114MPD2    C4 1775   3.464   2.546   0.663  0.5097  1.0544  0.3864
  114MPD2    C5 1776   3.577   2.542   0.742 -0.1776  0.2032 -0.3888
  114MPD2     H 1777   3.319   2.815   0.806 -0.1930 -0.6947  3.4992
  114MPD2    H1 1778   3.478   2.479   0.579 -1.5367  1.6974 -0.4697
  114MPD2    H2 1779   3.678   2.614   0.904  0.5287  0.2540 -0.0141
  114MPD2    H3 1780   3.655   2.468   0.735  1.1325  1.1942  4.0169
  114MPD2     N 1781   3.259   2.640   0.591 -0.2217 -0.5582 -0.0423
  114MPD2    H5 1782   3.262   2.562   0.526 -0.1659 -0.1199 -0.5656
  114MPD2    N1 1783   3.512   2.817   0.982  0.4293 -0.0945  0.2656
  114MPD2    H7 1784   3.436   2.880   1.006  1.1487  0.2945  1.5467
  115TMC2    C1 1785   4.012   0.264   0.124 -0.1081 -0.5013  0.1294
  115TMC2    C2 1786   4.107   0.273   0.223 -0.1152  0.5214  1.3039
  115TMC2    C3 1787   4.170   0.400   0.241 -0.5703  0.4226  0.0156
  115TMC2    C4 1788   3.970   0.370   0.056 -0.2979  0.8197  0.7969
  115TMC2    C5 1789   4.021   0.494   0.086 -0.3888 -0.5983  0.2406
  115TMC2    C6 1790   4.123   0.514   0.174 -0.8081  0.4426 -0.7373
  115TMC2     C 1791   3.954   0.134   0.087  0.8340 -0.5980 -0.4416
  115TMC2     O 1792   4.024   0.033   0.099 -0.1987  0.7083 -0.1809
  115TMC2     H 1793   4.150   0.182   0.264 -1.0084 -0.3641  0.2865
  115TMC2    H1 1794   3.907   0.354  17.721  1.6802  1.5167 -0.7529
  115TMC2    H2 1795   4.165   0.611   0.198  0.2719 -0.3091  0.3791
  115TMC2    C7 1796   3.939   0.610   0.046  0.2486 -0.0913 -0.0145
  115TMC2    C8 1797   4.290   0.401   0.330 -0.3901  0.5970  0.0343
  115TMC2    O1 1798   3.835   0.586  17.745 -0.6160  0.1347  0.2757
  115TMC2    O2 1799   4.351   0.508   0.351  0.0000 -0.2564  0.4429
  115TMC2    O5 1800   4.248   0.325   0.435 -0.2594 -0.0580  0.1877
  115TMC2    H5 1801   4.192   0.247   0.414  0.5161  0.1220 -2.5971
  116MPD2     C 1802   3.596   4.604  17.564  0.2552 -0.5060 -0.2131
  116MPD2    C1 1803   3.729   4.581  17.604 -0.0699  0.7994  0.3608
  116MPD2    C2 1804   3.794   4.660  17.696 -0.2841  0.0491 -0.1382
  116MPD2    C3 1805   3.743   0.046  17.738 -0.3028 -0.9112  0.2814
  116MPD2    C4 1806   3.611   0.063  17.698 -0.0692 -0.8626 -0.3630
  116MPD2    C5 1807   3.538   4.713  17.620 -0.2218 -0.0178  0.4239
  116MPD2     H 1808   3.890   4.630  17.736 -1.5438  0.1627  2.9620
  116MPD2    H1 1809   3.567   0.158  17.724  1.3943 -0.2366 -0.1547
  116MPD2    H2 1810   3.548   4.545  17.487  2.5057 -1.3571 -0.9732
  116MPD2    H3 1811   3.446   0.004  17.569 -0.2502  0.6760  0.8817
  116MPD2     N 1812   3.819   0.141   0.057 -0.0201  0.1142  0.4595
  116MPD2    H5 1813   3.774   0.231   0.071  1.9508  1.1274  0.3206
  116MPD2    N1 1814   3.785   4.476  17.541 -0.0948  0.8023 -0.7512
  116MPD2    H7 1815   3.733   4.434  17.465 -0.5825  1.8963 -1.0219
  117TMC2    C1 1816   2.844   2.158  14.134 -0.9093  0.0260 -0.5908
  117TMC2    C2 1817   2.985   2.139  14.113 -0.1591  0.0984  0.5752
  117TMC2    C3 1818   3.064   2.255  14.109  0.2580 -0.9010 -0.2692
  117TMC2    C4 1819   2.788   2.284  14.153 -1.2314 -0.5580  0.6124
  117TMC2    C5 1820   2.873   2.389  14.157  0.6453  0.1819 -0.1145
  117TMC2    C6 1821   3.009   2.381  14.141 -0.5717 -0.2362  0.4317
  117TMC2     C 1822   2.764   2.044  14.164 -0.5098 -0.5685 -0.5815
  117TMC2     O 1823   2.819   1.945  14.211 -0.5754 -0.2159  0.4682
  117TMC2     H 1824   3.024   2.038  14.109 -1.4348 -0.4518  1.7486
  117TMC2    H1 1825   2.683   2.296  14.178 -0.9112  0.0407  1.6675
  117TMC2    H2 1826   3.078   2.459  14.173 -0.2507  0.7729 -2.7613
  117TMC2    C7 1827   2.823   2.517  14.186  0.2026 -0.3749 -0.4047
  117TMC2    C8 1828   3.193   2.246  14.052  0.1359  0.1133  0.3932
  117TMC2    O1 1829   2.892   2.601  14.242  0.4645 -0.1984 -0.0597
  117TMC2    O2 1830   3.226   2.139  13.999  0.3350  0.7989 -0.1957
  117TMC2    O5 1831   3.226   2.371  14.019 -0.2618 -0.3677  0.1202
  117TMC2    H5 1832   3.308   2.380  13.967 -0.7772  1.2285 -0.3994
  118MPD2     C 1833   2.479   2.638  14.153 -0.1341 -0.3796 -0.2455
  118MPD2    C1 1834   2.611   2.651  14.176  0.0746  0.5132 -0.5535
  118MPD2    C2 1835   2.655   2.773  14.228 -0.6720 -0.6805  0.7429
  118MPD2    C3 1836   2.565   2.874  14.266 -0.5136 -0.3004  0.1344
  118MPD2    C4 1837   2.433   2.848  14.258 -0.5236  0.1953  0.1877
  118MPD2    C5 1838   2.394   2.738  14.195 -0.0957 -0.0949 -0.7190
  118MPD2     H 1839   2.761   2.786  14.247 -0.2301 -0.6043 -1.7559
  118MPD2    H1 1840   2.364   2.927  14.285 -2.9412 -1.7740 -0.2017
  118MPD2    H2 1841   2.432   2.553  14.104 -0.9657  0.1417 -0.3564
  118MPD2    H3 1842   2.290   2.725  14.171  0.4324 -1.1486 -2.3927
  118MPD2     N 1843   2.599   3.003  14.313  0.4427 -0.0644 -0.5919
  118MPD2    H5 1844   2.525   3.065  14.345 -0.1928 -1.4436  0.5728
  118MPD2    N1 1845   2.690   2.532  14.161  0.5604  0.3693 -0.1789
  118MPD2    H7 1846   2.644   2.452  14.121  2.1083 -1.0579  0.8930
  119TMC2    C1 1847   0.856   3.345  13.714 -0.5855 -0.1798  0.2142
  119TMC2    C2 1848   0.913   3.224  13.748 -0.2428  0.1333  0.0224
  119TMC2    C3 1849   0.833   3.121  13.770 -0.3646  0.4223 -0.4235
  119TMC2    C4 1850   0.720   3.352  13.708  0.7681 -0.4443 -0.1625
  119TMC2    C5 1851   0.644   3.242  13.734 -0.6202  1.3226 -0.1960
  119TMC2    C6 1852   0.694   3.126  13.772  0.9793  0.2615  0.2359
  119TMC2     C 1853   0.932   3.461  13.753 -0.2969  0.7471  0.0779
  119TMC2     O 1854   0.861   3.558  13.782 -0.1573  0.2688 -0.5587
  119TMC2     H 1855   1.019   3.210  13.765 -0.3107  1.6448  1.7364
  119TMC2    H1 1856   0.663   3.437  13.672  0.9111 -0.8916 -1.4475
  119TMC2    H2 1857   0.634   3.036  13.773  1.5038 -0.1183 -2.0704
  119TMC2    C7 1858   0.504   3.259  13.711 -0.2834 -0.6948 -0.0715
  119TMC2    C8 1859   0.886   2.998  13.818 -0.1812  0.4074  0.8271
  119TMC2    O1 1860   0.465   3.312  13.607  0.4408  0.0030  0.4152
  119TMC2    O2 1861   0.997   2.957  13.795 -0.4061  0.4303 -0.1531
  119TMC2    O5 1862   0.811   2.957  13.922  0.3424 -0.4179 -0.2847
  119TMC2    H5 1863   0.734   3.013  13.945  0.4352 -0.6605  0.6191
  120MPD2     C 1864   1.372   3.649  13.942  0.2536 -0.1674 -0.9495
  120MPD2    C1 1865   1.247   3.700  13.950 -0.1992  0.6202  0.0950
  120MPD2    C2 1866   1.146   3.640  13.878  0.1910  0.3096 -0.5423
  120MPD2    C3 1867   1.171   3.527  13.798  1.1118  0.1562 -0.9960
  120MPD2    C4 1868   1.296   3.475  13.793 -0.3023  0.0024 -0.3919
  120MPD2    C5 1869   1.393   3.540  13.862  0.6590  0.4153 -0.0215
  120MPD2     H 1870   1.048   3.684  13.891 -0.0797 -1.5403  3.7590
  120MPD2    H1 1871   1.304   3.383  13.736 -1.2032 -0.4482  0.2181
  120MPD2    H2 1872   1.456   3.694  13.993  0.4648 -0.9109 -0.6342
  120MPD2    H3 1873   1.495   3.504  13.856 -0.2053 -2.0816  0.2035
  120MPD2     N 1874   1.072   3.442  13.749  0.3153  0.5484  0.0300
  120MPD2    H5 1875   1.111   3.356  13.712 -0.9636  0.5886 -1.4058
  120MPD2    N1 1876   1.226   3.800  14.051 -0.1277  0.1275  0.8070
  120MPD2    H7 1877   1.306   3.860  14.067  0.0047  0.9468 -2.8700
  121TMC2    C1 1878   2.272   0.478  14.369 -0.2937 -0.4016  1.3760
  121TMC2    C2 1879   2.278   0.379  14.271 -0.7430  0.2867  0.3633
  121TMC2    C3 1880   2.174   0.287  14.271 -0.4274 -0.0423 -0.0849
  121TMC2    C4 1881   2.195   0.464  14.483 -0.0316 -0.4853  0.0573
  121TMC2    C5 1882   2.102   0.364  14.479 -0.1788 -0.0154 -0.1558
  121TMC2    C6 1883   2.082   0.279  14.376 -0.4697 -0.3652 -1.1624
  121TMC2     C 1884   2.378   0.578  14.363 -1.1110 -0.1052  0.0949
  121TMC2     O 1885   2.426   0.612  14.470 -0.2216 -0.0756  0.5950
  121TMC2     H 1886   2.365   0.382  14.206 -1.9925 -0.2008 -1.3463
  121TMC2    H1 1887   2.197   0.545  14.555 -1.9576 -0.5882  0.2146
  121TMC2    H2 1888   2.024   0.187  14.382  0.5793 -0.9024  0.7423
  121TMC2    C7 1889   1.988   0.382  14.563 -0.0371  0.2442 -1.0420
  121TMC2    C8 1890   2.168   0.180  14.173 -0.0175 -0.7134 -0.2187
  121TMC2    O1 1891   2.007   0.431  14.673 -0.5835  0.3706 -0.2565
  121TMC2    O2 1892   2.071   0.109  14.144 -0.0311  0.5294  0.0834
  121TMC2    O5 1893   2.296   0.160  14.141 -0.1704  0.1501 -0.0944
  121TMC2    H5 1894   2.366   0.204  14.193  1.5423 -1.9376 -0.6570
  122MPD2     C 1895   2.614   0.740  14.290  0.1713 -0.0004  0.8509
  122MPD2    C1 1896   2.501   0.729  14.208  0.0726 -0.6807 -0.1035
  122MPD2    C2 1897   2.503   0.795  14.086  0.3782  0.2316 -0.1516
  122MPD2    C3 1898   2.617   0.867  14.043 -0.2442 -0.1708 -0.2610
  122MPD2    C4 1899   2.729   0.862  14.119 -0.0145 -0.7127  0.7042
  122MPD2    C5 1900   2.725   0.810  14.244 -0.4199 -0.8345  0.1669
  122MPD2     H 1901   2.405   0.796  14.040  0.2266  1.9466  0.2063
  122MPD2    H1 1902   2.812   0.928  14.097 -1.4309  1.3344  1.5606
  122MPD2    H2 1903   2.623   0.677  14.378 -1.2427 -1.1158  0.1903
  122MPD2    H3 1904   2.811   0.819  14.309 -0.0365 -0.8244 -0.3433
  122MPD2     N 1905   2.619   0.955  13.935 -0.7024  0.1478 -0.5744
  122MPD2    H5 1906   2.702   1.011  13.921 -0.9254 -0.3192 -3.6942
  122MPD2    N1 1907   2.397   0.639  14.239 -0.1951 -0.3532  0.0666
  122MPD2    H7 1908   2.327   0.628  14.166  1.4492  1.5678 -1.8038
  123TMC2    C1 1909   1.771   3.698   9.858 -0.8586 -0.1134  0.3421
  123TMC2    C2 1910   1.876   3.764   9.798 -0.9242 -0.1224 -0.4762
  123TMC2    C3 1911   1.850   3.897   9.767  0.1014  0.1454 -0.0736
  123TMC2    C4 1912   1.649   3.759   9.890 -0.5448 -0.1017 -0.7411
  123TMC2    C5 1913   1.639   3.891   9.847  0.4455 -0.1175  0.1812
  123TMC2    C6 1914   1.734   3.967   9.782  0.2175  0.0820 -0.3943
  123TMC2     C 1915   1.779   3.549   9.868  0.0936 -0.1879 -0.4637
  123TMC2     O 1916   1.888   3.496   9.858 -0.4474  0.3367 -0.2084
  123TMC2     H 1917   1.960   3.709   9.756  0.0366  0.8984  0.1151
  123TMC2    H1 1918   1.564   3.711   9.938  0.5101  0.7884  2.0263
  123TMC2    H2 1919   1.727   4.075   9.772 -0.6945  0.0576 -0.0448
  123TMC2    C7 1920   1.500   3.934   9.835 -0.0687 -0.0211 -0.7858
  123TMC2    C8 1921   1.971   3.967   9.724  0.5642  0.1863  0.2693
  123TMC2    O1 1922   1.412   3.869   9.897 -0.6645  0.2133 -0.3254
  123TMC2    O2 1923   2.079   3.916   9.749 -0.1088  0.1515 -0.5728
  123TMC2    O5 1924   1.941   4.021   9.607 -0.1762 -0.4126  0.1369
  123TMC2    H5 1925   1.847   4.045   9.599  0.1068  0.4752 -0.4389
  124MPD2     C 1926   1.529   3.112   9.964  0.0984  0.0763 -0.0097
  124MPD2    C1 1927   1.437   3.217   9.954 -0.6870  0.6756 -0.0130
  124MPD2    C2 1928   1.476   3.343   9.914 -1.0461 -0.0659  0.1815
  124MPD2    C3 1929   1.610   3.367   9.898 -0.1147  0.6094 -0.2699
  124MPD2    C4 1930   1.703   3.266   9.923 -0.0117  0.9598 -0.3321
  124MPD2    C5 1931   1.661   3.137   9.948 -0.6980 -0.0162  0.2075
  124MPD2     H 1932   1.408   3.426   9.903  0.9250  1.6220  0.8342
  124MPD2    H1 1933   1.809   3.286   9.923 -0.1606  1.7321 -2.1931
  124MPD2    H2 1934   1.488   3.019  10.001  0.6780 -0.1667  0.0187
  124MPD2    H3 1935   1.732   3.059   9.974 -0.0222  0.3411 -0.5613
  124MPD2     N 1936   1.652   3.499   9.878  0.0418  0.5979 -0.4992
  124MPD2    H5 1937   1.577   3.568   9.876  0.3948  0.9805 -0.4168
  124MPD2    N1 1938   1.298   3.182   9.974  0.0080  0.1144 -0.0255
  124MPD2    H7 1939   1.279   3.089  10.010 -2.2278  0.4303 -0.3832
  125TMC2    C1 1940   1.542   4.728  10.617  0.8400  0.1680  1.0701
  125TMC2    C2 1941   1.472   4.707  10.730 -0.1639  0.9281  0.3839
  125TMC2    C3 1942   1.344   0.018  10.733  0.7498 -0.0952  0.8414
  125TMC2    C4 1943   1.484   0.052  10.509  0.1893  0.5170  0.2369
  125TMC2    C5 1944   1.351   0.091  10.518  0.4850  0.4772  0.2641
  125TMC2    C6 1945   1.275   0.076  10.629 -0.1148 -0.3892 -0.4165
  125TMC2     C 1946   1.662   4.655  10.601 -0.4454  0.2880  0.4237
  125TMC2     O 1947   1.729   4.676  10.503  0.3844  0.0572  0.1953
  125TMC2     H 1948   1.505   4.647  10.814  3.8571  2.9173  0.2323
  125TMC2    H1 1949   1.549   0.079  10.427 -0.1030  0.4787 -0.0074
  125TMC2    H2 1950   1.173   0.111  10.631  0.1202  0.3125 -0.7884
  125TMC2    C7 1951   1.281   0.127  10.391 -0.1453 -0.4696 -0.2592
  125TMC2    C8 1952   1.265   4.688  10.830 -0.3331 -0.0673 -0.4407
  125TMC2    O1 1953   1.160   0.159  10.407 -0.4425  0.2857  0.3095
  125TMC2    O2 1954   1.309   4.594  10.889 -0.4071  0.1011  0.2863
  125TMC2    O5 1955   1.136   4.715  10.818  0.4830  0.4353 -0.6944
  125TMC2    H5 1956   1.101   0.054  10.770 -1.4103  0.1761  0.2353
  126MPD1     C 1957   2.039   4.385  10.845  0.2862  0.2960 -0.7186
  126MPD1    C1 1958   1.912   4.329  10.873  0.2721 -0.5556  0.2855
  126MPD1    C2 1959   1.801   4.384  10.819  0.6861 -0.2329  0.9655
  126MPD1    C3 1960   1.801   4.496  10.731 -0.1404  0.2860  0.8496
  126MPD1    C4 1961   1.925   4.553  10.700  0.1846  0.2429  0.3416
  126MPD1    C5 1962   2.041   4.488  10.756 -0.3500  0.2574 -0.1099
  126MPD1     H 1963   1.703   4.340  10.833 -0.0832  1.8673  2.0805
  126MPD1    H1 1964   1.939   4.630  10.625  1.0653 -0.4245 -0.1771
  126MPD1    H2 1965   2.134   4.338  10.868 -0.4024 -0.2547  1.0390
  126MPD1    H3 1966   2.138   4.529  10.732 -0.9905  1.4152 -0.7629
  126MPD1     N 1967   1.678   4.553  10.687  0.2247  0.5022 -0.2202
  126MPD1    H5 1968   1.597   4.524  10.741  0.6724 -1.0900 -0.4163
  126MPD1    N1 1969   1.906   4.201  10.935  0.4912 -0.0231 -0.1625
  126MPD1    H6 1970   1.814   4.191  10.977 -0.3439  2.0097 -1.4990
  126MPD1    H7 1971   1.976   4.189  11.009  1.0585  1.6754 -0.4171
  127TMC2    C1 1972   1.730   4.709  10.036  0.2163  0.1127 -0.0524
  127TMC2    C2 1973   1.709   4.719   9.900 -0.3699 -0.2386  0.1909
  127TMC2    C3 1974   1.585   4.679   9.859 -0.1469 -0.0491  1.0658
  127TMC2    C4 1975   1.636   4.656  10.125  0.1333 -0.6478 -0.1783
  127TMC2    C5 1976   1.517   4.607  10.073 -0.0217 -0.1780  0.2932
  127TMC2    C6 1977   1.485   4.626   9.946 -0.3050  0.2503  0.5672
  127TMC2     C 1978   1.854   0.019  10.085  0.8427  1.0974  0.4244
  127TMC2     O 1979   1.915   0.103  10.022  0.2411 -0.1647  0.0594
  127TMC2     H 1980   1.778   0.035   9.836 -1.4043 -2.4692 -2.8406
  127TMC2    H1 1981   1.651   4.660  10.232 -1.3398  1.7463 -0.0553
  127TMC2    H2 1982   1.387   4.603   9.906  0.4034 -1.1407 -0.3410
  127TMC2    C7 1983   1.406   4.566  10.159  0.3723 -0.2208 -0.4984
  127TMC2    C8 1984   1.526   4.725   9.729 -0.3540 -0.0150 -0.0439
  127TMC2    O1 1985   1.300   4.587  10.106  0.4414 -0.1001 -0.3080
  127TMC2    O2 1986   1.405   4.725   9.707  0.4532  0.0840 -0.3657
  127TMC2    O5 1987   1.614   0.037   9.632  0.2685  0.1337 -0.4575
  127TMC2    H5 1988   1.709   0.023   9.651  0.2394  1.5273  0.7084
  128MPD2     C 1989   2.039   4.582  10.351 -0.1755 -0.4029  1.0262
  128MPD2    C1 1990   2.021   4.685  10.265 -0.7879 -0.2834  0.3902
  128MPD2    C2 1991   2.124   0.033  10.240  0.0651 -0.5642 -0.4654
  128MPD2    C3 1992   2.232   0.030  10.327 -0.9452 -0.4098 -0.3154
  128MPD2    C4 1993   2.254   4.661  10.412  0.4217  0.2830  0.4431
  128MPD2    C5 1994   2.154   4.567  10.419 -1.3898  0.2931 -0.2115
  128MPD2     H 1995   2.112   0.119  10.174  1.6022 -0.4879 -0.6481
  128MPD2    H1 1996   2.336   4.645  10.481  0.6908  1.5551  0.4318
  128MPD2    H2 1997   1.955   4.516  10.373 -1.3148  1.5009  2.3614
  128MPD2    H3 1998   2.170   4.482  10.484 -0.3068 -0.0268 -0.9037
  128MPD2     N 1999   2.324   0.137  10.310  0.2009  0.0746  0.3139
  128MPD2    H5 2000   2.301   0.197  10.232  1.5882  0.5120  0.2341
  128MPD2    N1 2001   1.900   4.682  10.191  0.4520  0.9041 -0.4720
  128MPD2    H7 2002   1.850   4.595  10.205  2.6553 -0.4635 -0.9665
  129TMC2    C1 2003   1.506   3.694   1.847  0.2876 -1.2687  0.0823
  129TMC2    C2 2004   1.569   3.606   1.935  0.2555  0.5982  0.2862
  129TMC2    C3 2005   1.531   3.483   1.957 -0.2446  0.2055 -0.0599
  129TMC2    C4 2006   1.423   3.632   1.755 -0.0710 -0.1363  0.2497
  129TMC2    C5 2007   1.407   3.498   1.761  0.2298  0.5661 -0.8830
  129TMC2    C6 2008   1.464   3.422   1.861  0.1724  0.6814  0.0269
  129TMC2     C 2009   1.601   3.801   1.803  0.2181  0.3056  0.2777
  129TMC2     O 2010   1.711   3.803   1.854 -0.1348 -0.2415 -0.2625
  129TMC2     H 2011   1.630   3.645   2.016  1.7672 -0.5266 -0.3213
  129TMC2    H1 2012   1.383   3.688   1.671 -1.0072 -2.1028 -0.6114
  129TMC2    H2 2013   1.445   3.316   1.869  0.6803  0.5239 -0.8595
  129TMC2    C7 2014   1.328   3.432   1.655 -0.8409  0.4747 -0.1780
  129TMC2    C8 2015   1.622   3.403   2.037  0.3975  0.4174 -0.2897
  129TMC2    O1 2016   1.266   3.508   1.584 -0.4605  0.4410  0.1746
  129TMC2    O2 2017   1.742   3.416   2.026 -0.2256  0.0096  0.5824
  129TMC2    O5 2018   1.556   3.323   2.122  0.1751  0.0043  0.0427
  129TMC2    H5 2019   1.458   3.331   2.133  0.1228 -2.9835  1.8319
  130MPD2     C 2020   1.751   4.011   1.663  0.1554  0.1058  0.1606
  130MPD2    C1 2021   1.613   3.998   1.653 -0.4592 -0.0490 -0.1702
  130MPD2    C2 2022   1.547   4.097   1.582 -0.3610 -0.2125 -0.5160
  130MPD2    C3 2023   1.616   4.197   1.512 -0.2850  0.3357  0.2083
  130MPD2    C4 2024   1.753   4.207   1.531  0.0940 -0.0665  0.4670
  130MPD2    C5 2025   1.822   4.116   1.604  0.4698 -0.4059  0.1812
  130MPD2     H 2026   1.439   4.089   1.578 -0.2470 -1.5665 -0.7260
  130MPD2    H1 2027   1.810   4.295   1.503  0.1279 -0.9771 -2.2525
  130MPD2    H2 2028   1.816   3.942   1.716 -0.8433 -1.3664 -0.5287
  130MPD2    H3 2029   1.928   4.127   1.624 -0.0934  1.5994  2.0696
  130MPD2     N 2030   1.539   4.291   1.444 -0.0433  0.3735 -0.0405
  130MPD2    H5 2031   1.438   4.297   1.451 -0.3287 -2.7018 -1.2954
  130MPD2    N1 2032   1.542   3.895   1.710 -0.5523  0.0132  0.0893
  130MPD2    H7 2033   1.443   3.888   1.690 -0.4697  1.6154 -0.8711
  131TMC2    C1 2034   0.610   4.119  10.024 -0.7123  0.3777  0.2272
  131TMC2    C2 2035   0.508   4.157   9.938 -0.2250  0.9813  0.2913
  131TMC2    C3 2036   0.468   4.285   9.953  0.4884 -0.1751 -0.0169
  131TMC2    C4 2037   0.682   4.206  10.101 -0.5749  0.5750  1.0291
  131TMC2    C5 2038   0.638   4.334  10.105 -0.2346 -0.1877  0.5471
  131TMC2    C6 2039   0.532   4.376  10.031 -0.2381  0.2178 -1.0847
  131TMC2     C 2040   0.641   3.972  10.048 -1.1852  0.0559  0.1724
  131TMC2     O 2041   0.739   3.942  10.116 -0.6704 -0.2704  0.2422
  131TMC2     H 2042   0.470   4.098   9.856 -0.4408  0.6754  0.6170
  131TMC2    H1 2043   0.764   4.178  10.166  0.4764 -2.0234 -1.4465
  131TMC2    H2 2044   0.492   4.476  10.045  0.0832 -0.0886  1.9190
  131TMC2    C7 2045   0.720   4.428  10.186  0.5856  0.1136 -0.1952
  131TMC2    C8 2046   0.376   4.344   9.857 -0.2340 -0.7394 -0.0700
  131TMC2    O1 2047   0.790   4.367  10.271  0.2583  0.1583 -0.2364
  131TMC2    O2 2048   0.381   4.463   9.828  0.4407  0.1731  0.3482
  131TMC2    O5 2049   0.279   4.252   9.845  0.4651  0.2921  0.0022
  131TMC2    H5 2050   0.290   4.173   9.902  0.6440 -0.6717 -1.3539
  132MPD2     C 2051   0.421   3.693   9.944  0.1189  0.3010  0.4048
  132MPD2    C1 2052   0.531   3.757   9.989  0.3496 -0.6053  0.0645
  132MPD2    C2 2053   0.638   3.679  10.032 -0.1326 -0.2048  0.3797
  132MPD2    C3 2054   0.633   3.543  10.036  0.0843  0.6358  0.0979
  132MPD2    C4 2055   0.513   3.482  10.002 -0.0320 -0.0540 -0.4245
  132MPD2    C5 2056   0.406   3.555   9.953 -0.1592  0.7943  0.2079
  132MPD2     H 2057   0.730   3.727  10.061 -0.2743 -0.8027  1.8172
  132MPD2    H1 2058   0.514   3.379   9.965  2.4571  0.3603 -1.5077
  132MPD2    H2 2059   0.344   3.753   9.897  1.7141  1.1026 -1.2047
  132MPD2    H3 2060   0.320   3.509   9.906  0.3885 -1.0438  1.0288
  132MPD2     N 2061   0.752   3.470  10.059 -0.4980  0.4844 -0.4003
  132MPD2    H5 2062   0.839   3.522  10.054 -0.8815  1.1828  0.0759
  132MPD2    N1 2063   0.538   3.896   9.996  0.4816 -0.9183 -0.1579
  132MPD2    H7 2064   0.462   3.950   9.955  1.0846 -0.6916 -0.9804
  133TMC2    C1 2065   0.089   3.058  10.485 -0.5428 -0.5274 -0.0213
  133TMC2    C2 2066   0.213   3.029  10.425 -0.4847  0.3004  0.0283
  133TMC2    C3 2067   0.286   2.934  10.481  0.0189 -0.6593 -0.0831
  133TMC2    C4 2068   0.047   2.982  10.593 -0.5977 -0.0206  0.3953
  133TMC2    C5 2069   0.129   2.886  10.647  0.2594 -0.7003 -0.3909
  133TMC2    C6 2070   0.251   2.854  10.587 -0.2924 -0.5781  0.5033
  133TMC2     C 2071   0.003   3.160  10.425  0.1094 -0.9897  0.2879
  133TMC2     O 2072   0.046   3.208  10.319 -0.1394 -0.3859  0.5559
  133TMC2     H 2073   0.242   3.079  10.332  2.4338  1.4490  1.5600
  133TMC2    H1 2074   4.693   3.005  10.645  1.5941  1.3354  3.6618
  133TMC2    H2 2075   0.311   2.768  10.614  3.5419  1.3937 -1.7358
  133TMC2    C7 2076   0.095   2.815  10.769 -0.7140 -0.0192 -0.1865
  133TMC2    C8 2077   0.427   2.934  10.459 -0.5016 -0.1366  0.7244
  133TMC2    O1 2078   0.124   2.695  10.770  0.8262  0.1442 -0.3352
  133TMC2    O2 2079   0.495   2.836  10.478 -0.5772  0.1044  0.3353
  133TMC2    O5 2080   0.468   3.058  10.491  0.7540 -0.1609 -0.1068
  133TMC2    H5 2081   0.389   3.114  10.507  1.6367  1.8067 -2.6204
  134MPD2     C 2082   4.382   3.199  10.419 -0.7334 -0.0752 -0.5773
  134MPD2    C1 2083   4.511   3.236  10.400 -0.3324 -0.3981  0.0148
  134MPD2    C2 2084   4.543   3.356  10.338  0.8093  0.5305 -0.2779
  134MPD2    C3 2085   4.441   3.435  10.296 -0.3490 -0.2152 -0.4754
  134MPD2    C4 2086   4.308   3.396  10.313  0.2688  0.7323 -0.5472
  134MPD2    C5 2087   4.284   3.271  10.358  0.0137 -0.6928  0.9198
  134MPD2     H 2088   4.644   3.396  10.339 -0.4313  3.6831 -0.3915
  134MPD2    H1 2089   4.222   3.456  10.285  0.0865  1.0904  0.8246
  134MPD2    H2 2090   4.359   3.106  10.469 -1.2681  2.2376  3.5566
  134MPD2    H3 2091   4.183   3.238  10.380 -0.2388 -0.6108 -0.1640
  134MPD2     N 2092   4.459   3.569  10.250  0.5372 -0.2041 -0.0717
  134MPD2    H5 2093   4.372   3.617  10.232 -0.2063 -1.7125 -0.4983
  134MPD2    N1 2094   4.613   3.159  10.468 -0.4192  0.8191 -0.4075
  134MPD2    H7 2095   4.584   3.073  10.514 -2.0601  2.1715  1.0984
  135TMC2    C1 2096   2.305   1.389   9.326 -0.0962 -0.4632  0.0019
  135TMC2    C2 2097   2.279   1.512   9.263  0.3961 -0.5561 -0.1986
  135TMC2    C3 2098   2.252   1.617   9.336  0.5513  0.1117  0.3247
  135TMC2    C4 2099   2.295   1.377   9.460  0.4665 -0.6183 -1.1596
  135TMC2    C5 2100   2.261   1.485   9.539  0.5410 -0.1993  0.3536
  135TMC2    C6 2101   2.242   1.608   9.473  0.2490  0.5321 -0.0369
  135TMC2     C 2102   2.365   1.286   9.247 -0.2585 -0.1281  0.1044
  135TMC2     O 2103   2.385   1.301   9.127  0.1413  0.1059 -0.1189
  135TMC2     H 2104   2.277   1.529   9.156  0.0870 -1.2700 -0.3043
  135TMC2    H1 2105   2.318   1.285   9.512 -0.6621  0.9231  2.1040
  135TMC2    H2 2106   2.195   1.680   9.539 -0.4138  1.9017 -2.0351
  135TMC2    C7 2107   2.212   1.462   9.672  0.9860 -0.2137  0.2994
  135TMC2    C8 2108   2.276   1.745   9.273  0.1059  0.0584 -0.2848
  135TMC2    O1 2109   2.276   1.381   9.734 -0.6677  0.5237  0.5526
  135TMC2    O2 2110   2.259   1.759   9.154 -0.3422 -0.1840 -0.1390
  135TMC2    O5 2111   2.357   1.820   9.350 -0.2316 -0.5297  0.0167
  135TMC2    H5 2112   2.346   1.795   9.444  1.6887  1.5710  0.7956
  136MPD2     C 2113   2.410   1.009   9.136 -0.3340  0.3929  0.6078
  136MPD2    C1 2114   2.426   1.046   9.273 -0.3363  0.3089 -0.1956
  136MPD2    C2 2115   2.449   0.937   9.358 -0.4423 -0.8092  0.4963
  136MPD2    C3 2116   2.455   0.810   9.314 -0.0512 -0.1094 -0.5315
  136MPD2    C4 2117   2.423   0.779   9.183  0.0853  0.2545  0.1879
  136MPD2    C5 2118   2.407   0.881   9.089  0.1608 -0.0844  0.1430
  136MPD2     H 2119   2.468   0.967   9.460 -0.6457  0.0346  0.2877
  136MPD2    H1 2120   2.437   0.679   9.144  2.1440  1.1404 -1.3812
  136MPD2    H2 2121   2.385   1.085   9.063  0.1891 -0.2446 -0.2303
  136MPD2    H3 2122   2.387   0.858   8.985  0.3723  0.1415  0.0512
  136MPD2     N 2123   2.465   0.699   9.403 -0.2682 -0.1797 -0.0080
  136MPD2    H5 2124   2.434   0.606   9.378  1.0882 -2.2198  5.7048
  136MPD2    N1 2125   2.388   1.173   9.324  0.2522 -0.3492  0.0780
  136MPD2    H7 2126   2.393   1.183   9.424  0.1022 -0.7765  0.1306
  137TMC2    C1 2127   1.873   0.294  10.419 -0.2347 -0.0839 -0.1074
  137TMC2    C2 2128   1.975   0.348  10.494 -0.0069 -0.2186  1.1068
  137TMC2    C3 2129   2.058   0.437  10.432 -0.2328 -0.4172  0.3465
  137TMC2    C4 2130   1.864   0.333  10.279 -0.4941  0.0943  0.5269
  137TMC2    C5 2131   1.951   0.428  10.230  0.4254 -0.1782  0.3388
  137TMC2    C6 2132   2.057   0.477  10.303  0.1026  0.0273 -0.2104
  137TMC2     C 2133   1.747   0.310  10.480 -0.1244 -0.4777 -0.2735
  137TMC2     O 2134   1.651   0.336  10.413 -0.1336 -0.4851  0.0316
  137TMC2     H 2135   1.992   0.331  10.600  0.9493 -2.7186  0.5616
  137TMC2    H1 2136   1.793   0.274  10.222  2.1922 -0.0011 -2.7441
  137TMC2    H2 2137   2.114   0.562  10.268  1.7916 -0.9695  0.1478
  137TMC2    C7 2138   1.898   0.524  10.146 -0.1717 -0.4539 -0.6023
  137TMC2    C8 2139   2.174   0.471  10.516 -0.1089 -0.0255  0.1147
  137TMC2    O1 2140   1.978   0.600  10.088 -0.5766  0.3186 -0.3624
  137TMC2    O2 2141   2.248   0.385  10.562 -0.2852 -0.0480 -0.5894
  137TMC2    O5 2142   2.225   0.594  10.482 -0.5347 -0.3156 -0.2213
  137TMC2    H5 2143   2.154   0.649  10.441 -0.2976 -0.9686 -1.5272
  138MPD2     C 2144   1.663   0.250  10.822  0.5678  0.3480 -0.1911
  138MPD2    C1 2145   1.636   0.293  10.698 -0.0509 -0.1666 -0.3604
  138MPD2    C2 2146   1.517   0.353  10.667  0.3686 -0.0681  0.2690
  138MPD2    C3 2147   1.431   0.376  10.768 -0.5067 -0.3947  0.0631
  138MPD2    C4 2148   1.450   0.323  10.895  0.0119  0.2595 -0.7116
  138MPD2    C5 2149   1.568   0.254  10.922  0.0626  0.1396 -0.2373
  138MPD2     H 2150   1.498   0.398  10.570  0.2722 -1.6966 -0.4662
  138MPD2    H1 2151   1.382   0.337  10.979  0.4695  3.3474 -0.8570
  138MPD2    H2 2152   1.762   0.210  10.838  0.2727  0.1460  1.0972
  138MPD2    H3 2153   1.591   0.225  11.024 -0.5797  1.7576  0.3739
  138MPD2     N 2154   1.315   0.462  10.732 -0.2598  0.4529  0.7339
  138MPD2    H5 2155   1.287   0.474  10.635  0.4579  0.1037  0.4779
  138MPD2    N1 2156   1.751   0.295  10.614  0.4019 -0.5049 -0.2897
  138MPD2    H7 2157   1.833   0.246  10.648  1.1174  0.4236 -0.6826
  139TMC2    C1 2158   2.684   3.449  13.547  0.7670  0.3802 -0.4865
  139TMC2    C2 2159   2.707   3.473  13.415  0.3592  0.2321  0.0190
  139TMC2    C3 2160   2.641   3.572  13.352  0.3480 -0.2339 -0.4723
  139TMC2    C4 2161   2.586   3.503  13.619 -0.1976 -0.1917 -0.0961
  139TMC2    C5 2162   2.519   3.609  13.551  0.1139 -1.1261  0.1156
  139TMC2    C6 2163   2.549   3.643  13.422 -0.6772 -0.1152  0.2173
  139TMC2     C 2164   2.763   3.337  13.604 -0.0813  0.2908 -0.6438
  139TMC2     O 2165   2.880   3.324  13.573 -0.5977 -0.0162 -0.3049
  139TMC2     H 2166   2.783   3.417  13.362 -2.7242 -4.0063  0.0572
  139TMC2    H1 2167   2.573   3.498  13.727  2.5029 -0.6800  0.1880
  139TMC2    H2 2168   2.502   3.729  13.375  0.4258  1.3873  1.8888
  139TMC2    C7 2169   2.426   3.693  13.616  0.5043 -0.4444 -0.4901
  139TMC2    C8 2170   2.593   3.523  13.229 -0.2138  0.6288 -0.2424
  139TMC2    O1 2171   2.361   3.764  13.541  0.0761 -0.1038 -0.4279
  139TMC2    O2 2172   2.482   3.474  13.234  0.6820  0.2513  0.4837
  139TMC2    O5 2173   2.691   3.499  13.146 -0.5114  0.0512 -0.2743
  139TMC2    H5 2174   2.756   3.570  13.162 -0.9077  0.8649 -2.2725
  140MPD2     C 2175   2.630   3.096  13.852 -0.3716 -0.2669  0.1526
  140MPD2    C1 2176   2.720   3.145  13.761 -0.0303 -0.7008  0.1419
  140MPD2    C2 2177   2.836   3.075  13.729  0.5498 -0.3428 -0.0334
  140MPD2    C3 2178   2.851   2.949  13.781 -0.2249  0.0531  0.4450
  140MPD2    C4 2179   2.761   2.901  13.878  0.2291 -0.4044  0.1753
  140MPD2    C5 2180   2.650   2.978  13.914 -0.5221  0.0028 -0.4621
  140MPD2     H 2181   2.911   3.112  13.660 -0.1844 -1.0520 -1.2194
  140MPD2    H1 2182   2.765   2.804  13.927 -2.5037 -1.3241 -1.3727
  140MPD2    H2 2183   2.535   3.146  13.864  0.1281  0.7708 -0.1776
  140MPD2    H3 2184   2.578   2.947  13.989  2.7079  0.0969  2.6900
  140MPD2     N 2185   2.965   2.877  13.748  0.2553 -0.6168  0.1298
  140MPD2    H5 2186   3.040   2.928  13.704  0.5138 -2.2088 -1.2471
  140MPD2    N1 2187   2.683   3.262  13.688 -0.0898  0.1914 -0.2913
  140MPD2    H7 2188   2.589   3.294  13.709 -0.1706 -0.8891  0.9668
  141TMC2    C1 2189   2.701   4.192  14.459  0.0268  0.2003  0.6204
  141TMC2    C2 2190   2.631   4.080  14.510  0.2372  0.5417 -0.3256
  141TMC2    C3 2191   2.671   4.036  14.632  0.1287 -0.2414 -0.1755
  141TMC2    C4 2192   2.816   4.236  14.519 -0.3805  0.4845  0.0257
  141TMC2    C5 2193   2.857   4.171  14.630 -0.2060  0.2747  0.4528
  141TMC2    C6 2194   2.788   4.074  14.692  0.2056  0.9998  0.4387
  141TMC2     C 2195   2.658   4.264  14.344  0.1721 -0.3712  0.4178
  141TMC2     O 2196   2.709   4.371  14.319 -0.1481 -0.2222  0.5125
  141TMC2     H 2197   2.536   4.052  14.467  0.8393  0.6238 -1.7018
  141TMC2    H1 2198   2.881   4.309  14.472 -1.7752  1.5326 -0.2775
  141TMC2    H2 2199   2.829   4.019  14.776 -1.1185  0.2563  0.6121
  141TMC2    C7 2200   2.994   4.183  14.659 -1.2612  0.1142 -0.3745
  141TMC2    C8 2201   2.607   3.918  14.678 -0.2844  0.4290  0.0460
  141TMC2    O1 2202   3.026   4.165  14.776  0.1003 -0.0036  0.0004
  141TMC2    O2 2203   2.521   3.865  14.607 -0.5800  0.1051  0.1669
  141TMC2    O5 2204   2.625   3.901  14.806  0.8617  0.0190 -0.7273
  141TMC2    H5 2205   2.676   3.969  14.856 -0.8214 -0.3717  1.5281
  142TMC2    C1 2206   0.718   3.561   9.705  0.1262 -0.6513  0.3117
  142TMC2    C2 2207   0.608   3.637   9.682 -0.7216  0.4651  0.0856
  142TMC2    C3 2208   0.615   3.767   9.655  0.2914  0.5668 -0.2121
  142TMC2    C4 2209   0.849   3.618   9.716  0.4429  0.0782 -0.7733
  142TMC2    C5 2210   0.847   3.754   9.704  0.4074  0.2842  0.4838
  142TMC2    C6 2211   0.738   3.825   9.671  0.0898 -0.5682 -0.0679
  142TMC2     C 2212   0.697   3.417   9.705  0.4528 -0.2936  0.4851
  142TMC2     O 2213   0.581   3.374   9.689 -0.3928 -0.1376  0.0483
  142TMC2     H 2214   0.508   3.594   9.684 -0.4459 -0.1724 -0.0564
  142TMC2    H1 2215   0.944   3.569   9.731  0.5895  1.4191  2.7029
  142TMC2    H2 2216   0.759   3.931   9.661 -0.2856 -0.2443  2.4298
  142TMC2    C7 2217   0.981   3.808   9.724 -0.3862  0.3297  0.2130
  142TMC2    C8 2218   0.496   3.847   9.641 -0.8256 -0.0748 -0.5906
  142TMC2    O1 2219   1.068   3.747   9.785  0.0583  0.1195  0.2814
  142TMC2    O2 2220   0.498   3.967   9.656  0.1184 -0.4470  0.2377
  142TMC2    O5 2221   0.420   3.783   9.546  0.3090 -0.2506 -0.3180
  142TMC2    H5 2222   0.455   3.693   9.528  0.3802 -0.4687  0.9121
  143MPD2     C 2223   0.827   2.927   9.664 -0.0066  0.1159  0.6400
  143MPD2    C1 2224   0.724   2.979   9.736  1.0152  0.1898 -0.9509
  143MPD2    C2 2225   0.705   3.118   9.742  0.4974  0.5997 -0.4876
  143MPD2    C3 2226   0.806   3.200   9.694 -0.2546  0.3776  0.6714
  143MPD2    C4 2227   0.914   3.142   9.625  0.1708  0.2352 -0.0465
  143MPD2    C5 2228   0.922   3.009   9.608 -0.3666  0.4046  0.5541
  143MPD2     H 2229   0.612   3.155   9.784 -0.0250 -0.4484 -0.7304
  143MPD2    H1 2230   0.989   3.203   9.578  0.6965 -0.9699 -0.7624
  143MPD2    H2 2231   0.841   2.820   9.648 -2.8352 -0.5021  2.3498
  143MPD2    H3 2232   1.006   2.967   9.556 -0.4941  0.0673  0.6233
  143MPD2     N 2233   0.811   3.343   9.699  0.2988 -0.5883  0.3237
  143MPD2    H5 2234   0.900   3.390   9.688 -0.0677  0.3554  1.3965
  143MPD2    N1 2235   0.634   2.889   9.794  0.3326 -0.1922 -0.5250
  143MPD2    H7 2236   0.632   2.793   9.762  0.1580 -0.5470  0.5889
  144TMC2    C1 2237   3.741   1.455   0.513  0.1114 -0.1293  0.0653
  144TMC2    C2 2238   3.799   1.334   0.485  0.0243  0.1367 -0.0644
  144TMC2    C3 2239   3.906   1.296   0.558  0.2027  0.0318 -0.2229
  144TMC2    C4 2240   3.806   1.541   0.600  0.8864 -0.2545 -0.1438
  144TMC2    C5 2241   3.893   1.484   0.692  0.3305  0.0133  0.4968
  144TMC2    C6 2242   3.951   1.367   0.664 -0.6386  0.4184  0.3144
  144TMC2     C 2243   3.617   1.496   0.443  0.4339 -0.1169  0.0367
  144TMC2     O 2244   3.602   1.453   0.328  0.1313  0.0452  0.7592
  144TMC2     H 2245   3.741   1.278   0.412  1.6474 -3.8345  1.7134
  144TMC2    H1 2246   3.779   1.646   0.607  0.7671 -0.2695 -0.3642
  144TMC2    H2 2247   4.024   1.323   0.731  1.0936  0.9135 -1.2378
  144TMC2    C7 2248   3.997   1.561   0.750 -0.1365 -0.4449 -0.4590
  144TMC2    C8 2249   3.957   1.161   0.535 -0.0081 -0.3066  0.3213
  144TMC2    O1 2250   4.113   1.519   0.756  0.1136 -0.1149 -0.2710
  144TMC2    O2 2251   4.047   1.117   0.609  0.2552 -0.3192 -0.5203
  144TMC2    O5 2252   3.967   1.158   0.401 -0.6571  0.0445  0.1136
  144TMC2    H5 2253   3.917   1.226   0.352  0.0921  0.6070  0.1242
  145MPD2     C 2254   3.238   1.834   0.380  0.7188  0.0482 -0.0172
  145MPD2    C1 2255   3.309   1.759   0.290 -0.4318 -0.7587  0.4287
  145MPD2    C2 2256   3.419   1.683   0.325 -0.2699 -0.3155 -0.0620
  145MPD2    C3 2257   3.461   1.688   0.461 -0.4145 -0.4441  0.4994
  145MPD2    C4 2258   3.391   1.769   0.554  0.6001  0.0635 -0.8637
  145MPD2    C5 2259   3.273   1.833   0.509 -0.0323  0.1445  0.0332
  145MPD2     H 2260   3.474   1.632   0.247  1.9568  0.0708  1.2724
  145MPD2    H1 2261   3.414   1.756   0.659  1.8430  2.1098 -0.8803
  145MPD2    H2 2262   3.156   1.894   0.344 -1.3014 -1.3901  2.1487
  145MPD2    H3 2263   3.218   1.889   0.583 -0.3264  0.6713 -0.5905
  145MPD2     N 2264   3.549   1.589   0.516  0.9214  0.0944 -0.1312
  145MPD2    H5 2265   3.570   1.587   0.615 -0.3527 -0.6458  0.1233
  145MPD2    N1 2266   3.268   1.748   0.157  0.1415  0.1532  0.0859
  145MPD2    H7 2267   3.332   1.698   0.095 -1.3035 -0.8843 -0.5693
  146TMC2    C1 2268   0.411   0.895  12.371  1.5273 -0.5557  0.1387
  146TMC2    C2 2269   0.377   0.973  12.268 -0.3904  0.2954  0.0334
  146TMC2    C3 2270   0.464   0.977  12.163  0.3002 -0.1237  0.6888
  146TMC2    C4 2271   0.530   0.836  12.375  0.4591 -0.1698 -0.0620
  146TMC2    C5 2272   0.612   0.839  12.263  0.0222  0.0996 -0.1238
  146TMC2    C6 2273   0.579   0.906  12.148 -0.4592  0.3633 -0.1850
  146TMC2     C 2274   0.329   0.889  12.488 -0.0366  0.4015 -0.1142
  146TMC2     O 2275   0.252   0.986  12.502  0.0848  0.5246  0.0790
  146TMC2     H 2276   0.279   1.019  12.266 -0.9576 -0.9135  0.1334
  146TMC2    H1 2277   0.558   0.789  12.469  0.3828 -3.8855 -1.9059
  146TMC2    H2 2278   0.645   0.921  12.064  0.3633 -0.0146  0.3818
  146TMC2    C7 2279   0.734   0.769  12.253 -0.4212 -0.2758 -0.1064
  146TMC2    C8 2280   0.430   1.058  12.047  0.1886 -0.1187  0.0458
  146TMC2    O1 2281   0.798   0.765  12.151 -0.1707 -0.2675 -0.2617
  146TMC2    O2 2282   0.502   1.061  11.949 -0.5747 -0.2266 -0.4600
  146TMC2    O5 2283   0.351   1.164  12.099  0.1597 -0.4567  0.0470
  146TMC2    H5 2284   0.319   1.231  12.035  0.3307 -0.3039  0.1226
  147MPD2     C 2285   1.084   0.457  12.448  0.3085 -0.4209  0.5292
  147MPD2    C1 2286   0.974   0.454  12.529 -0.3956  0.0175 -0.4239
  147MPD2    C2 2287   0.876   0.537  12.498  0.2864 -0.4649  1.5094
  147MPD2    C3 2288   0.870   0.620  12.391  0.3518 -0.0137  0.2344
  147MPD2    C4 2289   0.978   0.622  12.309 -0.0947 -0.1176  0.5259
  147MPD2    C5 2290   1.088   0.541  12.335  0.8023  0.3827  0.0862
  147MPD2     H 2291   0.787   0.535  12.559 -0.4184 -0.8821  0.4529
  147MPD2    H1 2292   0.987   0.681  12.219  1.7943  0.1560  0.8855
  147MPD2    H2 2293   1.164   0.392  12.481  2.3417  1.1400 -1.3048
  147MPD2    H3 2294   1.174   0.534  12.269 -0.7783  3.5635 -2.3215
  147MPD2     N 2295   0.754   0.696  12.369  0.5759 -0.0909 -0.0286
  147MPD2    H5 2296   0.687   0.692  12.444  1.0581  1.9088  0.5088
  147MPD2    N1 2297   0.972   0.366  12.642 -0.6294  0.6175 -0.5891
  147MPD2    H7 2298   1.044   0.295  12.637 -0.4416  0.8872 -1.7854
  148TMC2    C1 2299   0.759   4.222  10.570  1.0569 -0.4597  0.6739
  148TMC2    C2 2300   0.898   4.211  10.573 -0.5323  0.9310  0.5714
  148TMC2    C3 2301   0.956   4.103  10.515  0.6078 -0.6688 -0.6909
  148TMC2    C4 2302   0.681   4.122  10.513 -0.3550  0.6652  0.2088
  148TMC2    C5 2303   0.744   4.016  10.457  0.1953 -0.0552 -0.3915
  148TMC2    C6 2304   0.885   3.995  10.470 -0.2392 -0.2534 -0.3182
  148TMC2     C 2305   0.696   4.336  10.640  0.7443 -0.3886 -0.6673
  148TMC2     O 2306   0.772   4.428  10.666 -0.4295  0.4850  0.1217
  148TMC2     H 2307   0.954   4.294  10.614 -0.1818 -0.1418  2.2487
  148TMC2    H1 2308   0.579   4.142  10.481 -0.6694  0.1473  0.9014
  148TMC2    H2 2309   0.934   3.905  10.436 -1.9157 -0.3609 -2.4508
  148TMC2    C7 2310   0.663   3.901  10.424 -0.2433 -0.5323  0.2218
  148TMC2    C8 2311   1.095   4.087  10.548 -0.0911 -0.1066  0.2016
  148TMC2    O1 2312   0.545   3.921  10.421  0.0394  1.3319 -0.3076
  148TMC2    O2 2313   1.149   3.997  10.612 -0.2252 -0.1396  0.5442
  148TMC2    O5 2314   1.169   4.151  10.457  0.1998  0.1395 -0.7220
  148TMC2    H5 2315   1.119   4.212  10.398 -1.8715 -1.4782 -0.6589
  149MPD2     C 2316   0.516   4.551  10.744 -0.3858 -0.0836 -0.3328
  149MPD2    C1 2317   0.480   4.420  10.724  0.7795  0.2210  0.1442
  149MPD2    C2 2318   0.362   4.375  10.772 -0.4545 -0.3633  0.3954
  149MPD2    C3 2319   0.275   4.453  10.841  0.3664  0.3122  0.0241
  149MPD2    C4 2320   0.309   4.586  10.864  0.0823 -0.0404 -0.3180
  149MPD2    C5 2321   0.434   4.635  10.812  0.3936 -0.0206 -0.1904
  149MPD2     H 2322   0.342   4.270  10.758 -0.4207 -0.4862  1.2571
  149MPD2    H1 2323   0.243   4.663  10.903  0.1771  0.9903 -2.1630
  149MPD2    H2 2324   0.611   4.590  10.709 -1.9001  0.8613 -3.3726
  149MPD2    H3 2325   0.458   0.002  10.818  1.2051 -0.2305  0.1882
  149MPD2     N 2326   0.141   4.413  10.884 -0.2548 -0.0044  0.5064
  149MPD2    H5 2327   0.090   4.481  10.940 -1.7166 -1.2507  0.6845
  149MPD2    N1 2328   0.561   4.328  10.661  0.5527 -0.4343 -0.4530
  149MPD2    H7 2329   0.523   4.236  10.646 -1.3716  0.4724 -1.2074
  150TMC2    C1 2330   1.905   3.839  12.245 -0.0306 -0.1717 -0.4739
  150TMC2    C2 2331   1.918   3.863  12.377 -0.5369 -0.0131  0.1290
  150TMC2    C3 2332   2.044   3.830  12.432  0.3424 -0.0358  0.6500
  150TMC2    C4 2333   2.015   3.821  12.167 -0.3337  0.5608  0.3259
  150TMC2    C5 2334   2.135   3.789  12.223  0.1725  0.1057  0.4744
  150TMC2    C6 2335   2.150   3.791  12.359 -0.6614 -0.3246  0.4422
  150TMC2     C 2336   1.793   3.908  12.180 -0.4370  0.2494 -0.0820
  150TMC2     O 2337   1.731   3.995  12.236 -0.1423 -0.4549  0.4155
  150TMC2     H 2338   1.837   3.915  12.426 -0.8789 -1.1433  0.7683
  150TMC2    H1 2339   2.002   3.817  12.059  0.1656  0.5590  0.2698
  150TMC2    H2 2340   2.245   3.778  12.410  0.0925  1.5103 -0.5049
  150TMC2    C7 2341   2.252   3.782  12.134 -0.1179 -0.0456  0.7925
  150TMC2    C8 2342   2.090   3.914  12.543 -0.1448  0.5881 -0.3974
  150TMC2    O1 2343   2.237   3.829  12.020  0.1985 -0.3965 -0.7219
  150TMC2    O2 2344   2.196   3.975  12.536  0.2278 -0.5564 -0.4873
  150TMC2    O5 2345   1.979   3.955  12.609 -0.2372 -0.4810  0.3898
  150TMC2    H5 2346   1.923   3.876  12.630 -1.6536  0.7571  1.2457
  151MPD2     C 2347   1.441   3.912  11.818 -0.8115  0.1321  0.8728
  151MPD2    C1 2348   1.487   3.784  11.829  0.0654  0.1844 -0.4801
  151MPD2    C2 2349   1.601   3.761  11.905 -0.1476  0.1585 -0.5289
  151MPD2    C3 2350   1.659   3.866  11.969 -0.5704 -0.3656  0.2850
  151MPD2    C4 2351   1.614   3.995  11.948 -0.6478  0.0725 -0.1806
  151MPD2    C5 2352   1.502   4.017  11.877  0.0122  0.1146  0.0516
  151MPD2     H 2353   1.638   3.660  11.916 -1.1298 -0.1013  0.3987
  151MPD2    H1 2354   1.660   4.079  12.000 -3.2271  2.7523 -2.1718
  151MPD2    H2 2355   1.367   3.940  11.744 -2.1760 -0.3737  2.0532
  151MPD2    H3 2356   1.478   4.115  11.838  0.9150 -0.7463 -2.5987
  151MPD2     N 2357   1.759   3.832  12.063  0.7340  0.1753  0.1060
  151MPD2    H5 2358   1.812   3.746  12.057  0.7634  0.2078 -0.0833
  151MPD2    N1 2359   1.423   3.681  11.755 -0.7441  0.6755  0.5147
  151MPD2    H7 2360   1.342   3.710  11.700 -0.8286  1.5399  1.0891
  152TMC2    C1 2361   1.980   3.144  13.475  0.1337 -0.9985  0.0097
  152TMC2    C2 2362   1.993   3.010  13.491 -0.0089 -0.7100 -0.4025
  152TMC2    C3 2363   2.074   2.942  13.411  0.3138 -0.6059 -0.1747
  152TMC2    C4 2364   2.040   3.205  13.365 -0.6485  0.2933  0.1240
  152TMC2    C5 2365   2.104   3.124  13.281  0.0019  0.8990 -0.3690
  152TMC2    C6 2366   2.118   2.990  13.291 -0.0115  0.5838  0.6129
  152TMC2     C 2367   1.855   3.201  13.520 -0.5234  0.0095  0.4024
  152TMC2     O 2368   1.828   3.306  13.467  0.3817  0.1870 -0.0913
  152TMC2     H 2369   1.965   2.964  13.585 -2.0125  1.8312  0.2517
  152TMC2    H1 2370   2.016   3.309  13.347 -1.8340 -0.3334 -1.9463
  152TMC2    H2 2371   2.165   2.927  13.216 -0.4338 -0.5953  1.3271
  152TMC2    C7 2372   2.143   3.173  13.151 -0.3891  0.1434  0.4333
  152TMC2    C8 2373   2.137   2.831  13.475 -0.1094  0.5808 -0.3487
  152TMC2    O1 2374   2.184   3.087  13.072  0.6112 -0.0990  0.2145
  152TMC2    O2 2375   2.088   2.779  13.573  0.1691 -0.5388 -0.5133
  152TMC2    O5 2376   2.238   2.780  13.403  0.1847  0.0631 -0.4741
  152TMC2    H5 2377   2.281   2.834  13.333  0.5768 -1.5832 -1.5163
  153MPD2     C 2378   1.561   3.030  13.658 -0.0474 -0.2706 -0.7254
  153MPD2    C1 2379   1.639   3.131  13.611 -0.3588 -0.4181 -0.3518
  153MPD2    C2 2380   1.578   3.247  13.569  0.3855  0.0719 -0.3831
  153MPD2    C3 2381   1.442   3.256  13.547 -0.2690 -0.0603  0.7554
  153MPD2    C4 2382   1.363   3.153  13.601  0.2421 -0.6845  0.1516
  153MPD2    C5 2383   1.429   3.048  13.655  0.4770  0.0916 -0.5774
  153MPD2     H 2384   1.624   3.341  13.540  0.4301  0.0497 -0.3842
  153MPD2    H1 2385   1.255   3.150  13.595  0.2624 -0.5309 -0.2793
  153MPD2    H2 2386   1.603   2.937  13.695 -0.3912 -0.2366 -0.2452
  153MPD2    H3 2387   1.361   2.971  13.689 -1.7328  1.3231 -2.2269
  153MPD2     N 2388   1.398   3.357  13.460  0.0976 -0.3671 -0.2513
  153MPD2    H5 2389   1.472   3.412  13.416 -2.4552  2.5056 -0.9701
  153MPD2    N1 2390   1.777   3.115  13.596 -0.9838  0.8768 -0.5521
  153MPD2    H7 2391   1.809   3.027  13.636  0.2249  1.3339 -0.5288
  154TMC2    C1 2392   3.604   3.004   0.681  0.6072  0.2998  0.4795
  154TMC2    C2 2393   3.697   3.069   0.761 -0.4160  0.0809 -0.0619
  154TMC2    C3 2394   3.826   3.023   0.778 -0.0108 -0.7519  0.3667
  154TMC2    C4 2395   3.644   2.894   0.612  0.2879 -0.0963  0.0159
  154TMC2    C5 2396   3.773   2.850   0.628 -0.9510 -0.5848  0.1069
  154TMC2    C6 2397   3.865   2.912   0.713  0.1981 -0.1613  0.2936
  154TMC2     C 2398   3.472   3.063   0.654 -0.2390  0.5286  0.9837
  154TMC2     O 2399   3.441   3.158   0.725 -0.2886  0.2497  0.2183
  154TMC2     H 2400   3.656   3.142   0.829  0.2885  1.3378 -0.9949
  154TMC2    H1 2401   3.562   2.847   0.559  1.0361 -3.5115  1.8551
  154TMC2    H2 2402   3.964   2.869   0.718 -0.7030 -2.1598  1.0163
  154TMC2    C7 2403   3.805   2.726   0.561  0.0933  0.3125 -0.3534
  154TMC2    C8 2404   3.896   3.058   0.903 -0.4423  0.7007  0.1237
  154TMC2    O1 2405   3.901   2.661   0.600  0.1622  0.8094 -0.3563
  154TMC2    O2 2406   3.853   3.127   0.999 -0.5672  0.4776  0.0909
  154TMC2    O5 2407   4.023   3.017   0.886 -0.0959  0.0919  0.0001
  154TMC2    H5 2408   4.062   2.993   0.799  1.5005  2.3410  0.1101
  155MPD2     C 2409   3.290   3.061   0.335 -0.0383  0.7327  0.4819
  155MPD2    C1 2410   3.306   3.088   0.468 -0.3142 -0.6220  0.3067
  155MPD2    C2 2411   3.199   3.147   0.539 -0.2178 -0.2485  0.3472
  155MPD2    C3 2412   3.084   3.172   0.476 -0.0184  0.6856 -0.8989
  155MPD2    C4 2413   3.067   3.132   0.340 -0.2629 -0.8402  0.6127
  155MPD2    C5 2414   3.166   3.082   0.266 -0.3330  0.5357 -0.3286
  155MPD2     H 2415   3.208   3.169   0.645 -0.9243  2.5405 -0.1780
  155MPD2    H1 2416   2.977   3.159   0.286  0.0103 -1.5468 -0.1976
  155MPD2    H2 2417   3.368   3.014   0.275  1.5440  2.3651  1.2531
  155MPD2    H3 2418   3.152   3.067   0.160 -0.1382  0.9583 -0.4110
  155MPD2     N 2419   2.969   3.211   0.551 -0.0905 -0.3130  0.5853
  155MPD2    H5 2420   2.990   3.215   0.650 -2.3795  1.4206  0.9887
  155MPD2    N1 2421   3.434   3.046   0.524  0.5051  0.1321  0.6906
  155MPD2    H7 2422   3.505   3.010   0.461  1.2192 -0.6283  1.9402
  156TMC2    C1 2423   1.923   1.301  11.903 -0.0422 -0.3033  0.0523
  156TMC2    C2 2424   1.937   1.263  11.771 -0.1839 -0.0936 -0.1948
  156TMC2    C3 2425   1.830   1.288  11.692 -0.6436  1.2391  0.2442
  156TMC2    C4 2426   1.816   1.376  11.944  0.6364  0.3971 -0.3509
  156TMC2    C5 2427   1.718   1.412  11.853  0.6076  0.6410  1.1066
  156TMC2    C6 2428   1.723   1.363  11.722 -0.3128 -0.1454  0.3426
  156TMC2     C 2429   2.029   1.289  11.996 -0.5084 -0.1938  0.5594
  156TMC2     O 2430   2.009   1.331  12.112 -0.0073  0.0407  0.0681
  156TMC2     H 2431   1.990   1.170  11.756 -1.9803 -0.7223 -2.5683
  156TMC2    H1 2432   1.812   1.420  12.044  1.9571 -2.1828  0.8357
  156TMC2    H2 2433   1.636   1.368  11.658  0.4397  0.8729 -0.6014
  156TMC2    C7 2434   1.636   1.529  11.887 -0.4625 -0.2624 -0.0409
  156TMC2    C8 2435   1.828   1.198  11.576 -0.4796  0.5237  0.4647
  156TMC2    O1 2436   1.687   1.615  11.957 -0.0186  0.1353  0.0671
  156TMC2    O2 2437   1.725   1.172  11.514 -0.2153 -0.0173  0.5233
  156TMC2    O5 2438   1.950   1.209  11.520 -0.2770  0.4371  0.2737
  156TMC2    H5 2439   2.018   1.248  11.579  0.1222 -0.2776  0.2813
  157MPD2     C 2440   2.383   1.203  11.954 -0.1986 -0.1856 -0.5018
  157MPD2    C1 2441   2.262   1.233  12.019  0.4728 -0.2733  0.0888
  157MPD2    C2 2442   2.267   1.229  12.160 -0.0048  0.4255  0.5925
  157MPD2    C3 2443   2.386   1.218  12.229  0.0420  0.1187 -0.3917
  157MPD2    C4 2444   2.502   1.205  12.161  0.0914 -0.0560 -0.1121
  157MPD2    C5 2445   2.501   1.194  12.024  0.2133 -0.5223  0.5480
  157MPD2     H 2446   2.181   1.218  12.224 -0.6405  0.7943 -0.2003
  157MPD2    H1 2447   2.600   1.197  12.209 -0.3872 -0.9188  0.7089
  157MPD2    H2 2448   2.380   1.177  11.849  1.4193  0.2644 -0.6471
  157MPD2    H3 2449   2.595   1.183  11.971 -0.6577 -1.7437 -0.7393
  157MPD2     N 2450   2.379   1.224  12.374  0.1711 -0.1241  0.3174
  157MPD2    H5 2451   2.287   1.246  12.411  0.9433  1.9193  1.0715
  157MPD2    N1 2452   2.146   1.252  11.945 -0.6142  0.6760 -0.7990
  157MPD2    H7 2453   2.152   1.253  11.843  0.6766 -0.1196 -0.7329
  158TMC2    C1 2454   1.745   0.365  13.441  0.8082 -0.2220 -0.2882
  158TMC2    C2 2455   1.696   0.459  13.349  0.8299  0.2912 -0.0636
  158TMC2    C3 2456   1.556   0.452  13.325 -0.0396  0.3410  0.0988
  158TMC2    C4 2457   1.679   0.251  13.471 -1.0400 -0.0729  0.3613
  158TMC2    C5 2458   1.552   0.242  13.424  0.1983  0.2427 -0.0119
  158TMC2    C6 2459   1.485   0.342  13.361  0.1524  0.2359  0.9136
  158TMC2     C 2460   1.888   0.366  13.479 -0.0766 -0.2954 -0.6391
  158TMC2     O 2461   1.945   0.470  13.452  0.0912  0.0596  0.1122
  158TMC2     H 2462   1.753   0.546  13.320  1.7832  0.4115  2.2011
  158TMC2    H1 2463   1.718   0.168  13.529 -0.5325  0.0349  0.1768
  158TMC2    H2 2464   1.382   0.343  13.329 -0.4352 -0.4221  2.7781
  158TMC2    C7 2465   1.471   0.114  13.423 -0.4714  0.5242  0.2172
  158TMC2    C8 2466   1.504   0.544  13.226 -0.7597 -0.4207  0.2326
  158TMC2    O1 2467   1.365   0.119  13.367 -0.4585  0.3167  0.6861
  158TMC2    O2 2468   1.574   0.610  13.157  0.1524  0.2751  0.4671
  158TMC2    O5 2469   1.372   0.561  13.250  0.0201 -0.4301  0.3778
  158TMC2    H5 2470   1.348   0.518  13.334  3.6247 -1.3694  0.9074
  159MPD2     C 2471   2.284   0.232  13.803 -0.0940  0.2716 -0.1340
  159MPD2    C1 2472   2.187   0.131  13.784  0.1206  0.0890 -0.2267
  159MPD2    C2 2473   2.082   0.144  13.703 -0.2280 -0.0090  0.2838
  159MPD2    C3 2474   2.058   0.256  13.630  0.6070  0.1795  0.1323
  159MPD2    C4 2475   2.148   0.358  13.647 -0.2162 -0.4243 -0.4155
  159MPD2    C5 2476   2.251   0.351  13.740 -0.1336  0.1057 -0.1902
  159MPD2     H 2477   2.002   0.071  13.709 -2.2604  2.0771 -1.5142
  159MPD2    H1 2478   2.125   0.451  13.595  0.7452  0.3244  0.4853
  159MPD2    H2 2479   2.366   0.235  13.873  0.2253  0.7685 -0.5295
  159MPD2    H3 2480   2.312   0.438  13.759 -0.0023 -0.6098  2.6812
  159MPD2     N 2481   1.937   0.260  13.555 -0.5146  0.0482 -0.1428
  159MPD2    H5 2482   1.881   0.176  13.552 -1.0699  0.4397 -0.7143
  159MPD2    N1 2483   2.204   0.023  13.879 -0.0302 -0.1133  0.2948
  159MPD2    H7 2484   2.273   0.043  13.951 -1.9117 -0.2360  2.1391
  160TMC2    C1 2485   2.169   1.911   1.460 -0.6192  0.1574 -0.6851
  160TMC2    C2 2486   2.182   1.782   1.508 -0.4040 -1.0098  0.2189
  160TMC2    C3 2487   2.292   1.715   1.469  0.0883 -0.6524  0.4828
  160TMC2    C4 2488   2.254   1.969   1.370  0.3535 -0.3295  0.1401
  160TMC2    C5 2489   2.358   1.892   1.335  0.6171  0.0682  0.0579
  160TMC2    C6 2490   2.387   1.771   1.386  0.6427  0.2019  0.6833
  160TMC2     C 2491   2.068   1.993   1.523  0.3958 -0.1399 -0.3971
  160TMC2     O 2492   2.022   1.958   1.631  0.0807  0.2641 -0.5008
  160TMC2     H 2493   2.116   1.748   1.587  1.0680 -2.8743  0.6370
  160TMC2    H1 2494   2.252   2.071   1.335 -0.7144 -1.0114 -1.8023
  160TMC2    H2 2495   2.463   1.705   1.347  0.2556  0.6845 -0.8935
  160TMC2    C7 2496   2.426   1.927   1.210  0.2504 -0.1353 -0.0739
  160TMC2    C8 2497   2.315   1.577   1.506 -0.5394  0.2938 -0.7796
  160TMC2    O1 2498   2.457   1.836   1.135 -0.5495 -0.2790  0.2830
  160TMC2    O2 2499   2.222   1.505   1.529  0.2541 -0.4682  0.0936
  160TMC2    O5 2500   2.449   1.566   1.535  0.2401  0.1724 -0.3014
  160TMC2    H5 2501   2.500   1.649   1.526 -0.3840  0.4512 -1.2526
  161MPD2     C 2502   1.940   2.251   1.615 -0.6566 -0.7710 -0.4631
  161MPD2    C1 2503   1.958   2.213   1.484  0.2481  0.0529 -0.5069
  161MPD2    C2 2504   1.920   2.303   1.385  0.1712  0.4162 -0.1451
  161MPD2    C3 2505   1.861   2.426   1.419 -0.1309  0.1445  0.8959
  161MPD2    C4 2506   1.833   2.454   1.548  0.3329  0.0369  0.3588
  161MPD2    C5 2507   1.872   2.365   1.646  1.0755 -0.1519 -0.8649
  161MPD2     H 2508   1.952   2.279   1.284  1.3269 -0.7828  0.4993
  161MPD2    H1 2509   1.785   2.547   1.577  1.4799  0.8954 -0.4956
  161MPD2    H2 2510   1.978   2.181   1.688 -0.3327 -0.3743 -0.2465
  161MPD2    H3 2511   1.847   2.388   1.748  2.4654 -1.2651 -0.2696
  161MPD2     N 2512   1.836   2.523   1.318 -0.8275 -0.2080  0.0968
  161MPD2    H5 2513   1.784   2.607   1.342 -1.9345 -0.1094 -2.5713
  161MPD2    N1 2514   2.028   2.100   1.443  0.3344 -0.0741 -0.1566
  161MPD2    H7 2515   2.055   2.094   1.346  0.9768 -1.9198  0.1261
  162TMC2    C1 2516   0.196   4.168   1.036  0.2198 -0.7545  1.2643
  162TMC2    C2 2517   0.122   4.234   1.132 -0.3018  0.6658  0.3808
  162TMC2    C3 2518   0.188   4.268   1.247  0.5398  0.2718  0.2393
  162TMC2    C4 2519   0.328   4.131   1.058  0.0765  0.0406  0.1031
  162TMC2    C5 2520   0.385   4.168   1.182  0.1176  0.1692  0.8662
  162TMC2    C6 2521   0.316   4.228   1.282 -0.0282  0.4245  0.2863
  162TMC2     C 2522   0.131   4.109   0.922  0.0143 -0.5507  0.1746
  162TMC2     O 2523   0.194   4.022   0.864 -0.0469 -0.3431 -0.6966
  162TMC2     H 2524   0.016   4.252   1.121 -0.1985  1.3779  0.5543
  162TMC2    H1 2525   0.383   4.083   0.978  0.1313 -1.6660  1.1698
  162TMC2    H2 2526   0.364   4.251   1.376 -2.4523  0.8410  1.4297
  162TMC2    C7 2527   0.523   4.134   1.216  0.7404 -0.6682  0.3565
  162TMC2    C8 2528   0.131   4.375   1.323  0.4082  0.7308 -0.3052
  162TMC2    O1 2529   0.580   4.199   1.300 -0.5806 -0.2956  1.0761
  162TMC2    O2 2530   0.094   4.480   1.277  0.3523 -0.3280  0.4787
  162TMC2    O5 2531   0.160   4.346   1.450  0.4216 -0.3021  0.1156
  162TMC2    H5 2532   0.182   4.251   1.461  0.5476 -0.3001 -0.1265
  163MPD2     C 2533   4.545   4.110   0.524 -0.8196  0.0545 -0.5341
  163MPD2    C1 2534   4.645   4.029   0.556 -0.3895 -0.6265 -0.4827
  163MPD2    C2 2535   4.723   4.050   0.667  0.1740 -0.2883 -0.0399
  163MPD2    C3 2536   4.686   4.150   0.756  0.5042  0.1069 -0.4692
  163MPD2    C4 2537   4.580   4.235   0.728  0.3464  0.3753 -0.3770
  163MPD2    C5 2538   4.513   4.215   0.613 -0.2124  0.6955  0.5505
  163MPD2     H 2539   0.077   3.995   0.684 -0.9302 -1.2773  2.7255
  163MPD2    H1 2540   4.541   4.308   0.797  1.8625  1.0157 -0.1864
  163MPD2    H2 2541   4.489   4.076   0.437 -0.8742 -0.8989 -0.1344
  163MPD2    H3 2542   4.426   4.279   0.597 -2.0287 -2.2351 -1.3769
  163MPD2     N 2543   0.020   4.175   0.873  0.3713  0.1640  0.9505
  163MPD2    H5 2544   4.734   4.256   0.929  0.5782  0.2295  0.9467
  163MPD2    N1 2545   4.675   3.935   0.460  0.3297  0.1340 -0.6183
  163MPD2    H7 2546   4.631   3.940   0.368  1.3969  1.2812 -1.0671
  164TMC2    C1 2547   0.709   4.256  10.964 -0.0941 -0.7238  0.0201
  164TMC2    C2 2548   0.834   4.295  10.936 -0.8288 -0.9090 -0.0660
  164TMC2    C3 2549   0.870   4.419  10.982 -0.3091 -0.2877 -0.1631
  164TMC2    C4 2550   0.615   4.335  11.030 -0.2692 -0.8450 -0.1925
  164TMC2    C5 2551   0.660   4.458  11.081 -0.2182 -0.1857 -0.0189
  164TMC2    C6 2552   0.790   4.495  11.063  0.0422  0.3101 -0.5964
  164TMC2     C 2553   0.670   4.127  10.925  0.3317 -0.3243 -0.0571
  164TMC2     O 2554   0.550   4.107  10.922 -0.0679 -0.0048  0.4272
  164TMC2     H 2555   0.898   4.247  10.862  2.8309  2.0043  1.2100
  164TMC2    H1 2556   0.515   4.294  11.043 -0.3957 -0.4694  0.0693
  164TMC2    H2 2557   0.814   4.589  11.112  0.9643  1.7752 -3.8665
  164TMC2    C7 2558   0.584   4.522  11.181  0.3867 -0.7599 -0.0720
  164TMC2    C8 2559   1.017   4.446  10.988 -0.1857 -0.6117  0.4501
  164TMC2    O1 2560   0.650   4.579  11.263  0.0377 -0.0809 -0.4245
  164TMC2    O2 2561   1.087   4.355  10.951 -0.0078  0.3202 -0.0018
  164TMC2    O5 2562   1.045   4.541  11.084  0.0224 -0.3599 -0.0198
  164TMC2    H5 2563   0.997   4.624  11.065 -1.2575 -0.7895  1.3268
  165TMC2    C1 2564   1.724   1.463   1.320 -0.3036  0.0118 -0.6688
  165TMC2    C2 2565   1.674   1.583   1.360 -0.2849  0.7717 -0.5214
  165TMC2    C3 2566   1.752   1.691   1.340  0.2539  0.4432 -0.2302
  165TMC2    C4 2567   1.852   1.448   1.274 -0.1716  0.0357 -0.8552
  165TMC2    C5 2568   1.923   1.559   1.252  0.1217  0.4866  0.3102
  165TMC2    C6 2569   1.876   1.680   1.286  0.3173  1.0944 -0.0468
  165TMC2     C 2570   1.641   1.346   1.361  0.7077  0.3387 -0.2607
  165TMC2     O 2571   1.519   1.359   1.370  0.3308 -0.8290  0.1008
  165TMC2     H 2572   1.577   1.596   1.406 -2.0816 -2.3349 -3.4719
  165TMC2    H1 2573   1.886   1.349   1.246  1.0246  0.2959 -0.3213
  165TMC2    H2 2574   1.940   1.767   1.282  1.4348  0.2842  0.2328
  165TMC2    C7 2575   2.069   1.551   1.223 -0.1734 -0.0304 -0.3198
  165TMC2    C8 2576   1.706   1.825   1.366  0.8397  0.5092 -0.3725
  165TMC2    O1 2577   2.117   1.657   1.192 -0.0312  0.3061  0.3309
  165TMC2    O2 2578   1.782   1.918   1.387 -0.2373  0.3317 -0.6842
  165TMC2    O5 2579   1.571   1.839   1.337 -0.4809  0.7357 -0.4384
  165TMC2    H5 2580   1.547   1.758   1.288  2.0554 -0.5119  0.3821
  166MPD2     C 2581   1.606   0.893   1.607 -0.4532 -0.4574 -0.2915
  166MPD2    C1 2582   1.506   0.970   1.556 -0.8214  0.7322 -0.5944
  166MPD2    C2 2583   1.541   1.089   1.481  0.9610 -0.7893  0.0560
  166MPD2    C3 2584   1.676   1.125   1.467 -0.5413  1.1322  0.0371
  166MPD2    C4 2585   1.776   1.041   1.518  0.7055  0.2553 -0.0334
  166MPD2    C5 2586   1.739   0.927   1.586  0.1033  0.4097  0.0577
  166MPD2     H 2587   1.464   1.132   1.418  1.7183 -1.5687 -1.3953
  166MPD2    H1 2588   1.879   1.069   1.501  0.2995  2.0219  0.4048
  166MPD2    H2 2589   1.595   0.806   1.671  0.2562  0.2141  0.7575
  166MPD2    H3 2590   1.830   0.877   1.616 -1.0014 -1.3748  0.4053
  166MPD2     N 2591   1.719   1.243   1.398  0.1727  0.0250 -0.6218
  166MPD2    H5 2592   1.819   1.258   1.389  0.4332 -1.2939 -0.0103
  166MPD2    N1 2593   1.375   0.914   1.558 -0.3984 -0.1862 -0.4812
  166MPD2    H7 2594   1.361   0.817   1.583 -2.0165  0.1998  0.1297
  167TMC2    C1 2595   0.294   4.490  12.820 -0.3373  0.0285 -0.0635
  167TMC2    C2 2596   0.198   4.427  12.891 -1.0462  0.1535  0.6704
  167TMC2    C3 2597   0.211   4.292  12.894  0.1308  0.0281 -0.4216
  167TMC2    C4 2598   0.394   4.424  12.761  0.1792 -0.0678 -0.2614
  167TMC2    C5 2599   0.401   4.289  12.762 -0.2893 -0.4260 -0.3723
  167TMC2    C6 2600   0.298   4.216  12.819 -0.2486 -0.1336 -0.1896
  167TMC2     C 2601   0.272   4.622  12.772  0.2040  0.6711  0.3704
  167TMC2     O 2602   0.367   4.694  12.758  0.1205  0.2331  0.3176
  167TMC2     H 2603   0.116   4.486  12.930 -1.0501 -0.2482  1.2811
  167TMC2    H1 2604   0.470   4.477  12.705  0.3994 -0.0074  0.0951
  167TMC2    H2 2605   0.300   4.107  12.821 -1.1472 -0.1280  1.1802
  167TMC2    C7 2606   0.480   4.239  12.647 -0.1306 -0.1250  0.3526
  167TMC2    C8 2607   0.098   4.231  12.967  0.1629  0.0955  0.3773
  167TMC2    O1 2608   0.561   4.316  12.598  0.1747 -0.2853  0.1643
  167TMC2    O2 2609   0.035   4.303  13.046  0.2163  0.5423 -0.5726
  167TMC2    O5 2610   0.087   4.100  12.943  0.8019 -0.3315 -0.1239
  167TMC2    H5 2611   0.105   4.083  12.848 -2.8488 -2.2551 -0.5041
  168MPD2     C 2612   0.158   0.144  12.679  0.5629  0.7969  0.8146
  168MPD2    C1 2613   0.078   0.035  12.708  0.0022  0.2800 -1.4935
  168MPD2    C2 2614   4.677   0.045  12.699  0.2602  0.3743  0.1369
  168MPD2    C3 2615   4.604   0.157  12.662  0.3553 -0.1906 -0.2840
  168MPD2    C4 2616   4.686   0.267  12.640 -0.4728  0.2774  0.2758
  168MPD2    C5 2617   0.090   0.264  12.652 -0.5566 -0.3236  0.1954
  168MPD2     H 2618   4.630   4.691  12.731 -0.0344  0.8487  1.0693
  168MPD2    H1 2619   4.645   0.362  12.607 -2.0988 -0.1186  1.1213
  168MPD2    H2 2620   0.266   0.133  12.673  0.3214 -0.3514 -1.5658
  168MPD2    H3 2621   0.151   0.354  12.644  1.0792 -1.4348  0.2505
  168MPD2     N 2622   4.468   0.162  12.640 -0.7305  0.1842  0.2885
  168MPD2    H5 2623   4.429   0.250  12.608 -1.2675  0.4007  1.5642
  168MPD2    N1 2624   0.136   4.648  12.748 -0.0942  0.3864  0.1020
  168MPD2    H7 2625   0.077   4.565  12.755  0.4799  0.0879  1.4045
  169MPD1     C 2626   0.673   4.426   9.594 -0.3084  0.0613  0.7638
  169MPD1    C1 2627   0.768   4.501   9.652  0.2010 -0.4395  0.2787
  169MPD1    C2 2628   0.849   4.440   9.737 -0.4176 -0.1469  0.5648
  169MPD1    C3 2629   0.843   4.306   9.775  0.0403 -0.0621 -0.4339
  169MPD1    C4 2630   0.744   4.231   9.719  0.2613  0.0906  0.0052
  169MPD1    C5 2631   0.656   4.292   9.633  0.0627 -0.5458 -0.0396
  169MPD1     H 2632   0.929   4.496   9.785  0.9152 -0.5459 -1.2097
  169MPD1    H1 2633   0.741   4.124   9.736 -2.7745  0.3689  1.2970
  169MPD1    H2 2634   0.609   4.466   9.516  0.0419 -0.2215  0.3290
  169MPD1    H3 2635   0.588   4.230   9.576  0.4092 -0.3190 -0.7055
  169MPD1     N 2636   0.939   4.257   9.867  0.1213 -0.8521  0.3736
  169MPD1    H5 2637   0.998   4.329   9.907 -0.3509 -1.0174  1.3522
  169MPD1    N1 2638   0.791   4.634   9.615  0.4189  0.4931 -1.1465
  169MPD1    H6 2639   0.700   4.657   9.575 -0.4589 -1.3362 -0.1857
  169MPD1    H7 2640   0.827   4.683   9.696 -0.8882 -1.0071  0.3287
  170MPD1     C 2641   0.853   1.256  12.939  0.0061 -0.4597  0.0090
  170MPD1    C1 2642   0.956   1.288  13.025  1.1744 -1.1000  0.3011
  170MPD1    C2 2643   0.940   1.386  13.118 -0.0092 -0.3573  0.3486
  170MPD1    C3 2644   0.814   1.445  13.138 -0.6709  0.5158  0.8383
  170MPD1    C4 2645   0.709   1.407  13.053  0.9731  0.5882  0.0858
  170MPD1    C5 2646   0.730   1.317  12.953 -0.6269 -0.2053  0.5204
  170MPD1     H 2647   1.020   1.424  13.181  1.8130 -0.1957 -2.0482
  170MPD1    H1 2648   0.608   1.445  13.064  1.1662  1.5656 -1.4643
  170MPD1    H2 2649   0.859   1.184  12.859  1.9536  0.5135 -0.7211
  170MPD1    H3 2650   0.646   1.286  12.892  0.9559 -2.0842 -0.6903
  170MPD1     N 2651   0.800   1.525  13.258 -0.4185  0.2847 -0.1737
  170MPD1    H5 2652   0.880   1.538  13.318 -2.0166  1.1575  1.7637
  170MPD1    N1 2653   1.082   1.235  12.993  0.3871 -0.5488  0.0200
  170MPD1    H6 2654   1.075   1.137  12.968 -2.3174  0.0938 -1.8113
  170MPD1    H7 2655   1.140   1.246  13.076  0.3516 -0.0878 -0.0175
  171MPD1     C 2656   4.244   2.556  15.258 -0.2252  0.0336 -0.3720
  171MPD1    C1 2657   4.158   2.452  15.294 -0.2979 -0.2154 -0.3161
  171MPD1    C2 2658   4.209   2.347  15.370 -0.4651 -0.3544 -0.2502
  171MPD1    C3 2659   4.338   2.348  15.426  0.4412  0.1502  0.3194
  171MPD1    C4 2660   4.425   2.447  15.389  0.1792 -0.1535 -0.2588
  171MPD1    C5 2661   4.376   2.551  15.308  0.7999  0.3603  0.2904
  171MPD1     H 2662   4.143   2.263  15.385  0.8128 -1.1783  0.7442
  171MPD1    H1 2663   4.522   2.452  15.437  0.5052 -2.9643 -0.6105
  171MPD1    H2 2664   4.216   2.632  15.186  2.2231  1.3183  0.0381
  171MPD1    H3 2665   4.441   2.634  15.282  0.0957  1.2806  1.4718
  171MPD1     N 2666   4.381   2.248  15.515  0.1401 -0.2208 -0.1578
  171MPD1    H5 2667   4.472   2.255  15.558 -0.4724  2.1890  0.7945
  171MPD1    N1 2668   4.031   2.442  15.237  0.2188  0.1871  0.3444
  171MPD1    H6 2669   3.963   2.410  15.306 -1.4358  1.1001 -0.8613
  171MPD1    H7 2670   3.994   2.537  15.225 -0.4138 -0.2342 -0.9946
  172MPD1     C 2671   3.362   1.968   1.084  0.0966  0.0336  0.2573
  172MPD1    C1 2672   3.480   1.974   1.024 -0.2858 -0.7560 -0.6161
  172MPD1    C2 2673   3.482   2.005   0.892 -0.1783 -1.0526 -0.1955
  172MPD1    C3 2674   3.371   2.037   0.825  0.2591 -0.2065 -0.0060
  172MPD1    C4 2675   3.250   2.043   0.890  0.4803 -0.3822 -1.1674
  172MPD1    C5 2676   3.247   1.999   1.021  0.1300  0.5031 -0.3720
  172MPD1     H 2677   3.584   2.008   0.856 -0.3117  1.6493 -0.3421
  172MPD1    H1 2678   3.157   2.067   0.840  1.2887  2.3556 -1.3491
  172MPD1    H2 2679   3.366   1.965   1.192 -0.8586  1.2340  0.3202
  172MPD1    H3 2680   3.154   2.001   1.076  0.4616  0.3222  0.1953
  172MPD1     N 2681   3.380   2.085   0.694 -0.3122  0.3021  0.1053
  172MPD1    H5 2682   3.290   2.118   0.660  0.7051  1.3752 -1.5251
  172MPD1    N1 2683   3.595   1.959   1.105  0.0649 -0.7893 -0.5664
  172MPD1    H6 2684   3.581   1.966   1.206  0.6254  0.7202 -0.5858
  172MPD1    H7 2685   3.666   2.022   1.067 -0.6430  1.1350  1.3221
  173MPD1     C 2686   0.175   2.312  14.056 -0.2638 -0.3040 -0.2204
  173MPD1    C1 2687   0.202   2.245  14.169  0.4010 -0.0369  0.1260
  173MPD1    C2 2688   0.166   2.110  14.173  0.3401  0.2180 -0.1858
  173MPD1    C3 2689   0.080   2.063  14.073  0.2230 -0.0244  0.2656
  173MPD1    C4 2690   0.052   2.130  13.959  0.7280  0.0202 -0.2542
  173MPD1    C5 2691   0.100   2.254  13.953  0.7513  0.4149  0.0571
  173MPD1     H 2692   0.190   2.057  14.264 -0.2279 -1.3436 -0.9432
  173MPD1    H1 2693   4.734   2.085  13.879 -0.7928  2.2218 -0.4185
  173MPD1    H2 2694   0.219   2.407  14.031  0.5890 -0.2327  1.5740
  173MPD1    H3 2695   0.085   2.308  13.860 -1.6173  1.0497  0.7996
  173MPD1     N 2696   0.038   1.927  14.094 -1.1353  0.6827  0.7680
  173MPD1    H5 2697   0.064   1.884  14.182  0.0700 -1.6560 -0.7291
  173MPD1    N1 2698   0.299   2.296  14.261  0.3287 -0.5447 -0.1665
  173MPD1    H6 2699   0.278   2.395  14.270  0.0756 -0.6005 -0.1552
  173MPD1    H7 2700   0.282   2.269  14.358  1.0110 -2.9351 -0.7151
  174MPD1     C 2701   0.016   1.049  13.595 -0.1899  0.0954  0.7431
  174MPD1    C1 2702   4.632   1.049  13.669 -0.3119  0.3226  0.0468
  174MPD1    C2 2703   4.598   1.158  13.751  0.4908 -0.0354  0.4189
  174MPD1    C3 2704   4.681   1.273  13.755  0.0816  1.1471  0.3981
  174MPD1    C4 2705   0.046   1.278  13.665 -1.1479  0.4147  0.3968
  174MPD1    C5 2706   0.086   1.169  13.595 -0.1962  0.1433  0.0543
  174MPD1     H 2707   4.509   1.155  13.813  0.3118 -0.2629  0.1492
  174MPD1    H1 2708   0.104   1.369  13.666 -1.1938  0.4513 -0.4970
  174MPD1    H2 2709   0.055   0.967  13.536 -1.8920  0.1608 -0.4641
  174MPD1    H3 2710   0.151   1.186  13.510 -0.9476 -0.3090 -0.6144
  174MPD1     N 2711   4.667   1.379  13.843  0.2689  0.2524 -0.1327
  174MPD1    H5 2712   4.732   1.456  13.831 -0.0803  0.4763 -0.6108
  174MPD1    N1 2713   4.566   0.928  13.689 -0.2892  0.2870 -0.1177
  174MPD1    H6 2714   4.466   0.937  13.706 -0.5469  0.6731 -1.8779
  174MPD1    H7 2715   4.579   0.863  13.611  0.9035  2.6008 -1.8482
  175MPD1     C 2716   3.589   2.167  15.002 -0.0680  0.3799  0.8406
  175MPD1    C1 2717   3.482   2.252  15.002 -0.6467  0.0602  0.6683
  175MPD1    C2 2718   3.431   2.289  15.126  0.5931 -0.0769 -0.3977
  175MPD1    C3 2719   3.488   2.245  15.243 -0.0082 -0.7314  0.1948
  175MPD1    C4 2720   3.588   2.151  15.231  0.1008  0.2744  0.6255
  175MPD1    C5 2721   3.643   2.114  15.115  0.4532  0.2113 -0.4644
  175MPD1     H 2722   3.356   2.368  15.118 -0.2316 -0.7412  0.8646
  175MPD1    H1 2723   3.630   2.107  15.320 -0.8082 -1.8735 -0.0243
  175MPD1    H2 2724   3.625   2.131  14.907 -0.3917  1.6996  0.2332
  175MPD1    H3 2725   3.724   2.043  15.105  0.3125 -0.1411  0.9197
  175MPD1     N 2726   3.444   2.275  15.377  0.5026  0.3913 -0.0667
  175MPD1    H5 2727   3.486   2.231  15.458  2.3231 -0.7470 -1.6010
  175MPD1    N1 2728   3.424   2.302  14.881 -0.1513  0.8410  0.1763
  175MPD1    H6 2729   3.476   2.262  14.804  0.0608 -1.0620  1.3113
  175MPD1    H7 2730   3.327   2.271  14.876 -0.8695  3.1696 -0.2951
  176MPD1     C 2731   0.508   4.205  17.227  0.1434 -0.1742  0.1562
  176MPD1    C1 2732   0.505   4.330  17.174 -0.2225 -0.3902 -0.1808
  176MPD1    C2 2733   0.452   4.433  17.238 -0.9113  0.3255 -0.3432
  176MPD1    C3 2734   0.402   4.420  17.366 -0.1533  0.1553  0.0491
  176MPD1    C4 2735   0.396   4.293  17.409 -0.2712  0.1765 -0.5860
  176MPD1    C5 2736   0.448   4.186  17.341 -0.2927 -0.0355  0.4745
  176MPD1     H 2737   0.446   4.531  17.192 -0.2164  0.3740 -0.3234
  176MPD1    H1 2738   0.351   4.271  17.506  0.1833  1.1245 -0.1592
  176MPD1    H2 2739   0.557   4.123  17.177  0.6751  1.0444 -1.3076
  176MPD1    H3 2740   0.443   4.087  17.385  0.4782  0.0835  0.8324
  176MPD1     N 2741   0.357   4.534  17.440 -1.0482 -0.7608 -0.1402
  176MPD1    H5 2742   0.360   4.627  17.398  4.2790 -0.0380  1.8238
  176MPD1    N1 2743   0.545   4.340  17.040  0.4086  0.1542 -0.4886
  176MPD1    H6 2744   0.597   4.427  17.027 -0.2788  0.7396  0.6886
  176MPD1    H7 2745   0.596   4.260  17.004 -0.6692 -0.7826  0.0545
  177MPD1     C 2746   3.275   0.682  10.527 -0.2974 -0.8152 -0.3125
  177MPD1    C1 2747   3.209   0.752  10.431 -0.7794 -0.2790  0.6160
  177MPD1    C2 2748   3.089   0.695  10.380  0.0955  0.7937  0.0414
  177MPD1    C3 2749   3.043   0.579  10.437  0.1633  0.2399  0.5388
  177MPD1    C4 2750   3.113   0.507  10.534  0.1997 -0.8404 -1.2631
  177MPD1    C5 2751   3.238   0.553  10.563 -0.5238  1.2746  0.2900
  177MPD1     H 2752   3.015   0.740  10.315 -0.4096 -1.1982 -0.7612
  177MPD1    H1 2753   3.088   0.409  10.571 -2.1413  0.4745  0.6802
  177MPD1    H2 2754   3.368   0.722  10.567  0.2369 -1.7563 -0.5895
  177MPD1    H3 2755   3.295   0.506  10.643 -2.7521 -0.1074  1.0929
  177MPD1     N 2756   2.914   0.539  10.400 -0.2598 -0.3269 -0.1718
  177MPD1    H5 2757   2.867   0.592  10.328 -0.6566  0.7127  0.8476
  177MPD1    N1 2758   3.243   0.885  10.412  0.0758  0.4106 -0.3521
  177MPD1    H6 2759   3.345   0.890  10.421 -0.2729  1.5372  3.0657
  177MPD1    H7 2760   3.208   0.908  10.319 -1.2634  1.1611  0.3511
  178MPD1     C 2761   0.578   0.767   0.499  0.7398  0.2833 -0.3421
  178MPD1    C1 2762   0.673   0.854   0.455 -0.4996 -0.0258  0.1482
  178MPD1    C2 2763   0.740   0.821   0.335  0.5906  0.2445  0.2968
  178MPD1    C3 2764   0.747   0.693   0.287  0.3412 -0.2172 -0.3085
  178MPD1    C4 2765   0.657   0.599   0.351 -0.1441  0.0678  0.2712
  178MPD1    C5 2766   0.575   0.642   0.453 -0.2770 -0.1803 -0.0893
  178MPD1     H 2767   0.812   0.887   0.288 -0.0153  0.2206 -0.6409
  178MPD1    H1 2768   0.662   0.494   0.324 -3.4450 -0.1509  0.5199
  178MPD1    H2 2769   0.507   0.799   0.575  0.1168 -2.2969  0.1703
  178MPD1    H3 2770   0.501   0.575   0.494 -0.1495 -0.0707  0.3156
  178MPD1     N 2771   0.818   0.646   0.170 -0.2259 -0.7814 -0.0915
  178MPD1    H5 2772   0.792   0.551   0.144 -0.4843 -0.1945 -1.9187
  178MPD1    N1 2773   0.649   0.983   0.498  0.1749 -0.2792  0.5609
  178MPD1    H6 2774   0.618   0.992   0.594  0.6905 -0.0108  0.7036
  178MPD1    H7 2775   0.730   1.042   0.476 -1.5506  0.9169 -2.6100
  179MPD1     C 2776   0.667   3.856  15.230 -0.0992  0.0838  0.4405
  179MPD1    C1 2777   0.549   3.794  15.259 -0.1424 -0.5179  0.4012
  179MPD1    C2 2778   0.528   3.741  15.389  0.2357  0.6012 -0.9591
  179MPD1    C3 2779   0.614   3.762  15.490 -0.1869  0.6017  0.6509
  179MPD1    C4 2780   0.736   3.827  15.461  0.6661  0.0970  0.3665
  179MPD1    C5 2781   0.757   3.872  15.330  0.2761 -0.5360 -0.4361
  179MPD1     H 2782   0.434   3.692  15.409  1.4934 -0.6429  1.9832
  179MPD1    H1 2783   0.811   3.849  15.536 -1.8305  1.4117  2.4775
  179MPD1    H2 2784   0.692   3.876  15.126  0.1689 -1.8023  0.1467
  179MPD1    H3 2785   0.853   3.910  15.295  1.9676 -3.1851  1.2754
  179MPD1     N 2786   0.589   3.716  15.628  0.1832 -0.3656  0.3903
  179MPD1    H5 2787   0.661   3.747  15.692  0.4345  1.2409 -0.6789
  179MPD1    N1 2788   0.460   3.765  15.155 -0.6199  0.4202  0.1901
  179MPD1    H6 2789   0.467   3.827  15.075  0.1207  0.2556  0.1326
  179MPD1    H7 2790   0.364   3.768  15.188 -0.8492  0.6960 -0.4979
  180MPD1     C 2791   1.204   4.662  14.860  0.3391 -0.0125  0.8254
  180MPD1    C1 2792   1.192   0.033  14.931  0.3674  0.7818 -0.5133
  180MPD1    C2 2793   1.072   0.101  14.932  0.9084 -0.2077 -0.0891
  180MPD1    C3 2794   0.962   0.044  14.880  0.3442  1.0046 -0.9431
  180MPD1    C4 2795   0.971   4.661  14.813  0.0291  0.0490 -0.3798
  180MPD1    C5 2796   1.092   4.598  14.802  0.1617 -0.1977  0.3281
  180MPD1     H 2797   1.076   0.195  14.985  1.4749  0.0801 -0.6380
  180MPD1    H1 2798   0.883   4.606  14.781 -0.6295 -0.8569  2.9786
  180MPD1    H2 2799   1.299   4.609  14.862  0.0111 -0.7477 -3.0943
  180MPD1    H3 2800   1.111   4.497  14.766  1.3787  0.1767 -0.1020
  180MPD1     N 2801   0.836   0.107  14.885 -0.1342  0.6111 -0.0542
  180MPD1    H5 2802   0.829   0.185  14.951 -1.2691  1.0575 -0.7021
  180MPD1    N1 2803   1.312   0.100  14.966  0.4212 -0.7326 -0.0513
  180MPD1    H6 2804   1.293   0.160  15.046  2.2213  0.4307 -0.4956
  180MPD1    H7 2805   1.369   0.030  15.012  0.4748  0.6458  2.0026
  181MPD1     C 2806   2.284   2.475  10.659  0.4183 -0.2353 -0.8168
  181MPD1    C1 2807   2.376   2.376  10.667  0.4037 -0.1927 -0.4346
  181MPD1    C2 2808   2.457   2.352  10.558  0.0635 -0.9863  0.1110
  181MPD1    C3 2809   2.455   2.432  10.449  0.1566 -0.0434  0.3030
  181MPD1    C4 2810   2.365   2.535  10.445 -0.4390 -0.1718  0.0056
  181MPD1    C5 2811   2.281   2.552  10.551 -0.4220  0.0317 -0.6290
  181MPD1     H 2812   2.520   2.265  10.572  0.2975 -0.5448  1.8406
  181MPD1    H1 2813   2.343   2.601  10.362  0.6422 -2.9286 -2.4559
  181MPD1    H2 2814   2.220   2.497  10.744  0.2509  1.5288 -1.3831
  181MPD1    H3 2815   2.205   2.627  10.533 -1.9356 -1.0716  1.2540
  181MPD1     N 2816   2.530   2.411  10.332 -0.0686 -0.2202 -0.9317
  181MPD1    H5 2817   2.511   2.467  10.249 -2.3170 -1.5202 -1.3025
  181MPD1    N1 2818   2.389   2.305  10.789 -0.3216 -0.2753 -0.1849
  181MPD1    H6 2819   2.467   2.239  10.796  1.2454  1.5230 -0.6245
  181MPD1    H7 2820   2.389   2.358  10.876  0.8249 -0.8591  0.1783
  182MPD1     C 2821   3.213   1.149   1.425  0.3399 -0.3365 -0.5827
  182MPD1    C1 2822   3.231   1.062   1.324  0.4953 -0.9915 -0.7787
  182MPD1    C2 2823   3.167   1.094   1.206  0.2378  0.4915  0.3295
  182MPD1    C3 2824   3.067   1.190   1.199  0.8329  0.3519 -0.2872
  182MPD1    C4 2825   3.035   1.269   1.310  0.6321  0.6612  0.4772
  182MPD1    C5 2826   3.116   1.246   1.425 -0.5993 -0.6044  0.1198
  182MPD1     H 2827   3.187   1.037   1.115  0.7942 -0.0601  0.7996
  182MPD1    H1 2828   2.953   1.340   1.307  0.8768  0.9515  0.7806
  182MPD1    H2 2829   3.256   1.123   1.521  1.8646  1.4010 -0.8055
  182MPD1    H3 2830   3.091   1.304   1.513 -0.4200  2.5883 -1.9376
  182MPD1     N 2831   2.990   1.225   1.085  0.2567 -0.3756 -0.6219
  182MPD1    H5 2832   2.927   1.304   1.095  1.0304  0.3045 -1.1038
  182MPD1    N1 2833   3.339   0.971   1.340  0.2403 -0.1994  0.2457
  182MPD1    H6 2834   3.335   0.891   1.277 -1.9462 -0.9442  1.3167
  182MPD1    H7 2835   3.335   0.927   1.432 -0.6577 -0.8588 -0.1127
  183MPD1     C 2836   2.816   1.363   8.422  0.2006  0.1147  0.3776
  183MPD1    C1 2837   2.749   1.419   8.527  0.3122  0.1075 -0.7648
  183MPD1    C2 2838   2.737   1.351   8.643 -0.1936  0.6617  0.9803
  183MPD1    C3 2839   2.776   1.223   8.652  0.0244  0.0939  0.3937
  183MPD1    C4 2840   2.845   1.160   8.547 -0.2812  0.3748 -0.7916
  183MPD1    C5 2841   2.863   1.230   8.433  0.8364 -0.5474  0.4650
  183MPD1     H 2842   2.699   1.410   8.726 -0.2494  1.5128  0.3458
  183MPD1    H1 2843   2.880   1.058   8.554 -0.7883  0.2364 -0.2804
  183MPD1    H2 2844   2.835   1.427   8.336 -1.0751  1.3985  1.0459
  183MPD1    H3 2845   2.916   1.190   8.348  0.1049  1.2766 -0.8509
  183MPD1     N 2846   2.752   1.155   8.772 -0.0526  0.1955  0.0649
  183MPD1    H5 2847   2.710   1.203   8.851  1.3413 -0.9136  1.4809
  183MPD1    N1 2848   2.723   1.555   8.521  0.0202 -0.4846 -0.1203
  183MPD1    H6 2849   2.686   1.583   8.430 -1.5180  1.4580  1.1207
  183MPD1    H7 2850   2.652   1.572   8.591 -0.1108  0.6630 -0.5404
  184MPD1     C 2851   1.550   0.700  10.494 -0.2245 -0.6827 -0.5663
  184MPD1    C1 2852   1.529   0.763  10.375  0.1174  0.2760  0.6099
  184MPD1    C2 2853   1.640   0.825  10.309  0.0309 -0.0416 -0.5901
  184MPD1    C3 2854   1.770   0.799  10.360 -0.2876 -0.0395 -0.2821
  184MPD1    C4 2855   1.790   0.716  10.473  0.0468  1.2483 -0.0596
  184MPD1    C5 2856   1.678   0.669  10.534  0.7133  0.7567  0.0432
  184MPD1     H 2857   1.618   0.880  10.219  1.5889  0.8770 -0.4236
  184MPD1    H1 2858   1.884   0.681  10.514 -0.3322  0.3140  0.0232
  184MPD1    H2 2859   1.466   0.657  10.546 -0.1673  1.6276  1.4475
  184MPD1    H3 2860   1.683   0.601  10.618  0.0552  0.6661  0.0120
  184MPD1     N 2861   1.871   0.861  10.281  0.1591 -0.4326 -0.0942
  184MPD1    H5 2862   1.850   0.923  10.203  1.3281 -0.3987 -0.3812
  184MPD1    N1 2863   1.401   0.785  10.335  0.2787  0.3932 -0.1281
  184MPD1    H6 2864   1.347   0.700  10.352  0.0911  1.0308  2.5101
  184MPD1    H7 2865   1.394   0.812  10.237  0.4128  2.1200  0.3342
  185MPD1     C 2866   1.931   1.172   9.373  0.8388  0.4826  0.8234
  185MPD1    C1 2867   1.869   1.219   9.487  0.0626  0.2198 -0.2726
  185MPD1    C2 2868   1.908   1.173   9.613  0.2069  0.8677 -0.5509
  185MPD1    C3 2869   2.025   1.100   9.628  0.7296 -0.2138 -0.0655
  185MPD1    C4 2870   2.092   1.070   9.508 -0.1727  0.1014 -0.0809
  185MPD1    C5 2871   2.049   1.107   9.382  0.1402  0.5704  0.2491
  185MPD1     H 2872   1.858   1.202   9.705  0.5150 -1.6548  0.3874
  185MPD1    H1 2873   2.181   1.010   9.519 -1.1518 -1.1748  0.7936
  185MPD1    H2 2874   1.900   1.180   9.269  0.0253 -0.7527  0.9648
  185MPD1    H3 2875   2.097   1.070   9.293 -0.5539  1.7710 -0.6226
  185MPD1     N 2876   2.092   1.058   9.748  0.1931 -0.8400 -0.4139
  185MPD1    H5 2877   2.194   1.052   9.742  0.1839 -0.2859 -1.1753
  185MPD1    N1 2878   1.742   1.280   9.474  0.8409 -0.2294 -0.0938
  185MPD1    H6 2879   1.708   1.337   9.552  1.7410  1.7657 -1.1704
  185MPD1    H7 2880   1.739   1.328   9.384 -0.3552 -0.0100  0.0518
  186MPD1     C 2881   1.502   3.170  16.045 -0.1670 -0.6094 -0.3854
  186MPD1    C1 2882   1.601   3.223  16.124 -0.0901 -0.1775  0.0291
  186MPD1    C2 2883   1.570   3.321  16.213  0.5543 -0.4535 -0.0488
  186MPD1    C3 2884   1.442   3.373  16.215 -0.1863  0.3483 -0.4510
  186MPD1    C4 2885   1.340   3.320  16.138 -0.0966 -0.0928 -0.4726
  186MPD1    C5 2886   1.378   3.222  16.059 -0.1828  0.3821  0.4704
  186MPD1     H 2887   1.649   3.355  16.279  0.0877  0.7520 -0.1175
  186MPD1    H1 2888   1.235   3.347  16.147 -0.7730 -3.5738  1.7851
  186MPD1    H2 2889   1.515   3.083  15.981  0.1225 -2.0057  1.5468
  186MPD1    H3 2890   1.297   3.177  16.003 -1.1548  2.7199  0.0117
  186MPD1     N 2891   1.409   3.493  16.281  0.1995  0.1395  0.2590
  186MPD1    H5 2892   1.318   3.534  16.265  0.9244  0.9513 -1.8414
  186MPD1    N1 2893   1.726   3.169  16.121  0.1713  0.2875  0.5852
  186MPD1    H6 2894   1.746   3.135  16.027 -0.8327 -0.1895  0.5533
  186MPD1    H7 2895   1.795   3.237  16.153 -0.8235  1.6429 -0.1473
  187MPD1     C 2896   4.428   1.414   0.821  0.1295 -0.3649 -0.0635
  187MPD1    C1 2897   4.483   1.288   0.793 -0.5057 -0.2011  0.4338
  187MPD1    C2 2898   4.533   1.259   0.663  0.1053 -0.2137 -0.2200
  187MPD1    C3 2899   4.527   1.360   0.565  0.3257  0.7667  0.7656
  187MPD1    C4 2900   4.477   1.487   0.598  0.3069  0.2021  0.3135
  187MPD1    C5 2901   4.428   1.511   0.722 -0.2972 -0.0612  0.2092
  187MPD1     H 2902   4.580   1.167   0.632  1.7004  0.7464 -0.6407
  187MPD1    H1 2903   4.471   1.565   0.522 -3.1035 -1.0306 -0.7044
  187MPD1    H2 2904   4.382   1.432   0.917  1.0114 -1.6820  0.6075
  187MPD1    H3 2905   4.379   1.605   0.742  1.3921  0.6926  0.8244
  187MPD1     N 2906   4.561   1.339   0.431  0.0758  0.2193 -0.7897
  187MPD1    H5 2907   4.562   1.428   0.382  2.3605  1.2799  1.1418
  187MPD1    N1 2908   4.484   1.187   0.893 -0.0477 -0.3485 -0.0338
  187MPD1    H6 2909   4.461   1.213   0.989  0.9376  1.9673 -0.4427
  187MPD1    H7 2910   4.573   1.139   0.898  1.5710  2.8769  2.0675
  188MPD1     C 2911   0.398   1.376  10.769 -0.2232  0.0317 -0.3727
  188MPD1    C1 2912   0.422   1.354  10.639  0.8783 -0.1703  0.1658
  188MPD1    C2 2913   0.414   1.220  10.588 -0.4649 -0.3911 -0.2959
  188MPD1    C3 2914   0.365   1.120  10.667 -0.4127  0.6115  0.2491
  188MPD1    C4 2915   0.324   1.148  10.797 -0.0925  0.1108  0.6579
  188MPD1    C5 2916   0.343   1.277  10.840  0.1094  0.9352 -0.9626
  188MPD1     H 2917   0.446   1.206  10.486 -0.7466 -1.3467 -0.2576
  188MPD1    H1 2918   0.261   1.082  10.856 -1.1284  0.1909 -0.3731
  188MPD1    H2 2919   0.405   1.472  10.820 -0.8510 -0.1513  0.0526
  188MPD1    H3 2920   0.302   1.298  10.938  0.1515  0.7861 -0.9127
  188MPD1     N 2921   0.341   0.985  10.624  0.4224 -0.6081 -0.0374
  188MPD1    H5 2922   0.310   0.922  10.698 -1.6047  2.2272  1.5067
  188MPD1    N1 2923   0.481   1.456  10.565 -0.4335  0.4925 -0.2830
  188MPD1    H6 2924   0.464   1.440  10.466  1.0889 -1.9420 -0.1566
  188MPD1    H7 2925   0.441   1.546  10.588 -2.1373 -0.2792 -0.2728
  189MPD1     C 2926   2.305   1.854   0.069 -0.1773  0.2490 -0.2349
  189MPD1    C1 2927   2.288   1.991   0.046 -0.3416  0.2620  0.0933
  189MPD1    C2 2928   2.162   2.038   0.059  0.0087 -0.1168  0.3222
  189MPD1    C3 2929   2.055   1.958   0.110  0.2075  0.4689 -0.5027
  189MPD1    C4 2930   2.084   1.824   0.138  0.2194  0.7069  0.1644
  189MPD1    C5 2931   2.208   1.773   0.121 -0.2808 -0.2266  0.1579
  189MPD1     H 2932   2.140   2.142   0.039  3.1608  0.1708 -1.6357
  189MPD1    H1 2933   2.001   1.762   0.170 -0.7643  1.2463 -1.3312
  189MPD1    H2 2934   2.400   1.803   0.067  0.4706  1.4972 -1.4592
  189MPD1    H3 2935   2.229   1.669   0.142  0.7099  0.2230  1.4156
  189MPD1     N 2936   1.921   1.999   0.117 -0.3896 -0.3996 -0.3276
  189MPD1    H5 2937   1.849   1.934   0.145 -1.2535  0.3316 -0.8549
  189MPD1    N1 2938   2.390   2.069  17.732  0.0970 -0.0081  0.2447
  189MPD1    H6 2939   2.369   2.168  17.739 -1.4773 -0.2717 -0.6283
  189MPD1    H7 2940   2.481   2.052   0.022 -1.0477 -1.0631  2.2820
  190MPD1     C 2941   0.510   0.030  15.701 -0.0447 -0.2465  0.1975
  190MPD1    C1 2942   0.614   0.067  15.623  0.2228  0.0942  0.0561
  190MPD1    C2 2943   0.734   0.106  15.691  0.1526  0.1769 -0.1122
  190MPD1    C3 2944   0.735   0.129  15.824  0.2737 -0.0717  0.1153
  190MPD1    C4 2945   0.625   0.108  15.894  0.3826 -0.6478  0.1326
  190MPD1    C5 2946   0.517   0.046  15.834  0.5926 -0.0208  0.6902
  190MPD1     H 2947   0.816   0.138  15.628 -0.8791 -0.1686 -1.6274
  190MPD1    H1 2948   0.613   0.145  15.995 -1.0610 -0.4284 -0.1211
  190MPD1    H2 2949   0.421   4.723  15.659 -0.6355  1.6996 -0.6364
  190MPD1    H3 2950   0.424   0.040  15.889  0.3385 -1.3360  0.1035
  190MPD1     N 2951   0.852   0.176  15.877 -0.0127  0.2118  0.2724
  190MPD1    H5 2952   0.937   0.190  15.824  0.0255 -1.0398 -0.0047
  190MPD1    N1 2953   0.611   0.051  15.486 -0.1221  0.4433  0.6043
  190MPD1    H6 2954   0.518   0.055  15.445 -0.3122 -0.7717  0.9139
  190MPD1    H7 2955   0.671   0.121  15.442  2.9290 -1.7158  1.2855
  191MPD1     C 2956   4.104   2.666  12.972  0.0897  0.1832  0.0525
  191MPD1    C1 2957   4.104   2.793  12.919  0.9865 -0.1528  0.1010
  191MPD1    C2 2958   4.193   2.815  12.815 -0.0739 -0.9573  0.5958
  191MPD1    C3 2959   4.276   2.723  12.759 -0.3828 -0.0583 -0.1740
  191MPD1    C4 2960   4.270   2.592  12.810  0.2708  0.1089  0.2276
  191MPD1    C5 2961   4.190   2.571  12.920 -0.0336 -0.3844  0.4849
  191MPD1     H 2962   4.190   2.913  12.769 -0.2014 -1.1354  0.2332
  191MPD1    H1 2963   4.340   2.514  12.784  1.4564  1.3764 -0.4019
  191MPD1    H2 2964   4.041   2.635  13.055 -2.2859  2.8867 -0.7562
  191MPD1    H3 2965   4.180   2.472  12.965  0.9229 -0.9282 -0.4868
  191MPD1     N 2966   4.367   2.757  12.648 -0.1321 -0.0327  0.4067
  191MPD1    H5 2967   4.365   2.855  12.622  1.4185 -0.6316 -1.9729
  191MPD1    N1 2968   4.040   2.898  12.986 -0.2582  0.1385 -0.2375
  191MPD1    H6 2969   3.957   2.876  13.042 -0.4157  1.0734 -0.0975
  191MPD1    H7 2970   4.033   2.986  12.935 -0.0901  0.1819 -0.1867
  192MPD1     C 2971   4.065   2.724  11.866 -0.4360 -0.0651  0.3503
  192MPD1    C1 2972   4.188   2.781  11.831  0.2149 -1.0799 -0.1970
  192MPD1    C2 2973   4.281   2.799  11.933 -0.0561  0.1663 -0.7492
  192MPD1    C3 2974   4.257   2.744  12.056 -0.4364 -0.5697  0.1130
  192MPD1    C4 2975   4.138   2.693  12.091  0.3417 -0.3542 -0.4718
  192MPD1    C5 2976   4.039   2.675  11.996 -0.5034 -0.1517 -0.4599
  192MPD1     H 2977   4.369   2.859  11.913  0.4379 -0.4059 -0.2905
  192MPD1    H1 2978   4.123   2.661  12.193  0.5745  0.9415 -0.0271
  192MPD1    H2 2979   3.983   2.720  11.796 -0.3874 -0.4975  0.3192
  192MPD1    H3 2980   3.940   2.635  12.014 -0.1793 -2.0608 -2.9432
  192MPD1     N 2981   4.351   2.749  12.162  1.0516  0.0124 -0.4795
  192MPD1    H5 2982   4.331   2.687  12.240 -0.0095 -0.0956 -0.8432
  192MPD1    N1 2983   4.205   2.852  11.714 -0.2151 -0.2888 -0.3805
  192MPD1    H6 2984   4.144   2.834  11.635 -1.1712 -0.8766  0.4946
  192MPD1    H7 2985   4.299   2.852  11.676 -0.1549  0.5636 -0.2287
  193MPD1     C 2986   3.783   2.192  16.628 -0.4464 -0.5350  0.3664
  193MPD1    C1 2987   3.861   2.157  16.522 -0.0953 -0.0246 -0.0611
  193MPD1    C2 2988   3.951   2.254  16.480  0.1013 -0.4787 -0.3032
  193MPD1    C3 2989   3.991   2.354  16.566  0.3254 -0.2392  0.3808
  193MPD1    C4 2990   3.922   2.376  16.683 -1.1954 -0.4783  0.4146
  193MPD1    C5 2991   3.816   2.297  16.713 -0.4287 -0.2421 -0.4671
  193MPD1     H 2992   3.995   2.256  16.381  1.0842 -1.4271  0.1153
  193MPD1    H1 2993   3.966   2.442  16.757  0.4060  0.5827 -1.5211
  193MPD1    H2 2994   3.701   2.129  16.660 -1.3240  0.3331 -0.1450
  193MPD1    H3 2995   3.768   2.318  16.808  0.5579 -1.0197  0.1990
  193MPD1     N 2996   4.107   2.433  16.534 -0.1613 -0.0529 -0.3684
  193MPD1    H5 2997   4.131   2.506  16.600  1.0260  1.4080 -2.4024
  193MPD1    N1 2998   3.799   2.079  16.422 -0.1853  0.4424 -0.0198
  193MPD1    H6 2999   3.863   2.052  16.348 -0.0765  1.7755 -0.4171
  193MPD1    H7 3000   3.745   2.002  16.461  0.0359  0.3372  0.0748
  194MPD1     C 3001   2.142   4.364  17.074  0.1763 -0.8781 -0.3728
  194MPD1    C1 3002   2.134   4.281  17.183 -1.1511 -0.1691  0.4431
  194MPD1    C2 3003   2.136   4.142  17.167 -0.2039 -0.0753 -0.4300
  194MPD1    C3 3004   2.143   4.092  17.032 -0.5326  0.0133  0.3724
  194MPD1    C4 3005   2.150   4.185  16.925  0.4538  0.5272  0.2556
  194MPD1    C5 3006   2.154   4.319  16.949 -0.3239  0.2776  0.2775
  194MPD1     H 3007   2.147   4.078  17.254  3.0581 -0.8483 -1.4160
  194MPD1    H1 3008   2.171   4.157  16.822 -2.1648 -3.0185  0.6828
  194MPD1    H2 3009   2.134   4.472  17.073 -2.6565 -1.1051 -1.3697
  194MPD1    H3 3010   2.165   4.389  16.867  1.0847  0.0934  0.3061
  194MPD1     N 3011   2.151   3.952  16.997 -0.6099  0.4316 -0.0892
  194MPD1    H5 3012   2.186   3.937  16.903 -0.0771 -4.7270  0.9126
  194MPD1    N1 3013   2.130   4.337  17.313 -0.2949 -0.6200  0.5996
  194MPD1    H6 3014   2.179   4.274  17.377  0.1551 -1.0858 -0.1998
  194MPD1    H7 3015   2.153   4.434  17.330 -4.3312  0.4866 -0.3561
  195MPD1     C 3016   4.253   1.694   0.304 -0.1172  0.2806 -0.1556
  195MPD1    C1 3017   4.328   1.621   0.213 -0.6038 -0.5010  0.1094
  195MPD1    C2 3018   4.312   1.491   0.199 -0.8391  0.0609 -0.5498
  195MPD1    C3 3019   4.226   1.418   0.285 -0.8817  0.2770  0.2543
  195MPD1    C4 3020   4.156   1.490   0.377  0.7522 -0.2107 -0.1788
  195MPD1    C5 3021   4.165   1.629   0.386  0.1676 -0.0822 -0.2954
  195MPD1     H 3022   4.373   1.453   0.118 -2.1336 -1.1366 -0.9638
  195MPD1    H1 3023   4.098   1.439   0.453  0.0753 -2.8708 -2.4632
  195MPD1    H2 3024   4.251   1.802   0.313 -1.8846  0.1753  0.6472
  195MPD1    H3 3025   4.107   1.682   0.461  0.4181  0.4280 -0.4581
  195MPD1     N 3026   4.218   1.274   0.291 -0.5044 -0.4041 -0.0902
  195MPD1    H5 3027   4.173   1.230   0.370  0.8533 -0.6683  0.5291
  195MPD1    N1 3028   4.417   1.686   0.130  0.4998  0.1465 -0.8623
  195MPD1    H6 3029   4.469   1.762   0.174  1.7882 -0.5810 -1.1293
  195MPD1    H7 3030   4.491   1.629   0.090 -0.4335 -2.3870  0.9898
  196MPD1     C 3031   3.242   1.017  17.452  0.1735 -0.1202  0.5517
  196MPD1    C1 3032   3.347   1.082  17.503  0.0096  0.0944  0.2655
  196MPD1    C2 3033   3.386   1.048  17.636 -0.6430  0.3375 -0.0026
  196MPD1    C3 3034   3.302   0.973  17.716  0.4136 -0.0962 -0.0982
  196MPD1    C4 3035   3.185   0.918  17.666  0.0506  0.0319 -0.6119
  196MPD1    C5 3036   3.159   0.944  17.533 -0.3605 -0.0689  0.2423
  196MPD1     H 3037   3.475   1.092  17.680 -0.7714  1.2857 -0.6982
  196MPD1    H1 3038   3.124   0.854  17.729  1.1194 -1.6040 -1.2339
  196MPD1    H2 3039   3.223   1.023  17.346  0.9578 -1.7046  0.3274
  196MPD1    H3 3040   3.075   0.889  17.491  1.3551 -2.5082  0.0191
  196MPD1     N 3041   3.328   0.936   0.097 -0.3834  0.2097 -0.1103
  196MPD1    H5 3042   3.255   0.875   0.133 -1.3248  0.2202 -2.0104
  196MPD1    N1 3043   3.449   1.138  17.421  0.4599  0.2577  0.4926
  196MPD1    H6 3044   3.509   1.204  17.470  1.2121 -0.9238  1.1506
  196MPD1    H7 3045   3.414   1.188  17.340 -0.2620 -0.4593  0.3561
  197MPD1     C 3046   3.336   2.184  17.353  0.0141 -0.8162 -1.1501
  197MPD1    C1 3047   3.349   2.310  17.402 -0.1061  0.4558 -0.1065
  197MPD1    C2 3048   3.343   2.416  17.313  0.0682  0.2606 -0.6313
  197MPD1    C3 3049   3.334   2.396  17.178 -0.1582  0.8032 -0.1517
  197MPD1    C4 3050   3.304   2.269  17.132 -0.4994  0.6262 -0.5511
  197MPD1    C5 3051   3.315   2.165  17.220  0.4516  0.8721  0.2894
  197MPD1     H 3052   3.367   2.517  17.343 -3.4449  1.1641 -0.8712
  197MPD1    H1 3053   3.292   2.246  17.027 -0.0656 -0.8423 -0.2778
  197MPD1    H2 3054   3.319   2.100  17.419 -0.4338 -0.5080 -0.8805
  197MPD1    H3 3055   3.299   2.063  17.187 -1.0629  0.4793  2.2004
  197MPD1     N 3056   3.322   2.499  17.080 -0.5210 -0.2231  0.0617
  197MPD1    H5 3057   3.321   2.458  16.987  0.3069 -1.8085  0.7381
  197MPD1    N1 3058   3.323   2.325  17.543 -0.2798 -0.5612  0.5519
  197MPD1    H6 3059   3.357   2.417  17.568  1.1824 -1.6053  2.3967
  197MPD1    H7 3060   3.369   2.250  17.595 -0.1927  0.3082  1.7321
  198MPD1     C 3061   0.106   0.636  15.155  0.4003  0.2523  0.5925
  198MPD1    C1 3062   0.133   0.583  15.280  0.4801 -0.5679  0.5121
  198MPD1    C2 3063   0.243   0.638  15.347  0.7788  0.1512  0.0945
  198MPD1    C3 3064   0.322   0.733  15.290 -0.4464 -0.5291 -0.5275
  198MPD1    C4 3065   0.297   0.787  15.164  0.6463  0.6657  0.4221
  198MPD1    C5 3066   0.181   0.740  15.102 -0.5769  0.5140  0.1327
  198MPD1     H 3067   0.267   0.598  15.444  1.2023  4.0053  1.5829
  198MPD1    H1 3068   0.364   0.859  15.117  1.9842 -0.1882  1.0129
  198MPD1    H2 3069   0.028   0.599  15.090  2.5758 -1.6719 -0.9329
  198MPD1    H3 3070   0.147   0.772  15.004 -0.5226 -0.9152 -0.3480
  198MPD1     N 3071   0.423   0.778  15.379  0.1441 -0.3706 -0.3983
  198MPD1    H5 3072   0.432   0.730  15.468  0.5050  1.1478  0.3981
  198MPD1    N1 3073   0.049   0.488  15.344  0.0208 -0.2534  0.3658
  198MPD1    H6 3074   0.100   0.416  15.396 -0.5676  0.0918  1.4254
  198MPD1    H7 3075   0.002   0.436  15.270 -0.0953  0.9287 -0.3812
  199MPD1     C 3076   2.550   3.799  10.422 -0.1123  0.4150 -0.4647
  199MPD1    C1 3077   2.553   3.731  10.296 -0.7088  0.2090  0.0662
  199MPD1    C2 3078   2.452   3.641  10.266 -0.7563 -1.4370 -0.5257
  199MPD1    C3 3079   2.353   3.608  10.356  0.0511 -0.3754  0.4286
  199MPD1    C4 3080   2.361   3.667  10.479 -0.1246 -1.0580  0.1910
  199MPD1    C5 3081   2.457   3.755  10.515  0.2238  0.2174 -0.7104
  199MPD1     H 3082   2.459   3.592  10.169 -1.8539 -0.4259 -1.1287
  199MPD1    H1 3083   2.280   3.652  10.550 -1.5161  0.4156 -1.0837
  199MPD1    H2 3084   2.630   3.871  10.435  0.6694 -0.3352 -1.1844
  199MPD1    H3 3085   2.460   3.807  10.611  1.0441  2.0651 -1.7388
  199MPD1     N 3086   2.244   3.524  10.334  0.2606  0.7299  0.7258
  199MPD1    H5 3087   2.181   3.509  10.411  2.5239  0.7692  2.5910
  199MPD1    N1 3088   2.645   3.780  10.199  0.8068 -0.0748 -0.5665
  199MPD1    H6 3089   2.734   3.814  10.234  0.9666 -1.5354  0.4498
  199MPD1    H7 3090   2.668   3.714  10.126  1.0630 -0.1017 -0.4621
  200MPD1     C 3091   1.159   2.476  15.307 -0.1507 -0.1564 -0.4006
  200MPD1    C1 3092   1.137   2.422  15.184  0.1789 -0.1518  0.0419
  200MPD1    C2 3093   1.240   2.412  15.093  0.0441  0.1172  0.0419
  200MPD1    C3 3094   1.365   2.476  15.121  0.2296  0.6511  0.6030
  200MPD1    C4 3095   1.381   2.535  15.245  0.4193 -0.1350 -0.4126
  200MPD1    C5 3096   1.281   2.528  15.334 -0.6495 -0.5029 -0.1216
  200MPD1     H 3097   1.233   2.368  14.994 -2.4495  0.3888  0.1010
  200MPD1    H1 3098   1.466   2.590  15.285  0.3357 -1.3312  1.3782
  200MPD1    H2 3099   1.080   2.474  15.381  1.1888 -2.5462  0.9666
  200MPD1    H3 3100   1.293   2.586  15.425 -0.9807 -0.5053 -0.0761
  200MPD1     N 3101   1.479   2.468  15.023 -0.7747  0.7187 -0.0488
  200MPD1    H5 3102   1.461   2.406  14.945  0.5693 -0.9412  0.9693
  200MPD1    N1 3103   1.017   2.353  15.170  0.2325 -0.5194 -0.7465
  200MPD1    H6 3104   0.990   2.346  15.072  1.0601  1.8070 -1.1103
  200MPD1    H7 3105   0.942   2.404  15.216 -1.5447  0.2255 -4.4505
  201MPD1     C 3106   3.688   1.924  13.055 -0.2580 -0.2393  0.6984
  201MPD1    C1 3107   3.777   1.869  13.142 -0.4544 -0.0958  0.4189
  201MPD1    C2 3108   3.804   1.734  13.140  0.0360 -0.3570 -0.1794
  201MPD1    C3 3109   3.730   1.651  13.062 -0.2541 -0.2159 -0.5928
  201MPD1    C4 3110   3.620   1.706  12.996 -0.3666 -0.3491  0.0947
  201MPD1    C5 3111   3.602   1.840  12.986  0.0859 -0.0951  0.2009
  201MPD1     H 3112   3.888   1.694  13.195 -0.4022  0.6126  1.1912
  201MPD1    H1 3113   3.567   1.651  12.919  1.2745 -1.1494 -0.4407
  201MPD1    H2 3114   3.688   2.032  13.046  2.6106 -0.1475  1.8629
  201MPD1    H3 3115   3.528   1.878  12.916  0.9685 -1.4152 -1.4473
  201MPD1     N 3116   3.776   1.511  13.039 -0.1425 -0.0854 -0.7380
  201MPD1    H5 3117   3.864   1.487  13.082  0.5190  0.8541 -1.5723
  201MPD1    N1 3118   3.855   1.957  13.217  0.6630  0.1245  0.8149
  201MPD1    H6 3119   3.901   1.909  13.295  2.9865 -0.0514 -0.6713
  201MPD1    H7 3120   3.805   2.037  13.256 -1.0529 -1.4360  1.7774
  202MPD1     C 3121   3.144   4.412  10.464 -0.0733 -0.4696 -0.0393
  202MPD1    C1 3122   3.040   4.406  10.379 -1.3488  0.0684 -0.8651
  202MPD1    C2 3123   3.072   4.447  10.248 -0.2602 -0.5226  0.5439
  202MPD1    C3 3124   3.166   4.543  10.221 -0.0168 -0.8418 -0.2266
  202MPD1    C4 3125   3.252   4.568  10.324  0.1199 -0.2540 -0.0501
  202MPD1    C5 3126   3.247   4.496  10.436  1.2804 -0.2063 -0.5371
  202MPD1     H 3127   2.992   4.431  10.176 -0.0537 -0.3018  0.2654
  202MPD1    H1 3128   3.341   4.630  10.326 -0.4278  0.5597 -1.0652
  202MPD1    H2 3129   3.150   4.353  10.555  0.4051  0.4492  0.5364
  202MPD1    H3 3130   3.327   4.503  10.509 -0.8052  2.9637  1.4592
  202MPD1     N 3131   3.179   4.616  10.098  0.1488 -0.4919  0.1978
  202MPD1    H5 3132   3.263   4.673  10.102 -0.9335  1.2682 -2.8173
  202MPD1    N1 3133   2.951   4.297  10.402  0.4748  0.0561 -0.3768
  202MPD1    H6 3134   2.925   4.295  10.500 -0.8247  1.3952 -0.6893
  202MPD1    H7 3135   2.872   4.314  10.340 -0.6636  1.0044  1.3285
  203MPD1     C 3136   2.939   2.725  13.017  0.0730 -0.2102 -0.3765
  203MPD1    C1 3137   2.864   2.652  12.934  0.5015 -0.0787  0.0361
  203MPD1    C2 3138   2.840   2.520  12.969  0.2172  0.0020  0.4537
  203MPD1    C3 3139   2.910   2.457  13.068  0.0487 -0.6030 -0.4347
  203MPD1    C4 3140   3.002   2.530  13.141 -0.3664 -0.1644 -0.0324
  203MPD1    C5 3141   3.010   2.670  13.115 -0.1202 -0.0734 -0.2907
  203MPD1     H 3142   2.760   2.461  12.927  0.6819 -0.0444 -0.3813
  203MPD1    H1 3143   3.062   2.486  13.220  1.2175  1.7364 -0.1869
  203MPD1    H2 3144   2.945   2.832  13.005  1.1633  0.0352  2.3122
  203MPD1    H3 3145   3.074   2.732  13.177 -0.7150 -0.7439  0.9915
  203MPD1     N 3146   2.884   2.319  13.091  0.8043  0.1531 -0.9233
  203MPD1    H5 3147   2.825   2.271  13.024 -0.2584 -2.4935  1.8989
  203MPD1    N1 3148   2.793   2.731  12.847  1.0062 -0.7720 -0.1831
  203MPD1    H6 3149   2.752   2.681  12.769 -0.1892  2.5050 -1.6433
  203MPD1    H7 3150   2.844   2.811  12.809 -1.2497  1.5466  1.6485
  204MPD1     C 3151   1.753   2.949  17.092 -0.6633  0.4826  0.5167
  204MPD1    C1 3152   1.784   2.950  16.960 -0.0673  0.3279  0.5255
  204MPD1    C2 3153   1.874   2.858  16.913 -0.2569 -0.4124  0.5609
  204MPD1    C3 3154   1.950   2.777  16.996  0.1701 -0.8114 -0.4387
  204MPD1    C4 3155   1.920   2.784  17.131 -0.2545  0.0112 -0.0176
  204MPD1    C5 3156   1.824   2.871  17.178 -0.4303  0.6109  0.4377
  204MPD1     H 3157   1.875   2.846  16.806 -1.5155 -0.0453  0.5137
  204MPD1    H1 3158   1.953   2.713  17.207 -1.2105 -2.1964 -1.6552
  204MPD1    H2 3159   1.677   3.014  17.135 -0.8439  1.3805 -1.1451
  204MPD1    H3 3160   1.806   2.871  17.285  0.7135 -0.3708  0.6405
  204MPD1     N 3161   2.033   2.676  16.939 -0.0354 -0.2332 -0.4537
  204MPD1    H5 3162   2.050   2.673  16.839 -1.2330 -1.0235 -0.6357
  204MPD1    N1 3163   1.688   3.014  16.873  0.2263 -0.0380  0.6256
  204MPD1    H6 3164   1.651   3.101  16.910  2.2207  0.3475  1.7477
  204MPD1    H7 3165   1.728   3.037  16.782 -1.5689 -1.1406 -0.4379
  205MPD1     C 3166   1.667   1.903  16.365 -0.6700  0.6945 -0.5419
  205MPD1    C1 3167   1.612   1.863  16.486  0.1547 -0.9354  0.5379
  205MPD1    C2 3168   1.675   1.762  16.562  0.4900 -0.7509  0.7603
  205MPD1    C3 3169   1.798   1.715  16.522  0.1868 -0.7825  0.2338
  205MPD1    C4 3170   1.851   1.764  16.404  0.4580  0.2204  0.3544
  205MPD1    C5 3171   1.795   1.863  16.334 -0.0681 -0.1618  0.0629
  205MPD1     H 3172   1.631   1.723  16.653  0.7973 -3.2711 -0.1815
  205MPD1    H1 3173   1.957   1.750  16.387  0.7096  1.4353  0.8895
  205MPD1    H2 3174   1.630   1.986  16.308  0.4595  0.9732 -0.8801
  205MPD1    H3 3175   1.829   1.905  16.240 -0.8986  2.2477  0.8448
  205MPD1     N 3176   1.877   1.627  16.599  0.3456 -0.7246 -0.2041
  205MPD1    H5 3177   1.972   1.601  16.575  0.2113 -1.3607 -0.0334
  205MPD1    N1 3178   1.481   1.906  16.519  0.0265 -0.2952 -0.3857
  205MPD1    H6 3179   1.445   1.896  16.613  1.1040 -0.2589  0.0375
  205MPD1    H7 3180   1.459   1.998  16.480  0.5263  0.2973  0.7190
  206MPD1     C 3181   2.116   0.011  17.404  0.7811 -0.4824 -0.2079
  206MPD1    C1 3182   2.243   4.703  17.366 -0.2762  0.6432 -0.2711
  206MPD1    C2 3183   2.280   4.714  17.239  0.0684 -1.0650 -1.0771
  206MPD1    C3 3184   2.195   0.029  17.149  0.8657 -0.2399 -0.4579
  206MPD1    C4 3185   2.077   0.084  17.191 -0.5214 -0.5226  0.5121
  206MPD1    C5 3186   2.039   0.081  17.316  0.6774  0.6111 -1.0208
  206MPD1     H 3187   2.362   4.650  17.208 -0.5870 -1.7226 -1.4429
  206MPD1    H1 3188   2.004   0.128  17.124 -1.3871 -1.5257  0.8107
  206MPD1    H2 3189   2.078   4.723  17.502  0.1680 -0.0363 -0.3258
  206MPD1    H3 3190   1.944   0.116  17.355  0.6390  0.0457 -0.6141
  206MPD1     N 3191   2.221   0.033  17.007  0.0027 -0.2027  0.4707
  206MPD1    H5 3192   2.152   0.084  16.953  0.9515 -0.0418 -0.5902
  206MPD1    N1 3193   2.299   4.596  17.439 -0.2926  0.7987 -0.5076
  206MPD1    H6 3194   2.281   4.600  17.539 -1.7422  0.7794 -0.7650
  206MPD1    H7 3195   2.395   4.572  17.418 -0.0100 -0.5402  2.3043
  207MPD1     C 3196   4.553   2.662  10.479 -0.2091 -0.3448  0.4122
  207MPD1    C1 3197   4.575   2.774  10.403  0.9890  0.1114 -0.1852
  207MPD1    C2 3198   4.688   2.787  10.334 -0.1329  0.0015 -0.3605
  207MPD1    C3 3199   0.044   2.691  10.345 -0.4477 -0.1433  0.0018
  207MPD1    C4 3200   0.028   2.585  10.426 -0.4384 -0.5400 -0.4871
  207MPD1    C5 3201   4.647   2.565  10.492  0.0096 -0.1539  0.7304
  207MPD1     H 3202   4.701   2.872  10.269  0.6413 -0.2573 -0.5461
  207MPD1    H1 3203   0.109   2.514  10.438 -0.1098 -0.3436 -1.5750
  207MPD1    H2 3204   4.465   2.651  10.542 -0.9022 -0.5690 -0.5916
  207MPD1    H3 3205   4.629   2.485  10.563  1.6252 -0.1413  1.1679
  207MPD1     N 3206   0.163   2.691  10.258 -0.2030  0.3628 -0.4233
  207MPD1    H5 3207   0.216   2.605  10.266  1.0557  1.2088  0.2499
  207MPD1    N1 3208   4.492   2.888  10.421  0.9340  0.1952  0.5265
  207MPD1    H6 3209   4.484   2.942  10.335  0.2467  0.0417  0.4942
  207MPD1    H7 3210   4.401   2.863  10.460  1.2433  0.1681  1.2176
  208MPD1     C 3211   3.007   1.029  16.929  0.5693 -1.0126 -0.0168
  208MPD1    C1 3212   2.940   0.912  16.897 -0.1075  0.6043  0.2391
  208MPD1    C2 3213   2.862   0.850  16.995  0.2784 -0.2586 -0.6956
  208MPD1    C3 3214   2.844   0.910  17.120  0.2713  0.7918 -0.3746
  208MPD1    C4 3215   2.902   1.033  17.143 -0.3158  0.2676 -0.1976
  208MPD1    C5 3216   2.972   1.100  17.045 -0.5392 -0.6022  0.1107
  208MPD1     H 3217   2.826   0.750  16.973 -2.0974  0.1177  1.4099
  208MPD1    H1 3218   2.872   1.099  17.224 -2.3972  3.4791 -3.5673
  208MPD1    H2 3219   3.093   1.073  16.879 -1.7028  0.7908 -2.3485
  208MPD1    H3 3220   3.015   1.198  17.060 -0.0100 -0.5725 -1.5423
  208MPD1     N 3221   2.769   0.850  17.217  0.5325  0.4940 -0.2662
  208MPD1    H5 3222   2.708   0.772  17.195  2.1723 -0.5646 -1.0227
  208MPD1    N1 3223   2.984   0.835  16.786  0.2549 -0.0638  0.3007
  208MPD1    H6 3224   3.009   0.898  16.711  0.0398  1.3955  1.4568
  208MPD1    H7 3225   2.913   0.774  16.747 -1.8316  1.7324  1.3335
  209MPD1     C 3226   4.634   1.144  10.529 -0.4022  0.4268  0.0573
  209MPD1    C1 3227   4.697   1.166  10.656 -0.3245  0.4119 -1.2752
  209MPD1    C2 3228   0.023   1.284  10.659  0.9182  0.3003  0.9154
  209MPD1    C3 3229   0.038   1.362  10.548 -0.4768  0.2458  0.2787
  209MPD1    C4 3230   4.715   1.334  10.429  0.1263  0.3306  0.2467
  209MPD1    C5 3231   4.639   1.223  10.419  0.0824  0.4185 -0.1637
  209MPD1     H 3232   0.080   1.308  10.747  2.4160 -0.6921  0.2038
  209MPD1    H1 3233   4.728   1.380  10.332 -1.6130  0.4603  0.0916
  209MPD1    H2 3234   4.569   1.057  10.526 -2.0713  1.7183 -0.8376
  209MPD1    H3 3235   4.583   1.202  10.329  1.6373 -3.4973 -0.2034
  209MPD1     N 3236   0.107   1.484  10.564 -0.4949  0.8436  0.2191
  209MPD1    H5 3237   0.128   1.509  10.660 -0.0614 -0.7839  0.5417
  209MPD1    N1 3238   4.666   1.101  10.777  0.2470  0.0463  0.5367
  209MPD1    H6 3239   4.662   1.001  10.758 -1.6746  0.5428 -1.6257
  209MPD1    H7 3240   4.734   1.105  10.853 -0.7128  1.3675  1.3250
  210MPD1     C 3241   0.183   2.158  11.280 -0.0777  0.2798 -0.1351
  210MPD1    C1 3242   0.194   2.019  11.274 -0.1857 -0.6251 -0.3003
  210MPD1    C2 3243   0.224   1.968  11.149 -0.5802 -0.0362  0.2392
  210MPD1    C3 3244   0.220   2.042  11.032 -0.1285 -0.8790  0.4191
  210MPD1    C4 3245   0.218   2.177  11.047  0.8571  0.2904  0.5233
  210MPD1    C5 3246   0.204   2.233  11.167 -0.1043  0.2491  0.4625
  210MPD1     H 3247   0.231   1.861  11.134  0.1482  0.2764 -1.6337
  210MPD1    H1 3248   0.223   2.244  10.962 -0.5272  0.5530  0.6572
  210MPD1    H2 3249   0.163   2.210  11.373  0.5128 -0.5187  0.4446
  210MPD1    H3 3250   0.189   2.339  11.181  2.4019  0.5512  0.8300
  210MPD1     N 3251   0.220   1.981  10.903 -0.2316  0.4243  0.5026
  210MPD1    H5 3252   0.210   2.042  10.824 -1.9791  0.5157  0.7923
  210MPD1    N1 3253   0.211   1.935  11.385  0.0763  0.5185 -0.1676
  210MPD1    H6 3254   0.170   1.974  11.469  1.9572 -0.5132  1.2425
  210MPD1    H7 3255   0.147   1.857  11.370 -0.6249  1.3649 -1.5594
  211MPD1     C 3256   3.265   1.406  16.686 -0.7216 -0.5375  0.1452
  211MPD1    C1 3257   3.219   1.505  16.603  0.4225  0.8327  0.8458
  211MPD1    C2 3258   3.085   1.500  16.574 -0.1924  0.3844 -0.9049
  211MPD1    C3 3259   2.998   1.421  16.651  0.9804  0.1845  0.1408
  211MPD1    C4 3260   3.052   1.329  16.737  0.1046  0.5177 -0.4362
  211MPD1    C5 3261   3.180   1.317  16.753 -0.0625 -0.0193  0.1226
  211MPD1     H 3262   3.044   1.566  16.498  1.3362  0.4382 -1.6794
  211MPD1    H1 3263   2.984   1.263  16.789  0.0875  0.1952 -0.8622
  211MPD1    H2 3264   3.371   1.403  16.705 -0.3130  0.3960 -1.9600
  211MPD1    H3 3265   3.223   1.243  16.820 -0.5358  0.3733  0.8519
  211MPD1     N 3266   2.856   1.429  16.626 -0.7005 -0.4560  1.1910
  211MPD1    H5 3267   2.825   1.513  16.577  0.2910 -1.7123 -1.6397
  211MPD1    N1 3268   3.301   1.593  16.535 -0.5308 -0.1714  0.7405
  211MPD1    H6 3269   3.257   1.674  16.493  0.3641  0.2342  0.5874
  211MPD1    H7 3270   3.386   1.619  16.585 -0.4619  2.2989 -0.6899
  212MPD1     C 3271   1.986   0.030  16.687 -0.2139 -0.0505 -0.1044
  212MPD1    C1 3272   1.935   0.067  16.808  0.0465  0.4175 -0.7632
  212MPD1    C2 3273   1.906   4.709  16.897 -0.1996  0.3027  0.1619
  212MPD1    C3 3274   1.902   4.572  16.865  0.6634 -0.1602 -0.0838
  212MPD1    C4 3275   1.946   4.538  16.736  0.0722  0.1174 -0.0017
  212MPD1    C5 3276   1.991   4.636  16.651  0.1283 -0.1054 -0.0664
  212MPD1     H 3277   1.896   4.737  17.001  1.0759  1.8042 -0.1225
  212MPD1    H1 3278   1.945   4.436  16.697 -0.6326 -0.4682  1.5504
  212MPD1    H2 3279   2.027   0.106  16.621 -0.8908 -0.0193 -0.4894
  212MPD1    H3 3280   2.021   4.601  16.553  0.9180  1.6172 -0.4448
  212MPD1     N 3281   1.849   4.466  16.943 -0.1754 -0.0287  0.2281
  212MPD1    H5 3282   1.834   4.376  16.899  1.1503 -0.2916  0.3334
  212MPD1    N1 3283   1.970   0.195  16.858  0.6302 -0.2017  0.0526
  212MPD1    H6 3284   1.986   0.271  16.793 -0.9044  0.1625  0.1081
  212MPD1    H7 3285   1.902   0.218  16.930  2.9014  0.5968  1.9213
  213MPD1     C 3286   4.218   0.453  16.119 -0.3834 -0.6472  0.6686
  213MPD1    C1 3287   4.219   0.320  16.077  0.4108 -0.6747 -0.7497
  213MPD1    C2 3288   4.255   0.306  15.943  0.2765  0.4506  0.3192
  213MPD1    C3 3289   4.266   0.408  15.847 -0.3041 -0.1367  0.0676
  213MPD1    C4 3290   4.251   0.536  15.891  0.5443  0.9117 -0.2804
  213MPD1    C5 3291   4.232   0.552  16.023  0.2255  0.0351  0.2477
  213MPD1     H 3292   4.275   0.210  15.896 -0.1182 -0.4037  1.9261
  213MPD1    H1 3293   4.278   0.628  15.838 -0.3772  0.4316 -1.5703
  213MPD1    H2 3294   4.218   0.491  16.221  0.1760 -1.8235  1.1113
  213MPD1    H3 3295   4.240   0.649  16.070  0.9853  0.0649  0.0679
  213MPD1     N 3296   4.286   0.365  15.714 -0.6028  0.2573  0.4664
  213MPD1    H5 3297   4.295   0.267  15.689  2.4565  0.8599 -0.7303
  213MPD1    N1 3298   4.252   0.220  16.171 -0.0690 -0.7788  0.1674
  213MPD1    H6 3299   4.223   0.219  16.269  0.4023 -0.5751  0.3068
  213MPD1    H7 3300   4.237   0.126  16.133  1.7717 -1.6306  1.5804
  214MPD1     C 3301   3.954   4.448  15.015  0.0386 -0.4231 -0.0653
  214MPD1    C1 3302   3.996   4.443  15.143  0.2699  0.4685 -0.0697
  214MPD1    C2 3303   4.040   4.559  15.204 -0.0198  0.7066  0.2376
  214MPD1    C3 3304   4.050   4.678  15.141  0.1285  0.5606  0.0750
  214MPD1    C4 3305   4.003   4.679  15.013  0.8093 -0.4734 -0.7676
  214MPD1    C5 3306   3.949   4.567  14.954 -0.5524  0.4465 -0.3134
  214MPD1     H 3307   4.076   4.551  15.306 -1.6183  0.3270  0.7807
  214MPD1    H1 3308   4.009   0.026  14.947  0.1334  1.4174  1.6199
  214MPD1    H2 3309   3.919   4.357  14.968 -1.2754  0.3307 -0.5560
  214MPD1    H3 3310   3.914   4.583  14.853 -0.2422 -0.0668 -0.5018
  214MPD1     N 3311   4.116   0.051  15.188  0.1506 -0.0101  0.0117
  214MPD1    H5 3312   4.129   0.129  15.124 -1.6703 -0.3516 -0.7495
  214MPD1    N1 3313   3.993   4.317  15.204 -0.5339  0.3936 -0.4244
  214MPD1    H6 3314   3.928   4.254  15.157  0.6339 -0.8924 -0.3089
  214MPD1    H7 3315   3.970   4.327  15.302  0.1125 -1.3584 -0.0951
  215MPD1     C 3316   4.582   1.757  10.326  0.1442  0.1327 -0.3515
  215MPD1    C1 3317   4.654   1.881  10.339 -0.5618  0.0030  0.2429
  215MPD1    C2 3318   4.651   1.935  10.464 -0.8211  0.0015 -0.5735
  215MPD1    C3 3319   4.616   1.861  10.576  0.7373 -0.5374  0.3755
  215MPD1    C4 3320   4.559   1.731  10.555 -0.3126  0.5542  0.2128
  215MPD1    C5 3321   4.545   1.678  10.428 -0.1581  0.2207 -0.2240
  215MPD1     H 3322   4.684   2.038  10.476  2.2509 -0.9307 -1.0877
  215MPD1    H1 3323   4.537   1.659  10.633 -3.7760  0.5961 -0.7317
  215MPD1    H2 3324   4.569   1.715  10.227  0.7817  1.2542 -0.9145
  215MPD1    H3 3325   4.520   1.574  10.410  0.8223 -0.0806  0.1878
  215MPD1     N 3326   4.636   1.922  10.701  0.3809  0.5504  0.0998
  215MPD1    H5 3327   4.672   2.016  10.695  0.6550  0.4543  0.2464
  215MPD1    N1 3328   4.669   1.958  10.226  0.4176  0.1188 -0.1518
  215MPD1    H6 3329   4.690   1.903  10.144 -0.8229 -1.6994  0.7448
  215MPD1    H7 3330   0.003   2.027  10.243 -1.7037  2.3880 -0.1975
  216MPD1     C 3331   1.695   4.408  17.607 -0.3330  0.5163 -0.0756
  216MPD1    C1 3332   1.797   4.344  17.541 -0.4483  0.0407  0.1265
  216MPD1    C2 3333   1.794   4.205  17.531  0.4400  0.2686  1.0282
  216MPD1    C3 3334   1.681   4.140  17.578 -0.2082  0.6635 -0.1547
  216MPD1    C4 3335   1.576   4.211  17.640 -0.4284  0.2297  0.0164
  216MPD1    C5 3336   1.588   4.345  17.659  0.7263  0.5547  0.1022
  216MPD1     H 3337   1.866   4.149  17.472 -0.4547  1.7032 -1.4297
  216MPD1    H1 3338   1.477   4.171  17.656  0.4002 -0.6881  2.8132
  216MPD1    H2 3339   1.692   4.514  17.632  0.7802  0.5756 -0.1557
  216MPD1    H3 3340   1.500   4.392  17.701 -0.6348 -0.0907 -2.0331
  216MPD1     N 3341   1.677   3.996  17.563  0.7346  0.3847 -0.4628
  216MPD1    H5 3342   1.758   3.947  17.526  1.6306  0.6010  1.2249
  216MPD1    N1 3343   1.905   4.429  17.514  0.3513  0.1074 -0.4546
  216MPD1    H6 3344   1.883   4.527  17.494  0.2999 -0.0812 -1.3154
  216MPD1    H7 3345   1.967   4.386  17.446  0.9534  1.7865 -0.9746
  217MPD1     C 3346   1.870   0.072   9.389 -0.2172  0.2296  0.2832
  217MPD1    C1 3347   1.929   0.053   9.515 -0.6356 -0.3160  0.2454
  217MPD1    C2 3348   2.028   0.139   9.554 -0.4426  0.3317 -0.8719
  217MPD1    C3 3349   2.089   0.228   9.464 -0.2807  0.0245  0.1720
  217MPD1    C4 3350   2.038   0.229   9.337 -1.0692 -0.5229 -0.1775
  217MPD1    C5 3351   1.921   0.165   9.307  0.8247  0.6434  0.2186
  217MPD1     H 3352   2.066   0.136   9.655 -1.0206  0.0546 -0.6628
  217MPD1    H1 3353   2.079   0.291   9.259  0.0306  0.1279  0.9214
  217MPD1    H2 3354   1.783   0.018   9.356  0.4747 -0.8662  0.2638
  217MPD1    H3 3355   1.884   0.181   9.207  1.0728  0.4760  0.1010
  217MPD1     N 3356   2.191   0.313   9.499 -0.3592  0.2975  0.7203
  217MPD1    H5 3357   2.210   0.389   9.436 -1.3233  0.3561  0.4931
  217MPD1    N1 3358   1.874   4.693   9.599  0.0834 -0.0801  0.2544
  217MPD1    H6 3359   1.930   4.664   9.679  0.7926  1.6358  0.3823
  217MPD1    H7 3360   1.833   4.611   9.555 -2.3831  1.5150 -0.3581
  218MPD1     C 3361   3.982   2.337  13.599  0.2998 -0.5517 -0.3652
  218MPD1    C1 3362   4.042   2.421  13.510  0.8082  0.7776 -0.0836
  218MPD1    C2 3363   4.139   2.371  13.424 -0.4008 -0.1003  0.4123
  218MPD1    C3 3364   4.178   2.235  13.437  0.5029  0.2515 -0.4288
  218MPD1    C4 3365   4.127   2.161  13.542 -0.0380  0.6127  0.4664
  218MPD1    C5 3366   4.026   2.214  13.618  0.0472 -0.1792  0.4158
  218MPD1     H 3367   4.182   2.438  13.352 -1.3819  0.2691  0.1666
  218MPD1    H1 3368   4.170   2.065  13.565 -0.0877  0.7216  1.0281
  218MPD1    H2 3369   3.891   2.365  13.651 -1.0347 -3.7165 -0.9460
  218MPD1    H3 3370   3.993   2.162  13.707 -2.3568  2.3362  1.0061
  218MPD1     N 3371   4.286   2.189  13.352 -0.4193 -0.5616  0.2972
  218MPD1    H5 3372   4.323   2.260  13.290 -2.3577  0.8301  0.7293
  218MPD1    N1 3373   3.986   2.546  13.487  0.2236  0.1845 -0.1992
  218MPD1    H6 3374   3.929   2.579  13.565  0.2128 -1.5256  0.5100
  218MPD1    H7 3375   4.050   2.624  13.471  1.6969 -1.3608 -1.7840
  219MPD1     C 3376   4.515   2.152  12.385 -0.2204 -0.4614  0.4162
  219MPD1    C1 3377   4.503   2.259  12.473 -0.4225 -0.0519 -0.3956
  219MPD1    C2 3378   4.473   2.225  12.604  0.0126  0.6790  0.2280
  219MPD1    C3 3379   4.475   2.094  12.651 -0.1544  0.2629  0.5529
  219MPD1    C4 3380   4.495   1.995  12.560  0.7579 -0.4582 -0.0839
  219MPD1    C5 3381   4.514   2.018  12.428 -0.3916 -0.0115 -0.6275
  219MPD1     H 3382   4.469   2.309  12.672 -1.1748  2.3565 -1.9148
  219MPD1    H1 3383   4.496   1.896  12.604  2.1161 -0.3695  0.1020
  219MPD1    H2 3384   4.524   2.163  12.278  2.3922  0.8586  0.7658
  219MPD1    H3 3385   4.525   1.935  12.358 -2.9476  0.3778 -1.4997
  219MPD1     N 3386   4.465   2.060  12.785  0.3547 -0.5337 -0.3973
  219MPD1    H5 3387   4.449   1.963  12.810  0.2585  0.2958  2.6621
  219MPD1    N1 3388   4.496   2.390  12.429  0.9568  0.1710  0.3310
  219MPD1    H6 3389   4.544   2.404  12.340  0.2803  2.2092  0.2844
  219MPD1    H7 3390   4.546   2.445  12.499  2.8047 -0.4657 -0.4872
  220MPD1     C 3391   3.227   2.865  10.015 -0.5448 -0.2043 -0.8759
  220MPD1    C1 3392   3.191   2.754  10.082  0.1917 -1.0449 -0.6430
  220MPD1    C2 3393   3.294   2.676  10.145  0.4874  0.7380 -0.2203
  220MPD1    C3 3394   3.427   2.718  10.144  0.2971 -0.4725 -0.0893
  220MPD1    C4 3395   3.454   2.837  10.090  0.4309 -0.0307  0.1008
  220MPD1    C5 3396   3.361   2.905  10.017 -0.4029  0.0550 -0.4706
  220MPD1     H 3397   3.276   2.573  10.173 -0.0636  1.2571  1.3350
  220MPD1    H1 3398   3.559   2.863  10.088  0.8683 -1.8391  0.4578
  220MPD1    H2 3399   3.162   2.932   9.960  0.3058 -1.2299 -3.1216
  220MPD1    H3 3400   3.393   2.997   9.969 -1.2851  0.7736  0.3026
  220MPD1     N 3401   3.524   2.644  10.215  0.3119 -0.3119 -0.1030
  220MPD1    H5 3402   3.494   2.554  10.252 -2.5139  0.7827  0.2212
  220MPD1    N1 3403   3.060   2.697  10.063  0.3139  0.5491  0.1180
  220MPD1    H6 3404   3.024   2.628  10.128  1.6551 -1.9313 -1.7868
  220MPD1    H7 3405   2.984   2.755  10.027 -0.8583 -0.3844  1.0623
  221MPD1     C 3406   2.312   0.837  16.890  0.2100  0.7820  0.0845
  221MPD1    C1 3407   2.393   0.739  16.947  0.0147  0.2253 -0.4356
  221MPD1    C2 3408   2.493   0.695  16.859  1.0154  0.3167  0.0737
  221MPD1    C3 3409   2.496   0.740  16.729  0.4144  0.4972 -0.4336
  221MPD1    C4 3410   2.410   0.829  16.680 -0.4862 -0.1765  0.1488
  221MPD1    C5 3411   2.316   0.879  16.761 -0.9041  0.1963 -0.5574
  221MPD1     H 3412   2.567   0.628  16.899  0.9717 -0.2423 -0.7697
  221MPD1    H1 3413   2.416   0.878  16.584 -2.0357 -0.9670 -0.3546
  221MPD1    H2 3414   2.221   0.868  16.939 -0.7270  0.2594 -1.3166
  221MPD1    H3 3415   2.247   0.955  16.727 -1.1334  0.8083  1.3106
  221MPD1     N 3416   2.585   0.685  16.634  0.7841  0.6556  0.1305
  221MPD1    H5 3417   2.577   0.708  16.535 -0.2120  0.1473  0.0965
  221MPD1    N1 3418   2.359   0.674  17.067 -0.2154 -0.9341 -0.3833
  221MPD1    H6 3419   2.445   0.635  17.105  0.6341 -0.6057 -1.9550
  221MPD1    H7 3420   2.325   0.742  17.134  1.3218 -0.5029 -0.0501
  222MPD1     C 3421   0.575   0.020   0.849 -0.2683 -0.1003 -0.5025
  222MPD1    C1 3422   0.703   0.068   0.873  0.1386 -0.1072  0.3678
  222MPD1    C2 3423   0.715   0.180   0.952  0.5458 -0.1383 -0.2922
  222MPD1    C3 3424   0.605   0.247   0.999 -0.4942 -0.0564  0.0565
  222MPD1    C4 3425   0.477   0.194   0.973  0.1825  0.7919 -0.0579
  222MPD1    C5 3426   0.468   0.087   0.891  0.2634  0.3650  0.6469
  222MPD1     H 3427   0.817   0.208   0.975  0.2362  0.5098  0.2761
  222MPD1    H1 3428   0.391   0.249   1.009 -0.4313 -0.4523  0.3852
  222MPD1    H2 3429   0.556   4.663   0.803  1.9329 -0.6071 -0.3549
  222MPD1    H3 3430   0.374   0.048   0.854  1.7692 -3.0146  0.4118
  222MPD1     N 3431   0.609   0.369   1.075 -0.3307  0.3509 -0.0497
  222MPD1    H5 3432   0.518   0.410   1.093 -0.5069  0.9071 -2.1708
  222MPD1    N1 3433   0.813   4.733   0.831  0.5717  0.3303 -0.1893
  222MPD1    H6 3434   0.797   4.684   0.742  0.4702  2.6813 -1.4530
  222MPD1    H7 3435   0.890   0.060   0.823 -0.9211  1.8282 -2.4604
  223MPD1     C 3436   0.312   1.344   1.111  0.1594  0.9325 -0.4063
  223MPD1    C1 3437   0.443   1.341   1.140 -0.4575 -0.3538  0.0125
  223MPD1    C2 3438   0.504   1.222   1.177  0.4447  0.2587 -0.2402
  223MPD1    C3 3439   0.454   1.103   1.133 -0.1556 -0.6228  0.1065
  223MPD1    C4 3440   0.328   1.106   1.073 -0.5951 -0.3913  0.1364
  223MPD1    C5 3441   0.255   1.228   1.068  0.2349  0.5744 -0.1777
  223MPD1     H 3442   0.602   1.222   1.223  0.7565 -1.9408 -0.9318
  223MPD1    H1 3443   0.277   1.017   1.035  0.8713 -1.4437  0.6531
  223MPD1    H2 3444   0.265   1.442   1.109  1.1825  1.4488  0.2547
  223MPD1    H3 3445   0.152   1.224   1.035  0.4362  3.7623 -1.1362
  223MPD1     N 3446   0.535   0.992   1.140 -0.2327 -0.1961  0.8214
  223MPD1    H5 3447   0.624   1.013   1.184  0.6757 -1.0863 -0.5986
  223MPD1    N1 3448   0.494   1.467   1.181  0.0543  0.2081  0.4091
  223MPD1    H6 3449   0.595   1.470   1.194  0.5150 -2.1085 -2.5272
  223MPD1    H7 3450   0.464   1.543   1.120  0.5439  1.0748  1.2524
  224MPD1     C 3451   2.955   1.517   8.892  0.5856 -0.3355 -0.1781
  224MPD1    C1 3452   3.015   1.398   8.910  0.3587  0.0231  0.7433
  224MPD1    C2 3453   3.054   1.362   9.039  0.3823 -0.0798 -0.2008
  224MPD1    C3 3454   3.031   1.463   9.132  0.1674  0.8993 -0.4256
  224MPD1    C4 3455   2.987   1.593   9.107 -0.4884 -0.1622 -0.4301
  224MPD1    C5 3456   2.939   1.618   8.983  0.5945 -0.0621 -0.1580
  224MPD1     H 3457   3.089   1.263   9.064  0.9598  0.0110 -0.6504
  224MPD1    H1 3458   2.972   1.657   9.193 -0.0845 -0.3551 -0.2159
  224MPD1    H2 3459   2.913   1.547   8.797  1.6001  2.0796  0.1388
  224MPD1    H3 3460   2.884   1.712   8.976  2.0355  0.6510 -1.8689
  224MPD1     N 3461   3.066   1.445   9.269  0.3913  0.3899  0.4361
  224MPD1    H5 3462   3.065   1.528   9.327  0.5441  0.4978  0.2827
  224MPD1    N1 3463   3.059   1.326   8.804 -0.1266 -0.5594  0.5284
  224MPD1    H6 3464   3.064   1.225   8.814  0.0647 -0.5231  0.8019
  224MPD1    H7 3465   2.996   1.340   8.725  0.7798 -2.0838 -0.4735
  225MPD1     C 3466   4.069   3.727  12.597  0.6510  0.0115 -0.0143
  225MPD1    C1 3467   4.156   3.625  12.634 -0.8396  0.0840 -0.1220
  225MPD1    C2 3468   4.139   3.490  12.593 -0.0739  0.5644 -0.3495
  225MPD1    C3 3469   4.047   3.463  12.493 -0.1473  0.2747 -0.0750
  225MPD1    C4 3470   3.978   3.573  12.443  0.3757  0.1089  0.0957
  225MPD1    C5 3471   3.977   3.696  12.497 -0.7231 -0.0893  0.2775
  225MPD1     H 3472   4.206   3.414  12.632 -1.2943 -1.3187 -1.8959
  225MPD1    H1 3473   3.907   3.560  12.362  0.6627  0.4099 -0.2099
  225MPD1    H2 3474   4.075   3.827  12.637 -0.0121 -0.0341  0.1909
  225MPD1    H3 3475   3.932   3.773  12.437 -0.4474 -1.9196 -2.2850
  225MPD1     N 3476   4.029   3.328  12.440  0.1844 -0.6562  0.5061
  225MPD1    H5 3477   3.971   3.313  12.359  3.6160 -3.2461 -1.4758
  225MPD1    N1 3478   4.261   3.662  12.711 -0.2135 -0.0083  0.9000
  225MPD1    H6 3479   4.289   3.583  12.770  2.1220 -0.2980 -0.6239
  225MPD1    H7 3480   4.231   3.733  12.777  1.4711  0.6097  0.9947
  226MPD1     C 3481   3.147   1.248  10.090 -0.5285  0.8299 -0.4100
  226MPD1    C1 3482   3.060   1.211   9.989 -0.6345  0.2910 -0.4227
  226MPD1    C2 3483   2.958   1.295   9.953 -0.2542 -0.9077  0.0289
  226MPD1    C3 3484   2.935   1.418  10.015 -0.1194  1.3925 -0.3924
  226MPD1    C4 3485   3.022   1.466  10.107 -0.1872  0.4606 -0.8705
  226MPD1    C5 3486   3.129   1.381  10.130 -0.3484 -0.3423  0.0638
  226MPD1     H 3487   2.881   1.267   9.881  1.4055 -2.3739 -1.1523
  226MPD1    H1 3488   3.022   1.565  10.152 -0.4232  0.5126 -0.9838
  226MPD1    H2 3489   3.218   1.177  10.130 -1.4918  0.1686  0.1433
  226MPD1    H3 3490   3.196   1.410  10.210  2.5981 -0.8972 -2.1821
  226MPD1     N 3491   2.826   1.491   9.983 -0.6189  0.0748 -0.9090
  226MPD1    H5 3492   2.777   1.466   9.898 -2.3424  1.2588 -0.2581
  226MPD1    N1 3493   3.059   1.083   9.933 -0.0103  0.5806 -0.1151
  226MPD1    H6 3494   3.010   1.082   9.844 -1.2599  1.7453  0.5603
  226MPD1    H7 3495   3.153   1.054   9.907 -0.7533 -2.3190  0.4259
  227MPD1     C 3496   2.182   2.380  10.090  0.1838  0.0479 -0.4282
  227MPD1    C1 3497   2.214   2.359   9.958 -0.2262  0.2273 -0.0787
  227MPD1    C2 3498   2.296   2.250   9.931  0.1531 -0.5176  0.5896
  227MPD1    C3 3499   2.328   2.157  10.027 -0.7894  0.1331 -0.1102
  227MPD1    C4 3500   2.291   2.180  10.156  0.4189  0.4583  0.1459
  227MPD1    C5 3501   2.211   2.288  10.186  0.4399 -0.1773 -0.7666
  227MPD1     H 3502   2.322   2.231   9.827  1.0746  2.0544  0.3382
  227MPD1    H1 3503   2.302   2.110  10.238  0.6803  1.5500  1.0485
  227MPD1    H2 3504   2.121   2.462  10.129 -0.8282 -0.7937 -0.2359
  227MPD1    H3 3505   2.178   2.309  10.287 -0.8350  0.6322 -1.3534
  227MPD1     N 3506   2.386   2.037   9.981  0.0713 -0.1073 -0.2953
  227MPD1    H5 3507   2.400   2.023   9.881 -1.1935 -1.4457 -0.2886
  227MPD1    N1 3508   2.185   2.459   9.869  0.3641 -0.2994  0.0409
  227MPD1    H6 3509   2.194   2.434   9.771  0.6405  2.5614 -0.6749
  227MPD1    H7 3510   2.096   2.507   9.879  0.7064  0.4482 -0.5379
  228MPD1     C 3511   1.613   0.016  12.999  0.5761  0.3285 -0.6599
  228MPD1    C1 3512   1.590   0.034  12.870  0.3618  0.5496 -0.0540
  228MPD1    C2 3513   1.463   0.021  12.826 -0.8307  0.6030 -0.1258
  228MPD1    C3 3514   1.360   4.727  12.905 -0.0303  0.7218  0.0057
  228MPD1    C4 3515   1.387   4.685  13.032  0.3747  0.2284 -0.2932
  228MPD1    C5 3516   1.516   4.698  13.073  0.2621  0.1365 -0.6582
  228MPD1     H 3517   1.425   0.055  12.730 -1.5357 -2.3982 -0.8964
  228MPD1    H1 3518   1.315   4.645  13.102  0.1949  0.6084 -0.2604
  228MPD1    H2 3519   1.708   0.039  13.046  0.5378  0.8161 -0.8206
  228MPD1    H3 3520   1.537   4.674  13.177  0.2615 -1.9890 -1.1402
  228MPD1     N 3521   1.227   0.005  12.859 -0.3720 -0.6327 -0.0356
  228MPD1    H5 3522   1.216   0.057  12.772 -3.0554 -1.7663 -0.3699
  228MPD1    N1 3523   1.685   0.104  12.795 -0.0521 -0.1990 -1.0655
  228MPD1    H6 3524   1.781   0.077  12.814 -0.2781 -1.2263 -1.3593
  228MPD1    H7 3525   1.660   0.073  12.701  0.3304 -2.1477 -0.5242
  229MPD1     C 3526   0.718   3.988  14.646 -0.0790 -0.0699 -0.4359
  229MPD1    C1 3527   0.664   3.871  14.681 -0.0385  0.0948 -0.1408
  229MPD1    C2 3528   0.739   3.796  14.770  0.0292  0.5938  0.8453
  229MPD1    C3 3529   0.865   3.834  14.814 -0.0647  0.1140  0.1614
  229MPD1    C4 3530   0.920   3.947  14.765  0.0263  0.7224 -0.0313
  229MPD1    C5 3531   0.840   4.031  14.689 -0.1471  0.3711  0.0551
  229MPD1     H 3532   0.677   3.717  14.810 -0.3236  0.8858  0.8757
  229MPD1    H1 3533   1.014   3.984  14.804  1.8017 -1.9837 -1.7186
  229MPD1    H2 3534   0.660   4.053  14.582 -0.8159  1.0553  1.3649
  229MPD1    H3 3535   0.879   4.125  14.653  2.0092 -0.5050  0.0937
  229MPD1     N 3536   0.931   3.765  14.920  0.2938  0.1836  0.0476
  229MPD1    H5 3537   1.024   3.799  14.944 -0.1509  0.8434  0.8279
  229MPD1    N1 3538   0.536   3.837  14.644  0.3443 -0.2134 -0.6919
  229MPD1    H6 3539   0.533   3.736  14.648  1.6594 -0.1321  2.4502
  229MPD1    H7 3540   0.522   3.874  14.550 -3.8455  1.1880  0.4619
  230MPD1     C 3541   1.589   3.763  15.653  0.6937  0.2264  0.4695
  230MPD1    C1 3542   1.620   3.643  15.598 -0.1922 -0.9401  0.4070
  230MPD1    C2 3543   1.532   3.594  15.506  0.2260 -0.4922 -0.3972
  230MPD1    C3 3544   1.425   3.668  15.455  0.2487 -0.0276  0.2534
  230MPD1    C4 3545   1.409   3.795  15.509 -0.7963 -0.3194  0.1631
  230MPD1    C5 3546   1.494   3.845  15.604  0.5980  0.4439 -1.2777
  230MPD1     H 3547   1.553   3.499  15.458 -2.6166 -0.7708 -1.0918
  230MPD1    H1 3548   1.326   3.857  15.477  0.3373  0.0835 -1.9991
  230MPD1    H2 3549   1.647   3.798  15.738  2.5236 -0.2445 -0.5834
  230MPD1    H3 3550   1.471   3.937  15.656 -4.3708 -1.7144  0.3887
  230MPD1     N 3551   1.321   3.615  15.370  0.2772  0.3214 -0.5910
  230MPD1    H5 3552   1.334   3.523  15.328  1.0116  1.9490 -3.9463
  230MPD1    N1 3553   1.730   3.565  15.649  0.1530  0.3341 -0.1320
  230MPD1    H6 3554   1.769   3.503  15.579  0.4317 -2.4411  2.5003
  230MPD1    H7 3555   1.798   3.629  15.689 -0.7659  1.9200 -1.0976
  231MPD1     C 3556   3.969   0.583  15.573  0.5943  0.3498 -0.2912
  231MPD1    C1 3557   3.902   0.529  15.467 -0.0735  0.4476 -0.7763
  231MPD1    C2 3558   3.936   0.567  15.335  0.3520 -0.4454 -0.4772
  231MPD1    C3 3559   4.042   0.659  15.318  0.0520  0.7568 -0.6036
  231MPD1    C4 3560   4.103   0.708  15.429 -0.4204  0.0816  0.6746
  231MPD1    C5 3561   4.058   0.683  15.554 -0.4927  0.0755  0.0829
  231MPD1     H 3562   3.875   0.530  15.254 -0.0949 -2.6994  0.8804
  231MPD1    H1 3563   4.185   0.779  15.422 -1.0957  1.0663  2.6647
  231MPD1    H2 3564   3.948   0.551  15.674 -0.7798  0.5735 -0.5062
  231MPD1    H3 3565   4.114   0.715  15.642 -1.6097 -0.5947  1.0314
  231MPD1     N 3566   4.068   0.706  15.192 -0.3371  0.5860  0.8605
  231MPD1    H5 3567   4.031   0.653  15.114 -0.0077  0.8899  0.5028
  231MPD1    N1 3568   3.800   0.437  15.492  0.1187  0.7154  0.1296
  231MPD1    H6 3569   3.742   0.447  15.575 -0.6554 -0.4745 -0.2609
  231MPD1    H7 3570   3.728   0.425  15.421 -0.1971 -2.7175  1.0439
  232MPD1     C 3571   1.247   3.348   0.298 -0.4289 -0.1038 -0.4299
  232MPD1    C1 3572   1.134   3.419   0.331  0.5418 -0.8529 -0.0101
  232MPD1    C2 3573   1.010   3.369   0.289 -0.6390  0.7896 -0.5824
  232MPD1    C3 3574   1.003   3.262   0.204  0.1471 -0.4597  0.2781
  232MPD1    C4 3575   1.119   3.191   0.167 -0.5108 -0.1159  0.1395
  232MPD1    C5 3576   1.241   3.242   0.214 -0.2106  0.3235 -0.4041
  232MPD1     H 3577   0.917   3.415   0.321 -0.2220  0.8144  0.5905
  232MPD1    H1 3578   1.118   3.109   0.097  0.1762  0.0724 -0.0908
  232MPD1    H2 3579   1.342   3.382   0.339 -0.2090  1.0338 -1.8919
  232MPD1    H3 3580   1.331   3.192   0.178 -0.0843 -0.3057  0.7900
  232MPD1     N 3581   0.879   3.219   0.162 -0.2581  0.1427 -0.3090
  232MPD1    H5 3582   0.811   3.292   0.180 -1.1780 -0.3342 -1.8734
  232MPD1    N1 3583   1.139   3.534   0.408 -0.0614 -0.1329 -0.1926
  232MPD1    H6 3584   1.222   3.547   0.466 -0.6160 -1.9838  1.0209
  232MPD1    H7 3585   1.051   3.556   0.453 -1.2468 -0.8896 -2.1206
  233MPD1     C 3586   1.661   2.189   0.953 -0.2974 -0.3039 -0.6935
  233MPD1    C1 3587   1.563   2.091   0.947 -0.7230  0.0873  0.2971
  233MPD1    C2 3588   1.601   1.960   0.948 -0.1564  0.4641 -0.1616
  233MPD1    C3 3589   1.733   1.922   0.934 -0.3607 -0.2905 -0.1608
  233MPD1    C4 3590   1.828   2.023   0.935  0.8946 -0.4605  0.4585
  233MPD1    C5 3591   1.796   2.154   0.947  0.1496  0.8023 -0.3495
  233MPD1     H 3592   1.535   1.880   0.980 -1.0922 -0.4350 -4.2586
  233MPD1    H1 3593   1.934   2.003   0.926  1.2202  0.3367  2.4978
  233MPD1    H2 3594   1.644   2.296   0.958 -1.7382 -0.5201 -0.8979
  233MPD1    H3 3595   1.869   2.234   0.957  1.0228 -0.0805  0.3535
  233MPD1     N 3596   1.785   1.792   0.919  0.3318  0.4218 -0.0970
  233MPD1    H5 3597   1.886   1.793   0.918  0.3694 -0.3222  2.9650
  233MPD1    N1 3598   1.431   2.118   0.973  0.5148  0.0771 -0.0775
  233MPD1    H6 3599   1.415   2.213   0.943  0.8395 -0.3760 -1.6786
  233MPD1    H7 3600   1.368   2.062   0.916 -1.0095  0.9418  0.7385
  234MPD1     C 3601   3.552   0.398  10.978  0.8916 -0.2756  0.1554
  234MPD1    C1 3602   3.605   0.515  10.927 -0.0262  0.2043 -1.4455
  234MPD1    C2 3603   3.605   0.531  10.786 -0.1184  0.1504 -0.2448
  234MPD1    C3 3604   3.576   0.426  10.705 -0.1931 -0.0139  0.0014
  234MPD1    C4 3605   3.533   0.303  10.756 -0.9610  0.2073  0.4292
  234MPD1    C5 3606   3.516   0.301  10.894 -0.3546 -0.4754  0.5946
  234MPD1     H 3607   3.643   0.622  10.740 -0.8440  0.9170  0.6769
  234MPD1    H1 3608   3.494   0.220  10.699  0.7939 -0.4408  0.1803
  234MPD1    H2 3609   3.547   0.393  11.087 -1.8804 -0.0405  0.0345
  234MPD1    H3 3610   3.482   0.212  10.945 -0.2156 -0.3570  0.8959
  234MPD1     N 3611   3.572   0.452  10.570 -0.3883 -0.0504 -0.8975
  234MPD1    H5 3612   3.592   0.548  10.544 -0.5363  0.3254  0.3793
  234MPD1    N1 3613   3.616   0.631  11.007  0.1727  0.0225  0.3165
  234MPD1    H6 3614   3.659   0.614  11.098 -0.4538 -0.4296  0.5285
  234MPD1    H7 3615   3.666   0.706  10.959 -0.1334  1.4123  2.1811
  235MPD1     C 3616   0.730   2.484  10.261  0.1088  0.2099  0.1041
  235MPD1    C1 3617   0.689   2.587  10.334 -0.6479  0.3083  0.0950
  235MPD1    C2 3618   0.717   2.715  10.278 -0.5170  0.6237  0.3926
  235MPD1    C3 3619   0.793   2.733  10.170 -0.0899 -0.7453  0.0258
  235MPD1    C4 3620   0.841   2.622  10.104  0.8162 -0.0393  0.6190
  235MPD1    C5 3621   0.812   2.496  10.152 -0.0702 -0.6337 -0.1151
  235MPD1     H 3622   0.680   2.805  10.327  1.0438  1.1187  0.6628
  235MPD1    H1 3623   0.897   2.624  10.011  3.8584 -1.4184  2.4490
  235MPD1    H2 3624   0.705   2.387  10.301  0.2795  0.0217 -0.2429
  235MPD1    H3 3625   0.845   2.408  10.098  1.2602 -2.1835  3.1933
  235MPD1     N 3626   0.805   2.867  10.120 -0.3489  0.1173 -0.6900
  235MPD1    H5 3627   0.760   2.945  10.166  3.5179  2.8219 -1.5267
  235MPD1    N1 3628   0.586   2.576  10.427 -0.2106 -0.0218  0.2236
  235MPD1    H6 3629   0.611   2.497  10.486 -1.6907  0.1701  1.1210
  235MPD1    H7 3630   0.594   2.662  10.481 -0.6251  0.3275 -0.2660
  236MPD1     C 3631   4.146   4.607  10.493  0.5126  0.3155 -0.5188
  236MPD1    C1 3632   4.105   4.554  10.613  0.1760  0.6030  0.5130
  236MPD1    C2 3633   4.190   4.555  10.719  0.0417  0.5410 -0.0191
  236MPD1    C3 3634   4.324   4.574  10.700 -0.0961  0.7386  0.0368
  236MPD1    C4 3635   4.364   4.630  10.589 -0.0521  0.3366 -0.5167
  236MPD1    C5 3636   4.269   4.657  10.489 -0.1571  0.5665 -0.3022
  236MPD1     H 3637   4.159   4.520  10.817  0.8573  1.9991  0.7511
  236MPD1    H1 3638   4.462   4.673  10.572  0.0044 -0.0083 -1.0569
  236MPD1    H2 3639   4.081   4.625  10.409  1.5426 -1.8398 -1.7647
  236MPD1    H3 3640   4.306   4.715  10.405  3.0607  1.9967  2.0875
  236MPD1     N 3641   4.425   4.531  10.800  0.4302  0.9125  0.0319
  236MPD1    H5 3642   4.522   4.532  10.772  0.4453  0.6682  0.0721
  236MPD1    N1 3643   3.968   4.521  10.641  0.0328  0.9845  0.1410
  236MPD1    H6 3644   3.964   4.459  10.722 -0.1695 -0.8152 -1.2695
  236MPD1    H7 3645   3.901   4.494  10.570  1.6479  0.9384 -1.3656
  237MPD1     C 3646   4.568   2.655  14.937  0.5829 -0.0279  0.6782
  237MPD1    C1 3647   4.651   2.554  14.982  0.1802 -0.1424  0.4195
  237MPD1    C2 3648   4.589   2.438  15.007  0.2532 -0.1868 -0.3791
  237MPD1    C3 3649   4.460   2.409  14.959  0.5058  1.0243  0.6677
  237MPD1    C4 3650   4.396   2.510  14.891 -0.2597 -0.5730  0.6118
  237MPD1    C5 3651   4.447   2.633  14.880 -0.1586 -0.1312 -0.1321
  237MPD1     H 3652   4.638   2.370  15.075 -0.1335  0.6058  0.6871
  237MPD1    H1 3653   4.295   2.489  14.858 -0.1224  0.7942 -0.6649
  237MPD1    H2 3654   4.605   2.757  14.942 -0.4618  0.3286  1.2089
  237MPD1    H3 3655   4.382   2.707  14.836  0.7634  0.0258 -1.2238
  237MPD1     N 3656   4.379   2.292  14.974 -0.2757 -0.5571 -0.2738
  237MPD1    H5 3657   4.280   2.291  14.952 -0.2222 -0.2165 -0.5395
  237MPD1    N1 3658   0.028   2.599  15.047  0.1959 -0.1743 -0.4256
  237MPD1    H6 3659   0.099   2.527  15.056  0.4242  0.0024 -0.7830
  237MPD1    H7 3660   0.068   2.683  15.004 -3.4183  1.3162 -0.8791
  238MPD1     C 3661   1.224   0.976  15.615  0.2959 -0.1828  0.1241
  238MPD1    C1 3662   1.119   0.895  15.644 -0.9212  0.5327 -0.2093
  238MPD1    C2 3663   1.047   0.831  15.547 -0.1050 -0.2812  0.1559
  238MPD1    C3 3664   1.087   0.843  15.412 -0.1316  0.1695 -0.4745
  238MPD1    C4 3665   1.195   0.923  15.383  0.4739  0.2224 -0.2298
  238MPD1    C5 3666   1.256   0.990  15.483 -0.4541 -0.7783 -0.5059
  238MPD1     H 3667   0.983   0.752  15.586 -1.9555  0.7962 -0.6675
  238MPD1    H1 3668   1.221   0.947  15.281  1.8557  1.4595  0.4100
  238MPD1    H2 3669   1.266   1.045  15.687 -3.3566 -0.0628  2.1423
  238MPD1    H3 3670   1.333   1.063  15.459 -0.1102 -1.1975 -0.6678
  238MPD1     N 3671   1.022   0.788  15.307 -0.0100  0.0684  0.3641
  238MPD1    H5 3672   1.060   0.825  15.220 -1.5907  1.4826  0.2900
  238MPD1    N1 3673   1.079   0.877  15.779  0.2013 -0.0195  0.3938
  238MPD1    H6 3674   1.054   0.779  15.786  0.4142 -0.1062 -0.0983
  238MPD1    H7 3675   1.156   0.905  15.840  2.2728 -0.8345 -1.8412
  239MPD1     C 3676   0.901   1.425  15.138 -0.7015  0.1430  0.2697
  239MPD1    C1 3677   0.998   1.510  15.087 -0.0424 -0.3195 -0.2312
  239MPD1    C2 3678   0.959   1.582  14.971 -0.5421 -0.7945 -0.2003
  239MPD1    C3 3679   0.842   1.548  14.898 -0.5416 -0.1956 -0.1217
  239MPD1    C4 3680   0.764   1.444  14.939 -0.1442 -0.0851  0.0044
  239MPD1    C5 3681   0.789   1.390  15.062  0.6375 -0.0007 -0.6847
  239MPD1     H 3682   1.023   1.658  14.928 -2.8666  1.9268  1.1818
  239MPD1    H1 3683   0.672   1.417  14.888 -1.3680  0.6469  1.8263
  239MPD1    H2 3684   0.906   1.390  15.240  2.0532  1.6129  0.6445
  239MPD1    H3 3685   0.733   1.304  15.097  1.7493 -0.3105  0.3208
  239MPD1     N 3686   0.805   1.630  14.791  0.7188  0.3133 -0.7648
  239MPD1    H5 3687   0.717   1.620  14.743 -0.3890  1.3903  1.0411
  239MPD1    N1 3688   1.116   1.546  15.160 -0.3580 -0.2858  0.2781
  239MPD1    H6 3689   1.191   1.581  15.101 -0.9656  2.3640  1.0676
  239MPD1    H7 3690   1.150   1.464  15.210  3.8993  1.6205  0.5181
  240MPD1     C 3691   0.277   1.705  14.026  0.3781  0.4782  0.3327
  240MPD1    C1 3692   0.243   1.578  13.975  0.7182 -0.0116 -0.7053
  240MPD1    C2 3693   0.233   1.472  14.065  0.0743  0.4254 -0.2890
  240MPD1    C3 3694   0.281   1.479  14.197 -0.0334 -0.2117 -0.2418
  240MPD1    C4 3695   0.326   1.600  14.232 -0.1002 -0.1713  0.4564
  240MPD1    C5 3696   0.324   1.710  14.150 -0.1462 -0.0497 -0.4153
  240MPD1     H 3697   0.203   1.371  14.036  1.5132 -0.2718  0.6450
  240MPD1    H1 3698   0.371   1.621  14.329 -1.1241  1.9577  0.4680
  240MPD1    H2 3699   0.283   1.795  13.965 -0.9871  0.2143 -0.1964
  240MPD1    H3 3700   0.365   1.802  14.190 -2.2488  0.5581  0.3537
  240MPD1     N 3701   0.268   1.366  14.279 -0.4867 -0.1626 -0.0049
  240MPD1    H5 3702   0.212   1.284  14.256 -2.0614  0.8979  0.0678
  240MPD1    N1 3703   0.204   1.565  13.839 -0.6219  0.4000 -0.1128
  240MPD1    H6 3704   0.254   1.486  13.799 -1.6141 -0.0814 -0.3748
  240MPD1    H7 3705   0.226   1.653  13.792 -2.0099  1.2356  0.8041
  241MPD1     C 3706   0.201   1.309  15.264  0.2761 -0.8033 -0.4637
  241MPD1    C1 3707   0.247   1.180  15.236 -0.1215  0.2538  0.3570
  241MPD1    C2 3708   0.254   1.141  15.101  0.2223  0.4951  0.3152
  241MPD1    C3 3709   0.234   1.224  14.998 -0.2328 -0.1254 -0.2052
  241MPD1    C4 3710   0.196   1.352  15.030 -0.2160  0.4734  0.1250
  241MPD1    C5 3711   0.184   1.397  15.160 -0.7013 -0.3640  0.1105
  241MPD1     H 3712   0.287   1.038  15.091  1.4754  0.8590  0.5776
  241MPD1    H1 3713   0.179   1.422  14.948 -0.4039 -0.1479 -0.3621
  241MPD1    H2 3714   0.179   1.345  15.364  0.9133  1.1410 -1.0181
  241MPD1    H3 3715   0.142   1.494  15.181  0.2444  0.0591  0.0123
  241MPD1     N 3716   0.256   1.201  14.862  0.2159 -0.1348 -0.0397
  241MPD1    H5 3717   0.271   1.280  14.800 -3.7234  0.0880 -0.7101
  241MPD1    N1 3718   0.269   1.091  15.343  0.5885 -0.2567 -0.2380
  241MPD1    H6 3719   0.313   1.140  15.421 -0.4645 -1.0884  0.8711
  241MPD1    H7 3720   0.328   1.011  15.320  2.3979  0.8287  0.6494
  242MPD1     C 3721   0.317   3.833  16.012  0.0594 -0.2745  0.2753
  242MPD1    C1 3722   0.225   3.843  15.909  0.2447  0.1460 -0.3753
  242MPD1    C2 3723   0.262   3.916  15.796 -0.0535  0.1698 -0.5040
  242MPD1    C3 3724   0.388   3.974  15.774  0.5358 -0.5186 -0.8816
  242MPD1    C4 3725   0.479   3.957  15.881 -0.2830 -0.0045 -0.7651
  242MPD1    C5 3726   0.439   3.887  15.994  0.3467  0.0332 -1.0140
  242MPD1     H 3727   0.187   3.936  15.720  0.6936 -0.4901 -1.4240
  242MPD1    H1 3728   0.577   4.003  15.887 -0.8842  1.2247 -0.3214
  242MPD1    H2 3729   0.298   3.797  16.113 -0.7005 -0.4362  0.0793
  242MPD1    H3 3730   0.502   3.885  16.082 -1.2966  0.4850  0.1863
  242MPD1     N 3731   0.428   4.038  15.650  0.2520  0.3370 -0.6273
  242MPD1    H5 3732   0.513   4.091  15.668 -0.0276  0.7115 -0.4187
  242MPD1    N1 3733   0.093   3.811  15.936 -0.5799  0.0827 -0.3651
  242MPD1    H6 3734   0.079   3.762  16.024 -1.9877  0.2017 -0.5124
  242MPD1    H7 3735   0.041   3.769  15.859 -2.0215  0.1955  0.5444
  243MPD1     C 3736   0.957   2.664  17.291  0.0892  0.1843 -0.0215
  243MPD1    C1 3737   1.000   2.575  17.193  0.6455 -0.1679 -0.7403
  243MPD1    C2 3738   1.135   2.560  17.184  0.1259 -0.6073 -0.1808
  243MPD1    C3 3739   1.225   2.613  17.268  0.5168 -0.2712  0.3672
  243MPD1    C4 3740   1.184   2.701  17.372  0.5160 -0.4792  0.3166
  243MPD1    C5 3741   1.049   2.712  17.387  0.8564 -0.1606  0.0996
  243MPD1     H 3742   1.181   2.505  17.103 -1.9429 -1.0833 -1.0552
  243MPD1    H1 3743   1.248   2.748  17.446  3.0206 -0.7827 -1.6506
  243MPD1    H2 3744   0.852   2.688  17.300  0.3137  1.1617 -0.0968
  243MPD1    H3 3745   1.006   2.781  17.460 -0.4465 -2.1093  1.1853
  243MPD1     N 3746   1.356   2.583  17.244 -0.4167 -0.0238 -0.3352
  243MPD1    H5 3747   1.365   2.508  17.176  1.0930  0.2895 -0.4762
  243MPD1    N1 3748   0.918   2.536  17.083  0.4713  0.5305  0.1630
  243MPD1    H6 3749   0.963   2.467  17.023  0.2178 -0.2035  0.8159
  243MPD1    H7 3750   0.819   2.521  17.101  0.9097 -1.5053  0.7971
  244MPD1     C 3751   2.329   2.409  17.625 -0.4201 -0.5724 -0.2179
  244MPD1    C1 3752   2.347   2.426  17.489  0.0813 -0.0780 -0.9033
  244MPD1    C2 3753   2.237   2.450  17.414  0.0297  0.5940  0.0216
  244MPD1    C3 3754   2.110   2.432  17.465 -0.0280  0.6078 -0.0963
  244MPD1    C4 3755   2.097   2.418  17.598  0.3080  0.1975  0.1261
  244MPD1    C5 3756   2.202   2.417  17.681 -0.0164 -0.0855  0.1561
  244MPD1     H 3757   2.250   2.475  17.309 -0.6182 -0.4243 -0.2958
  244MPD1    H1 3758   2.001   2.424  17.649 -1.3054 -3.7519 -2.4299
  244MPD1    H2 3759   2.415   2.393  17.690 -0.3047  0.8494 -0.0136
  244MPD1    H3 3760   2.193   2.409   0.036 -0.7769 -1.9420 -0.0408
  244MPD1     N 3761   2.000   2.443  17.381  0.6188  0.3085 -0.1159
  244MPD1    H5 3762   2.018   2.473  17.286  1.2016 -1.6890 -0.6312
  244MPD1    N1 3763   2.478   2.436  17.443 -0.0617  0.9940  0.1054
  244MPD1    H6 3764   2.494   2.392  17.352  2.1917  0.3012  0.8323
  244MPD1    H7 3765   2.546   2.403  17.511 -1.1552 -1.5444 -0.0211
  245MPD1     C 3766   3.440   3.313  12.814  0.5981 -0.6554 -0.2880
  245MPD1    C1 3767   3.459   3.260  12.938 -0.2656 -0.2798 -0.1281
  245MPD1    C2 3768   3.467   3.347  13.037 -0.0148  0.0056  0.7796
  245MPD1    C3 3769   3.442   3.480  13.022 -0.2638 -0.3625 -0.3219
  245MPD1    C4 3770   3.431   3.531  12.896  0.7278  0.1149 -0.0336
  245MPD1    C5 3771   3.421   3.446  12.789  0.5848  0.6673 -0.4881
  245MPD1     H 3772   3.497   3.307  13.133  1.9803 -0.7965 -0.1721
  245MPD1    H1 3773   3.422   3.637  12.874  0.5815  0.5666  2.2248
  245MPD1    H2 3774   3.452   3.251  12.726  0.8325  1.1290 -1.5220
  245MPD1    H3 3775   3.409   3.488  12.690  0.3808 -1.4600 -1.3633
  245MPD1     N 3776   3.463   3.560  13.140 -0.7193 -0.2007  0.4178
  245MPD1    H5 3777   3.501   3.512  13.221  0.0461  1.1500  0.8587
  245MPD1    N1 3778   3.510   3.133  12.953  0.1656  0.0790 -0.4585
  245MPD1    H6 3779   3.490   3.094  13.046  0.0438 -1.1724 -1.0023
  245MPD1    H7 3780   3.481   3.077  12.873 -0.4655 -1.1054  0.5857
  246MPD1     C 3781   4.631   2.785  11.242  0.5626 -0.2549 -0.5822
  246MPD1    C1 3782   4.609   2.910  11.196 -0.4723 -0.1357  0.0970
  246MPD1    C2 3783   4.669   2.949  11.078 -0.8338 -0.3115  0.0713
  246MPD1    C3 3784   4.727   2.851  10.993 -0.6973 -0.4261  0.4688
  246MPD1    C4 3785   0.011   2.719  11.046 -0.1042  0.1691 -0.3361
  246MPD1    C5 3786   4.708   2.698  11.179 -0.6159  0.1097 -0.0719
  246MPD1     H 3787   4.652   3.046  11.032  3.8585 -0.0160 -1.0330
  246MPD1    H1 3788   0.069   2.643  10.994 -0.6773  0.4228 -1.3509
  246MPD1    H2 3789   4.597   2.767  11.344 -1.5306 -0.2372 -1.2693
  246MPD1    H3 3790   4.719   2.603  11.229  1.7907  0.0123 -0.7603
  246MPD1     N 3791   0.027   2.895  10.863 -0.6377  0.1214 -0.6867
  246MPD1    H5 3792   0.027   2.995  10.845 -0.6098  0.4267  1.0360
  246MPD1    N1 3793   4.551   2.999  11.287 -0.1896 -0.1639  0.0438
  246MPD1    H6 3794   4.474   2.946  11.327  0.2583 -1.1266 -0.3697
  246MPD1    H7 3795   4.515   3.086  11.249  2.7702  0.8140 -0.5738
  247MPD1     C 3796   3.996   2.522  15.661  0.1770  0.1516 -0.0817
  247MPD1    C1 3797   3.869   2.474  15.631  0.9620  0.6444  0.1811
  247MPD1    C2 3798   3.757   2.526  15.700 -0.3453 -0.2792 -0.2996
  247MPD1    C3 3799   3.779   2.641  15.776 -0.4761 -0.1740 -0.1188
  247MPD1    C4 3800   3.913   2.682  15.796  0.5034  0.1061  0.3211
  247MPD1    C5 3801   4.020   2.623  15.749  0.5358 -0.1273 -0.4039
  247MPD1     H 3802   3.658   2.493  15.672 -0.2319 -0.7401 -0.1576
  247MPD1    H1 3803   3.930   2.772  15.854  0.4385  0.1412  0.2849
  247MPD1    H2 3804   4.078   2.482  15.602 -0.2912  0.4653 -0.9520
  247MPD1    H3 3805   4.116   2.672  15.762  0.0975  0.9733 -1.2791
  247MPD1     N 3806   3.675   2.718  15.831  0.7447 -0.5786  0.5070
  247MPD1    H5 3807   3.707   2.809  15.861  0.9564 -0.4183 -0.2138
  247MPD1    N1 3808   3.841   2.393  15.518 -0.3418  0.0746 -0.7972
  247MPD1    H6 3809   3.744   2.364  15.521 -0.5556  0.6844 -1.7427
  247MPD1    H7 3810   3.903   2.315  15.499 -0.8259 -0.0467 -1.8524
  248MPD1     C 3811   3.759   2.416   0.165  0.3680 -0.3243  0.1537
  248MPD1    C1 3812   3.641   2.483   0.175 -0.0792 -0.0162  0.0020
  248MPD1    C2 3813   3.626   2.559   0.289 -0.4367 -0.2555  0.3583
  248MPD1    C3 3814   3.725   2.575   0.383  0.0511 -0.7853 -0.2877
  248MPD1    C4 3815   3.836   2.504   0.366  0.0115 -0.8202  0.0156
  248MPD1    C5 3816   3.847   2.417   0.266  0.6343 -0.1483  0.3577
  248MPD1     H 3817   3.535   2.617   0.300 -1.7628 -2.8697  3.3610
  248MPD1    H1 3818   3.923   2.518   0.429  2.2539 -0.1186 -3.2134
  248MPD1    H2 3819   3.790   2.368   0.073 -1.0483  0.3624 -0.6814
  248MPD1    H3 3820   3.939   2.361   0.260  0.6896 -0.3504  3.0321
  248MPD1     N 3821   3.714   2.692   0.464 -0.3519  0.1689  0.6074
  248MPD1    H5 3822   3.632   2.750   0.449  0.1234  0.5869 -0.3576
  248MPD1    N1 3823   3.554   2.489   0.071 -0.5183 -0.5229 -0.7979
  248MPD1    H6 3824   3.458   2.519   0.086 -0.2960  1.2295 -3.0895
  248MPD1    H7 3825   3.567   2.412   0.006  1.2941 -1.0351  0.1369
  249MPD1     C 3826   0.939   2.065  10.269  0.2011  0.0990 -0.3104
  249MPD1    C1 3827   0.982   2.161  10.351  0.4337 -0.2093  0.6103
  249MPD1    C2 3828   1.049   2.263  10.293 -0.2972 -1.2692  0.2206
  249MPD1    C3 3829   1.092   2.257  10.163 -0.9765  0.7556 -0.8906
  249MPD1    C4 3830   1.060   2.151  10.081 -0.3118  0.2872 -0.0865
  249MPD1    C5 3831   0.971   2.062  10.130  0.4123  0.1357  0.1550
  249MPD1     H 3832   1.065   2.357  10.346  1.6852 -1.9011  0.7420
  249MPD1    H1 3833   1.089   2.151   9.976  0.7289  2.3748  0.1881
  249MPD1    H2 3834   0.894   1.977  10.314  0.3223  0.5165  0.6199
  249MPD1    H3 3835   0.955   1.967  10.080 -0.8921 -0.0594  0.9492
  249MPD1     N 3836   1.151   2.375  10.117  0.3041  0.2670 -0.6478
  249MPD1    H5 3837   1.168   2.443  10.191  1.5920 -0.5826 -0.1841
  249MPD1    N1 3838   0.953   2.158  10.484 -0.3355  0.4754  0.7638
  249MPD1    H6 3839   1.030   2.207  10.529 -1.5493  1.5050  1.7122
  249MPD1    H7 3840   0.944   2.063  10.519  0.0990  0.2445  0.2533
  250MPD2     C 3841   2.501   2.434  12.999  0.1695  0.0947 -0.0375
  250MPD2    C1 3842   2.459   2.418  13.128 -0.0082 -0.3397  0.2778
  250MPD2    C2 3843   2.346   2.341  13.158 -0.1136 -1.1740  0.6312
  250MPD2    C3 3844   2.283   2.269  13.056  0.2976 -0.1699  0.3243
  250MPD2    C4 3845   2.333   2.286  12.931  0.1574 -0.3552 -0.0151
  250MPD2    C5 3846   2.431   2.367  12.896  0.4958 -0.4854  0.1099
  250MPD2     H 3847   2.314   2.340  13.262 -2.1749  0.7401  0.0298
  250MPD2    H1 3848   2.283   2.237  12.848 -1.2672 -1.0312  1.2427
  250MPD2    H2 3849   2.582   2.504  12.980 -0.6284  1.1801  0.5539
  250MPD2    H3 3850   2.475   2.370  12.798 -1.8878  0.7574 -0.9287
  250MPD2     N 3851   2.175   2.181  13.072 -0.1031 -0.2376 -0.1199
  250MPD2    H5 3852   2.132   2.137  12.991 -0.3538 -1.1438  0.5102
  250MPD2    N1 3853   2.535   2.491  13.224  0.3800  0.0915 -0.3584
  250MPD2    H7 3854   2.591   2.567  13.186 -1.7458  1.2088 -1.2290
  251TMC3    C1 3855   2.601   2.604  13.416  0.4793  0.2370 -0.4936
  251TMC3    C2 3856   2.538   2.668  13.512 -0.1313  0.0779  0.5080
  251TMC3    C3 3857   2.575   2.801  13.526  0.0665  0.2754 -0.4531
  251TMC3    C4 3858   2.706   2.657  13.343 -0.7131 -0.1809 -0.5602
  251TMC3    C5 3859   2.746   2.791  13.359 -0.1362 -0.2652 -0.5831
  251TMC3    C6 3860   2.676   2.863  13.458  0.9241 -0.1893 -0.3497
  251TMC3     C 3861   2.524   2.492  13.359  0.0921 -0.1024  0.5213
  251TMC3     O 3862   2.451   2.433  13.437  0.2654 -0.3327 -1.2285
  251TMC3     H 3863   2.443   2.639  13.557 -0.7000 -1.4402 -1.6804
  251TMC3    H1 3864   2.765   2.595  13.277 -0.0659  0.9564 -1.0443
  251TMC3    H2 3865   2.707   2.959  13.498 -0.5122  0.6793 -1.3019
  251TMC3    C7 3866   2.893   2.808  13.374  0.3635 -0.1795 -0.2621
  251TMC3    C8 3867   2.478   2.891  13.591 -0.0899 -0.4791  0.6197
  251TMC3    O1 3868   2.950   2.716  13.422  0.2566 -0.2633 -0.2941
  251TMC3    O2 3869   2.397   2.838  13.668 -0.1955 -0.2448 -0.0385
  252TMC3    C1 3870   1.071   4.114  10.001  0.3382  0.2345 -0.5652
  252TMC3    C2 3871   1.174   4.195   9.989 -0.8302 -0.0995  0.7240
  252TMC3    C3 3872   1.293   4.161  10.044  0.0330 -0.7813  0.2282
  252TMC3    C4 3873   1.078   3.994  10.066 -0.2749 -0.2036 -0.1991
  252TMC3    C5 3874   1.190   3.973  10.136 -0.6722 -0.0135  0.0715
  252TMC3    C6 3875   1.305   4.047  10.120  0.0751 -0.4921  0.1921
  252TMC3     C 3876   0.955   4.132   9.917  0.1552 -0.3969 -0.2052
  252TMC3     O 3877   0.891   4.035   9.885  0.6584  0.2115  0.2452
  252TMC3     H 3878   1.177   4.284   9.927  0.4863 -1.5174 -1.2304
  252TMC3    H1 3879   0.990   3.930  10.071  0.2671 -1.0086 -0.7689
  252TMC3    H2 3880   1.396   4.016  10.170 -1.4314  0.4169  3.5046
  252TMC3    C7 3881   1.192   3.846  10.195 -1.0195  0.9842 -0.2499
  252TMC3    C8 3882   1.411   4.240   9.995 -1.1640  0.0993  0.1283
  252TMC3    O1 3883   1.084   3.806  10.232  0.5238 -0.1805  0.1289
  252TMC3    O2 3884   1.391   4.309   9.895  0.2975 -0.1344  0.4150
  253MPD2     C 3885   3.366   1.823  14.627  0.0984  0.4070  0.3386
  253MPD2    C1 3886   3.257   1.885  14.680  0.3261 -0.0843 -0.5300
  253MPD2    C2 3887   3.242   1.871  14.819 -0.5745  0.1889 -0.3365
  253MPD2    C3 3888   3.338   1.815  14.897  0.5838  0.1863  0.5523
  253MPD2    C4 3889   3.446   1.750  14.840  0.4241 -0.4278  0.6060
  253MPD2    C5 3890   3.463   1.758  14.705 -0.1538  0.8930  0.1092
  253MPD2     H 3891   3.153   1.913  14.863 -1.0982 -0.5289 -0.7159
  253MPD2    H1 3892   3.524   1.707  14.901 -0.3104  0.3584  2.0773
  253MPD2    H2 3893   3.391   1.827  14.521 -1.9995  3.4625 -0.0158
  253MPD2    H3 3894   3.550   1.712  14.658 -2.4564 -2.6998 -0.6356
  253MPD2     N 3895   3.342   1.820  15.036  0.2789  0.0373  0.2954
  253MPD2    H5 3896   3.416   1.771  15.086 -0.7003 -1.4767  0.2647
  253MPD2    N1 3897   3.150   1.937  14.611  0.0201  0.4636 -0.3754
  253MPD2    H7 3898   3.065   1.956  14.664  0.3166  1.2575 -0.1857
  254TMC3    C1 3899   3.279   1.903  15.253  0.2379 -0.0993  0.8693
  254TMC3    C2 3900   3.177   1.954  15.326  0.0999 -0.1195  0.0304
  254TMC3    C3 3901   3.203   1.979  15.454  0.8696  0.3472 -0.0018
  254TMC3    C4 3902   3.401   1.872  15.310  0.0900 -0.3632 -0.2016
  254TMC3    C5 3903   3.418   1.885  15.446 -0.4197 -0.4380 -0.3981
  254TMC3    C6 3904   3.320   1.948  15.514  0.0247  0.8916  0.1232
  254TMC3     C 3905   3.254   1.899  15.109  0.0980 -0.6901 -0.0744
  254TMC3     O 3906   3.169   1.979  15.074 -0.3283 -0.0907  0.2125
  254TMC3     H 3907   3.078   1.974  15.285  0.1368  0.7578  0.3570
  254TMC3    H1 3908   3.486   1.842  15.249  1.4974 -0.6904  1.9168
  254TMC3    H2 3909   3.334   1.986  15.615  2.1349 -1.0901  0.5672
  254TMC3    C7 3910   3.550   1.858  15.511  0.0216 -0.4058 -0.0426
  254TMC3    C8 3911   3.097   2.038  15.538  0.0170  0.3681 -0.1227
  254TMC3    O1 3912   3.648   1.872  15.442  0.2429  0.3538  0.1153
  254TMC3    O2 3913   3.105   2.025  15.659  0.7198 -0.4229 -0.1400
  255MPD2     C 3914   0.923   1.052  10.033  0.7455  0.3723 -0.2754
  255MPD2    C1 3915   0.999   1.143  10.109  0.2725  0.3217 -0.1765
  255MPD2    C2 3916   1.044   1.100  10.233 -0.4273 -0.2956 -0.6054
  255MPD2    C3 3917   1.011   0.975  10.285  0.4471 -1.1147  0.5109
  255MPD2    C4 3918   0.933   0.884  10.207 -0.3176 -0.4083  0.0893
  255MPD2    C5 3919   0.893   0.929  10.083  0.1590 -0.1296 -0.3070
  255MPD2     H 3920   1.094   1.170  10.299 -3.5430 -0.4692  1.9043
  255MPD2    H1 3921   0.891   0.786  10.227  0.5629 -0.6962  0.5225
  255MPD2    H2 3922   0.875   1.086   9.941  1.2391 -0.8352 -0.9847
  255MPD2    H3 3923   0.817   0.874  10.029 -1.2466 -0.3816  1.9018
  255MPD2     N 3924   1.060   0.940  10.416 -0.7147  0.2011  0.1368
  255MPD2    H5 3925   1.116   1.008  10.466 -2.7532  2.4252 -0.5957
  255MPD2    N1 3926   1.034   1.267  10.051  0.1555  0.0665 -0.0271
  255MPD2    H7 3927   0.985   1.291   9.966 -2.3693  2.1672  2.0051
  256TMC3    C1 3928   1.185   1.443  10.005 -0.0592 -0.1001 -0.5749
  256TMC3    C2 3929   1.318   1.452  10.035 -0.5531 -0.0839  0.2132
  256TMC3    C3 3930   1.406   1.442   9.928  0.0029 -0.1034  0.5766
  256TMC3    C4 3931   1.138   1.430   9.878  0.5381 -0.3653  0.1596
  256TMC3    C5 3932   1.226   1.391   9.781  0.3791 -1.0106  0.0632
  256TMC3    C6 3933   1.361   1.398   9.807  0.3809  0.1737 -0.4696
  256TMC3     C 3934   1.133   1.353  10.098  0.4449 -0.5701  0.3832
  256TMC3     O 3935   1.156   1.364  10.218 -0.0378 -0.2043 -0.0788
  256TMC3     H 3936   1.347   1.469  10.138 -0.7784  0.3327  0.2071
  256TMC3    H1 3937   1.031   1.427   9.857  0.5562  1.9765 -0.3448
  256TMC3    H2 3938   1.428   1.373   9.725 -0.9470 -3.3610 -0.4390
  256TMC3    C7 3939   1.196   1.269   9.704  1.5034 -0.2870 -0.9132
  256TMC3    C8 3940   1.546   1.434   9.970  0.0970  0.3096  0.1510
  256TMC3    O1 3941   1.276   1.177   9.696  0.7921  0.5553 -0.0353
  256TMC3    O2 3942   1.570   1.445  10.091  0.0901  0.4150  0.0391
  257MPD2     C 3943   0.453   2.389  13.644  0.1712  0.3115  0.6940
  257MPD2    C1 3944   0.516   2.349  13.530  0.0622  0.8032 -0.0292
  257MPD2    C2 3945   0.547   2.214  13.508 -0.3781 -1.0999 -0.3126
  257MPD2    C3 3946   0.516   2.118  13.595 -0.0819 -0.8226  0.4499
  257MPD2    C4 3947   0.454   2.156  13.713 -0.4870 -0.3307 -0.1604
  257MPD2    C5 3948   0.422   2.292  13.740 -0.5444 -0.0915 -0.5401
  257MPD2     H 3949   0.599   2.178  13.420  1.1642 -0.0227  0.1509
  257MPD2    H1 3950   0.432   2.089  13.795 -1.3582 -1.1726 -1.0971
  257MPD2    H2 3951   0.424   2.491  13.668  3.1968  1.0546  1.1150
  257MPD2    H3 3952   0.379   2.326  13.834 -0.2931 -0.0751 -0.4308
  257MPD2     N 3953   0.564   1.991  13.566  0.4378  0.7583  0.3776
  257MPD2    H5 3954   0.576   1.971  13.467  3.2734 -1.9065  1.2675
  257MPD2    N1 3955   0.544   2.447  13.429  0.1376  0.1402 -0.5961
  257MPD2    H7 3956   0.522   2.544  13.447  0.5544  0.2462 -0.6554
  258TMC3    C1 3957   0.661   1.774  13.609 -0.1595  0.2008  0.4728
  258TMC3    C2 3958   0.628   1.716  13.487  0.6854 -0.0731  0.1532
  258TMC3    C3 3959   0.702   1.608  13.444  0.5882 -0.7660 -0.3585
  258TMC3    C4 3960   0.765   1.720  13.690  0.3948 -0.0329  0.2149
  258TMC3    C5 3961   0.827   1.607  13.643  0.2431 -0.1912  0.1302
  258TMC3    C6 3962   0.793   1.551  13.523  0.4371 -0.1115 -0.1588
  258TMC3     C 3963   0.603   1.896  13.659  1.0106 -0.0782 -0.9261
  258TMC3     O 3964   0.605   1.900  13.780 -0.0492 -0.5612  0.5750
  258TMC3     H 3965   0.551   1.759  13.424  1.3072  0.1161 -0.4821
  258TMC3    H1 3966   0.809   1.769  13.776  2.8194 -0.9781 -0.4780
  258TMC3    H2 3967   0.831   1.453  13.497 -1.2283 -0.7800 -0.0940
  258TMC3    C7 3968   0.934   1.543  13.718 -0.2700 -0.9307  0.1946
  258TMC3    C8 3969   0.682   1.572  13.308 -0.2335 -0.2002 -0.6245
  258TMC3    O1 3970   1.029   1.498  13.659 -0.0212  0.5907  0.0527
  258TMC3    O2 3971   0.571   1.591  13.254 -0.0682 -0.7023 -0.7004
  259MPD2     C 3972   4.272   3.857   0.478 -0.4755 -0.3050  0.4317
  259MPD2    C1 3973   4.336   3.737   0.453  0.6856  0.0480  0.3303
  259MPD2    C2 3974   4.390   3.716   0.325  0.3399 -0.0429 -0.1218
  259MPD2    C3 3975   4.367   3.806   0.218 -0.0346  0.1520 -0.3262
  259MPD2    C4 3976   4.298   3.925   0.251  0.0730 -0.2403  0.5513
  259MPD2    C5 3977   4.250   3.942   0.378  0.6112 -0.1261 -0.2775
  259MPD2     H 3978   4.439   3.625   0.293 -0.8087 -0.2720 -1.2745
  259MPD2    H1 3979   4.261   3.996   0.177 -2.4944 -0.3886  1.6950
  259MPD2    H2 3980   4.229   3.871   0.577 -0.3776  1.7222  0.1842
  259MPD2    H3 3981   4.188   4.028   0.401  1.8332 -0.1800  3.1659
  259MPD2     N 3982   4.407   3.772   0.084 -0.6439  0.3296 -0.2268
  259MPD2    H5 3983   4.449   3.681   0.072 -1.0098 -0.2614  2.9191
  259MPD2    N1 3984   4.364   3.655   0.567  0.2927  0.1712  0.9983
  259MPD2    H7 3985   4.335   3.690   0.657  0.7107  1.0677  0.7809
  260TMC3    C1 3986   4.516   3.793  17.633 -0.0228  0.9437  0.1039
  260TMC3    C2 3987   4.616   3.864  17.575  0.8600  0.0048  0.5328
  260TMC3    C3 3988   4.692   3.796  17.489 -0.9270 -0.0733 -0.3923
  260TMC3    C4 3989   4.494   3.657  17.613  0.0543  0.9206  0.1840
  260TMC3    C5 3990   4.573   3.589  17.529 -0.2593 -0.4596 -0.2118
  260TMC3    C6 3991   4.671   3.658  17.464 -0.6902 -0.5077  0.0352
  260TMC3     C 3992   4.442   3.860  17.736 -0.0768 -0.2814 -0.2530
  260TMC3     O 3993   4.453   3.984  17.743 -0.0287  0.0650 -0.2708
  260TMC3     H 3994   4.626   3.970  17.596 -0.4084  0.2356 -0.0024
  260TMC3    H1 3995   4.406   3.614  17.660  0.0443 -0.0392 -0.7141
  260TMC3    H2 3996   4.729   3.613  17.385  1.7300 -1.1304  2.1616
  260TMC3    C7 3997   4.577   3.445  17.517  0.0937 -0.7519 -0.0209
  260TMC3    C8 3998   0.101   3.834  17.493  0.2527 -0.5508 -0.1209
  260TMC3    O1 3999   4.675   3.396  17.459  0.2935  0.8000  0.3994
  260TMC3    O2 4000   0.136   3.947  17.513  0.1145 -0.7041  0.1470
  261MPD2     C 4001   1.402   2.287  12.881 -1.0571  0.0362 -0.2282
  261MPD2    C1 4002   1.527   2.338  12.905 -0.0821  0.2474 -0.8863
  261MPD2    C2 4003   1.568   2.449  12.835  0.1867 -0.2125 -0.0812
  261MPD2    C3 4004   1.494   2.509  12.734  0.2169 -0.1160  0.4269
  261MPD2    C4 4005   1.369   2.466  12.725  0.0224  0.0798 -0.3222
  261MPD2    C5 4006   1.324   2.358  12.794 -0.3636 -0.4784  0.2890
  261MPD2     H 4007   1.665   2.493  12.856 -0.2070  0.3871  0.5117
  261MPD2    H1 4008   1.300   2.509  12.652 -0.1023 -0.7888 -0.7114
  261MPD2    H2 4009   1.365   2.200  12.936 -0.1136  0.0379  0.3972
  261MPD2    H3 4010   1.230   2.311  12.770 -1.1757  0.4044  1.7471
  261MPD2     N 4011   1.559   2.593  12.642 -0.3457 -0.4725 -0.2592
  261MPD2    H5 4012   1.653   2.627  12.664 -0.5859 -1.3241  2.1482
  261MPD2    N1 4013   1.632   2.279  12.979  0.1888  0.0348  0.5518
  261MPD2    H7 4014   1.726   2.317  12.971  0.6892 -0.9815  1.6530
  262TMC3    C1 4015   1.606   2.696  12.420  0.1719  0.9548  0.5827
  262TMC3    C2 4016   1.546   2.713  12.297 -0.3809  0.5487 -0.1596
  262TMC3    C3 4017   1.634   2.716  12.190  0.3843 -0.2618  0.1024
  262TMC3    C4 4018   1.742   2.681  12.437  0.5968  0.7447 -0.4049
  262TMC3    C5 4019   1.817   2.682  12.322  0.0189 -0.4699 -0.0896
  262TMC3    C6 4020   1.770   2.706  12.196 -0.2666  0.1846  0.4315
  262TMC3     C 4021   1.513   2.627  12.513  0.5361 -0.1099  0.0736
  262TMC3     O 4022   1.404   2.609  12.461  0.3402  0.2040 -0.2786
  262TMC3     H 4023   1.441   2.741  12.291 -0.1868  1.1399 -0.7820
  262TMC3    H1 4024   1.791   2.656  12.530  1.4045 -1.1927 -1.3447
  262TMC3    H2 4025   1.825   2.717  12.104  2.1142 -4.1010  1.3045
  262TMC3    C7 4026   1.956   2.632  12.335 -0.7694 -1.2119 -0.3241
  262TMC3    C8 4027   1.570   2.758  12.062 -0.2105  0.4619  0.5267
  262TMC3    O1 4028   1.984   2.566  12.430 -0.2923  0.4932  0.2746
  262TMC3    O2 4029   1.639   2.813  11.976 -0.7755 -0.1671 -0.5498
  263MPD2     C 4030   2.591   1.859  12.072 -0.1472 -0.9367  0.0904
  263MPD2    C1 4031   2.706   1.887  12.000  0.2459 -0.3043  0.5391
  263MPD2    C2 4032   2.695   1.930  11.866  1.0962  0.4416 -0.4018
  263MPD2    C3 4033   2.571   1.943  11.810  0.3881  0.6188 -0.2228
  263MPD2    C4 4034   2.460   1.899  11.882 -0.4509  0.2527 -0.0214
  263MPD2    C5 4035   2.468   1.869  12.014  0.5966  0.1021 -0.0776
  263MPD2     H 4036   2.783   1.952  11.807  1.5138  0.5009  0.2430
  263MPD2    H1 4037   2.361   1.895  11.838 -0.3761 -0.8319 -0.0772
  263MPD2    H2 4038   2.589   1.827  12.176  4.0132 -0.2769  0.3830
  263MPD2    H3 4039   2.380   1.829  12.063  2.1317 -2.5529  0.5555
  263MPD2     N 4040   2.554   1.997  11.679 -0.0224 -0.6053 -0.1317
  263MPD2    H5 4041   2.636   2.014  11.622  1.1822 -1.6384  1.2908
  263MPD2    N1 4042   2.823   1.875  12.074 -0.0648 -0.2830 -0.0103
  263MPD2    H7 4043   2.807   1.836  12.166  0.0103  0.2403  0.2273
  264TMC3    C1 4044   2.453   2.086  11.491 -0.2214  0.3751  0.5877
  264TMC3    C2 4045   2.396   2.202  11.454  0.2623  0.2328 -0.6115
  264TMC3    C3 4046   2.391   2.237  11.319  0.7001 -0.6323 -0.2370
  264TMC3    C4 4047   2.529   2.009  11.401  0.3744  0.3920  0.1878
  264TMC3    C5 4048   2.530   2.048  11.268 -0.0423  0.4027 -0.4359
  264TMC3    C6 4049   2.458   2.152  11.230 -0.2764  0.5335  0.2474
  264TMC3     C 4050   2.438   2.042  11.632 -0.0875 -0.1697  0.1012
  264TMC3     O 4051   2.346   2.090  11.696  0.5194  0.1637 -0.0742
  264TMC3     H 4052   2.348   2.269  11.525  0.2488 -1.6016  1.0974
  264TMC3    H1 4053   2.576   1.915  11.427 -2.1352 -1.0668 -0.4615
  264TMC3    H2 4054   2.442   2.178  11.125  0.6422 -2.2118 -0.5570
  264TMC3    C7 4055   2.622   1.986  11.167  0.2564 -0.2107 -0.3483
  264TMC3    C8 4056   2.364   2.368  11.268  1.3327  0.0748  0.3365
  264TMC3    O1 4057   2.596   2.012  11.051 -0.1421  0.6091 -0.4381
  264TMC3    O2 4058   2.424   2.399  11.166  0.1113  0.2562  0.1049
  265MPD2     C 4059   4.545   1.436  15.638 -0.6853  0.2179 -0.3349
  265MPD2    C1 4060   4.496   1.539  15.560 -0.3556  0.2812 -0.0968
  265MPD2    C2 4061   4.508   1.523  15.421 -0.0584 -0.8670  0.1547
  265MPD2    C3 4062   4.542   1.405  15.360  0.3604 -0.0826  0.3111
  265MPD2    C4 4063   4.573   1.299  15.444  0.2272 -0.2558  0.6277
  265MPD2    C5 4064   4.588   1.320  15.574  0.5040  0.0240  0.6728
  265MPD2     H 4065   4.487   1.608  15.356 -0.3512 -0.8441  0.2801
  265MPD2    H1 4066   4.601   1.201  15.406 -0.2304 -0.0394 -0.2628
  265MPD2    H2 4067   4.549   1.439  15.747 -2.5405  1.3067 -0.2971
  265MPD2    H3 4068   4.626   1.236  15.631 -2.6548 -2.4980 -0.9113
  265MPD2     N 4069   4.540   1.383  15.217 -0.2975 -0.6244 -0.9542
  265MPD2    H5 4070   4.568   1.290  15.188  0.3515 -0.2401 -1.5889
  265MPD2    N1 4071   4.463   1.668  15.601 -0.0305 -0.3806 -0.3546
  265MPD2    H7 4072   4.450   1.736  15.528 -0.7565  0.3452  0.4538
  266TMC3    C1 4073   4.487   1.864  15.737 -0.7179  0.4673 -0.0952
  266TMC3    C2 4074   4.566   1.929  15.829 -0.7000  0.0299  0.0251
  266TMC3    C3 4075   4.553   2.066  15.833  0.3834  0.3662 -0.2654
  266TMC3    C4 4076   4.412   1.928  15.647 -0.1861 -0.1579 -0.0959
  266TMC3    C5 4077   4.405   2.063  15.655  0.6089  0.2001 -0.3787
  266TMC3    C6 4078   4.475   2.138  15.745  0.3431  0.5809 -0.4622
  266TMC3     C 4079   4.499   1.716  15.727 -0.1671  0.0286 -0.1523
  266TMC3     O 4080   4.520   1.661  15.832  0.1152  0.1263  0.2840
  266TMC3     H 4081   4.624   1.875  15.904 -1.8625  2.7020  2.8207
  266TMC3    H1 4082   4.348   1.877  15.576  0.9737  1.8758 -2.5913
  266TMC3    H2 4083   4.458   2.245  15.752 -2.9735  0.0031  0.4557
  266TMC3    C7 4084   4.308   2.138  15.563  0.1498  0.1651  0.1144
  266TMC3    C8 4085   4.665   2.133  15.895  0.1188 -0.0188  0.0898
  266TMC3    O1 4086   4.218   2.077  15.508  0.2932 -0.0122  0.0877
  266TMC3    O2 4087   0.024   2.062  15.913  0.1861  0.1353  0.7023
  267MPD2     C 4088   1.789   3.476   0.498 -0.1898  0.1795  0.0791
  267MPD2    C1 4089   1.849   3.436   0.379  0.1245  0.1609  0.0506
  267MPD2    C2 4090   1.763   3.444   0.268 -0.4441 -0.2575 -0.2261
  267MPD2    C3 4091   1.626   3.481   0.274 -0.9004 -0.4676 -0.1748
  267MPD2    C4 4092   1.573   3.516   0.394 -0.4450  0.7822 -0.0510
  267MPD2    C5 4093   1.655   3.522   0.504 -0.4887  0.1062  0.7310
  267MPD2     H 4094   1.806   3.423   0.171  0.5450 -2.2205  0.6259
  267MPD2    H1 4095   1.472   3.555   0.399 -0.4317  0.7865  0.1885
  267MPD2    H2 4096   1.841   3.487   0.592 -0.1715 -0.7698  0.1838
  267MPD2    H3 4097   1.622   3.563   0.598  0.3624  0.3098  0.9417
  267MPD2     N 4098   1.550   3.504   0.155  0.0939 -0.0398  0.1396
  267MPD2    H5 4099   1.462   3.554   0.148 -0.6569 -1.5178 -0.7185
  267MPD2    N1 4100   1.983   3.398   0.375  0.8530 -0.3091 -0.4538
  267MPD2    H7 4101   2.031   3.410   0.463  0.9860 -0.2936 -0.5279
  268TMC3    C1 4102   2.192   3.306   0.280 -0.2283  0.0498  0.4958
  268TMC3    C2 4103   2.249   3.270   0.163 -0.4341  0.7687 -0.1656
  268TMC3    C3 4104   2.376   3.219   0.172 -0.1401 -0.9068 -0.3135
  268TMC3    C4 4105   2.249   3.285   0.402  0.4904  0.0897  0.0218
  268TMC3    C5 4106   2.381   3.236   0.407 -0.7918 -0.0938 -0.5098
  268TMC3    C6 4107   2.446   3.199   0.286 -0.5260  0.0501 -1.1636
  268TMC3     C 4108   2.049   3.345   0.271  0.0698  0.5305 -0.0309
  268TMC3     O 4109   2.002   3.326   0.158 -0.0146  0.0688 -0.6406
  268TMC3     H 4110   2.206   3.284   0.064  1.8406 -0.6950 -1.3801
  268TMC3    H1 4111   2.199   3.307   0.496 -1.7229 -0.5626 -1.0120
  268TMC3    H2 4112   2.548   3.162   0.286 -1.4349 -2.4039  1.5088
  268TMC3    C7 4113   2.441   3.200   0.529  0.4467 -0.1634  0.7883
  268TMC3    C8 4114   2.437   3.169   0.048  0.0625 -0.5856  0.8503
  268TMC3    O1 4115   2.504   3.099   0.536  0.1055  0.3120  0.4434
  268TMC3    O2 4116   2.520   3.078   0.056 -0.2492 -0.0481 -0.5547
  269MPD2     C 4117   2.561   2.508  15.406 -0.0600 -0.5497  0.3568
  269MPD2    C1 4118   2.570   2.488  15.543  0.8569 -0.0994  0.0889
  269MPD2    C2 4119   2.615   2.591  15.627 -0.1142 -0.4128 -0.3918
  269MPD2    C3 4120   2.663   2.712  15.576 -0.3326  0.9904  0.5212
  269MPD2    C4 4121   2.661   2.726  15.440 -0.0815  0.3841 -0.5247
  269MPD2    C5 4122   2.605   2.629  15.362  0.4583  0.6904  0.4209
  269MPD2     H 4123   2.614   2.579  15.735  0.9540 -1.2352 -0.4744
  269MPD2    H1 4124   2.699   2.815  15.391 -1.8658  0.8163 -1.1354
  269MPD2    H2 4125   2.537   2.422  15.345 -0.4822 -1.1325  1.3366
  269MPD2    H3 4126   2.613   2.646  15.255 -5.3114  0.1780 -0.0826
  269MPD2     N 4127   2.687   2.817  15.661 -0.2251 -0.0920 -0.3574
  269MPD2    H5 4128   2.669   2.803  15.760  0.4733  3.1128  0.2215
  269MPD2    N1 4129   2.524   2.360  15.590  0.4328  0.5587 -0.1100
  269MPD2    H7 4130   2.487   2.299  15.518 -3.7752  1.0689  1.6004
  270TMC3    C1 4131   2.496   2.186  15.737 -0.4175 -0.0737 -0.3001
  270TMC3    C2 4132   2.386   2.139  15.679  0.1754  0.1426 -0.3058
  270TMC3    C3 4133   2.379   2.009  15.649 -0.1563  0.1451  0.6294
  270TMC3    C4 4134   2.610   2.111  15.764 -0.2158  0.0517  0.0514
  270TMC3    C5 4135   2.608   1.980  15.720 -0.0989  0.1481  0.1736
  270TMC3    C6 4136   2.497   1.929  15.655 -0.1832  0.5182  0.0073
  270TMC3     C 4137   2.538   2.319  15.718 -0.0032 -0.3067  0.1929
  270TMC3     O 4138   2.592   2.374  15.812 -0.4072  0.0851 -0.2875
  270TMC3     H 4139   2.309   2.208  15.644  0.5566 -0.0248 -1.4851
  270TMC3    H1 4140   2.696   2.147  15.819  1.3352 -1.3004 -1.4861
  270TMC3    H2 4141   2.498   1.827  15.619 -0.1086 -1.2056  4.9695
  270TMC3    C7 4142   2.735   1.920  15.689  0.0175 -0.0557 -0.2152
  270TMC3    C8 4143   2.265   1.952  15.584 -0.0540  0.4130  0.0267
  270TMC3    O1 4144   2.802   1.895  15.787  1.0460  0.1087  0.7921
  270TMC3    O2 4145   2.292   1.849  15.524 -0.5678  0.1872 -0.0953
  271MPD2     C 4146   1.465   1.960  13.972 -0.4612 -0.0121 -0.4211
  271MPD2    C1 4147   1.420   1.985  14.094  0.4481  0.7265 -0.3100
  271MPD2    C2 4148   1.326   2.083  14.110  0.7079 -0.0078  0.3205
  271MPD2    C3 4149   1.274   2.152  14.001  0.4326 -0.0128  0.4092
  271MPD2    C4 4150   1.320   2.124  13.877  0.1150  0.4463  0.2515
  271MPD2    C5 4151   1.420   2.027  13.858 -0.3849 -0.0784 -0.7879
  271MPD2     H 4152   1.290   2.082  14.212  0.0755 -2.0099  0.0784
  271MPD2    H1 4153   1.291   2.179  13.789 -1.3498 -2.3634 -1.0138
  271MPD2    H2 4154   1.531   1.876  13.959  1.2938  1.0319  1.7466
  271MPD2    H3 4155   1.461   2.019  13.758  0.7496  1.5060 -0.4365
  271MPD2     N 4156   1.179   2.260  14.006  0.2045  0.1977 -0.0256
  271MPD2    H5 4157   1.158   2.302  13.917  1.3611 -1.0088 -0.8637
  271MPD2    N1 4158   1.457   1.907  14.205 -0.4901  0.4367  0.1550
  271MPD2    H7 4159   1.408   1.917  14.293 -0.0168  0.1938  0.4426
  272TMC3    C1 4160   1.599   1.786  14.344  0.5460 -0.3609  0.5922
  272TMC3    C2 4161   1.693   1.686  14.358 -0.0260  0.7199  0.7890
  272TMC3    C3 4162   1.771   1.679  14.474 -0.3638 -0.6254 -0.1155
  272TMC3    C4 4163   1.567   1.868  14.451  0.0747 -0.1957 -0.5023
  272TMC3    C5 4164   1.636   1.848  14.565 -0.4045 -0.0452 -0.3458
  272TMC3    C6 4165   1.744   1.759  14.579  0.1370  0.8294 -0.3998
  272TMC3     C 4166   1.578   1.836  14.210  0.6794 -0.1436 -0.5991
  272TMC3     O 4167   1.666   1.811  14.127 -0.1147  0.8949  0.3082
  272TMC3     H 4168   1.711   1.620  14.274  1.3587  0.0757  1.5916
  272TMC3    H1 4169   1.531   1.969  14.438 -2.6526 -1.2405 -1.1073
  272TMC3    H2 4170   1.801   1.755  14.672  0.4941  2.6888 -0.5420
  272TMC3    C7 4171   1.577   1.919  14.675 -0.1464 -0.0017  0.9160
  272TMC3    C8 4172   1.898   1.605  14.465 -0.3804  0.2545 -0.0689
  272TMC3    O1 4173   1.453   1.918  14.676 -0.6197 -0.3976 -0.1036
  272TMC3    O2 4174   1.929   1.583  14.352  0.5288 -0.1623  0.2013
  273MPD2     C 4175   2.925   0.616  11.981 -0.1381 -0.1383  0.4770
  273MPD2    C1 4176   3.062   0.653  12.001 -0.6479  0.0737 -0.4229
  273MPD2    C2 4177   3.127   0.707  11.893 -0.1342  1.0771 -0.9798
  273MPD2    C3 4178   3.073   0.723  11.769  0.6161 -0.6372  0.2900
  273MPD2    C4 4179   2.944   0.681  11.751  0.7064  0.1404 -0.3291
  273MPD2    C5 4180   2.878   0.634  11.857  1.0826 -0.2399 -0.4359
  273MPD2     H 4181   3.230   0.738  11.906 -0.4214  1.2308  0.9952
  273MPD2    H1 4182   2.892   0.696  11.657  0.5948 -1.6821 -0.5523
  273MPD2    H2 4183   2.860   0.564  12.051  0.5326 -0.2698  0.9978
  273MPD2    H3 4184   2.772   0.618  11.838  0.7738  0.3651  0.7624
  273MPD2     N 4185   3.130   0.799  11.670 -0.4119  0.0644  0.4225
  273MPD2    H5 4186   3.086   0.793  11.578 -1.5459 -3.0244  1.1499
  273MPD2    N1 4187   3.129   0.627  12.128 -0.3128 -0.2007  0.1325
  273MPD2    H7 4188   3.076   0.567  12.191  0.5929  1.1329  2.1622
  274TMC3    C1 4189   3.270   0.956  11.559 -0.5188  0.5590 -0.5635
  274TMC3    C2 4190   3.184   0.960  11.452 -0.5203  0.2680  0.0578
  274TMC3    C3 4191   3.205   1.047  11.344  0.5349  0.0516  0.5862
  274TMC3    C4 4192   3.382   1.039  11.557  0.1522  0.2269 -0.6862
  274TMC3    C5 4193   3.407   1.119  11.448 -0.3355 -0.5792  0.1626
  274TMC3    C6 4194   3.329   1.117  11.333  0.9169  0.2359 -0.0737
  274TMC3     C 4195   3.242   0.888  11.683 -0.3592 -0.4362 -0.5986
  274TMC3     O 4196   3.309   0.911  11.782 -0.2771 -0.3289  0.2493
  274TMC3     H 4197   3.091   0.904  11.447 -0.2572 -0.0130 -1.6774
  274TMC3    H1 4198   3.435   1.057  11.650  0.3383  0.9046 -0.9212
  274TMC3    H2 4199   3.327   1.203  11.267 -2.3237  0.3292  0.1079
  274TMC3    C7 4200   3.478   1.242  11.463 -0.2254  0.5792  0.4232
  274TMC3    C8 4201   3.100   1.079  11.260  0.3542 -0.1371 -0.6563
  274TMC3    O1 4202   3.517   1.295  11.363 -0.1816  0.8394 -0.0680
  274TMC3    O2 4203   2.983   1.047  11.297  0.1414 -0.0064  0.0024
  275MPD2     C 4204   2.842   3.389  14.730 -0.1887  0.0015 -0.4899
  275MPD2    C1 4205   2.866   3.256  14.752  0.4810  0.2035  0.1338
  275MPD2    C2 4206   2.767   3.163  14.722  0.7923  0.2115  0.6518
  275MPD2    C3 4207   2.638   3.205  14.692  0.3536 -0.0996 -0.5999
  275MPD2    C4 4208   2.618   3.338  14.676  0.5414  0.1749 -0.2498
  275MPD2    C5 4209   2.720   3.431  14.698  0.4092  0.1756 -0.0169
  275MPD2     H 4210   2.793   3.058  14.727  1.4682  0.1903 -3.5410
  275MPD2    H1 4211   2.522   3.387  14.663  0.3060 -0.8532 -2.3945
  275MPD2    H2 4212   2.913   3.471  14.740 -0.1954 -0.1799  1.0617
  275MPD2    H3 4213   2.696   3.537  14.689 -0.1349  0.1867  1.6692
  275MPD2     N 4214   2.519   3.121  14.678 -0.2665 -0.6424  0.3448
  275MPD2    H5 4215   2.436   3.176  14.654 -1.1882 -1.6030  1.3367
  275MPD2    N1 4216   2.996   3.210  14.768  0.6631 -0.2568 -0.0105
  275MPD2    H7 4217   3.002   3.117  14.809  1.3327 -0.3842 -0.3903
  276TMC3    C1 4218   3.230   3.201  14.777 -0.9098  0.1036 -0.4187
  276TMC3    C2 4219   3.233   3.062  14.778  0.5494 -0.5015  0.1187
  276TMC3    C3 4220   3.349   2.997  14.814 -0.4041  0.2848 -0.3062
  276TMC3    C4 4221   3.339   3.278  14.809  0.2578  0.0529  0.6038
  276TMC3    C5 4222   3.449   3.200  14.851 -0.9497  0.0060  0.5488
  276TMC3    C6 4223   3.459   3.067  14.853 -1.0367  0.1793 -0.0265
  276TMC3     C 4224   3.108   3.284  14.751  0.4636 -0.3800 -0.1092
  276TMC3     O 4225   3.129   3.395  14.712  0.0830  0.5194 -0.1399
  276TMC3     H 4226   3.139   3.009  14.766 -0.2904  1.1541 -0.5714
  276TMC3    H1 4227   3.333   3.385  14.826 -1.8488  0.1173 -0.6415
  276TMC3    H2 4228   3.542   3.015  14.899  0.7838  2.7721 -0.3281
  276TMC3    C7 4229   3.561   3.278  14.886 -0.4601 -0.6507 -0.1197
  276TMC3    C8 4230   3.331   2.857  14.866 -0.2329  1.1047  0.2724
  276TMC3    O1 4231   3.642   3.222  14.960  0.2199 -0.4774  0.0073
  276TMC3    O2 4232   3.391   2.822  14.964  0.3659 -0.4768  0.2111
  277MPD2     C 4233   0.146   2.326  13.204 -0.6898  0.0315 -0.1593
  277MPD2    C1 4234   0.025   2.346  13.261 -0.0954  0.1777 -0.2130
  277MPD2    C2 4235   4.730   2.252  13.354  0.1687  0.5252  0.5423
  277MPD2    C3 4236   0.070   2.147  13.396 -0.1521 -0.0147 -0.0320
  277MPD2    C4 4237   0.190   2.129  13.328  0.2981  0.2802  0.3922
  277MPD2    C5 4238   0.235   2.230  13.253 -0.3662  0.1789  0.2728
  277MPD2     H 4239   4.631   2.252  13.399 -1.4411 -3.3097 -3.0427
  277MPD2    H1 4240   0.260   2.049  13.349  1.1125  0.1159 -2.9394
  277MPD2    H2 4241   0.175   2.391  13.122  3.1175  3.0089  3.6110
  277MPD2    H3 4242   0.330   2.207  13.206  0.9275  2.3305  1.8555
  277MPD2     N 4243   0.008   2.046  13.478  0.2042  0.2524 -0.8306
  277MPD2    H5 4244   4.661   2.076  13.524  1.8848  1.2627  1.6021
  277MPD2    N1 4245   4.678   2.439  13.198 -0.3531  0.0311 -0.1641
  277MPD2    H7 4246   4.714   2.494  13.121  1.5831 -1.0501 -0.0346
  278TMC3    C1 4247   4.697   1.852  13.587 -0.3712  0.1920  0.8245
  278TMC3    C2 4248   4.693   1.723  13.555 -0.4149 -0.2251  0.2355
  278TMC3    C3 4249   4.569   1.660  13.544  0.0208 -0.6493 -0.2871
  278TMC3    C4 4250   4.597   1.918  13.640 -0.4518  0.2452 -0.1918
  278TMC3    C5 4251   4.483   1.840  13.668  0.5941  0.1469 -0.0138
  278TMC3    C6 4252   4.463   1.715  13.617  0.1605  0.3908 -0.5510
  278TMC3     C 4253   0.058   1.923  13.512 -0.3378  0.8902 -0.2914
  278TMC3     O 4254   0.157   1.865  13.484  0.2382 -0.1119 -0.3173
  278TMC3     H 4255   0.043   1.680  13.509  1.0925  2.5818  0.5032
  278TMC3    H1 4256   4.614   2.013  13.689  0.7030 -0.4016  0.6797
  278TMC3    H2 4257   4.379   1.650  13.636  1.4266 -1.8490 -2.7444
  278TMC3    C7 4258   4.367   1.914  13.713  0.8138  0.2435 -0.1379
  278TMC3    C8 4259   4.572   1.530  13.482 -0.2192 -0.1147  0.2822
  278TMC3    O1 4260   4.371   2.032  13.687 -1.0254  0.2427 -0.1935
  278TMC3    O2 4261   4.678   1.470  13.464  0.1204  0.2723 -0.0483
  279MPD2     C 4262   3.957   2.033   0.145 -0.0293 -0.7724  0.2023
  279MPD2    C1 4263   3.830   2.011   0.088  0.1178 -0.0418  0.0249
  279MPD2    C2 4264   3.823   1.982  17.705 -0.1185 -0.1595 -0.3289
  279MPD2    C3 4265   3.934   1.986  17.622  0.0984  0.5424  0.4137
  279MPD2    C4 4266   4.054   2.011  17.683  0.3626  0.2097  0.5598
  279MPD2    C5 4267   4.061   2.032   0.065  0.2891  0.7022  0.8276
  279MPD2     H 4268   3.728   1.967  17.655 -1.4107  3.5322  1.0522
  279MPD2    H1 4269   4.146   2.014  17.625  1.0469 -3.0367  1.4646
  279MPD2    H2 4270   3.966   2.059   0.250  1.9627 -2.1915  0.3889
  279MPD2    H3 4271   4.161   2.037   0.106  0.2976  0.4585  0.8414
  279MPD2     N 4272   3.915   1.964  17.485  0.3919 -0.4943 -0.1697
  279MPD2    H5 4273   3.826   1.932  17.450 -0.8261  0.7510  1.8354
  279MPD2    N1 4274   3.719   2.051   0.164 -0.4473  0.3675 -0.0468
  279MPD2    H7 4275   3.742   2.077   0.260  0.6819 -0.5736 -0.0654
  280TMC3    C1 4276   3.508   2.108   0.243 -0.1555  0.4209  0.2712
  280TMC3    C2 4277   3.537   2.078   0.373 -0.1502  0.3550  0.2181
  280TMC3    C3 4278   3.453   2.127   0.469 -0.0052  0.8406  0.1444
  280TMC3    C4 4279   3.396   2.187   0.219 -0.3991  0.7833  0.1519
  280TMC3    C5 4280   3.312   2.227   0.321  0.2102  0.5079 -0.4039
  280TMC3    C6 4281   3.339   2.193   0.448 -0.2532 -0.4519 -0.3854
  280TMC3     C 4282   3.596   2.079   0.122  0.5644 -0.4633 -0.0754
  280TMC3     O 4283   3.555   2.102   0.010 -0.5294 -0.3784 -0.6035
  280TMC3     H 4284   3.618   2.008   0.394 -0.5085 -1.0917 -3.2908
  280TMC3    H1 4285   3.371   2.216   0.117 -1.0818 -1.8338 -0.4314
  280TMC3    H2 4286   3.284   2.240   0.529  2.5786 -3.4253  3.2755
  280TMC3    C7 4287   3.267   2.368   0.305 -0.2545  0.8146  0.1172
  280TMC3    C8 4288   3.479   2.072   0.602 -0.7530  0.2270  0.0111
  280TMC3    O1 4289   3.292   2.444   0.401  0.4973 -0.4090  0.2834
  280TMC3    O2 4290   3.591   2.025   0.623 -0.3814 -0.0790  0.3374
  281TMC3    C1 4291   3.111   2.696  13.727  0.0634  0.5005 -0.9200
  281TMC3    C2 4292   3.206   2.788  13.712  0.4205  0.0016  0.4466
  281TMC3    C3 4293   3.309   2.744  13.633 -0.0713  0.5078  0.3142
  281TMC3    C4 4294   3.118   2.566  13.687 -0.4329 -0.2399  0.5250
  281TMC3    C5 4295   3.231   2.519  13.630 -0.6878 -0.3994  0.2873
  281TMC3    C6 4296   3.330   2.611  13.606  0.0960  0.2542  0.9029
  281TMC3     C 4297   2.981   2.742  13.763  0.0691 -0.0595  0.1638
  281TMC3     O 4298   2.905   2.652  13.797 -0.2107  0.4676  0.3012
  281TMC3     H 4299   3.206   2.892  13.741 -1.4545  0.2539 -0.4713
  281TMC3    H1 4300   3.033   2.502  13.707 -0.6828  0.0937  0.5275
  281TMC3    H2 4301   3.416   2.582  13.547  0.4711  3.6310 -0.2033
  281TMC3    C7 4302   3.251   2.377  13.605 -0.6379  1.0711 -0.3494
  281TMC3    C8 4303   3.419   2.826  13.591 -0.0373 -0.4083 -0.5245
  281TMC3    O1 4304   3.363   2.345  13.569 -0.4195 -0.0938 -0.2471
  281TMC3    O2 4305   3.530   2.775  13.600  0.0644  0.5924  0.2816
  282MPD2     C 4306   4.635   3.560  14.778  0.0409  0.1670  0.0521
  282MPD2    C1 4307   4.559   3.659  14.826  1.3112 -0.0658  0.4396
  282MPD2    C2 4308   4.486   3.734  14.737  0.4369  0.0402  0.0157
  282MPD2    C3 4309   4.468   3.695  14.599 -0.2829  0.8550  0.3968
  282MPD2    C4 4310   4.540   3.584  14.559 -0.1373 -0.2796  0.2900
  282MPD2    C5 4311   4.624   3.522  14.650  0.5931  0.1151 -0.1043
  282MPD2     H 4312   4.427   3.815  14.776 -2.9694 -2.3417 -0.2022
  282MPD2    H1 4313   4.537   3.545  14.458  0.3704  1.3725 -0.3688
  282MPD2    H2 4314   4.689   3.491  14.842  0.0618 -0.7983 -1.0013
  282MPD2    H3 4315   4.686   3.440  14.616 -3.0373 -2.6069 -0.0540
  282MPD2     N 4316   4.378   3.767  14.517 -0.5959 -0.1008  0.5313
  282MPD2    H5 4317   4.344   3.860  14.543 -0.2315  0.6406 -1.7085
  282MPD2    N1 4318   4.538   3.676  14.962  0.6236 -0.4967 -0.2320
  282MPD2    H7 4319   4.490   3.760  14.992  0.3564 -0.4677 -0.7391
  283TMC3    C1 4320   4.531   3.630  15.190 -0.4918 -0.3062  0.2421
  283TMC3    C2 4321   4.596   3.736  15.241 -0.3152 -0.1153  0.2867
  283TMC3    C3 4322   4.554   3.779  15.362  0.4799 -0.0894  0.4868
  283TMC3    C4 4323   4.436   3.553  15.254 -0.0024 -0.0375 -0.2737
  283TMC3    C5 4324   4.393   3.605  15.377  0.2303 -0.1816  0.1209
  283TMC3    C6 4325   4.455   3.718  15.428  0.2077  0.4723  0.4333
  283TMC3     C 4326   4.567   3.581  15.061 -0.0294 -0.5093  0.4610
  283TMC3     O 4327   4.594   3.463  15.046 -0.1997 -0.0932 -0.2658
  283TMC3     H 4328   4.671   3.792  15.186  0.6811  0.5662  2.2960
  283TMC3    H1 4329   4.403   3.464  15.201  0.9165 -0.3772 -0.2717
  283TMC3    H2 4330   4.419   3.756  15.523  0.7600  1.2528  0.3360
  283TMC3    C7 4331   4.285   3.543  15.449  0.2061  0.1575 -0.0817
  283TMC3    C8 4332   4.595   3.905  15.416  0.2990  0.3172 -0.5836
  283TMC3    O1 4333   4.273   3.580  15.566  0.6367 -0.0352  0.4124
  283TMC3    O2 4334   4.578   3.919  15.537  0.2513  0.2946 -0.1445
  284MPD2     C 4335   2.031   3.530  12.033 -0.1003 -0.7667  0.6349
  284MPD2    C1 4336   2.137   3.511  11.948 -0.0617  0.5406  0.2242
  284MPD2    C2 4337   2.238   3.428  11.990 -1.2039 -0.8324  0.2330
  284MPD2    C3 4338   2.242   3.367  12.115  0.0277  0.5532  0.1586
  284MPD2    C4 4339   2.142   3.394  12.200  0.5943 -0.3697 -0.1871
  284MPD2    C5 4340   2.041   3.475  12.156 -0.4951 -0.1257  1.0446
  284MPD2     H 4341   2.330   3.422  11.934 -0.1618 -0.0083  1.8470
  284MPD2    H1 4342   2.137   3.352  12.300  0.7387 -0.6274 -0.2875
  284MPD2    H2 4343   1.944   3.589  12.009 -1.5384 -2.6109  1.3163
  284MPD2    H3 4344   1.967   3.498  12.231  0.1386 -1.3565  2.0668
  284MPD2     N 4345   2.356   3.298  12.157  0.0418 -0.0329 -0.0846
  284MPD2    H5 4346   2.426   3.287  12.084  0.1115  0.7006 -0.1278
  284MPD2    N1 4347   2.153   3.589  11.830  0.1445  0.6346  0.2892
  284MPD2    H7 4348   2.087   3.663  11.807  0.9277  1.6989  1.4584
  285TMC3    C1 4349   2.234   3.630  11.608  0.0506 -0.2669  0.4843
  285TMC3    C2 4350   2.276   3.558  11.497  0.0255 -0.0182  1.0265
  285TMC3    C3 4351   2.381   3.600  11.416  0.0363  0.5017 -0.4773
  285TMC3    C4 4352   2.312   3.742  11.640  0.1952 -0.7416  0.5699
  285TMC3    C5 4353   2.422   3.772  11.561  0.7001  0.1393  0.2831
  285TMC3    C6 4354   2.464   3.697  11.452  0.0873 -0.3743  0.7064
  285TMC3     C 4355   2.236   3.553  11.727 -0.5440 -0.0660 -0.7072
  285TMC3     O 4356   2.305   3.454  11.718  0.1118  0.8872 -0.4975
  285TMC3     H 4357   2.233   3.463  11.470 -0.9274  0.1067  2.1257
  285TMC3    H1 4358   2.302   3.786  11.738 -1.9968  0.6916 -0.3044
  285TMC3    H2 4359   2.557   3.721  11.401 -0.8322  0.1831 -0.6717
  285TMC3    C7 4360   2.512   3.860  11.634  0.5180 -0.0804  0.6797
  285TMC3    C8 4361   2.393   3.541  11.290 -0.2074  0.5262  0.6631
  285TMC3    O1 4362   2.463   3.964  11.671 -0.0501 -0.2408 -0.4017
  285TMC3    O2 4363   2.343   3.435  11.266 -0.2391  0.2932 -0.5473
  286MPD2     C 4364   3.305   1.687   1.465 -0.0623 -1.0980  0.1149
  286MPD2    C1 4365   3.247   1.641   1.352  0.6248 -0.1380  0.1401
  286MPD2    C2 4366   3.317   1.549   1.278 -0.6102  0.0769  0.2710
  286MPD2    C3 4367   3.431   1.487   1.320 -0.6171  0.1610 -0.0178
  286MPD2    C4 4368   3.477   1.522   1.446  0.4625 -0.3526 -0.6562
  286MPD2    C5 4369   3.417   1.620   1.520 -0.4999  1.0985  0.0567
  286MPD2     H 4370   3.267   1.523   1.186  0.6091 -0.9434 -0.1048
  286MPD2    H1 4371   3.560   1.470   1.492  0.1909 -0.2981 -0.1017
  286MPD2    H2 4372   3.258   1.764   1.525  0.6158 -0.1125 -0.6195
  286MPD2    H3 4373   3.440   1.637   1.625  3.1483 -2.9920 -0.0995
  286MPD2     N 4374   3.491   1.385   1.251  0.0626 -0.1124 -0.4150
  286MPD2    H5 4375   3.549   1.321   1.304  2.3179  1.5295 -0.9220
  286MPD2    N1 4376   3.120   1.679   1.310 -0.4331 -0.0479 -0.6612
  286MPD2    H7 4377   3.079   1.631   1.231 -2.1471 -0.3604  0.4302
  287TMC3    C1 4378   3.498   1.224   1.080  0.1364 -0.2713  0.1791
  287TMC3    C2 4379   3.428   1.165   0.981  0.1244 -0.9057 -1.1589
  287TMC3    C3 4380   3.459   1.039   0.938 -0.1784 -0.0060  0.4846
  287TMC3    C4 4381   3.606   1.167   1.130 -0.7086  0.3919  0.1964
  287TMC3    C5 4382   3.644   1.041   1.089 -0.4685  0.0006  0.1956
  287TMC3    C6 4383   3.564   0.966   0.995 -0.1117  0.2238 -0.3356
  287TMC3     C 4384   3.460   1.358   1.117 -0.5342 -0.0225  0.4581
  287TMC3     O 4385   3.396   1.421   1.036  0.7395 -0.5692 -0.3625
  287TMC3     H 4386   3.331   1.207   0.957 -0.6561 -0.1031  3.3625
  287TMC3    H1 4387   3.666   1.221   1.202  0.3280  0.0512 -0.4186
  287TMC3    H2 4388   3.586   0.863   0.966 -3.5378 -0.2885 -1.1408
  287TMC3    C7 4389   3.711   0.958   1.190 -0.2358  0.1971  0.1337
  287TMC3    C8 4390   3.383   0.984   0.835 -0.5438 -0.5354  0.0977
  287TMC3    O1 4391   3.795   1.019   1.255  0.1941  0.1241  0.0949
  287TMC3    O2 4392   3.354   0.864   0.821  0.2117  0.6459  0.7009
  288TMC3    C1 4393   4.598   1.506  14.025  0.1392  0.1785 -0.9083
  288TMC3    C2 4394   4.587   1.480  14.164 -0.0269  0.7382 -0.5761
  288TMC3    C3 4395   4.640   1.572  14.250 -0.4051 -0.1651 -0.4428
  288TMC3    C4 4396   4.636   1.623  13.974  0.7065 -0.0321 -0.1194
  288TMC3    C5 4397   4.669   1.716  14.067  0.3717 -0.2350 -0.2005
  288TMC3    C6 4398   4.676   1.695  14.203 -0.6421 -0.2825  0.5433
  288TMC3     C 4399   4.575   1.387  13.939  0.1015 -0.1722  0.4219
  288TMC3     O 4400   4.491   1.311  13.975 -0.0204  0.1866 -0.6252
  288TMC3     H 4401   4.555   1.380  14.189  0.6996  0.9252  1.1147
  288TMC3    H1 4402   4.645   1.652  13.870 -0.9168  2.2341  0.3569
  288TMC3    H2 4403   4.711   1.769  14.274 -0.5196 -1.9590  2.2484
  288TMC3    C7 4404   4.690   1.854  14.014 -0.3699 -0.0517  0.8743
  288TMC3    C8 4405   4.578   1.587  14.380  0.1128 -0.4208  0.4046
  288TMC3    O1 4406   4.671   1.869  13.896  0.3057  0.4251 -0.0699
  288TMC3    O2 4407   4.565   1.701  14.424 -0.1722  0.0520  0.4390
  289MPD2     C 4408   0.188   0.544  14.458  0.5798 -0.1202  0.0554
  289MPD2    C1 4409   0.153   0.655  14.381  0.0773  0.0110  0.8168
  289MPD2    C2 4410   0.073   0.648  14.272  0.1093 -0.9225 -0.3171
  289MPD2    C3 4411   0.018   0.529  14.244 -0.1199  0.1646  0.2828
  289MPD2    C4 4412   0.067   0.409  14.298  0.1044  0.6094  0.1646
  289MPD2    C5 4413   0.146   0.425  14.412 -0.3680 -0.5888  0.3228
  289MPD2     H 4414   0.039   0.735  14.216  0.7416  0.0733  0.8344
  289MPD2    H1 4415   0.040   0.306  14.278  1.4922 -0.0900  1.9080
  289MPD2    H2 4416   0.261   0.556  14.537 -0.1927  0.3031  0.6997
  289MPD2    H3 4417   0.172   0.335  14.467  1.8901  0.3933  0.8688
  289MPD2     N 4418   4.663   0.508  14.141  0.0444  0.0970 -0.4044
  289MPD2    H5 4419   4.619   0.416  14.138 -2.0731  1.0065  2.4664
  289MPD2    N1 4420   0.206   0.772  14.427 -0.7930  0.3449 -0.0936
  289MPD2    H7 4421   0.278   0.750  14.495  0.4077  1.9263 -0.8750
  290TMC3    C1 4422   4.494   0.561  13.983 -0.5044  0.1577  0.0146
  290TMC3    C2 4423   4.399   0.650  13.957  0.2119 -0.5443 -0.1405
  290TMC3    C3 4424   4.328   0.624  13.837  0.5941  0.3837  0.1353
  290TMC3    C4 4425   4.524   0.445  13.912 -0.9761 -0.6723 -0.1470
  290TMC3    C5 4426   4.454   0.420  13.801  0.5048 -0.1734  0.5048
  290TMC3    C6 4427   4.361   0.515  13.758  0.1188  0.1782 -0.3888
  290TMC3     C 4428   4.600   0.610  14.070 -1.0372  0.4521  0.1852
  290TMC3     O 4429   4.604   0.733  14.074 -0.7693  0.4279  0.2807
  290TMC3     H 4430   4.400   0.742  14.013  0.4606  0.4582 -1.7821
  290TMC3    H1 4431   4.611   0.382  13.929 -1.8715 -1.5169  1.3089
  290TMC3    H2 4432   4.313   0.499  13.662 -0.6027 -0.6007  0.0933
  290TMC3    C7 4433   4.501   0.327  13.705 -0.3438  0.0796  0.6278
  290TMC3    C8 4434   4.271   0.734  13.766  0.1795  0.2362  0.5356
  290TMC3    O1 4435   4.503   0.362  13.592 -0.3495  0.0734  0.0415
  290TMC3    O2 4436   4.270   0.729  13.641  0.0897 -0.2708 -0.0226
  291MPD2     C 4437   3.778   0.577   0.380  0.9165 -0.4656  0.0084
  291MPD2    C1 4438   3.880   0.534   0.464  0.4799 -0.6816  0.1977
  291MPD2    C2 4439   3.979   0.625   0.482  0.9639  0.2380 -0.0946
  291MPD2    C3 4440   3.982   0.750   0.419 -0.2893  0.5468  0.1768
  291MPD2    C4 4441   3.870   0.792   0.344  0.1038  0.5409  0.5143
  291MPD2    C5 4442   3.767   0.703   0.333 -0.2065  0.2894 -0.5494
  291MPD2     H 4443   4.065   0.590   0.538  0.6341  1.1712  0.9969
  291MPD2    H1 4444   3.872   0.892   0.304  1.8989 -0.3990 -1.7552
  291MPD2    H2 4445   3.685   0.525   0.361 -0.0399  1.7362 -1.2303
  291MPD2    H3 4446   3.680   0.731   0.275  0.9137 -0.4025 -2.5383
  291MPD2     N 4447   4.092   0.836   0.416 -0.1736 -0.7665  0.2224
  291MPD2    H5 4448   4.077   0.923   0.365 -2.0985  0.2573  2.5359
  291MPD2    N1 4449   3.870   0.409   0.524 -0.0836  0.1358  0.5921
  291MPD2    H7 4450   3.924   0.393   0.608  1.2264  2.3491  0.1880
  292TMC3    C1 4451   3.795   0.176   0.540 -0.4562  0.2516  0.1519
  292TMC3    C2 4452   3.815   0.170   0.676 -0.4939 -0.0682  0.5851
  292TMC3    C3 4453   3.802   0.045   0.725  0.0466  0.7736 -0.0801
  292TMC3    C4 4454   3.774   0.070   0.456  0.6744  0.8120  0.2339
  292TMC3    C5 4455   3.769   4.686   0.515  0.2017 -0.6230  0.1403
  292TMC3    C6 4456   3.775   4.672   0.654 -0.4393 -0.2636  0.2835
  292TMC3     C 4457   3.772   0.311   0.487 -0.3257 -0.0851  0.0828
  292TMC3     O 4458   3.692   0.302   0.394 -0.4443 -0.6313 -0.1240
  292TMC3     H 4459   3.827   0.258   0.738  1.4329  0.4186 -0.5071
  292TMC3    H1 4460   3.749   0.086   0.352 -0.3349  0.8246  0.4699
  292TMC3    H2 4461   3.773   4.576   0.704  0.3055  1.0071  2.7128
  292TMC3    C7 4462   3.774   4.564   0.441  0.5161 -0.4962 -0.9423
  292TMC3    C8 4463   3.797   0.019   0.871 -0.2507  0.2149 -0.2407
  292TMC3    O1 4464   3.822   4.465   0.500 -0.0805 -0.1353 -0.8419
  292TMC3    O2 4465   3.878   0.079   0.944 -0.6399  0.6703 -0.2782
  293MPD2     C 4466   0.789   2.221  12.738  0.0722 -0.2656 -0.1868
  293MPD2    C1 4467   0.688   2.223  12.826 -0.2645  0.7731 -0.2460
  293MPD2    C2 4468   0.718   2.254  12.959  0.2246  0.2072  0.5863
  293MPD2    C3 4469   0.851   2.265  12.998 -0.2296 -0.1672  0.5120
  293MPD2    C4 4470   0.957   2.262  12.904  0.0232 -0.6444 -0.4364
  293MPD2    C5 4471   0.923   2.230  12.774 -0.3082 -0.7304  0.1170
  293MPD2     H 4472   0.646   2.260  13.039 -0.7170 -0.8743 -0.1785
  293MPD2    H1 4473   1.060   2.275  12.935  1.0894 -0.2199 -4.1887
  293MPD2    H2 4474   0.768   2.211  12.632 -0.3191  0.4554 -0.1805
  293MPD2    H3 4475   0.998   2.224  12.697 -0.7635  3.4994 -0.6549
  293MPD2     N 4476   0.871   2.303  13.135 -0.2667  0.4145 -0.2120
  293MPD2    H5 4477   0.791   2.277  13.192 -0.5240 -2.2412 -1.8286
  293MPD2    N1 4478   0.551   2.228  12.779  0.2020 -0.6771  0.3479
  293MPD2    H7 4479   0.539   2.223  12.678  0.6281  0.5295  0.2331
  294TMC3    C1 4480   0.321   2.258  12.787  0.0504 -0.4109  0.1963
  294TMC3    C2 4481   0.216   2.182  12.827 -0.3419  0.4276  0.2021
  294TMC3    C3 4482   0.116   2.149  12.735 -0.1218 -0.1287 -0.8664
  294TMC3    C4 4483   0.312   2.323  12.664 -0.0476 -0.1300  0.3854
  294TMC3    C5 4484   0.209   2.293  12.582 -0.6192 -0.2812  0.1789
  294TMC3    C6 4485   0.102   2.209  12.617  0.5462  0.1151 -0.3790
  294TMC3     C 4486   0.443   2.235  12.863  0.5220 -0.2700 -0.2546
  294TMC3     O 4487   0.428   2.225  12.981  0.1210  0.4567  0.3499
  294TMC3     H 4488   0.227   2.119  12.915 -0.8178 -0.9692 -0.7422
  294TMC3    H1 4489   0.388   2.395  12.637 -0.8645  0.1386 -1.2083
  294TMC3    H2 4490   0.019   2.192  12.550 -0.0407 -0.7073  0.5566
  294TMC3    C7 4491   0.221   2.311  12.437  0.2152 -0.2448 -0.1315
  294TMC3    C8 4492   0.060   2.022  12.736  0.0713  1.5034 -0.0927
  294TMC3    O1 4493   0.123   2.304  12.363 -0.7187  0.3345 -0.0993
  294TMC3    O2 4494   0.041   1.965  12.844 -0.4244 -0.0195  0.2001
  295MPD2     C 4495   1.857   0.274   0.760 -0.7833 -0.3469 -0.0647
  295MPD2    C1 4496   1.747   0.322   0.831 -0.3749  0.7406 -0.1451
  295MPD2    C2 4497   1.680   0.240   0.921 -0.0616 -0.5041  0.3047
  295MPD2    C3 4498   1.706   0.104   0.923  0.7751 -0.0739  0.0800
  295MPD2    C4 4499   1.805   0.053   0.844  0.2549  0.3146 -0.4928
  295MPD2    C5 4500   1.885   0.144   0.768  0.0235 -0.1808  0.6836
  295MPD2     H 4501   1.607   0.280   0.990  1.1148  0.6070  0.9045
  295MPD2    H1 4502   1.840   4.690   0.858  0.8585  0.5240 -0.4592
  295MPD2    H2 4503   1.923   0.335   0.700 -0.5696 -1.2613 -0.7760
  295MPD2    H3 4504   1.977   0.099   0.730  0.7443 -0.6337  2.9863
  295MPD2     N 4505   1.637   0.014   1.009 -0.0840 -0.3563 -0.9176
  295MPD2    H5 4506   1.651   4.654   0.989  0.6720 -0.5280  0.4138
  295MPD2    N1 4507   1.698   0.455   0.820  0.7537 -0.0729 -0.2314
  295MPD2    H7 4508   1.617   0.478   0.877  2.1129 -0.3812  1.7692
  296TMC3    C1 4509   1.466   4.663   1.151  0.3661 -0.0123  0.0040
  296TMC3    C2 4510   1.355   4.698   1.228  0.0715  0.0011 -1.2694
  296TMC3    C3 4511   1.308   4.610   1.314 -0.4533 -0.1011 -0.6974
  296TMC3    C4 4512   1.546   4.556   1.186  0.2907 -0.3289  0.2949
  296TMC3    C5 4513   1.499   4.470   1.285  0.0858  0.4883 -0.1110
  296TMC3    C6 4514   1.375   4.501   1.348 -0.2266  0.0410  0.1393
  296TMC3     C 4515   1.525   0.044   1.094 -0.1797 -0.4235  0.0550
  296TMC3     O 4516   1.485   0.158   1.126  0.1572 -0.1148 -0.3137
  296TMC3     H 4517   1.296   0.042   1.189  0.8644  2.0227  1.8175
  296TMC3    H1 4518   1.644   4.528   1.149 -0.0227 -0.4439 -0.4472
  296TMC3    H2 4519   1.325   4.427   1.410 -1.7714  1.6666  0.8289
  296TMC3    C7 4520   1.588   4.363   1.345 -0.1625  0.4402 -1.0968
  296TMC3    C8 4521   1.198   4.657   1.405 -1.2795  0.4218 -0.5619
  296TMC3    O1 4522   1.699   4.364   1.299  0.3024 -0.4992  0.2289
  296TMC3    O2 4523   1.177   4.576   1.494  0.5668 -0.1678  0.1160
  297MPD2     C 4524   3.605   2.119  16.019 -0.0693 -0.1259 -0.0602
  297MPD2    C1 4525   3.590   2.248  15.975  0.5782 -0.0942  0.0167
  297MPD2    C2 4526   3.687   2.344  16.011 -0.4145 -0.1945 -0.3267
  297MPD2    C3 4527   3.803   2.296  16.072 -0.4559 -0.1414  0.1405
  297MPD2    C4 4528   3.821   2.165  16.111  0.4215  0.1125  0.3761
  297MPD2    C5 4529   3.722   2.076  16.082 -0.2654  0.1625 -0.7894
  297MPD2     H 4530   3.680   2.450  15.991  1.0804 -0.0396 -0.0250
  297MPD2    H1 4531   3.909   2.124  16.158  0.3873  4.2913  4.1701
  297MPD2    H2 4532   3.539   2.036  15.997  0.5037 -0.0822 -1.8877
  297MPD2    H3 4533   3.733   1.972  16.109 -2.0891 -0.1435 -1.2404
  297MPD2     N 4534   3.900   2.394  16.097  0.1386 -0.2760 -0.1309
  297MPD2    H5 4535   3.877   2.488  16.067 -0.0039 -0.6351 -1.1335
  297MPD2    N1 4536   3.476   2.298  15.906 -0.1216  0.1533  0.5960
  297MPD2    H7 4537   3.456   2.397  15.900  0.2292  0.0663 -1.8386
  298TMC3    C1 4538   3.301   2.288  15.763 -0.3988  0.2311  0.9754
  298TMC3    C2 4539   3.340   2.284  15.630 -0.8121 -0.7303  0.3332
  298TMC3    C3 4540   3.326   2.389  15.543  0.1796 -0.2794  0.5092
  298TMC3    C4 4541   3.266   2.410  15.818 -0.0360 -0.2612 -0.0128
  298TMC3    C5 4542   3.238   2.512  15.731 -0.3824  0.0448  0.0855
  298TMC3    C6 4543   3.257   2.497  15.590 -1.0259 -0.3780 -0.1300
  298TMC3     C 4544   3.393   2.210  15.841  0.8606  1.0839  0.2012
  298TMC3     O 4545   3.425   2.093  15.810 -0.0089 -0.2066  0.3315
  298TMC3     H 4546   3.389   2.195  15.592 -0.7333  0.2781 -1.9272
  298TMC3    H1 4547   3.216   2.397  15.913  1.4029  0.2002  0.8052
  298TMC3    H2 4548   3.229   2.573  15.517 -3.1558  0.3416  1.4346
  298TMC3    C7 4549   3.176   2.630  15.778 -0.3916  0.6801 -0.4120
  298TMC3    C8 4550   3.346   2.371  15.402  0.1281 -0.2126 -0.0692
  298TMC3    O1 4551   3.118   2.617  15.886 -0.2650  0.2868  0.2200
  298TMC3    O2 4552   3.295   2.447  15.320  0.1997  0.6543 -0.3454
  299MPD2     C 4553   3.751   2.331  10.871  0.4077 -0.4471 -0.0335
  299MPD2    C1 4554   3.801   2.457  10.874 -0.6280  0.7294  0.0148
  299MPD2    C2 4555   3.727   2.552  10.799 -0.4465  0.2350  0.0983
  299MPD2    C3 4556   3.616   2.521  10.723 -0.2943 -0.2944  0.3678
  299MPD2    C4 4557   3.574   2.396  10.731 -0.0062 -0.4375  0.2899
  299MPD2    C5 4558   3.636   2.300  10.804 -0.2935 -0.4221 -0.0302
  299MPD2     H 4559   3.771   2.651  10.796  0.1403 -0.0414 -0.3677
  299MPD2    H1 4560   3.489   2.363  10.672 -0.4773  1.6154 -0.1975
  299MPD2    H2 4561   3.806   2.250  10.917 -3.0854 -1.6296  1.9915
  299MPD2    H3 4562   3.593   2.201  10.818 -0.2211 -0.3852  0.4298
  299MPD2     N 4563   3.543   2.617  10.646  0.2762  0.0913 -0.3767
  299MPD2    H5 4564   3.456   2.582  10.607 -0.4838  1.0444  0.4524
  299MPD2    N1 4565   3.920   2.485  10.954 -0.0844  0.5386 -0.3157
  299MPD2    H7 4566   3.960   2.407  11.006  0.5653  0.3576 -1.0890
  300TMC3    C1 4567   3.491   2.820  10.530 -0.0478 -0.0246  0.3557
  300TMC3    C2 4568   3.540   2.921  10.448  0.1942  0.4127  0.7852
  300TMC3    C3 4569   3.449   2.998  10.376 -0.1029  0.5514  0.1071
  300TMC3    C4 4570   3.356   2.784  10.541 -0.5326 -0.1880 -0.5726
  300TMC3    C5 4571   3.266   2.862  10.462  0.4749  0.9219  0.6927
  300TMC3    C6 4572   3.315   2.970  10.391 -0.2296 -0.5036  0.2657
  300TMC3     C 4573   3.585   2.747  10.618  0.2535 -0.0014 -0.3146
  300TMC3     O 4574   3.694   2.796  10.637  0.2057 -0.4367  0.2510
  300TMC3     H 4575   3.647   2.936  10.454  0.0443  0.8947  2.1289
  300TMC3    H1 4576   3.325   2.704  10.608 -2.4204  0.1805 -0.9942
  300TMC3    H2 4577   3.237   3.016  10.333 -1.3212 -3.0330 -0.2762
  300TMC3    C7 4578   3.124   2.837  10.467 -0.1194  0.4810  0.0737
  300TMC3    C8 4579   3.494   3.113  10.297  0.0978 -0.0881 -0.2589
  300TMC3    O1 4580   3.060   2.928  10.424  0.2817 -0.6222  0.3087
  300TMC3    O2 4581   3.409   3.202  10.279 -0.2783 -0.6687  0.6393
  301MPD2     C 4582   1.788   3.367   1.503 -0.1366 -0.1027 -0.0530
  301MPD2    C1 4583   1.694   3.346   1.402  0.2854 -0.4685 -0.2624
  301MPD2    C2 4584   1.710   3.234   1.326 -0.2727 -0.2494 -0.0940
  301MPD2    C3 4585   1.800   3.132   1.352 -0.7139 -0.0096 -0.0776
  301MPD2    C4 4586   1.900   3.159   1.442 -0.1935 -0.3116  0.1861
  301MPD2    C5 4587   1.895   3.272   1.523 -0.0523 -0.0394 -0.3792
  301MPD2     H 4588   1.646   3.227   1.239 -0.6148  1.5375  0.0056
  301MPD2    H1 4589   1.984   3.093   1.460  1.4802  2.4933  2.7647
  301MPD2    H2 4590   1.786   3.463   1.553 -1.6053  0.1658 -0.6232
  301MPD2    H3 4591   1.976   3.301   1.590 -0.4847 -0.2741  0.2474
  301MPD2     N 4592   1.810   3.016   1.271 -0.2555  0.1530  0.2457
  301MPD2    H5 4593   1.888   2.955   1.294  1.8813  2.4684 -0.7750
  301MPD2    N1 4594   1.588   3.436   1.371 -0.3857  0.2016  0.5122
  301MPD2    H7 4595   1.517   3.403   1.306  0.3293 -0.9744  0.3354
  302TMC3    C1 4596   1.762   2.861   1.102 -0.1752 -1.1763  0.7651
  302TMC3    C2 4597   1.809   2.754   1.181 -0.2633  0.6234 -0.2172
  302TMC3    C3 4598   1.837   2.633   1.114 -0.6889  0.0197 -0.2427
  302TMC3    C4 4599   1.728   2.848   0.974  0.1594 -0.1260  0.1709
  302TMC3    C5 4600   1.757   2.726   0.917  0.3411 -0.0958 -0.2929
  302TMC3    C6 4601   1.816   2.623   0.980  0.0842 -0.1024 -0.2743
  302TMC3     C 4602   1.730   2.992   1.160  0.0765 -0.0562 -0.6264
  302TMC3     O 4603   1.645   3.063   1.110  0.0918 -0.2016 -0.1879
  302TMC3     H 4604   1.822   2.759   1.288  0.4361  2.1620 -0.3826
  302TMC3    H1 4605   1.676   2.927   0.921  0.9730  0.0600 -0.3477
  302TMC3    H2 4606   1.846   2.532   0.927 -0.3984 -0.0892 -0.5642
  302TMC3    C7 4607   1.712   2.701   0.783 -0.1561  0.6682  0.4314
  302TMC3    C8 4608   1.868   2.510   1.188 -0.6581 -0.3295 -1.3562
  302TMC3    O1 4609   1.766   2.605   0.729  0.7934  0.4173 -0.4636
  302TMC3    O2 4610   1.916   2.414   1.127  0.2532  0.2557  0.4753
  303MPD2     C 4611   1.469   2.663  11.089 -0.4085 -0.6882  0.6406
  303MPD2    C1 4612   1.492   2.526  11.089 -0.2623  0.4918  0.4478
  303MPD2    C2 4613   1.511   2.459  10.970 -0.1537 -0.1313  0.0013
  303MPD2    C3 4614   1.514   2.533  10.854 -0.2261  1.1041 -0.2320
  303MPD2    C4 4615   1.512   2.673  10.857  0.3457  0.4582  0.7495
  303MPD2    C5 4616   1.494   2.733  10.974  0.3831 -0.3915  0.4237
  303MPD2     H 4617   1.502   2.351  10.967  1.4398 -0.2940  0.8851
  303MPD2    H1 4618   1.529   2.729  10.766 -3.0926  1.8813  0.9706
  303MPD2    H2 4619   1.443   2.713  11.182 -1.0494  0.5393 -0.1995
  303MPD2    H3 4620   1.499   2.841  10.980 -2.5944 -0.2142 -0.4071
  303MPD2     N 4621   1.516   2.476  10.723 -0.1682 -1.2110 -0.4008
  303MPD2    H5 4622   1.498   2.540  10.646  2.2543 -0.0873 -0.0523
  303MPD2    N1 4623   1.476   2.459  11.210 -0.1140  0.1910 -0.3026
  303MPD2    H7 4624   1.431   2.506  11.288 -0.7810 -1.8361  0.5232
  304TMC3    C1 4625   1.476   2.275  11.350  0.1986 -0.2052  0.2837
  304TMC3    C2 4626   1.339   2.292  11.383  0.0220 -0.4887  0.1179
  304TMC3    C3 4627   1.279   2.202  11.458  0.8103 -0.1778 -0.2139
  304TMC3    C4 4628   1.556   2.167  11.390 -0.4307 -0.2004  0.2449
  304TMC3    C5 4629   1.481   2.075  11.463 -0.4596 -0.4345  0.3211
  304TMC3    C6 4630   1.348   2.090  11.499 -0.3409  0.6540  0.0896
  304TMC3     C 4631   1.531   2.336  11.230  0.4407  0.2417  0.5834
  304TMC3     O 4632   1.609   2.264  11.168 -0.3158  0.5365 -0.7460
  304TMC3     H 4633   1.273   2.362  11.334  1.3456  1.2568  0.8313
  304TMC3    H1 4634   1.661   2.156  11.364 -0.6324 -1.3502 -0.0743
  304TMC3    H2 4635   1.300   2.014  11.560 -0.9698  0.3481 -0.7884
  304TMC3    C7 4636   1.524   1.935  11.448 -0.5959 -0.1018  0.1860
  304TMC3    C8 4637   1.144   2.163  11.427  0.0719 -0.2772 -0.0774
  304TMC3    O1 4638   1.646   1.903  11.454 -0.1078  0.4772  0.3704
  304TMC3    O2 4639   1.130   2.155  11.306 -0.2773  0.5750 -0.0176
  305MPD2     C 4640   0.097   4.026  13.878  0.2365  0.0689 -0.3006
  305MPD2    C1 4641   0.043   3.917  13.933  0.3755 -0.6068  0.3363
  305MPD2    C2 4642   4.708   3.833  13.852  0.1991  0.8748  0.7894
  305MPD2    C3 4643   4.694   3.843  13.710  0.2630  0.1537 -0.1513
  305MPD2    C4 4644   0.014   3.956  13.654  0.2393 -0.1382  0.8484
  305MPD2    C5 4645   0.073   4.051  13.743 -0.4850 -0.0861 -0.5496
  305MPD2     H 4646   4.661   3.746  13.896  0.7504 -0.9588 -2.2254
  305MPD2    H1 4647   4.737   3.980  13.549  0.4924  2.0007  1.3065
  305MPD2    H2 4648   0.143   4.103  13.939 -3.0101  2.8347 -1.4052
  305MPD2    H3 4649   0.112   4.141  13.696 -3.2538  1.2825 -0.2492
  305MPD2     N 4650   4.643   3.744  13.625 -0.0724  0.8009 -0.1507
  305MPD2    H5 4651   4.661   3.765  13.528  1.0757  1.0282  0.1159
  305MPD2    N1 4652   0.058   3.900  14.073  0.8043  0.3204 -0.3454
  305MPD2    H7 4653   0.108   3.974  14.122  0.8695  0.2544 -0.3116
  306TMC3    C1 4654   0.038   3.830  14.289 -0.1068  0.0819  0.4335
  306TMC3    C2 4655   0.060   3.718  14.358  0.5893 -0.1918  0.0337
  306TMC3    C3 4656   0.122   3.724  14.482 -0.5267 -0.3819 -0.1381
  306TMC3    C4 4657   0.107   3.950  14.317 -0.5190  0.4249 -1.0280
  306TMC3    C5 4658   0.183   3.944  14.428  0.1944 -0.6011  0.3458
  306TMC3    C6 4659   0.194   3.839  14.511  0.9879 -0.6671 -1.1428
  306TMC3     C 4660   4.735   3.805  14.157 -0.6317  0.4217 -0.6903
  306TMC3     O 4661   4.672   3.705  14.127  0.3327  0.7885  0.2105
  306TMC3     H 4662   0.037   3.624  14.309  0.4335  0.1226 -0.4920
  306TMC3    H1 4663   0.069   4.044  14.279 -1.3326  0.0842 -1.0646
  306TMC3    H2 4664   0.265   3.847  14.592 -0.2579 -0.2136 -0.1070
  306TMC3    C7 4665   0.236   4.069  14.458  0.1369  0.9444 -0.0316
  306TMC3    C8 4666   0.183   3.601  14.516  0.2811  0.4865  0.1390
  306TMC3    O1 4667   0.239   4.154  14.369  0.1457 -0.0265 -0.1900
  306TMC3    O2 4668   0.165   3.501  14.450 -0.2528  0.3887  0.2170
  307MPD2     C 4669   2.643   1.559  17.593 -0.4957 -0.1229  0.1872
  307MPD2    C1 4670   2.647   1.696  17.579  0.5618  0.4351  0.4541
  307MPD2    C2 4671   2.664   1.771  17.692 -0.2067  0.4817  0.2153
  307MPD2    C3 4672   2.661   1.719   0.066  0.7898  0.4872  0.5419
  307MPD2    C4 4673   2.639   1.587   0.079  0.0952  0.2968  0.0317
  307MPD2    C5 4674   2.640   1.503  17.725 -0.1104 -0.1182  0.2139
  307MPD2     H 4675   2.676   1.877  17.673  2.8083 -0.0864 -0.8977
  307MPD2    H1 4676   2.637   1.546   0.180 -0.5207  1.7930  0.6289
  307MPD2    H2 4677   2.623   1.489  17.512  1.2210  0.6827 -0.9269
  307MPD2    H3 4678   2.630   1.395  17.733  1.5731 -0.2987 -0.0789
  307MPD2     N 4679   2.642   1.792   0.180  0.1088 -0.1003  0.1866
  307MPD2    H5 4680   2.630   1.747   0.270 -0.3209 -0.0900  0.1317
  307MPD2    N1 4681   2.641   1.761  17.454 -0.5057  0.0878  0.2877
  307MPD2    H7 4682   2.636   1.862  17.443 -1.5493  0.1177  0.9417
  308TMC3    C1 4683   2.381   1.960   0.446  0.1312  0.1352  0.5310
  308TMC3    C2 4684   2.390   2.089   0.492  0.4547  0.1278 -0.1243
  308TMC3    C3 4685   2.486   2.164   0.431  0.7057  0.1929 -0.1720
  308TMC3    C4 4686   2.473   1.895   0.369 -0.2722 -0.0977 -0.7159
  308TMC3    C5 4687   2.570   1.973   0.312 -0.0280 -0.2496  0.7746
  308TMC3    C6 4688   2.573   2.106   0.341 -0.3286 -0.8684 -0.4385
  308TMC3     C 4689   2.249   1.898   0.453  0.2826 -0.0601 -0.4481
  308TMC3     O 4690   2.252   1.772   0.459  0.0141  0.1296  0.3621
  308TMC3     H 4691   2.326   2.134   0.567  0.7834 -2.5441  1.7598
  308TMC3    H1 4692   2.461   1.788   0.355  0.9390  0.2704 -4.3872
  308TMC3    H2 4693   2.645   2.154   0.276 -0.5664 -0.5343 -0.4542
  308TMC3    C7 4694   2.631   1.932   0.185 -0.2014 -0.4663  0.5511
  308TMC3    C8 4695   2.482   2.306   0.456  0.3959  0.8629 -0.1328
  308TMC3    O1 4696   2.640   2.016   0.100 -0.4969 -0.0664 -0.1812
  308TMC3    O2 4697   2.418   2.356   0.544 -0.2160 -0.5476  0.0165
  309MPD2     C 4698   1.533   2.245  17.328 -0.3343 -0.9147 -0.0883
  309MPD2    C1 4699   1.460   2.190  17.220 -0.1556 -0.3992  0.5216
  309MPD2    C2 4700   1.322   2.197  17.228  0.3902 -0.6120  0.8326
  309MPD2    C3 4701   1.264   2.250  17.342 -0.6034  0.0421 -0.9284
  309MPD2    C4 4702   1.339   2.295  17.446  0.0775  0.4788  0.2155
  309MPD2    C5 4703   1.472   2.304  17.436 -0.6954 -0.2621 -0.0913
  309MPD2     H 4704   1.264   2.161  17.144 -1.6847 -1.5451  2.6735
  309MPD2    H1 4705   1.295   2.326  17.541  1.6999  1.5507  0.6163
  309MPD2    H2 4706   1.642   2.243  17.333 -0.1983  0.5706 -2.1894
  309MPD2    H3 4707   1.531   2.342  17.519 -1.3677  0.5474  0.0155
  309MPD2     N 4708   1.118   2.248  17.358  0.1469 -0.5363  0.6778
  309MPD2    H5 4709   1.088   2.288  17.447  2.9459  1.9579  0.5420
  309MPD2    N1 4710   1.514   2.141  17.103  0.1817 -0.6675  0.0480
  309MPD2    H7 4711   1.452   2.112  17.027  2.0512 -1.4272 -1.1683
  310TMC3    C1 4712   1.668   2.107  16.944 -0.0538  0.6893  0.4223
  310TMC3    C2 4713   1.584   2.168  16.853 -0.6018  0.2693  0.7395
  310TMC3    C3 4714   1.617   2.163  16.719 -0.1246  0.4346 -0.2606
  310TMC3    C4 4715   1.785   2.054  16.904  0.2560 -0.6121 -0.2735
  310TMC3    C5 4716   1.821   2.066  16.775  0.1002 -0.5940 -0.5339
  310TMC3    C6 4717   1.740   2.115  16.679 -0.0131  0.1859  0.3275
  310TMC3     C 4718   1.642   2.119  17.088 -0.0000  0.8440 -0.3302
  310TMC3     O 4719   1.734   2.100  17.170 -0.1328 -0.0315 -0.0551
  310TMC3     H 4720   1.494   2.219  16.884 -0.0446  0.4468  2.0582
  310TMC3    H1 4721   1.852   2.007  16.975  0.9491  0.5778 -0.1546
  310TMC3    H2 4722   1.764   2.109  16.574 -0.7100  0.0054  0.1811
  310TMC3    C7 4723   1.946   2.008  16.734 -0.5437  0.1744  0.4849
  310TMC3    C8 4724   1.528   2.203  16.615 -0.5883  0.5049  0.8347
  310TMC3    O1 4725   2.005   1.942  16.817  0.1332  0.6664  0.4630
  310TMC3    O2 4726   1.584   2.221  16.509 -0.8644  0.0281  0.8512
  311MPD2     C 4727   3.209   3.751  12.545  0.1085  0.7337 -0.3038
  311MPD2    C1 4728   3.228   3.798  12.673  0.9588 -0.6005  0.0515
  311MPD2    C2 4729   3.114   3.836  12.757 -0.0185 -0.2182  0.8684
  311MPD2    C3 4730   2.988   3.827  12.703  0.3678  0.0487  0.0587
  311MPD2    C4 4731   2.967   3.782  12.574  0.4539  0.1267 -0.0575
  311MPD2    C5 4732   3.078   3.751  12.498 -0.5244 -1.2005 -0.0371
  311MPD2     H 4733   3.117   3.865  12.861 -3.3666 -0.5641  1.0702
  311MPD2    H1 4734   2.867   3.775  12.532 -0.0081  1.7918  0.7725
  311MPD2    H2 4735   3.292   3.712  12.486 -0.3386  0.8777 -1.0279
  311MPD2    H3 4736   3.063   3.721  12.395 -1.0780  1.1541 -0.6635
  311MPD2     N 4737   2.889   3.872  12.793  0.7973  0.2557 -0.3011
  311MPD2    H5 4738   2.912   3.936  12.869 -0.5073 -0.4988  0.7273
  311MPD2    N1 4739   3.351   3.826  12.731  0.0789 -0.0865  0.2549
  311MPD2    H7 4740   3.346   3.881  12.817  2.4311 -0.9548  0.9460
  312TMC3    C1 4741   2.684   3.905  12.896  0.3641  0.9496 -0.4618
  312TMC3    C2 4742   2.546   3.882  12.894  0.2980 -0.3709  0.4055
  312TMC3    C3 4743   2.479   3.889  13.015 -0.4884  0.0703  0.6365
  312TMC3    C4 4744   2.750   3.934  13.014  0.5017  0.1567  0.1459
  312TMC3    C5 4745   2.677   3.927  13.129  0.5218 -0.1750 -0.3027
  312TMC3    C6 4746   2.543   3.921  13.128  0.3846  0.1951  0.4701
  312TMC3     C 4747   2.757   3.864  12.778  0.5510 -0.6209  0.1112
  312TMC3     O 4748   2.699   3.804  12.686 -0.8251 -0.1901 -0.5468
  312TMC3     H 4749   2.495   3.871  12.799 -0.7508 -0.0465  0.9238
  312TMC3    H1 4750   2.858   3.941  13.023  0.7459 -1.7683 -1.3672
  312TMC3    H2 4751   2.487   3.941  13.219  0.7395  0.8612  0.5454
  312TMC3    C7 4752   2.748   3.988  13.243 -0.0029 -0.1303 -0.1362
  312TMC3    C8 4753   2.383   3.783  13.047 -0.0710  0.1647  0.1277
  312TMC3    O1 4754   2.778   3.919  13.342  0.0551 -0.0831  0.2602
  312TMC3    O2 4755   2.363   3.769  13.166 -0.1513  0.6668  0.3032
  313MPD2     C 4756   2.997   3.955  10.681  0.0413 -0.2917 -0.2412
  313MPD2    C1 4757   2.955   3.845  10.746  0.3739 -0.6009  0.7716
  313MPD2    C2 4758   2.914   3.734  10.672  0.0096  0.5867 -0.0025
  313MPD2    C3 4759   2.908   3.730  10.534  0.1778 -0.2732 -0.5158
  313MPD2    C4 4760   2.943   3.843  10.465  0.0083 -0.2858  1.0942
  313MPD2    C5 4761   2.993   3.954  10.541 -0.3912 -0.0089  0.5346
  313MPD2     H 4762   2.882   3.641  10.717  1.1699  0.3384  0.3034
  313MPD2    H1 4763   2.966   3.831  10.360 -0.3807 -1.5713  1.1669
  313MPD2    H2 4764   3.021   4.047  10.734  2.2534 -1.6006  1.0436
  313MPD2    H3 4765   3.021   4.036  10.476  0.5862 -2.0681 -1.6424
  313MPD2     N 4766   2.861   3.610  10.481 -0.4830 -0.6677  0.2730
  313MPD2    H5 4767   2.822   3.540  10.542 -1.7988 -0.6651 -0.5646
  313MPD2    N1 4768   2.953   3.833  10.890  0.1900  0.0283  0.3402
  313MPD2    H7 4769   2.901   3.756  10.930  1.3673 -0.3559  1.1415
  314TMC3    C1 4770   2.948   3.926  11.104 -0.0252 -0.4554  0.8178
  314TMC3    C2 4771   3.013   4.006  11.195 -0.4392 -0.5344 -0.1775
  314TMC3    C3 4772   2.946   4.071  11.294 -0.8659  0.0808 -0.2565
  314TMC3    C4 4773   2.814   3.922  11.110  0.7261  1.0067  0.1295
  314TMC3    C5 4774   2.747   3.982  11.211 -0.0441  0.3494 -0.0550
  314TMC3    C6 4775   2.811   4.064  11.293 -0.2333 -0.1752 -0.3998
  314TMC3     C 4776   3.008   3.915  10.975  0.3210  0.4375 -0.8476
  314TMC3     O 4777   3.092   4.004  10.963 -0.4307  0.2185 -0.1116
  314TMC3     H 4778   3.120   4.022  11.186 -0.4715  2.1494  3.9644
  314TMC3    H1 4779   2.752   3.877  11.033 -0.7038  1.2086  1.1588
  314TMC3    H2 4780   2.770   4.113  11.380  1.0169  0.7791 -0.3409
  314TMC3    C7 4781   2.601   3.994  11.197 -0.0292  0.3454 -0.3065
  314TMC3    C8 4782   3.009   4.175  11.379  0.4970 -0.3670  0.5394
  314TMC3    O1 4783   2.533   3.953  11.290 -0.2538 -0.2439  0.0861
  314TMC3    O2 4784   2.959   4.286  11.362 -0.1135 -0.5630 -0.0073
  315MPD2     C 4785   2.960   1.876  17.146  0.3839  0.1428  0.3827
  315MPD2    C1 4786   2.963   1.934  17.275 -0.7590  0.6850  0.1847
  315MPD2    C2 4787   2.977   2.070  17.288 -0.0207 -0.0563 -1.1099
  315MPD2    C3 4788   2.967   2.145  17.168  0.3664 -0.3632 -0.2807
  315MPD2    C4 4789   2.963   2.086  17.039 -0.5207 -0.2844 -0.7622
  315MPD2    C5 4790   2.957   1.950  17.027  0.0373  0.0530 -0.2235
  315MPD2     H 4791   2.975   2.117  17.386  0.3059 -2.2583 -0.0386
  315MPD2    H1 4792   2.976   2.139  16.945  0.8195 -0.4800 -0.6837
  315MPD2    H2 4793   2.963   1.769  17.136 -0.0847  0.3745 -2.1096
  315MPD2    H3 4794   2.954   1.897  16.933  1.0608 -0.7082  0.1826
  315MPD2     N 4795   2.967   2.287  17.191  0.1515  0.5415  0.0287
  315MPD2    H5 4796   2.970   2.316  17.288 -0.4165  0.8157 -0.0348
  315MPD2    N1 4797   2.966   1.868  17.404  0.0017  0.1166 -0.2586
  315MPD2    H7 4798   2.952   1.918  17.491  0.7950  0.7828 -0.5084
  316TMC3    C1 4799   2.963   2.515  17.152  0.3298  0.0101  0.3359
  316TMC3    C2 4800   3.011   2.535  17.280 -0.1321 -0.0001 -0.2024
  316TMC3    C3 4801   3.032   2.667  17.307  0.3462  0.5407 -0.1677
  316TMC3    C4 4802   2.924   2.618  17.066 -0.6615  0.5497  0.1843
  316TMC3    C5 4803   2.936   2.747  17.111 -0.2160 -0.3616 -0.6312
  316TMC3    C6 4804   2.992   2.769  17.230  0.2088 -0.4204 -0.8525
  316TMC3     C 4805   2.965   2.385  17.088 -0.6483  0.4641  0.0932
  316TMC3     O 4806   2.960   2.380  16.966  0.0018  0.7138 -0.0509
  316TMC3     H 4807   3.072   2.462  17.332  0.9008  1.0111 -0.0012
  316TMC3    H1 4808   2.864   2.606  16.977  0.5603  0.4791 -0.6232
  316TMC3    H2 4809   3.009   2.870  17.262  1.0210  0.1877 -3.2090
  316TMC3    C7 4810   2.856   2.859  17.064  0.0566  1.0076  0.3869
  316TMC3    C8 4811   3.110   2.703  17.428 -0.7769  0.3902  0.6077
  316TMC3    O1 4812   2.842   2.957  17.137  0.4622  0.2626  0.6260
  316TMC3    O2 4813   3.135   2.821  17.442  0.2913  0.1829 -0.1384
  317MPD2     C 4814   0.113   0.823  12.672  0.8701 -0.5362 -0.0299
  317MPD2    C1 4815   0.223   0.737  12.644  0.9927 -0.8494 -0.4142
  317MPD2    C2 4816   0.233   0.631  12.729  0.0829  0.2263  0.2813
  317MPD2    C3 4817   0.135   0.600  12.819 -0.5570  0.2896  0.1797
  317MPD2    C4 4818   0.024   0.677  12.837  0.0245  0.7242  0.0059
  317MPD2    C5 4819   0.012   0.789  12.761  0.4090  0.2257 -0.4520
  317MPD2     H 4820   0.309   0.554  12.714  1.0166  1.2066  0.0117
  317MPD2    H1 4821   4.681   0.648  12.901 -2.2243  1.3693 -2.5347
  317MPD2    H2 4822   0.083   0.903  12.605  2.3721  2.2083  2.5829
  317MPD2    H3 4823   4.663   0.852  12.772 -0.0752 -0.4573 -0.4466
  317MPD2     N 4824   0.154   0.483  12.894 -0.0299 -0.6956  0.7868
  317MPD2    H5 4825   0.250   0.450  12.904  1.1088  1.4188 -2.9708
  317MPD2    N1 4826   0.322   0.770  12.552  0.6559 -0.1755 -0.5695
  317MPD2    H7 4827   0.400   0.707  12.534  2.2002  1.7988 -0.7762
  318TMC3    C1 4828   0.106   0.319  13.049 -0.1895  0.2847  0.5200
  318TMC3    C2 4829   0.035   0.203  13.040  0.3126  0.7331 -0.5283
  318TMC3    C3 4830   0.077   0.095  13.110  0.0245 -0.6879 -0.4725
  318TMC3    C4 4831   0.216   0.332  13.133  0.1350  0.3107  0.0021
  318TMC3    C5 4832   0.253   0.218  13.206  0.0124  0.2919  0.3576
  318TMC3    C6 4833   0.186   0.094  13.193 -0.4857 -0.0537 -0.0455
  318TMC3     C 4834   0.053   0.424  12.968  0.2777 -0.3850  0.4925
  318TMC3     O 4835   4.671   0.423  12.953  0.3177 -0.0671 -0.0154
  318TMC3     H 4836   4.697   0.203  12.963  0.0894 -0.5139 -0.3148
  318TMC3    H1 4837   0.263   0.430  13.146 -0.7475  1.0321 -2.2787
  318TMC3    H2 4838   0.219   0.012  13.255 -1.1730 -0.4627 -0.2282
  318TMC3    C7 4839   0.353   0.232  13.319 -0.3410  0.1532 -0.9809
  318TMC3    C8 4840   4.738   4.718  13.093 -0.0593 -0.2319  0.2371
  318TMC3    O1 4841   0.419   0.133  13.334 -0.3711 -0.0658 -0.4616
  318TMC3    O2 4842   0.047   4.612  13.128  0.2900 -0.0923  0.5111
  319MPD2     C 4843   1.097   1.806  16.529 -0.1952  0.3980 -0.9473
  319MPD2    C1 4844   1.049   1.694  16.591 -0.0560  0.7365  0.1399
  319MPD2    C2 4845   0.933   1.638  16.544 -0.0195 -0.5760 -0.7448
  319MPD2    C3 4846   0.870   1.681  16.426 -0.3639  0.3330  0.0282
  319MPD2    C4 4847   0.913   1.792  16.368 -0.0482 -0.0849  0.2796
  319MPD2    C5 4848   1.028   1.848  16.419 -0.1558  0.4862 -0.1576
  319MPD2     H 4849   0.899   1.556  16.607  0.6572 -0.2927 -0.0143
  319MPD2    H1 4850   0.864   1.838  16.284  0.2365 -1.1687 -0.4780
  319MPD2    H2 4851   1.191   1.852  16.556  0.8051 -1.7538 -0.7843
  319MPD2    H3 4852   1.074   1.927  16.362 -0.7543  0.8841 -0.0949
  319MPD2     N 4853   0.758   1.621  16.364 -0.1415 -1.0158  0.2324
  319MPD2    H5 4854   0.703   1.669  16.294 -0.8948 -0.1893  1.3850
  319MPD2    N1 4855   1.107   1.634  16.705 -0.4167  0.4008 -0.1949
  319MPD2    H7 4856   1.062   1.554  16.748 -0.9035  0.8727  0.1621
  320TMC3    C1 4857   0.585   1.473  16.329  0.0783 -0.5292 -0.4891
  320TMC3    C2 4858   0.538   1.561  16.230  0.3431 -0.6293 -0.5683
  320TMC3    C3 4859   0.458   1.506  16.131 -1.1211  0.4632  0.2123
  320TMC3    C4 4860   0.529   1.344  16.344 -0.4682 -0.7191 -0.1150
  320TMC3    C5 4861   0.434   1.300  16.257 -0.0859 -0.6164  0.2191
  320TMC3    C6 4862   0.399   1.386  16.151  0.1300  0.1231  0.3106
  320TMC3     C 4863   0.704   1.504  16.407 -0.5089 -0.4201  0.1263
  320TMC3     O 4864   0.751   1.416  16.477  0.5554  0.2983 -0.0343
  320TMC3     H 4865   0.561   1.667  16.229  0.0159 -0.5274  1.8095
  320TMC3    H1 4866   0.571   1.283  16.424  0.6282  0.8439  0.4940
  320TMC3    H2 4867   0.326   1.346  16.082 -1.1405  1.3008  0.9870
  320TMC3    C7 4868   0.394   1.160  16.236 -0.1932 -0.5121 -0.2393
  320TMC3    C8 4869   0.406   1.588  16.022  0.3689  0.3659  0.1459
  320TMC3    O1 4870   0.374   1.124  16.120 -0.1912  0.1038  0.0799
  320TMC3    O2 4871   0.418   1.709  16.042 -0.6804  0.0828 -0.3532
  321TMC3    C1 4872   1.264   1.595  16.876 -0.2119  0.0999  0.2065
  321TMC3    C2 4873   1.165   1.536  16.950  0.5755  0.8802 -0.2556
  321TMC3    C3 4874   1.208   1.444  17.041  0.4452 -0.3710 -0.2717
  321TMC3    C4 4875   1.396   1.586  16.894  0.7124 -0.5508  0.0646
  321TMC3    C5 4876   1.432   1.492  16.983  0.7117  0.3223 -0.1310
  321TMC3    C6 4877   1.339   1.415  17.056 -1.1954 -0.4914 -0.1620
  321TMC3     C 4878   1.227   1.678  16.765  0.6876 -0.2829  0.5886
  321TMC3     O 4879   1.309   1.760  16.728 -0.7563 -0.5556 -0.6756
  321TMC3     H 4880   1.059   1.557  16.940  0.1578 -0.7542  0.6871
  321TMC3    H1 4881   1.464   1.645  16.834  1.0071 -0.5520  0.3987
  321TMC3    H2 4882   1.364   1.330  17.118 -0.7506  0.2599  0.6831
  321TMC3    C7 4883   1.537   1.522  17.077 -0.3602  0.6897 -0.1506
  321TMC3    C8 4884   1.145   1.443  17.171  1.0516 -0.2297 -0.1971
  321TMC3    O1 4885   1.514   1.480  17.191  0.5886  0.1847 -0.0396
  321TMC3    O2 4886   1.024   1.462  17.179 -0.5400 -0.0821 -0.5280
  322MPD2     C 4887   4.359   3.298  13.576 -0.0895  0.5731  0.0505
  322MPD2    C1 4888   4.429   3.225  13.670  0.0920 -0.3547  0.6163
  322MPD2    C2 4889   4.498   3.113  13.626  0.1399  0.4246 -0.1354
  322MPD2    C3 4890   4.511   3.078  13.496 -0.1327 -0.7394 -0.2175
  322MPD2    C4 4891   4.459   3.161  13.403  0.0527  0.5059  0.3921
  322MPD2    C5 4892   4.378   3.261  13.444  0.8880 -0.1604  0.4324
  322MPD2     H 4893   4.548   3.047  13.696  0.2302 -0.5951 -1.1774
  322MPD2    H1 4894   4.453   3.142  13.297 -0.4791  0.3366  0.4556
  322MPD2    H2 4895   4.282   3.370  13.598  0.0066  1.3306 -2.0819
  322MPD2    H3 4896   4.319   3.315  13.371  1.3725 -0.5569 -0.2483
  322MPD2     N 4897   4.582   2.956  13.461 -0.2202 -0.0368 -0.2177
  322MPD2    H5 4898   4.586   2.888  13.537 -0.8219 -1.1406 -1.1773
  322MPD2    N1 4899   4.433   3.270  13.804 -0.2146  0.5600  0.6446
  322MPD2    H7 4900   4.413   3.369  13.818 -3.5456 -0.0370  0.1162
  323TMC3    C1 4901   4.517   3.258  14.023 -0.2210 -0.5813 -0.0133
  323TMC3    C2 4902   4.623   3.334  13.987  0.2141  0.4174 -0.7318
  323TMC3    C3 4903   4.715   3.350  14.087  0.0793  0.3234  0.2067
  323TMC3    C4 4904   4.498   3.192  14.141  0.4728 -0.4925  0.5713
  323TMC3    C5 4905   4.576   3.237  14.239  0.7722 -0.4387  0.0238
  323TMC3    C6 4906   4.691   3.311  14.216 -0.2143  0.2302 -0.2730
  323TMC3     C 4907   4.465   3.191  13.910  0.3791  0.2904 -0.1353
  323TMC3     O 4908   4.471   3.067  13.910  0.1328  0.4239 -0.4979
  323TMC3     H 4909   4.636   3.362  13.883 -2.8483 -0.4100 -1.3574
  323TMC3    H1 4910   4.414   3.124  14.148  0.0112  0.1800  1.5455
  323TMC3    H2 4911   0.035   3.312  14.287 -3.6652  0.8056  3.7293
  323TMC3    C7 4912   4.560   3.169  14.363  0.0472  0.4916 -0.3094
  323TMC3    C8 4913   0.112   3.400  14.063 -0.0583 -0.2593  0.0295
  323TMC3    O1 4914   4.476   3.083  14.374 -0.4029  0.1347  0.4034
  323TMC3    O2 4915   0.189   3.399  14.155  0.6247 -0.0767  0.1513
  324MPD2     C 4916   1.549   4.087  14.535 -0.9775 -0.1315 -0.2726
  324MPD2    C1 4917   1.564   4.223  14.512  0.5949  0.4917  0.1928
  324MPD2    C2 4918   1.477   4.279  14.414 -0.1850 -0.3893 -0.7569
  324MPD2    C3 4919   1.371   4.207  14.373 -0.5093  0.0012  0.1286
  324MPD2    C4 4920   1.358   4.074  14.400 -0.1193 -0.1887  0.0868
  324MPD2    C5 4921   1.445   4.016  14.487 -0.2895 -0.1448 -0.3839
  324MPD2     H 4922   1.492   4.380  14.379  3.5033 -1.2808 -1.7815
  324MPD2    H1 4923   1.282   4.012  14.353 -0.3131  0.4222 -0.4123
  324MPD2    H2 4924   1.621   4.022  14.581  1.0096  2.3956  0.2005
  324MPD2    H3 4925   1.425   3.915  14.520 -0.9777  0.2493  0.3899
  324MPD2     N 4926   1.267   4.251  14.286 -0.2464 -0.0244  0.5826
  324MPD2    H5 4927   1.203   4.176  14.262  0.4788 -0.4024 -0.1729
  324MPD2    N1 4928   1.678   4.298  14.552 -0.7909 -0.6018 -0.3053
  324MPD2    H7 4929   1.697   4.383  14.501 -1.4095 -2.0691 -3.0174
  325TMC3    C1 4930   1.116   4.412  14.188  0.3052 -0.2512 -0.1925
  325TMC3    C2 4931   1.011   4.329  14.146  0.7504  1.0526 -0.5311
  325TMC3    C3 4932   0.907   4.375  14.061 -0.0214  1.2084  0.5332
  325TMC3    C4 4933   1.100   4.548  14.161  0.5960 -0.5881  0.7239
  325TMC3    C5 4934   1.003   4.588  14.073 -0.6005 -0.0037 -0.7606
  325TMC3    C6 4935   0.898   4.509  14.034  0.1221  0.2858  0.4408
  325TMC3     C 4936   1.244   4.378  14.242 -0.0494 -0.1424 -0.5282
  325TMC3     O 4937   1.321   4.475  14.247 -0.5345 -0.7323 -0.0027
  325TMC3     H 4938   1.018   4.226  14.177 -0.1381  0.8002 -1.1666
  325TMC3    H1 4939   1.162   4.628  14.200  0.0208  0.6515 -0.9225
  325TMC3    H2 4940   0.815   4.552  13.980  0.0568 -0.0541  0.2640
  325TMC3    C7 4941   0.970   4.733  14.063 -0.2386  0.2733 -0.3534
  325TMC3    C8 4942   0.835   4.276  13.982  0.1522 -0.4666  0.2232
  325TMC3    O1 4943   0.908   0.040  13.968  0.5264  0.1282 -0.7351
  325TMC3    O2 4944   0.846   4.157  14.005 -0.3147  0.0058 -0.3118
  326MPD2     C 4945   2.791   1.666  11.648 -0.1227 -0.1971  0.1435
  326MPD2    C1 4946   2.810   1.604  11.526 -0.3551  1.2888 -0.0832
  326MPD2    C2 4947   2.938   1.565  11.487  0.6217 -1.0100  0.3992
  326MPD2    C3 4948   3.045   1.595  11.569  0.2538 -0.4136 -0.0938
  326MPD2    C4 4949   3.026   1.661  11.693 -0.5668 -0.0997 -0.0542
  326MPD2    C5 4950   2.897   1.685  11.731  0.6934 -0.4831 -0.1482
  326MPD2     H 4951   2.950   1.516  11.391  0.7727  0.7810 -0.4969
  326MPD2    H1 4952   3.112   1.686  11.753 -0.6468 -0.9270  0.4041
  326MPD2    H2 4953   2.693   1.692  11.689  0.2661  0.0005  0.9510
  326MPD2    H3 4954   2.874   1.732  11.825 -1.3306  0.4003 -1.0669
  326MPD2     N 4955   3.181   1.574  11.530  0.4067  0.2261 -0.5480
  326MPD2    H5 4956   3.258   1.614  11.583 -0.4757 -1.7466  2.2347
  326MPD2    N1 4957   2.709   1.571  11.442 -0.4878  0.4229 -0.1253
  326MPD2    H7 4958   2.743   1.552  11.349  1.3057 -1.3596  0.8788
  327TMC3    C1 4959   2.499   1.576  11.332 -0.2626 -0.2187 -0.2588
  327TMC3    C2 4960   2.410   1.679  11.307 -0.4448  0.2045 -0.0626
  327TMC3    C3 4961   2.394   1.705  11.176  0.0793 -0.4327  0.6687
  327TMC3    C4 4962   2.568   1.504  11.244  0.1862 -0.2964  0.2041
  327TMC3    C5 4963   2.561   1.546  11.113  0.2994 -0.0279  0.0536
  327TMC3    C6 4964   2.472   1.647  11.077  0.0776 -0.1954 -0.2362
  327TMC3     C 4965   2.572   1.588  11.461 -0.5130 -0.7785 -0.4183
  327TMC3     O 4966   2.515   1.631  11.559 -0.3078 -0.4930  0.6056
  327TMC3     H 4967   2.377   1.744  11.388  0.2888 -0.5203  0.8123
  327TMC3    H1 4968   2.618   1.414  11.279  2.0976  0.4653 -0.5908
  327TMC3    H2 4969   2.457   1.666  10.972 -0.7692 -4.8402 -0.9639
  327TMC3    C7 4970   2.668   1.501  11.019  0.2138 -0.2538  0.6158
  327TMC3    C8 4971   2.296   1.809  11.150  0.1858 -0.8024 -0.0486
  327TMC3    O1 4972   2.655   1.540  10.905  1.0966  0.5389  0.4370
  327TMC3    O2 4973   2.322   1.881  11.056  0.3504  0.3799  0.3403
  328MPD2     C 4974   0.564   0.585  17.624  0.0945  0.1005 -0.1505
  328MPD2    C1 4975   0.505   0.482  17.552  0.0239  0.1614  0.5515
  328MPD2    C2 4976   0.432   0.519  17.438  0.9515  0.1277  0.1110
  328MPD2    C3 4977   0.427   0.645  17.391  0.4257 -0.5204 -0.3755
  328MPD2    C4 4978   0.493   0.742  17.465 -0.2427  0.4344 -0.1255
  328MPD2    C5 4979   0.561   0.711  17.581 -0.2542  0.3021 -0.2873
  328MPD2     H 4980   0.363   0.449  17.393  2.0687 -0.9538  0.0726
  328MPD2    H1 4981   0.483   0.848  17.446  0.0025  0.5626  0.4613
  328MPD2    H2 4982   0.610   0.562  17.719  3.6108  0.7022 -1.6895
  328MPD2    H3 4983   0.599   0.779  17.657  1.2532 -1.9559  0.9452
  328MPD2     N 4984   0.325   0.691  17.296 -0.4193 -0.0697  0.5430
  328MPD2    H5 4985   0.317   0.789  17.273 -1.4114  0.3536  2.6881
  328MPD2    N1 4986   0.482   0.355  17.610 -0.3791  0.2332 -0.5122
  328MPD2    H7 4987   0.515   0.341  17.705 -1.0798  1.0460 -0.1549
  329TMC3    C1 4988   0.381   0.149  17.626 -0.0185 -0.3776  0.6200
  329TMC3    C2 4989   0.277   0.191  17.706  0.8462 -0.2638  0.5163
  329TMC3    C3 4990   0.188   0.097   0.002 -0.7793 -0.2200 -0.0684
  329TMC3    C4 4991   0.387   0.016  17.580 -0.0981  0.2241 -0.1010
  329TMC3    C5 4992   0.285   4.667  17.613  0.0558  0.5458 -0.3715
  329TMC3    C6 4993   0.198   4.699  17.716  0.1834  1.2258 -0.3860
  329TMC3     C 4994   0.438   0.245  17.538 -0.3465 -0.6901  0.5238
  329TMC3     O 4995   0.425   0.234  17.416  0.6685  0.1892  0.4198
  329TMC3     H 4996   0.270   0.298  17.721  0.8633 -0.3036  0.8068
  329TMC3    H1 4997   0.465   4.730  17.509 -0.0582 -0.4715  0.1860
  329TMC3    H2 4998   0.129   4.621  17.746  1.2783  0.2679 -0.3902
  329TMC3    C7 4999   0.297   4.527  17.564 -0.1650 -0.3277 -0.3703
  329TMC3    C8 5000   0.044   0.133  17.731  0.4288 -0.2371 -0.1340
  329TMC3    O1 5001   0.235   4.434  17.613  0.2038  0.3115  0.1427
  329TMC3    O2 5002   4.710   0.048  17.681  0.4563  0.0882  0.2676
  330TMC3    C1 5003   2.528   0.506  10.268  0.4027  0.6851  0.0227
  330TMC3    C2 5004   2.469   0.382  10.269 -0.5283  0.3339  0.3566
  330TMC3    C3 5005   2.535   0.273  10.326 -0.6397  0.0439 -0.3709
  330TMC3    C4 5006   2.654   0.528  10.319 -0.1534 -0.0561  0.4526
  330TMC3    C5 5007   2.716   0.420  10.380 -0.2230  0.3516 -0.2480
  330TMC3    C6 5008   2.654   0.294  10.389  0.2566 -0.2018  0.3017
  330TMC3     C 5009   2.484   0.612  10.176 -0.3054 -1.2753  0.1123
  330TMC3     O 5010   2.563   0.706  10.156 -0.0228 -0.2698 -0.0517
  330TMC3     H 5011   2.365   0.368  10.242 -0.0446  1.1486 -1.9398
  330TMC3    H1 5012   2.696   0.628  10.318 -2.3860  0.8810 -0.0135
  330TMC3    H2 5013   2.708   0.210  10.432  0.8509  0.9242  1.7333
  330TMC3    C7 5014   2.845   0.434  10.447  0.8947 -0.6739 -1.1231
  330TMC3    C8 5015   2.451   0.155  10.365  0.5566  0.9275  0.0242
  330TMC3    O1 5016   2.875   0.347  10.528 -0.0723  0.2611 -0.7408
  330TMC3    O2 5017   2.493   0.087  10.458  0.5738  0.2631 -0.5350
  331MPD2     C 5018   1.648   3.984  12.725 -0.7034  0.6480  0.0899
  331MPD2    C1 5019   1.572   3.887  12.661 -0.3826 -0.2493 -0.2939
  331MPD2    C2 5020   1.493   3.803  12.746 -0.0233 -0.2878 -0.6478
  331MPD2    C3 5021   1.500   3.796  12.883 -0.4162 -0.7649  0.1490
  331MPD2    C4 5022   1.600   3.881  12.935 -0.0920 -0.1229  0.2152
  331MPD2    C5 5023   1.669   3.980  12.862  1.2900  0.3423  0.5176
  331MPD2     H 5024   1.418   3.743  12.695 -0.9384  0.4813 -0.1936
  331MPD2    H1 5025   1.624   3.886  13.041 -1.6829  1.2593  0.5153
  331MPD2    H2 5026   1.704   4.056  12.666  1.0850 -0.6338  0.2015
  331MPD2    H3 5027   1.726   4.054  12.917 -0.4233  0.6607  1.8266
  331MPD2     N 5028   1.409   3.719  12.952 -0.0663  0.7460  0.0830
  331MPD2    H5 5029   1.335   3.671  12.901 -0.7341  0.4558  1.3441
  331MPD2    N1 5030   1.562   3.885  12.520 -0.6758  0.1985  0.3352
  331MPD2    H7 5031   1.593   3.972  12.478  0.0584  0.3069  1.0912
  332TMC3    C1 5032   1.330   3.580  13.129 -0.4965  0.1200  0.7025
  332TMC3    C2 5033   1.248   3.520  13.035 -0.3147 -0.2102  0.4718
  332TMC3    C3 5034   1.158   3.431  13.087  0.1909 -0.4100 -0.2885
  332TMC3    C4 5035   1.330   3.546  13.257  0.1771 -0.9120 -1.0547
  332TMC3    C5 5036   1.242   3.452  13.305  0.0625 -0.2458 -0.0368
  332TMC3    C6 5037   1.154   3.397  13.218 -0.1945 -0.3930 -0.2871
  332TMC3     C 5038   1.415   3.694  13.088  0.0709  0.0788 -0.3651
  332TMC3     O 5039   1.493   3.733  13.169 -0.3895 -0.3953  0.0796
  332TMC3     H 5040   1.251   3.535  12.928  1.4438  0.0068  0.5499
  332TMC3    H1 5041   1.406   3.596  13.316 -1.5809 -1.0105  1.3073
  332TMC3    H2 5042   1.117   3.299  13.245 -2.1330  0.4476  0.1258
  332TMC3    C7 5043   1.266   3.374  13.423 -0.2288  0.5346  0.3224
  332TMC3    C8 5044   1.086   3.333  13.003  0.1058 -0.0463 -0.7919
  332TMC3    O1 5045   1.164   3.322  13.468 -0.1447  0.3658 -0.1196
  332TMC3    O2 5046   1.101   3.347  12.878 -0.2653  0.2749  0.3132
  333MPD2     C 5047   0.792   4.336  11.383  0.2059 -1.4100  0.1101
  333MPD2    C1 5048   0.910   4.266  11.352 -0.5510 -0.1025  0.0222
  333MPD2    C2 5049   0.891   4.136  11.313 -0.0691  0.7788 -0.2213
  333MPD2    C3 5050   0.770   4.078  11.300  0.6304 -0.7555  0.3515
  333MPD2    C4 5051   0.659   4.148  11.320  0.1451 -0.8326 -0.2051
  333MPD2    C5 5052   0.671   4.274  11.376 -0.5605 -0.5275  0.5246
  333MPD2     H 5053   0.976   4.076  11.283  1.4670  2.4882  0.6907
  333MPD2    H1 5054   0.556   4.114  11.316  0.6663 -2.3384 -0.9817
  333MPD2    H2 5055   0.804   4.430  11.435 -0.0426 -0.6440 -1.2004
  333MPD2    H3 5056   0.586   4.334  11.408  1.3955  3.3561 -1.5825
  333MPD2     N 5057   0.769   3.946  11.255  0.0877  0.1883 -0.4205
  333MPD2    H5 5058   0.861   3.903  11.249  0.0948  0.0001  1.0455
  333MPD2    N1 5059   1.038   4.338  11.354  0.1787  0.4062 -1.0729
  333MPD2    H7 5060   1.029   4.438  11.371  1.4881  0.5371 -1.1473
  334TMC3    C1 5061   1.275   4.353  11.321  0.4472 -0.4145 -0.2580
  334TMC3    C2 5062   1.395   4.291  11.336  0.2889 -0.6298  0.1125
  334TMC3    C3 5063   1.501   4.371  11.325 -0.7382 -0.6856  0.4761
  334TMC3    C4 5064   1.266   4.491  11.291 -0.5360 -0.5848  0.1989
  334TMC3    C5 5065   1.380   4.563  11.300  0.0185  0.7919  0.3247
  334TMC3    C6 5066   1.499   4.506  11.318 -0.4339  0.3246  0.2785
  334TMC3     C 5067   1.158   4.267  11.329  0.0125 -0.0824  0.1469
  334TMC3     O 5068   1.181   4.145  11.328  0.1911  0.1462 -0.1310
  334TMC3     H 5069   1.405   4.185  11.354 -0.4922 -0.6134  0.6596
  334TMC3    H1 5070   1.172   4.538  11.265 -1.3205 -3.1422 -1.5847
  334TMC3    H2 5071   1.590   4.563  11.332  0.7149 -1.6171  0.8167
  334TMC3    C7 5072   1.377   4.704  11.269 -0.5183 -0.1609  0.3034
  334TMC3    C8 5073   1.634   4.305  11.301  0.3683 -0.2846 -0.3378
  334TMC3    O1 5074   1.482   0.005  11.219  0.3407  0.3382  0.1841
  334TMC3    O2 5075   1.635   4.182  11.321 -0.2858 -0.0990 -0.5584
  335TMC3    C1 5076   0.986   0.636   0.002 -0.6151 -0.2258 -0.0905
  335TMC3    C2 5077   0.914   0.558  17.664  0.2380 -0.0555  0.1655
  335TMC3    C3 5078   0.970   0.535  17.541  0.6120  0.5301 -0.3433
  335TMC3    C4 5079   1.123   0.657  17.734  0.6380 -0.3227  0.0618
  335TMC3    C5 5080   1.181   0.611  17.621 -0.4226 -0.1704 -0.5226
  335TMC3    C6 5081   1.104   0.563  17.516  0.3272 -0.4071  0.8591
  335TMC3     C 5082   0.924   0.708   0.108  0.5710  0.3343 -0.5680
  335TMC3     O 5083   0.973   0.814   0.131 -0.4580  0.4225  0.1165
  335TMC3     H 5084   0.812   0.525  17.685 -0.0493  0.7872  0.0859
  335TMC3    H1 5085   1.182   0.701   0.060  2.2735 -1.3973 -0.5735
  335TMC3    H2 5086   1.139   0.539  17.416  0.8877  0.0005  0.9520
  335TMC3    C7 5087   1.317   0.572  17.615  0.0918 -0.1353  0.5677
  335TMC3    C8 5088   0.895   0.480  17.433 -0.0268  0.6462 -0.0639
  335TMC3    O1 5089   1.365   0.574  17.500  0.1289 -0.4420  0.6774
  335TMC3    O2 5090   0.899   0.542  17.329  0.0036 -0.3490 -0.2525
  336MPD2     C 5091   0.944   3.120  15.943 -1.0482  0.6504 -0.0288
  336MPD2    C1 5092   0.806   3.104  15.975 -0.1418 -0.3058  0.9213
  336MPD2    C2 5093   0.768   2.982  16.016 -0.0294 -0.1325  0.2499
  336MPD2    C3 5094   0.849   2.873  16.006 -0.3931 -0.2327  0.0615
  336MPD2    C4 5095   0.981   2.887  15.963 -0.4737  0.0636 -0.1438
  336MPD2    C5 5096   1.022   3.010  15.944  0.2340  0.8343  0.4601
  336MPD2     H 5097   0.665   2.977  16.049 -0.5948  2.7824 -1.0730
  336MPD2    H1 5098   1.063   2.816  15.959  0.5422  1.4573 -3.8639
  336MPD2    H2 5099   1.000   3.208  15.914 -0.9433  1.7555  3.5218
  336MPD2    H3 5100   1.126   3.032  15.921  0.2921  0.9133  0.7960
  336MPD2     N 5101   0.826   2.742  16.048  0.1494  0.2848 -0.2414
  336MPD2    H5 5102   0.900   2.676  16.026 -0.0898 -0.9951  2.7926
  336MPD2    N1 5103   0.711   3.203  15.968 -0.7779 -0.5175  0.7593
  336MPD2    H7 5104   0.616   3.174  15.988 -1.1054 -0.5229 -0.7953
  337TMC3    C1 5105   0.614   3.410  15.920 -0.0382  0.4968 -0.1637
  337TMC3    C2 5106   0.502   3.375  15.987 -0.0499 -0.3457 -0.7151
  337TMC3    C3 5107   0.390   3.443  15.958  0.1464  0.5844 -0.2008
  337TMC3    C4 5108   0.620   3.514  15.833  0.3866  0.5932  0.2593
  337TMC3    C5 5109   0.502   3.582  15.807  0.1578 -0.8395 -0.4486
  337TMC3    C6 5110   0.382   3.535  15.856  1.3052  0.2188  0.1277
  337TMC3     C 5111   0.736   3.337  15.931  0.8911 -0.0601 -0.2839
  337TMC3     O 5112   0.834   3.402  15.898 -0.1645 -0.4058  0.0266
  337TMC3     H 5113   0.489   3.296  16.059 -1.6890 -1.5286 -2.3037
  337TMC3    H1 5114   0.704   3.526  15.765 -1.8163 -2.6902 -2.9705
  337TMC3    H2 5115   0.296   3.594  15.827  1.5170  1.2603  1.6541
  337TMC3    C7 5116   0.482   3.643  15.670 -0.0255  0.0262 -0.4729
  337TMC3    C8 5117   0.263   3.404  16.001 -0.3274 -0.5347 -0.0995
  337TMC3    O1 5118   0.393   3.591  15.607 -0.2832  0.2760 -0.6528
  337TMC3    O2 5119   0.266   3.361  16.115  0.0796 -0.3254 -0.4079
  338MPD2     C 5120   1.129   2.358   1.003  0.8520 -0.0384 -0.6566
  338MPD2    C1 5121   1.101   2.406   0.880 -0.1413  0.0414 -0.3629
  338MPD2    C2 5122   0.970   2.397   0.824  0.3399 -0.2077  0.4224
  338MPD2    C3 5123   0.867   2.348   0.901  0.2929  0.0177  0.3733
  338MPD2    C4 5124   0.896   2.306   1.032 -0.0717 -0.2945  0.2599
  338MPD2    C5 5125   1.029   2.306   1.082 -0.2498 -0.1686  0.6595
  338MPD2     H 5126   0.948   2.432   0.724 -1.3520 -0.0656  0.8473
  338MPD2    H1 5127   0.819   2.261   1.093 -0.7260  1.0068  0.3781
  338MPD2    H2 5128   1.227   2.361   1.050  0.6091 -3.3659  0.0821
  338MPD2    H3 5129   1.050   2.283   1.186 -0.2403 -0.4648  0.5906
  338MPD2     N 5130   0.738   2.341   0.843 -0.8162  0.4345  0.0045
  338MPD2    H5 5131   0.728   2.369   0.746 -2.8494  0.7298  0.2793
  338MPD2    N1 5132   1.193   2.460   0.784 -0.9800 -0.8582  0.1331
  338MPD2    H7 5133   1.148   2.502   0.703  2.3912  2.2426 -0.1563
  339TMC3    C1 5134   0.511   2.299   0.799  0.2153  0.1549  0.2767
  339TMC3    C2 5135   0.406   2.210   0.828 -0.4820 -0.5883 -0.8179
  339TMC3    C3 5136   0.305   2.211   0.741 -0.1742  0.1012  0.1314
  339TMC3    C4 5137   0.515   2.387   0.698  0.0384  0.3850  0.0981
  339TMC3    C5 5138   0.407   2.390   0.614  0.8302  0.4830  0.0964
  339TMC3    C6 5139   0.307   2.292   0.626  0.1174 -0.0908  0.0479
  339TMC3     C 5140   0.623   2.292   0.896  0.1520 -0.1875 -0.7062
  339TMC3     O 5141   0.599   2.232   1.002  0.4770  0.4362 -0.4201
  339TMC3     H 5142   0.387   2.158   0.922 -1.7470  0.1980 -0.6462
  339TMC3    H1 5143   0.577   2.475   0.707  3.3698 -1.8132 -1.2303
  339TMC3    H2 5144   0.219   2.301   0.564  1.9029 -1.5914 -2.6696
  339TMC3    C7 5145   0.414   2.474   0.495  0.3971 -0.8859 -0.4558
  339TMC3    C8 5146   0.207   2.109   0.738 -0.1001 -0.0895 -0.3876
  339TMC3    O1 5147   0.515   2.540   0.486  0.8476  0.3474 -0.7291
  339TMC3    O2 5148   0.164   2.074   0.630  0.5982 -0.4585  0.5251
  340MPD2     C 5149   0.810   0.941   9.630 -0.4947  0.4750 -0.0093
  340MPD2    C1 5150   0.925   0.925   9.710 -0.2643 -0.5105 -0.0681
  340MPD2    C2 5151   1.021   1.032   9.716 -0.3074  1.2450 -0.3484
  340MPD2    C3 5152   0.983   1.155   9.654  0.5761  0.4483 -0.7068
  340MPD2    C4 5153   0.877   1.166   9.565 -0.2292  0.1100  0.6548
  340MPD2    C5 5154   0.795   1.055   9.553 -0.0650 -0.0992 -0.6598
  340MPD2     H 5155   1.095   1.034   9.794 -0.6542  0.3619  0.0057
  340MPD2    H1 5156   0.846   1.254   9.510 -0.4375  0.4250  1.2804
  340MPD2    H2 5157   0.744   0.856   9.618  1.9995 -1.4747  0.0694
  340MPD2    H3 5158   0.709   1.063   9.487 -1.5431 -0.2380  1.2374
  340MPD2     N 5159   1.061   1.267   9.664  0.6978 -0.0705 -0.4222
  340MPD2    H5 5160   1.014   1.354   9.638  0.7263 -0.0287 -0.3345
  340MPD2    N1 5161   0.949   0.810   9.786  0.0279  0.2295 -0.0421
  340MPD2    H7 5162   1.031   0.811   9.845 -0.4169  1.7573  0.5361
  341TMC3    C1 5163   0.940   0.598   9.892  1.0747 -0.2500  0.5505
  341TMC3    C2 5164   0.852   0.517   9.962 -0.5833 -0.1126 -0.2435
  341TMC3    C3 5165   0.903   0.452  10.074 -0.0158 -0.3913 -1.1556
  341TMC3    C4 5166   1.066   0.621   9.938 -0.5572  0.2178  0.4366
  341TMC3    C5 5167   1.109   0.560  10.054  0.2851 -0.4158  0.5730
  341TMC3    C6 5168   1.028   0.478  10.127  0.2360  0.3714 -0.2823
  341TMC3     C 5169   0.879   0.694   9.794  0.0779  0.4783 -0.3848
  341TMC3     O 5170   0.765   0.674   9.750 -0.8326 -0.2259 -0.5997
  341TMC3     H 5171   0.753   0.494   9.925  0.1341 -0.4245 -1.9444
  341TMC3    H1 5172   1.126   0.682   9.871  1.4117 -0.1103  1.9059
  341TMC3    H2 5173   1.072   0.433  10.216 -1.5231 -0.4063  0.1915
  341TMC3    C7 5174   1.251   0.563  10.094  0.0870  0.6887  0.2606
  341TMC3    C8 5175   0.840   0.332  10.105 -0.0242 -0.1217  0.0081
  341TMC3    O1 5176   1.288   0.514  10.198 -0.7053 -0.1219  0.3285
  341TMC3    O2 5177   0.788   0.270  10.011 -0.3852  0.6218  0.2320
  342MPD2     C 5178   3.514   3.260  17.656  0.3990  0.3013 -0.6507
  342MPD2    C1 5179   3.615   3.285  17.568 -0.5721  0.5096 -0.4156
  342MPD2    C2 5180   3.709   3.385  17.594  0.3652 -0.4196 -0.0544
  342MPD2    C3 5181   3.686   3.475  17.698  0.2526  0.0761  0.3337
  342MPD2    C4 5182   3.583   3.443   0.029 -0.7739 -0.2935 -0.2235
  342MPD2    C5 5183   3.505   3.337   0.017  0.0830  0.1189  1.1227
  342MPD2     H 5184   3.785   3.397  17.517 -0.1575 -0.2600 -0.5405
  342MPD2    H1 5185   3.556   3.494   0.121  2.6991  2.1489 -0.5497
  342MPD2    H2 5186   3.461   3.166  17.653 -1.3038  1.2436 -0.0063
  342MPD2    H3 5187   3.429   3.309   0.088 -1.4422  1.5341  0.0442
  342MPD2     N 5188   3.759   3.596  17.715 -0.0623  0.2342  0.5882
  342MPD2    H5 5189   3.747   3.648   0.049 -0.7289 -1.8151  1.7127
  342MPD2    N1 5190   3.647   3.205  17.451  0.1964 -0.5564 -0.5370
  342MPD2    H7 5191   3.739   3.220  17.411 -0.6239  0.6113 -1.9560
  343TMC3    C1 5192   3.631   3.039  17.285 -0.6025 -0.5536 -0.4028
  343TMC3    C2 5193   3.699   3.107  17.195 -0.2936  0.2230  0.5274
  343TMC3    C3 5194   3.753   3.035  17.094 -0.2061  0.2501  0.6375
  343TMC3    C4 5195   3.624   2.901  17.289  0.3055  0.8338  0.1825
  343TMC3    C5 5196   3.673   2.839  17.184  0.0904  0.0096 -0.2076
  343TMC3    C6 5197   3.732   2.901  17.081  0.3391  0.8663  0.2993
  343TMC3     C 5198   3.571   3.108  17.397 -0.0799 -0.5096 -0.0993
  343TMC3     O 5199   3.466   3.070  17.442  0.5455  0.2820  0.5063
  343TMC3     H 5200   3.704   3.216  17.194 -1.8315  0.3019  1.3454
  343TMC3    H1 5201   3.554   2.855  17.358 -1.1822  1.8463 -0.6402
  343TMC3    H2 5202   3.773   2.846  16.996 -1.5528 -0.8604  0.4952
  343TMC3    C7 5203   3.680   2.692  17.187 -0.2106 -0.5757 -1.0625
  343TMC3    C8 5204   3.860   3.107  17.017 -0.8116  0.6650  0.1311
  343TMC3    O1 5205   3.688   2.633  17.077 -0.2750 -0.0084 -0.2527
  343TMC3    O2 5206   3.894   3.216  17.060  0.5353  0.1129  0.0557
  344MPD2     C 5207   4.270   3.190  11.166  0.4030 -0.3619  0.2335
  344MPD2    C1 5208   4.337   3.105  11.078 -0.0237  0.1990 -0.3724
  344MPD2    C2 5209   4.423   3.160  10.989  0.3892 -1.0857  0.5768
  344MPD2    C3 5210   4.465   3.288  11.001  0.7257  0.8239  0.0524
  344MPD2    C4 5211   4.398   3.374  11.080 -0.1434  0.8428  0.0475
  344MPD2    C5 5212   4.295   3.327  11.161  0.5929  1.0205  0.4495
  344MPD2     H 5213   4.458   3.091  10.914 -0.0900  0.1810 -0.7967
  344MPD2    H1 5214   4.427   3.479  11.071 -1.4553  1.0097 -2.2940
  344MPD2    H2 5215   4.187   3.160  11.228 -0.5827  0.3501 -0.7455
  344MPD2    H3 5216   4.231   3.391  11.221 -0.0991  0.0501  0.7606
  344MPD2     N 5217   4.565   3.345  10.911 -0.4019  0.0103 -0.1052
  344MPD2    H5 5218   4.573   3.446  10.913  4.2786 -0.3675  1.0369
  344MPD2    N1 5219   4.315   2.962  11.088  0.0043 -0.4221  0.0937
  344MPD2    H7 5220   4.336   2.901  11.010  0.1596 -0.5044  0.2012
  345TMC3    C1 5221   4.715   3.368  10.737 -0.1397 -0.9885  0.2914
  345TMC3    C2 5222   0.098   3.333  10.691  0.2312 -0.4360 -1.0947
  345TMC3    C3 5223   0.163   3.414  10.604  0.5779  0.1712 -0.8567
  345TMC3    C4 5224   4.650   3.474  10.687 -0.1265  0.0241  0.1626
  345TMC3    C5 5225   4.715   3.552  10.599 -0.2142 -0.3712 -0.5814
  345TMC3    C6 5226   0.099   3.521  10.556 -0.3105  0.4281 -0.0744
  345TMC3     C 5227   4.651   3.279  10.824 -0.3782  0.4419  0.0071
  345TMC3     O 5228   4.690   3.161  10.827 -0.1074  0.2191 -0.2873
  345TMC3     H 5229   0.134   3.236  10.723  0.5577  0.5465  1.4530
  345TMC3    H1 5230   4.547   3.495  10.714  0.4752 -0.9942  3.1244
  345TMC3    H2 5231   0.137   3.574  10.469 -1.1672 -4.3560 -3.3057
  345TMC3    C7 5232   4.672   3.691  10.583  0.9005 -0.2649  0.0297
  345TMC3    C8 5233   0.302   3.382  10.570 -0.0507  0.0365  0.9651
  345TMC3    O1 5234   0.021   3.769  10.554  0.2692 -0.8456  0.5395
  345TMC3    O2 5235   0.338   3.264  10.582 -0.0951  0.1226  0.1034
  346MPD2     C 5236   0.127   4.559  14.228 -0.3764 -0.0964  0.5195
  346MPD2    C1 5237   0.204   4.663  14.183 -0.5480 -0.1692  0.6780
  346MPD2    C2 5238   0.248   0.008  14.277  0.2583  0.2287  0.5183
  346MPD2    C3 5239   0.255   4.722  14.410  0.0693  0.3462  0.4191
  346MPD2    C4 5240   0.200   4.605  14.457 -0.3892 -0.1849  0.0266
  346MPD2    C5 5241   0.143   4.525  14.360 -0.1536  0.1582 -0.1427
  346MPD2     H 5242   0.285   0.105  14.245  0.9221 -0.5907 -1.2080
  346MPD2    H1 5243   0.200   4.575  14.561 -3.4151  1.3639  0.4537
  346MPD2    H2 5244   0.068   4.501  14.158  0.4312  0.9017 -0.9828
  346MPD2    H3 5245   0.092   4.438  14.401 -1.4087  1.6509  1.4334
  346MPD2     N 5246   0.319   0.086  14.488 -0.4030 -0.1456 -0.3635
  346MPD2    H5 5247   0.373   0.158  14.440 -0.4358  1.4256  1.9880
  346MPD2    N1 5248   0.214   4.681  14.043  0.7375  0.1982 -0.2616
  346MPD2    H7 5249   0.268   0.023  14.015  1.9003 -0.5121 -0.0724
  347TMC3    C1 5250   0.424   0.170  14.681  0.0537  0.4221  0.1747
  347TMC3    C2 5251   0.462   0.286  14.626 -0.2061 -0.2297 -0.4618
  347TMC3    C3 5252   0.580   0.344  14.659  0.3223  0.2793 -0.3169
  347TMC3    C4 5253   0.504   0.116  14.781 -0.3868 -0.3951  0.3833
  347TMC3    C5 5254   0.622   0.175  14.822  0.0781  0.0169  0.0075
  347TMC3    C6 5255   0.661   0.294  14.762  0.4139  0.0902 -0.4093
  347TMC3     C 5256   0.329   0.081  14.623 -0.4335 -0.2317  0.6392
  347TMC3     O 5257   0.277   0.001  14.700 -0.1856 -0.3345  0.3299
  347TMC3     H 5258   0.400   0.332  14.550 -1.1901 -0.3857  0.2576
  347TMC3    H1 5259   0.464   0.036  14.841  0.2736 -1.3648 -0.4806
  347TMC3    H2 5260   0.755   0.346  14.772 -0.7664  1.9354  1.2284
  347TMC3    C7 5261   0.718   0.069  14.830  0.7455 -0.0131  0.2376
  347TMC3    C8 5262   0.653   0.421  14.555 -0.2640 -0.2126  0.0545
  347TMC3    O1 5263   0.698   4.717  14.749  0.2623  0.5101  0.3360
  347TMC3    O2 5264   0.587   0.511  14.505  0.5352 -0.3627 -0.2068
  348MPD2     C 5265   3.349   4.663  12.371  1.1959 -0.6187 -0.2180
  348MPD2    C1 5266   3.420   4.646  12.255 -0.7263 -0.2342  0.5130
  348MPD2    C2 5267   3.405   4.737  12.152 -0.1053 -0.3429 -0.2142
  348MPD2    C3 5268   3.317   0.103  12.162 -0.6287  0.1109 -0.3415
  348MPD2    C4 5269   3.240   0.120  12.277 -0.6983  0.3690  0.1126
  348MPD2    C5 5270   3.266   0.031  12.372 -0.7062 -0.0349  0.1415
  348MPD2     H 5271   3.457   4.716  12.060  0.7332  0.4033  0.0946
  348MPD2    H1 5272   3.169   0.200  12.295  0.3806  1.0214  1.4906
  348MPD2    H2 5273   3.366   4.624  12.470  0.0831  0.3558  0.3542
  348MPD2    H3 5274   3.207   0.043  12.462  1.1480  0.6424  1.2444
  348MPD2     N 5275   3.306   0.191  12.049 -0.0173 -0.6621  0.6236
  348MPD2    H5 5276   3.377   0.191  11.976 -0.3810  0.6489  0.2638
  348MPD2    N1 5277   3.513   4.539  12.228  0.1902 -0.3043  0.1782
  348MPD2    H7 5278   3.553   4.532  12.135 -0.8478  0.2427 -0.3146
  349TMC3    C1 5279   3.645   4.355  12.242 -0.0134 -0.3999 -0.1418
  349TMC3    C2 5280   3.587   4.229  12.262 -0.0144 -0.4620 -0.8648
  349TMC3    C3 5281   3.580   4.141  12.156 -1.2441  0.3844 -0.1574
  349TMC3    C4 5282   3.682   4.387  12.113  0.2049 -0.8216  0.0967
  349TMC3    C5 5283   3.662   4.301  12.004 -0.1661  0.7028 -0.0191
  349TMC3    C6 5284   3.617   4.172  12.030  1.0745  0.4071  0.1428
  349TMC3     C 5285   3.559   4.447  12.317  0.1854 -0.1741 -0.3649
  349TMC3     O 5286   3.523   4.423  12.433 -0.1814 -0.4545 -0.9650
  349TMC3     H 5287   3.568   4.191  12.362 -0.0173 -2.1487 -1.5182
  349TMC3    H1 5288   3.721   4.488  12.101 -0.2866 -0.5863  0.4536
  349TMC3    H2 5289   3.608   4.094  11.955 -0.1793  1.7487 -1.1098
  349TMC3    C7 5290   3.567   4.359  11.908  0.3708 -0.2234 -0.2382
  349TMC3    C8 5291   3.576   4.000  12.200  1.0190  0.3511 -0.1770
  349TMC3    O1 5292   3.455   4.307  11.913 -0.6140  0.7013  0.1660
  349TMC3    O2 5293   3.608   3.978  12.318  0.4498 -0.0453  0.2986
  350MPD2     C 5294   2.848   2.783   9.782 -0.3833  0.2731  1.0976
  350MPD2    C1 5295   2.768   2.764   9.900 -0.0693 -0.1939  0.0193
  350MPD2    C2 5296   2.725   2.877   9.970  0.0328  0.1562  0.6376
  350MPD2    C3 5297   2.776   3.005   9.941 -0.3640  0.6431  0.4971
  350MPD2    C4 5298   2.851   3.026   9.826  0.4315  0.2702 -0.7889
  350MPD2    C5 5299   2.887   2.915   9.758  0.4946 -0.0503  0.3680
  350MPD2     H 5300   2.665   2.856  10.058 -3.1179  0.0589 -1.5293
  350MPD2    H1 5301   2.889   3.122   9.792 -0.1448  0.3574 -1.1740
  350MPD2    H2 5302   2.899   2.701   9.732  1.4544  0.6926  2.2524
  350MPD2    H3 5303   2.955   2.925   9.675  0.9520 -3.2750  0.3709
  350MPD2     N 5304   2.725   3.108  10.030  0.4410 -0.5163  0.7282
  350MPD2    H5 5305   2.666   3.082  10.109 -1.6023 -0.2517 -0.6958
  350MPD2    N1 5306   2.730   2.635   9.945  0.2391  0.5224  0.2981
  350MPD2    H7 5307   2.668   2.645  10.025 -0.4244 -1.6217  0.0619
  351TMC3    C1 5308   2.705   2.399   9.971  0.2046  0.3408 -0.2214
  351TMC3    C2 5309   2.717   2.276   9.911 -0.0039  0.0365  0.4700
  351TMC3    C3 5310   2.692   2.162   9.979 -0.2024  0.1988 -0.1198
  351TMC3    C4 5311   2.680   2.410  10.102  0.1302  0.3625 -0.1089
  351TMC3    C5 5312   2.660   2.296  10.170 -0.6477 -1.0237  0.5251
  351TMC3    C6 5313   2.668   2.171  10.110  0.4274  0.1040  0.8245
  351TMC3     C 5314   2.758   2.511   9.897 -0.0950 -0.3130  1.2728
  351TMC3     O 5315   2.791   2.485   9.782 -0.4038 -0.0545 -0.2533
  351TMC3     H 5316   2.750   2.266   9.809 -1.0779 -1.4992  0.2689
  351TMC3    H1 5317   2.669   2.503  10.156  0.0319 -0.2920  1.0058
  351TMC3    H2 5318   2.658   2.080  10.167  0.3402 -0.3986  0.0131
  351TMC3    C7 5319   2.624   2.310  10.314 -0.3477  0.5095  0.2933
  351TMC3    C8 5320   2.771   2.042   9.936 -0.3436  0.3183 -0.3473
  351TMC3    O1 5321   2.670   2.222  10.384 -0.0400  0.1620 -0.1241
  351TMC3    O2 5322   2.759   1.993   9.827 -0.6935  0.3935 -0.2850
  352MPD2     C 5323   1.229   4.385   1.024  0.1529  0.0161 -0.5922
  352MPD2    C1 5324   1.167   4.334   1.136 -0.8054 -0.2108 -0.3992
  352MPD2    C2 5325   1.227   4.227   1.204 -0.0078  0.1430  0.4777
  352MPD2    C3 5326   1.339   4.167   1.147  0.2226 -0.2696  0.5657
  352MPD2    C4 5327   1.401   4.224   1.036  0.2580  1.0350  0.4670
  352MPD2    C5 5328   1.346   4.333   0.984 -0.1449 -0.3380  0.6420
  352MPD2     H 5329   1.180   4.185   1.292  2.4390 -2.3478  0.5941
  352MPD2    H1 5330   1.491   4.185   0.991  0.1208  1.2358  0.0153
  352MPD2    H2 5331   1.183   4.466   0.969  0.8314  1.1392  0.4984
  352MPD2    H3 5332   1.387   4.379   0.895 -0.6699 -1.0720  0.0229
  352MPD2     N 5333   1.386   4.043   1.191 -0.9309  0.0325 -0.4716
  352MPD2    H5 5334   1.464   4.000   1.143 -0.8563  0.2109 -0.5076
  352MPD2    N1 5335   1.041   4.384   1.170  0.6323  0.1918 -0.5587
  352MPD2    H7 5336   1.004   4.459   1.113 -2.1493 -0.3514  0.5345
  353TMC3    C1 5337   1.383   3.827   1.261  0.0668  0.3549  0.4333
  353TMC3    C2 5338   1.458   3.755   1.354  0.0782  0.2288  0.6608
  353TMC3    C3 5339   1.454   3.622   1.342  0.7350  0.1171  0.9115
  353TMC3    C4 5340   1.320   3.772   1.152 -0.3570 -0.0377 -0.0210
  353TMC3    C5 5341   1.334   3.642   1.136 -0.3937  0.3267 -0.0504
  353TMC3    C6 5342   1.398   3.560   1.233  0.8640  0.5386 -0.2627
  353TMC3     C 5343   1.341   3.964   1.293  0.3053  0.4801  0.1261
  353TMC3     O 5344   1.254   3.982   1.376  0.4867  0.4722  0.1205
  353TMC3     H 5345   1.519   3.801   1.431 -1.6543  3.1870  0.2745
  353TMC3    H1 5346   1.264   3.848   1.099 -0.2180  0.3357  0.3634
  353TMC3    H2 5347   1.389   3.454   1.215  0.4083  0.0452  2.8917
  353TMC3    C7 5348   1.266   3.574   1.028  0.2989  0.6143 -0.1797
  353TMC3    C8 5349   1.566   3.559   1.419 -0.0061 -0.3902  0.0907
  353TMC3    O1 5350   1.287   3.454   1.019 -0.2909  0.2155 -0.2116
  353TMC3    O2 5351   1.628   3.619   1.506  0.1370 -0.1834  0.0697
  354TMC3    C1 5352   2.538   1.060  13.744 -0.0021  0.5623  0.1468
  354TMC3    C2 5353   2.564   1.191  13.771 -0.0426 -0.2518  0.2349
  354TMC3    C3 5354   2.536   1.273  13.666  0.3020 -0.5030  0.0258
  354TMC3    C4 5355   2.488   1.014  13.621  0.1005 -0.7826 -0.0200
  354TMC3    C5 5356   2.476   1.104  13.520  0.5156 -0.3258  0.1317
  354TMC3    C6 5357   2.498   1.232  13.540  0.6393 -0.1878  0.0913
  354TMC3     C 5358   2.507   0.975  13.855  0.1676  0.1192 -0.4892
  354TMC3     O 5359   2.390   0.935  13.856 -0.1973  0.2974  0.5462
  354TMC3     H 5360   2.568   1.229  13.872 -0.1644 -1.8864  0.8386
  354TMC3    H1 5361   2.495   0.908  13.600  2.0052 -0.9635  1.4927
  354TMC3    H2 5362   2.478   1.306  13.463  0.0857 -0.9369 -0.4801
  354TMC3    C7 5363   2.495   1.063  13.373 -0.1662 -0.3254  0.6861
  354TMC3    C8 5364   2.571   1.415  13.677 -0.4093  0.5732 -0.7788
  354TMC3    O1 5365   2.436   0.962  13.324 -0.0419  0.1703  0.4247
  354TMC3    O2 5366   2.682   1.455  13.713 -0.0587  0.1743  0.3856
  355MPD2     C 5367   2.657   2.249  12.143  0.3300  0.4736  0.6738
  355MPD2    C1 5368   2.754   2.266  12.048  0.8247  0.3150  0.1004
  355MPD2    C2 5369   2.885   2.247  12.083  0.2491  0.6033 -0.0024
  355MPD2    C3 5370   2.918   2.222  12.214 -0.2804 -0.3304 -0.6877
  355MPD2    C4 5371   2.818   2.193  12.305 -0.1139 -0.1217  0.4614
  355MPD2    C5 5372   2.688   2.222  12.274 -0.1159 -0.3974  0.0177
  355MPD2     H 5373   2.965   2.240  12.010  2.0540 -2.1825  2.2952
  355MPD2    H1 5374   2.842   2.177  12.409  1.8882 -1.9006 -0.2796
  355MPD2    H2 5375   2.556   2.234  12.106  0.7357  2.9855 -1.4392
  355MPD2    H3 5376   2.611   2.212  12.350 -0.2363  1.9405  0.2020
  355MPD2     N 5377   3.055   2.222  12.246 -0.4920 -0.2099  0.3850
  355MPD2    H5 5378   3.117   2.255  12.173 -0.7549 -1.6025 -0.4491
  355MPD2    N1 5379   2.704   2.297  11.918  0.3467 -0.1909 -0.1837
  355MPD2    H7 5380   2.604   2.308  11.904  0.6813  1.2795 -1.3476
  356TMC3    C1 5381   3.253   2.184  12.365 -0.2570 -0.0238 -0.4285
  356TMC3    C2 5382   3.313   2.207  12.244  0.0563 -1.1290  0.3765
  356TMC3    C3 5383   3.417   2.284  12.237  0.5939 -0.4836 -0.3366
  356TMC3    C4 5384   3.311   2.216  12.482 -0.1658 -0.4339  0.3602
  356TMC3    C5 5385   3.427   2.284  12.476 -0.5789 -0.3553 -0.0814
  356TMC3    C6 5386   3.474   2.328  12.357  0.4669 -0.7037  0.0178
  356TMC3     C 5387   3.108   2.175  12.366  0.7360  0.2296 -0.2696
  356TMC3     O 5388   3.053   2.146  12.468  0.3161  0.7065 -0.0715
  356TMC3     H 5389   3.273   2.156  12.158 -0.8312 -1.1752  0.8088
  356TMC3    H1 5390   3.266   2.183  12.574 -0.8724 -1.1340 -0.2432
  356TMC3    H2 5391   3.566   2.382  12.336  1.1904 -1.4777  1.1832
  356TMC3    C7 5392   3.487   2.340  12.595  0.2838  0.6958  0.0902
  356TMC3    C8 5393   3.473   2.302  12.101 -0.0339 -0.1019 -0.8113
  356TMC3    O1 5394   3.442   2.301  12.698 -0.5270  0.3056  0.1046
  356TMC3    O2 5395   3.461   2.209  12.022 -0.3483 -0.0364 -0.2055
  357MPD2     C 5396   2.590   1.726   0.712 -0.2299  0.3550  0.0397
  357MPD2    C1 5397   2.569   1.597   0.742 -0.0509  0.1201 -0.3193
  357MPD2    C2 5398   2.440   1.550   0.773 -0.4701  0.0112  0.0596
  357MPD2    C3 5399   2.334   1.634   0.776 -0.7038  0.2020 -0.4048
  357MPD2    C4 5400   2.357   1.766   0.756  0.2952  0.1978 -0.1382
  357MPD2    C5 5401   2.485   1.817   0.724  0.8858 -0.1454  0.4021
  357MPD2     H 5402   2.425   1.444   0.795  0.3319 -0.0111  0.4943
  357MPD2    H1 5403   2.276   1.838   0.760 -0.2332 -0.3007 -2.0028
  357MPD2    H2 5404   2.688   1.767   0.691  0.3256 -1.4631 -0.9583
  357MPD2    H3 5405   2.509   1.921   0.705  1.6316  0.0342  2.3180
  357MPD2     N 5406   2.202   1.593   0.802  0.4333  0.1820  0.2232
  357MPD2    H5 5407   2.129   1.664   0.803 -0.6335 -0.8192 -3.9497
  357MPD2    N1 5408   2.673   1.503   0.727  0.0958  0.2838  0.2005
  357MPD2    H7 5409   2.652   1.405   0.741  0.6647  0.0034 -0.9278
  358TMC3    C1 5410   2.874   1.403   0.729  0.7403 -0.1370  0.2617
  358TMC3    C2 5411   2.835   1.326   0.626  0.9697  0.2883  0.0560
  358TMC3    C3 5412   2.850   1.188   0.631 -0.8006 -0.1499  0.9149
  358TMC3    C4 5413   2.911   1.347   0.851  0.4012  0.2383 -0.5611
  358TMC3    C5 5414   2.922   1.209   0.854  0.4587  0.8161 -0.4107
  358TMC3    C6 5415   2.880   1.123   0.751 -0.0927  0.4013 -0.1276
  358TMC3     C 5416   2.803   1.527   0.739 -1.2868  1.0115 -1.0730
  358TMC3     O 5417   2.863   1.628   0.790  0.2429  0.0347  0.1045
  358TMC3     H 5418   2.823   1.376   0.531 -2.1351  1.6132  1.1687
  358TMC3    H1 5419   2.941   1.403   0.938 -0.0852 -0.5675  0.1252
  358TMC3    H2 5420   2.902   1.019   0.768  0.9216  0.3378 -1.7683
  358TMC3    C7 5421   2.989   1.144   0.967  1.0927 -0.3648  0.9379
  358TMC3    C8 5422   2.778   1.116   0.524  0.8401 -0.2221  0.2331
  358TMC3    O1 5423   3.050   1.042   0.943  0.2893 -0.2281  0.0074
  358TMC3    O2 5424   2.753   1.182   0.423  0.0719  0.4402 -0.7974
  359MPD2     C 5425   2.920   0.456  12.781 -0.6858  0.7579  0.6394
  359MPD2    C1 5426   2.911   0.455  12.643 -0.3171  0.2449 -0.0767
  359MPD2    C2 5427   2.784   0.457  12.587 -0.0128 -0.5689 -0.0518
  359MPD2    C3 5428   2.666   0.458  12.657  0.1729 -0.0176 -0.3270
  359MPD2    C4 5429   2.672   0.459  12.791 -0.3119 -0.2590 -0.1349
  359MPD2    C5 5430   2.802   0.456  12.852  0.2171  0.4805  0.1857
  359MPD2     H 5431   2.784   0.459  12.478 -1.0138  1.3039 -0.0274
  359MPD2    H1 5432   2.591   0.468  12.863 -0.0959 -0.9638  0.1941
  359MPD2    H2 5433   3.012   0.457  12.838 -0.2952  1.5441 -0.0129
  359MPD2    H3 5434   2.807   0.465  12.960 -1.5882  1.1317  0.2042
  359MPD2     N 5435   2.536   0.470  12.597 -0.8782 -0.1404  0.2562
  359MPD2    H5 5436   2.458   0.455  12.661  0.2559 -1.3175  1.3581
  359MPD2    N1 5437   3.027   0.468  12.556 -0.0536  0.2616  0.0615
  359MPD2    H7 5438   3.003   0.463  12.458 -0.0156  0.7590  0.0241
  360TMC3    C1 5439   3.260   0.510  12.487 -0.2292  0.4499 -0.2404
  360TMC3    C2 5440   3.383   0.454  12.485  0.2070 -0.4762  0.0944
  360TMC3    C3 5441   3.473   0.477  12.384 -0.0255 -0.3537 -0.1546
  360TMC3    C4 5442   3.213   0.592  12.386 -0.1273  0.5350 -0.7333
  360TMC3    C5 5443   3.304   0.612  12.280 -0.1793 -0.2219  0.3152
  360TMC3    C6 5444   3.431   0.554  12.279  0.1952 -0.3132 -0.3975
  360TMC3     C 5445   3.163   0.476  12.592 -0.3079 -0.3212 -0.3540
  360TMC3     O 5446   3.206   0.463  12.707  0.1228 -0.8286 -0.4478
  360TMC3     H 5447   3.417   0.412  12.579 -0.4320 -2.3681 -0.5140
  360TMC3    H1 5448   3.114   0.636  12.383 -0.0660  0.5530 -2.7113
  360TMC3    H2 5449   3.502   0.587  12.205 -0.6194 -3.3960 -2.5273
  360TMC3    C7 5450   3.260   0.656  12.153  0.3006  0.1766  0.0876
  360TMC3    C8 5451   3.548   0.363  12.347 -0.9277  0.0443  0.4075
  360TMC3    O1 5452   3.332   0.731  12.088 -1.0462 -0.0322  0.0397
  360TMC3    O2 5453   3.514   0.256  12.397 -0.0735 -0.0048  0.1043
  361MPD2     C 5454   0.137   3.990  17.028  0.7677  0.2343 -0.3042
  361MPD2    C1 5455   0.104   3.866  16.976 -0.1472 -0.2239  0.3220
  361MPD2    C2 5456   0.150   3.754  17.041  0.6759 -0.0342 -0.1592
  361MPD2    C3 5457   0.243   3.759  17.151 -0.2765 -0.4107 -0.4691
  361MPD2    C4 5458   0.280   3.888  17.195 -0.6000  0.1765  0.1778
  361MPD2    C5 5459   0.208   3.994  17.149 -0.4139  0.4141  0.2924
  361MPD2     H 5460   0.127   3.658  16.996 -0.7991 -0.6139  1.8456
  361MPD2    H1 5461   0.354   3.898  17.274  0.6834  0.9464 -1.1173
  361MPD2    H2 5462   0.115   4.082  16.975 -0.5819  0.1523  0.1324
  361MPD2    H3 5463   0.234   4.090  17.192  0.1054  0.0413  0.8065
  361MPD2     N 5464   0.310   3.652  17.220 -0.1962 -0.4668  0.1854
  361MPD2    H5 5465   0.386   3.682  17.280  1.3327  0.6557 -2.3326
  361MPD2    N1 5466   0.019   3.858  16.864 -0.4264 -0.3606 -0.5441
  361MPD2    H7 5467   0.005   3.945  16.814  1.3209 -0.7644 -1.7526
  362TMC3    C1 5468   4.595   3.751  16.729  0.0426  0.4630 -0.0658
  362TMC3    C2 5469   4.499   3.650  16.740  0.2561 -0.3178 -0.0182
  362TMC3    C3 5470   4.367   3.688  16.728 -0.7552  0.8481 -0.3245
  362TMC3    C4 5471   4.570   3.876  16.680 -0.1769  0.4306 -0.8821
  362TMC3    C5 5472   4.439   3.897  16.651  0.0632 -0.2929 -0.5172
  362TMC3    C6 5473   4.332   3.817  16.681 -0.1599  0.1040 -0.7165
  362TMC3     C 5474   4.688   3.743  16.832  0.0143  0.4479 -1.0316
  362TMC3     O 5475   4.671   3.651  16.913 -0.6679 -0.3526  0.4038
  362TMC3     H 5476   4.525   3.550  16.771 -1.2031 -0.5921  0.3116
  362TMC3    H1 5477   4.651   3.941  16.650  2.8166 -1.8719  2.2851
  362TMC3    H2 5478   4.236   3.860  16.656 -0.4796 -0.2424 -0.0746
  362TMC3    C7 5479   4.413   4.026  16.584  0.0919  0.3503 -0.4653
  362TMC3    C8 5480   4.278   3.638  16.830 -0.7960 -0.3340 -0.2134
  362TMC3    O1 5481   4.480   4.119  16.621 -0.1942 -0.1672 -0.0343
  362TMC3    O2 5482   4.283   3.520  16.848  0.2649  0.4066  0.0767
  363TMC3    C1 5483   2.790   1.007   8.954 -0.5970  0.2545 -0.8640
  363TMC3    C2 5484   2.776   0.877   8.990  0.4287  0.1767 -0.1529
  363TMC3    C3 5485   2.779   0.843   9.123 -0.6249  0.3252  0.2097
  363TMC3    C4 5486   2.795   1.111   9.046 -0.5824  0.0441 -0.1903
  363TMC3    C5 5487   2.791   1.077   9.180  1.1157 -0.3913 -0.6509
  363TMC3    C6 5488   2.794   0.942   9.216  1.2893  0.7753  0.3990
  363TMC3     C 5489   2.813   1.037   8.806  0.6141  0.1394  0.7260
  363TMC3     O 5490   2.845   0.940   8.740 -0.4808  0.9881  0.7210
  363TMC3     H 5491   2.770   0.803   8.910 -1.3354 -1.1471  1.2210
  363TMC3    H1 5492   2.828   1.210   9.017  0.4107 -0.9934 -2.6118
  363TMC3    H2 5493   2.788   0.910   9.320  2.3527  1.4174  0.6623
  363TMC3    C7 5494   2.763   1.176   9.278  0.1250 -0.4701  0.4491
  363TMC3    C8 5495   2.773   0.698   9.162  0.7512 -0.2576  0.6010
  363TMC3    O1 5496   2.774   1.150   9.395  0.0068 -0.3279  0.0528
  363TMC3    O2 5497   2.747   0.626   9.071  0.0805  0.2025  0.4516
  364MPD2     C 5498   1.948   2.117  11.376 -0.3471 -0.3025  0.5361
  364MPD2    C1 5499   2.021   2.137  11.257 -1.0053 -0.4111 -0.1658
  364MPD2    C2 5500   2.108   2.035  11.216 -0.4374 -0.4884  0.1558
  364MPD2    C3 5501   2.118   1.913  11.281 -0.2970  1.3358  0.1265
  364MPD2    C4 5502   2.048   1.896  11.394  0.7512 -0.5907 -0.6659
  364MPD2    C5 5503   1.964   1.997  11.436  0.8726 -0.2021 -0.2431
  364MPD2     H 5504   2.166   2.055  11.127 -0.7279 -1.7069 -0.3126
  364MPD2    H1 5505   2.041   1.801  11.446  1.4021 -0.5283 -0.4646
  364MPD2    H2 5506   1.883   2.192  11.418 -0.4647 -1.2017  1.9572
  364MPD2    H3 5507   1.908   1.973  11.525 -1.2868  1.0895 -1.2518
  364MPD2     N 5508   2.202   1.808  11.244  0.3066 -0.3034  0.1758
  364MPD2    H5 5509   2.200   1.732  11.311 -2.6164  0.3220  0.7977
  364MPD2    N1 5510   2.000   2.265  11.194  0.0272 -0.6106  1.3039
  364MPD2    H7 5511   1.938   2.326  11.245 -2.7431 -0.8640 -1.7435
  365TMC3    C1 5512   1.994   2.432  11.029  0.8311  0.2012 -0.7063
  365TMC3    C2 5513   1.978   2.442  10.897 -0.1115  0.0976  0.0983
  365TMC3    C3 5514   1.922   2.559  10.849  0.5499 -0.0101 -0.5973
  365TMC3    C4 5515   1.941   2.517  11.114 -0.0685 -0.2084 -0.2705
  365TMC3    C5 5516   1.887   2.637  11.068 -0.3291 -0.4866 -0.8349
  365TMC3    C6 5517   1.870   2.654  10.933  1.0663  0.5526  0.0373
  365TMC3     C 5518   2.040   2.301  11.068  0.2543  0.1265 -0.0840
  365TMC3     O 5519   2.117   2.238  10.997 -0.0646 -0.2128  0.0882
  365TMC3     H 5520   2.016   2.369  10.827  1.5510  1.4738 -0.4272
  365TMC3    H1 5521   1.960   2.507  11.220  2.7225 -3.7900 -1.0958
  365TMC3    H2 5522   1.824   2.744  10.894 -0.6218  0.3523  1.5521
  365TMC3    C7 5523   1.838   2.740  11.165 -0.4279  0.6216 -0.4194
  365TMC3    C8 5524   1.889   2.559  10.709  0.0804  0.8846 -0.5297
  365TMC3    O1 5525   1.819   2.853  11.110 -0.6877 -0.0549 -0.4302
  365TMC3    O2 5526   1.890   2.664  10.652  0.2725  0.8179 -0.4388
  366MPD2     C 5527   0.164   2.169  15.164  0.6803 -0.1533  0.8809
  366MPD2    C1 5528   0.296   2.187  15.187 -0.1594  0.3061 -0.1752
  366MPD2    C2 5529   0.362   2.084  15.250 -0.3203 -0.1921  0.0568
  366MPD2    C3 5530   0.307   1.961  15.282 -0.1161  0.0566 -0.0853
  366MPD2    C4 5531   0.175   1.941  15.249  0.3441 -0.0458  0.0056
  366MPD2    C5 5532   0.105   2.049  15.187  0.8170  0.1286  0.5927
  366MPD2     H 5533   0.461   2.101  15.290 -0.2901 -1.3631  0.4756
  366MPD2    H1 5534   0.119   1.851  15.270  0.0916  0.1964  0.3820
  366MPD2    H2 5535   0.102   2.234  15.103  0.3714 -1.0266  0.2706
  366MPD2    H3 5536   4.738   2.030  15.171  0.9799 -0.6029  0.3635
  366MPD2     N 5537   0.384   1.857  15.331 -0.2102 -0.2874  0.5654
  366MPD2    H5 5538   0.481   1.880  15.349 -0.9305  3.1835 -0.1174
  366MPD2    N1 5539   0.375   2.298  15.153 -0.0681 -0.3698  0.3248
  366MPD2    H7 5540   0.467   2.307  15.194 -0.2745 -0.5738  0.8404
  367TMC3    C1 5541   0.432   2.519  15.072  0.1960  0.5774 -0.0223
  367TMC3    C2 5542   0.544   2.506  15.151  0.1562 -0.3834 -0.6762
  367TMC3    C3 5543   0.594   2.630  15.198  0.4410 -0.3424 -0.3637
  367TMC3    C4 5544   0.372   2.631  15.040 -0.3195 -0.3751 -0.0099
  367TMC3    C5 5545   0.430   2.747  15.079  0.3884 -0.1082 -0.3787
  367TMC3    C6 5546   0.534   2.752  15.172  0.5112  0.3176  0.0327
  367TMC3     C 5547   0.339   2.406  15.079 -0.2908  0.0953  0.0464
  367TMC3     O 5548   0.226   2.428  15.038 -0.7016 -0.4100 -0.1330
  367TMC3     H 5549   0.597   2.412  15.158 -0.8312 -0.7106  2.6556
  367TMC3    H1 5550   0.294   2.624  14.965  1.7936  1.5370 -2.4169
  367TMC3    H2 5551   0.588   2.844  15.191 -0.0397  0.6324  0.0919
  367TMC3    C7 5552   0.331   2.853  15.080  0.1915  0.0046 -0.0657
  367TMC3    C8 5553   0.712   2.619  15.280  0.5648 -0.9466  0.0455
  367TMC3    O1 5554   0.216   2.815  15.072  0.0261 -0.2336 -0.2067
  367TMC3    O2 5555   0.762   2.508  15.286 -0.0485 -0.0977  0.5639
  368MPD2     C 5556   1.949   4.223  13.466 -0.6484  0.7554  0.3658
  368MPD2    C1 5557   1.912   4.336  13.399  0.4471 -0.0951 -0.9901
  368MPD2    C2 5558   1.987   4.449  13.424 -0.5053 -0.4492 -0.3987
  368MPD2    C3 5559   2.088   4.446  13.523  0.5619 -0.2618  0.6452
  368MPD2    C4 5560   2.114   4.327  13.588  0.7522 -0.0655  0.8977
  368MPD2    C5 5561   2.044   4.216  13.563 -0.4647  0.4239  0.6307
  368MPD2     H 5562   1.979   4.541  13.367  1.5026 -1.4860 -2.3354
  368MPD2    H1 5563   2.181   4.326  13.673  0.5072 -0.0321  1.0934
  368MPD2    H2 5564   1.900   4.129  13.440 -0.5729  0.4141  1.4933
  368MPD2    H3 5565   2.069   4.125  13.617  0.1363  0.3586  0.2417
  368MPD2     N 5566   2.181   4.554  13.542  0.5571  0.1970 -0.1161
  368MPD2    H5 5567   2.259   4.540  13.605 -0.9619 -1.2457  1.4449
  368MPD2    N1 5568   1.801   4.332  13.307  0.6058  0.2627  0.2179
  368MPD2    H7 5569   1.749   4.245  13.305  1.9456 -0.5039 -1.2630
  369TMC3    C1 5570   1.660   4.404  13.138 -0.0015  0.0491 -0.7401
  369TMC3    C2 5571   1.673   4.441  13.013 -0.4375  0.2998  0.3020
  369TMC3    C3 5572   1.591   4.406  12.911 -0.9584  0.6353 -0.7046
  369TMC3    C4 5573   1.560   4.320  13.164  0.6004 -0.1161 -0.4774
  369TMC3    C5 5574   1.487   4.269  13.059 -0.3849 -0.4253 -0.2469
  369TMC3    C6 5575   1.495   4.313  12.931  0.0415  0.1463  0.0244
  369TMC3     C 5576   1.763   4.432  13.228 -0.1934  0.6103  0.1478
  369TMC3     O 5577   1.794   4.552  13.228  0.0669 -0.3378  0.2075
  369TMC3     H 5578   1.749   4.517  12.998  1.0455 -1.1949  0.2972
  369TMC3    H1 5579   1.551   4.283  13.265 -3.0210  0.9897 -0.4269
  369TMC3    H2 5580   1.443   4.274  12.844 -1.2815 -1.8986  1.7135
  369TMC3    C7 5581   1.386   4.167  13.108  0.4040 -0.8846  0.2560
  369TMC3    C8 5582   1.624   4.447  12.780 -0.1996  0.3811 -0.2275
  369TMC3    O1 5583   1.357   4.172  13.228  0.2388  0.1539 -0.1668
  369TMC3    O2 5584   1.524   4.461  12.710  0.2368 -0.4948  0.1680
  370TMC3    C1 5585   1.433   0.025  16.490 -0.5455  0.0298  0.1459
  370TMC3    C2 5586   1.354   4.685  16.573  0.0008 -0.6284  0.8738
  370TMC3    C3 5587   1.288   4.577  16.512 -0.2561 -0.3744  0.1956
  370TMC3    C4 5588   1.440   0.004  16.357 -0.6002  0.3253 -0.4757
  370TMC3    C5 5589   1.360   4.643  16.299 -0.5326  0.2479  0.2599
  370TMC3    C6 5590   1.290   4.559  16.378 -0.3078 -0.1670  0.3169
  370TMC3     C 5591   1.538   0.110  16.533 -0.3739  0.6086 -0.3141
  370TMC3     O 5592   1.597   0.073  16.636  0.1053  0.1086  0.0453
  370TMC3     H 5593   1.377   4.697  16.678 -0.2460  1.3134  0.7027
  370TMC3    H1 5594   1.493   0.076  16.296 -0.5194  1.5156  1.0107
  370TMC3    H2 5595   1.224   4.484  16.337 -0.6909  0.4810 -0.2530
  370TMC3    C7 5596   1.416   4.607  16.177 -0.0296 -0.0821  0.2719
  370TMC3    C8 5597   1.249   4.469  16.595 -0.0969  0.3677  0.7237
  370TMC3    O1 5598   1.442   4.696  16.098  0.1770  0.0683 -0.7404
  370TMC3    O2 5599   1.265   4.358  16.552  0.0171 -0.2241 -0.2008
  371TMC3    C1 5600   2.671   3.048  15.712  0.3020  0.9096 -0.2540
  371TMC3    C2 5601   2.582   3.026  15.804 -1.1810 -0.3003 -0.4878
  371TMC3    C3 5602   2.513   3.124  15.870  0.9319  0.4338  0.1395
  371TMC3    C4 5603   2.688   3.181  15.681  0.4140  0.1977 -0.1403
  371TMC3    C5 5604   2.628   3.285  15.746  0.5886  0.4752  0.2756
  371TMC3    C6 5605   2.531   3.258  15.835 -0.3371  0.3487 -0.5549
  371TMC3     C 5606   2.711   2.948  15.619 -0.3121 -0.3521  0.0681
  371TMC3     O 5607   2.733   2.992  15.507 -0.0371 -0.4433  0.2504
  371TMC3     H 5608   2.544   2.925  15.820 -0.6297 -0.2502  1.1151
  371TMC3    H1 5609   2.765   3.203  15.608  2.7745 -1.5971  1.8449
  371TMC3    H2 5610   2.480   3.335  15.891  0.6465  0.2646  0.4744
  371TMC3    C7 5611   2.646   3.415  15.699  0.6666  0.6159 -0.0857
  371TMC3    C8 5612   2.407   3.087  15.952  0.5299  0.5542 -0.5933
  371TMC3    O1 5613   2.592   3.505  15.763  0.3673 -0.2356 -0.2443
  371TMC3    O2 5614   2.416   2.977  16.010 -0.0492  0.0197 -0.7333
  372MPD2     C 5615   1.354   4.576  13.459  0.2071 -0.1032 -0.5148
  372MPD2    C1 5616   1.476   4.618  13.512  0.6421  0.7856  1.1150
  372MPD2    C2 5617   1.551   4.535  13.586 -0.3721 -0.4439 -0.6843
  372MPD2    C3 5618   1.515   4.405  13.595 -0.0826  0.6622 -0.6333
  372MPD2    C4 5619   1.398   4.360  13.540 -0.4297 -0.8140 -0.8368
  372MPD2    C5 5620   1.312   4.451  13.487  0.2424 -0.4544  0.6234
  372MPD2     H 5621   1.642   4.576  13.627 -0.8378  1.0732 -1.1561
  372MPD2    H1 5622   1.377   4.254  13.535 -0.6498 -0.6665 -2.9358
  372MPD2    H2 5623   1.304   4.632  13.381  2.4128  1.1637 -1.0186
  372MPD2    H3 5624   1.219   4.411  13.448 -0.2896 -0.2422  1.6798
  372MPD2     N 5625   1.601   4.314  13.650  0.4839 -0.3017  0.1002
  372MPD2    H5 5626   1.676   4.348  13.709  2.1090 -1.4975 -1.2824
  372MPD2    N1 5627   1.531   0.010  13.492 -0.0690 -0.3660 -0.5036
  372MPD2    H7 5628   1.628   0.021  13.518  0.1671  0.0670 -1.5690
  373TMC3    C1 5629   1.675   4.090  13.728  0.2711  0.3657  0.2520
  373TMC3    C2 5630   1.638   4.100  13.862  0.2830  0.8825 -0.0616
  373TMC3    C3 5631   1.679   4.013  13.955  0.0538  0.0403 -0.2060
  373TMC3    C4 5632   1.742   3.987  13.683 -0.4316  0.0861 -0.4751
  373TMC3    C5 5633   1.798   3.899  13.777 -0.4842 -0.4067 -0.8351
  373TMC3    C6 5634   1.761   3.909  13.910  0.0351 -0.3033  0.8790
  373TMC3     C 5635   1.606   4.173  13.630 -0.6118  0.4422  0.4678
  373TMC3     O 5636   1.547   4.105  13.546  0.1408 -0.0522 -0.1242
  373TMC3     H 5637   1.595   4.194  13.896 -1.5247  0.2870 -0.6721
  373TMC3    H1 5638   1.757   3.965  13.578 -2.1342  0.4127 -0.7945
  373TMC3    H2 5639   1.782   3.831  13.983  1.3172  0.6805  1.5635
  373TMC3    C7 5640   1.938   3.856  13.750  0.1757 -0.6866 -0.0596
  373TMC3    C8 5641   1.588   3.979  14.055  0.7891 -0.3961 -0.0957
  373TMC3    O1 5642   1.978   3.885  13.634  0.5233 -0.2315 -0.1806
  373TMC3    O2 5643   1.469   3.990  14.011  0.4707  0.4978 -0.2435
  374TMC3    C1 5644   2.083   0.901  10.199 -0.3388 -0.5520  0.1234
  374TMC3    C2 5645   2.202   0.951  10.232  0.8779  0.4370 -0.3779
  374TMC3    C3 5646   2.274   1.013  10.142  0.2084  0.7452 -0.2778
  374TMC3    C4 5647   2.022   0.930  10.079  0.0027  0.0096 -0.5369
  374TMC3    C5 5648   2.098   0.999   9.986  0.5810 -0.1193  0.7498
  374TMC3    C6 5649   2.221   1.042  10.017 -0.5517  0.3937 -0.2282
  374TMC3     C 5650   2.004   0.849  10.301  0.1599 -0.2726 -0.4303
  374TMC3     O 5651   2.063   0.777  10.380  0.3356 -0.1308  0.0947
  374TMC3     H 5652   2.233   0.934  10.334 -2.5545 -0.0079  0.5738
  374TMC3    H1 5653   1.928   0.882  10.053 -0.9880  0.8069  1.5960
  374TMC3    H2 5654   2.274   1.103   9.944 -0.0346 -0.9418 -0.9827
  374TMC3    C7 5655   2.024   1.023   9.864  0.5584 -0.0967  0.7438
  374TMC3    C8 5656   2.409   1.063  10.166  0.7583  0.0454  0.0375
  374TMC3    O1 5657   1.904   1.003   9.869 -0.1121 -0.3039  0.0270
  374TMC3    O2 5658   2.435   1.155  10.089 -0.5536 -0.1011  0.1254
  375MPD2     C 5659   2.596   0.199  17.320 -0.1829  0.2325 -0.1959
  375MPD2    C1 5660   2.530   0.245  17.210 -0.2054  0.0089 -0.1534
  375MPD2    C2 5661   2.586   0.217  17.084 -0.1215  0.5555  0.3489
  375MPD2    C3 5662   2.703   0.137  17.068  0.7310 -0.4893  0.2150
  375MPD2    C4 5663   2.761   0.085  17.180 -0.3676 -0.4948  0.4779
  375MPD2    C5 5664   2.713   0.122  17.302  0.1856 -0.4461 -0.1912
  375MPD2     H 5665   2.535   0.261  16.999  1.2604 -2.2511 -1.9159
  375MPD2    H1 5666   2.848   0.022  17.168  0.5834  0.2551  3.5459
  375MPD2    H2 5667   2.563   0.215  17.422 -0.5255 -0.6660 -0.1747
  375MPD2    H3 5668   2.765   0.085  17.390  0.5005 -0.7606 -0.5108
  375MPD2     N 5669   2.763   0.107  16.941 -0.3414  0.6805  0.1599
  375MPD2    H5 5670   2.842   0.044  16.951 -1.0909 -0.3111 -0.2271
  375MPD2    N1 5671   2.404   0.319  17.217 -0.4836 -0.3357  0.3122
  375MPD2    H7 5672   2.354   0.337  17.131 -1.2102 -0.3197  0.7395
  376TMC3    C1 5673   2.814   0.113  16.705 -0.4476 -0.5384  0.5398
  376TMC3    C2 5674   2.937   0.055  16.736  0.0250  0.5563  1.2022
  376TMC3    C3 5675   3.006   0.001  16.630 -0.0578  0.0671  1.3575
  376TMC3    C4 5676   2.754   0.109  16.580 -0.2334 -0.3360  0.3207
  376TMC3    C5 5677   2.825   0.041  16.484 -0.2649 -0.0239  0.3052
  376TMC3    C6 5678   2.945   4.721  16.506 -0.0384 -0.0171  0.2633
  376TMC3     C 5679   2.739   0.172  16.822 -0.6716  0.1146  0.4331
  376TMC3     O 5680   2.671   0.270  16.809  0.3789 -0.2995  0.2958
  376TMC3     H 5681   2.989   0.076  16.829 -1.3469  2.8884  1.4505
  376TMC3    H1 5682   2.655   0.150  16.569 -0.2572 -0.2517  0.8452
  376TMC3    H2 5683   3.005   4.682  16.424  0.3085 -0.4084  0.7046
  376TMC3    C7 5684   2.779   0.054  16.347  0.2778 -0.0922  0.1324
  376TMC3    C8 5685   3.151   4.719  16.640  0.1162  0.2678  0.0309
  376TMC3    O1 5686   2.691   0.134  16.331  0.0308  0.2840  0.7433
  376TMC3    O2 5687   3.214   4.717  16.536  0.1764  0.4029  0.7113
  377MPD2     C 5688   0.925   4.250  12.743  0.3872  0.2504 -0.9639
  377MPD2    C1 5689   0.992   4.166  12.664  0.2849 -0.3960  0.6542
  377MPD2    C2 5690   0.949   4.034  12.644  0.4873  0.3144  0.2051
  377MPD2    C3 5691   0.840   3.994  12.722 -0.1263  0.0607  0.6739
  377MPD2    C4 5692   0.787   4.074  12.820  0.1613  0.2085  0.0661
  377MPD2    C5 5693   0.823   4.208  12.824 -0.5362 -0.3300  0.4932
  377MPD2     H 5694   1.003   3.977  12.569  1.4040  1.2876  0.1204
  377MPD2    H1 5695   0.714   4.029  12.887 -0.8585  3.0264  0.8458
  377MPD2    H2 5696   0.952   4.355  12.747 -1.6282  0.8586 -2.9449
  377MPD2    H3 5697   0.781   4.270  12.902 -2.7002 -2.3983  0.9450
  377MPD2     N 5698   0.783   3.862  12.708  0.1287 -0.3041  0.1550
  377MPD2    H5 5699   0.724   3.829  12.784  1.5513 -2.3883  0.3590
  377MPD2    N1 5700   1.119   4.216  12.618  0.1010 -0.0433 -0.1174
  377MPD2    H7 5701   1.142   4.315  12.619  1.7474 -0.4383 -0.3171
  378TMC3    C1 5702   1.332   4.452  12.396 -0.2482  0.3040  0.1992
  378TMC3    C2 5703   1.246   4.354  12.439 -0.0842 -0.1932 -0.0138
  378TMC3    C3 5704   1.300   4.240  12.485 -0.2962 -0.3897  0.9122
  378TMC3    C4 5705   1.472   4.437  12.388 -0.4067 -0.0572 -0.2602
  378TMC3    C5 5706   1.521   4.324  12.451  0.5774 -0.3490  0.6160
  378TMC3    C6 5707   1.438   4.225  12.502 -0.2535  0.7116  0.1869
  378TMC3     C 5708   1.270   4.584  12.355  0.8685 -0.6777  0.0064
  378TMC3     O 5709   1.161   4.598  12.395  0.3838  0.3858 -0.1550
  378TMC3     H 5710   1.139   4.374  12.443 -0.1296 -0.3120 -0.7363
  378TMC3    H1 5711   1.533   4.517  12.347  0.1543 -0.0217  0.6424
  378TMC3    H2 5712   1.465   4.140  12.563  1.9257  0.6329 -0.8901
  378TMC3    C7 5713   1.664   4.285  12.433  0.4403 -0.2179  0.1016
  378TMC3    C8 5714   1.221   4.147  12.563 -0.1033  0.1118  0.8602
  378TMC3    O1 5715   1.691   4.169  12.467  0.1880 -0.0184  0.0907
  378TMC3    O2 5716   1.242   4.024  12.556  0.0434 -0.7680  0.2474
  379MPD2     C 5717   1.071   2.232  16.370  0.3464  0.3503 -0.7959
  379MPD2    C1 5718   1.200   2.233  16.321  0.9714  0.2757 -0.8246
  379MPD2    C2 5719   1.307   2.223  16.406  0.0601  1.3812  0.4667
  379MPD2    C3 5720   1.287   2.196  16.539  1.0842  0.0993  0.0750
  379MPD2    C4 5721   1.160   2.184  16.585 -0.4219 -0.3647 -0.3822
  379MPD2    C5 5722   1.051   2.207  16.506 -0.9941  0.5920  0.2574
  379MPD2     H 5723   1.407   2.216  16.365  0.0775  0.9398  0.5827
  379MPD2    H1 5724   1.146   2.151  16.688  1.2063  0.5810  0.1613
  379MPD2    H2 5725   0.986   2.247  16.304 -0.3320 -0.4365 -0.1030
  379MPD2    H3 5726   0.952   2.218  16.550 -0.2984  0.8484  1.7617
  379MPD2     N 5727   1.389   2.189  16.642  0.3374 -0.3789 -0.7527
  379MPD2    H5 5728   1.357   2.163  16.735 -1.5664  0.2767 -1.2177
  379MPD2    N1 5729   1.215   2.268  16.183  0.1713  0.2888  0.1285
  379MPD2    H7 5730   1.130   2.291  16.132 -1.3035  0.3791  2.6509
  380TMC3    C1 5731   1.321   2.319  15.980  0.1255  0.1299  1.0000
  380TMC3    C2 5732   1.413   2.278  15.891 -0.0498 -0.2089  0.0275
  380TMC3    C3 5733   1.413   2.314  15.765  0.2488 -0.4772  0.8202
  380TMC3    C4 5734   1.223   2.404  15.939 -0.1429  0.3053  0.4911
  380TMC3    C5 5735   1.219   2.440  15.808  0.6470  0.0974 -0.0756
  380TMC3    C6 5736   1.314   2.393  15.722 -0.9007  0.4235  1.0793
  380TMC3     C 5737   1.334   2.257  16.115  0.9722  0.4796 -0.2725
  380TMC3     O 5738   1.436   2.195  16.140 -0.0330  0.0879  0.0256
  380TMC3     H 5739   1.473   2.193  15.923 -1.0802 -0.7738  0.4480
  380TMC3    H1 5740   1.152   2.444  16.010 -1.5932 -2.2859  0.4941
  380TMC3    H2 5741   1.320   2.428  15.619 -2.7772  2.1828  1.5750
  380TMC3    C7 5742   1.154   2.558  15.778 -0.5928  0.4033  0.3914
  380TMC3    C8 5743   1.546   2.345  15.708 -0.0864 -0.1598  0.0069
  380TMC3    O1 5744   1.177   2.647  15.860 -0.4350  0.0544 -0.1778
  380TMC3    O2 5745   1.542   2.392  15.596 -0.3608 -0.2917 -0.0529
  381TMC3    C1 5746   1.434   3.699  16.382 -0.6018  0.2313  0.2574
  381TMC3    C2 5747   1.518   3.800  16.404  0.2503  0.2057  0.0344
  381TMC3    C3 5748   1.472   3.909  16.479 -0.2799  0.2010  0.4178
  381TMC3    C4 5749   1.310   3.696  16.450 -0.6313  0.0897 -0.1611
  381TMC3    C5 5750   1.274   3.796  16.538 -0.1149 -0.1687  0.0478
  381TMC3    C6 5751   1.352   3.907  16.553 -0.0438 -0.5268 -0.4643
  381TMC3     C 5752   1.494   3.576  16.341  0.0351 -0.1435  0.4146
  381TMC3     O 5753   1.611   3.554  16.362  0.1227 -0.3250  0.0017
  381TMC3     H 5754   1.608   3.806  16.344  0.7141  0.9582  0.8001
  381TMC3    H1 5755   1.255   3.603  16.447  0.1660 -0.3167 -3.0529
  381TMC3    H2 5756   1.306   3.994  16.600 -0.9550 -0.5408 -1.3353
  381TMC3    C7 5757   1.147   3.776  16.606  0.1901  0.2080  0.0077
  381TMC3    C8 5758   1.542   4.033  16.455 -0.4234  0.3401  0.8344
  381TMC3    O1 5759   1.103   3.662  16.592 -1.2251  0.0346 -0.1464
  381TMC3    O2 5760   1.589   4.035  16.342  0.0116 -0.5751  0.4812
  382MPD2     C 5761   0.017   1.817  17.357  0.0518  0.8906 -0.7390
  382MPD2    C1 5762   0.084   1.703  17.320  0.0197  0.5386 -0.2149
  382MPD2    C2 5763   0.076   1.599  17.408 -0.2321 -0.5458 -0.2449
  382MPD2    C3 5764   0.007   1.606  17.526 -0.4146 -0.0906  0.3012
  382MPD2    C4 5765   4.687   1.723  17.564  0.4278  0.2112  0.3830
  382MPD2    C5 5766   4.691   1.822  17.476  0.3409 -0.7095 -0.4356
  382MPD2     H 5767   0.138   1.515  17.378 -1.7840 -2.0226  0.6893
  382MPD2    H1 5768   4.625   1.741  17.651 -1.7157  2.1379 -1.5520
  382MPD2    H2 5769   0.010   1.911  17.304  0.3976  0.1255 -2.1381
  382MPD2    H3 5770   4.632   1.910  17.503  2.5928  0.3358  1.0379
  382MPD2     N 5771   4.730   1.488  17.605  0.2615 -0.2453  0.3411
  382MPD2    H5 5772   0.021   1.405  17.555  2.4337  0.5270  0.3589
  382MPD2    N1 5773   0.178   1.706  17.208 -0.3660 -0.3965  0.5795
  382MPD2    H7 5774   0.235   1.625  17.188 -0.9681 -0.3345 -1.3680
  383TMC3    C1 5775   4.664   1.354   0.043  0.5992 -0.9152 -0.5403
  383TMC3    C2 5776   4.670   1.243  17.718  0.1329  0.0937  0.2000
  383TMC3    C3 5777   4.678   1.126   0.030  0.3491  0.5107  0.6749
  383TMC3    C4 5778   4.645   1.351   0.180 -0.2965  0.0716  0.3739
  383TMC3    C5 5779   4.633   1.229   0.236  0.0983 -0.5324  0.3898
  383TMC3    C6 5780   4.654   1.114   0.162 -0.5771 -0.1035 -0.3302
  383TMC3     C 5781   4.682   1.483  17.733 -0.4410  0.0104 -1.5960
  383TMC3     O 5782   4.646   1.574   0.052 -0.1692 -0.5391  0.4256
  383TMC3     H 5783   4.662   1.245  17.610 -2.4634 -1.9640  0.3878
  383TMC3    H1 5784   4.638   1.441   0.240 -0.1162 -0.0185  0.5338
  383TMC3    H2 5785   4.630   1.019   0.208  1.3139  0.2938  1.4959
  383TMC3    C7 5786   4.592   1.221   0.372 -0.4846 -0.0340  0.0173
  383TMC3    C8 5787   4.677   1.008  17.692 -0.4116  0.1182 -0.0612
  383TMC3    O1 5788   4.587   1.104   0.414  0.0059 -0.3896  0.5000
  383TMC3    O2 5789   4.637   1.020  17.575 -0.0327  0.5780  0.2724
  384MPD2     C 5790   1.890   3.186  12.685 -0.2785 -0.1011  0.4027
  384MPD2    C1 5791   1.872   3.123  12.808 -0.0353 -0.3794 -0.4739
  384MPD2    C2 5792   1.951   3.013  12.835  0.5316 -0.0210  0.2734
  384MPD2    C3 5793   2.030   2.952  12.736  0.0891  0.4010 -0.8146
  384MPD2    C4 5794   2.039   3.012  12.612  0.0570 -0.4874  0.0209
  384MPD2    C5 5795   1.971   3.125  12.590  1.0169 -0.0981 -0.5952
  384MPD2     H 5796   1.955   2.966  12.933  0.9564  0.2869  0.4071
  384MPD2    H1 5797   2.111   2.974  12.540  2.3773  0.6191  1.7470
  384MPD2    H2 5798   1.847   3.282  12.660  1.3402  0.3459 -0.7070
  384MPD2    H3 5799   1.992   3.190  12.506  0.0870  0.5684 -0.3146
  384MPD2     N 5800   2.100   2.836  12.774 -0.4721  0.5516 -0.4905
  384MPD2    H5 5801   2.092   2.816  12.873 -1.3880 -0.6211 -0.8041
  384MPD2    N1 5802   1.796   3.178  12.917 -0.4168 -0.5190  0.4721
  384MPD2    H7 5803   1.815   3.137  13.008 -0.0535 -1.9656 -0.2515
  385TMC3    C1 5804   2.200   2.623  12.768 -0.0735 -0.2843  0.2197
  385TMC3    C2 5805   2.129   2.527  12.704  0.0827 -0.2862 -0.0168
  385TMC3    C3 5806   2.043   2.454  12.790  0.2781 -0.6671 -0.1850
  385TMC3    C4 5807   2.207   2.637  12.906 -0.0157  0.0913 -0.0528
  385TMC3    C5 5808   2.127   2.567  12.986 -0.5434 -0.3467  0.4849
  385TMC3    C6 5809   2.047   2.474  12.934  0.1391  0.8224  0.3822
  385TMC3     C 5810   2.172   2.745  12.693 -0.3548 -0.4548  0.4284
  385TMC3     O 5811   2.166   2.741  12.573 -0.1136 -0.1730  0.0024
  385TMC3     H 5812   2.136   2.530  12.596 -2.3561  0.0653 -0.1745
  385TMC3    H1 5813   2.255   2.726  12.945 -1.9994  0.9522  0.4249
  385TMC3    H2 5814   1.985   2.413  12.999 -0.5401 -1.2929 -2.2206
  385TMC3    C7 5815   2.053   2.649  13.071  0.2324 -0.1025  0.3303
  385TMC3    C8 5816   1.933   2.367  12.756 -0.3084  0.2256  0.8094
  385TMC3    O1 5817   2.026   2.757  13.030  0.2651  0.1004 -0.2038
  385TMC3    O2 5818   1.888   2.303  12.850  0.6282 -0.2667  0.4267
  386TMC3    C1 5819   2.634   0.306  11.884  0.2343 -0.1312  0.1708
  386TMC3    C2 5820   2.617   0.359  11.761 -0.0431 -0.1057  0.0319
  386TMC3    C3 5821   2.549   0.479  11.746  0.0924 -0.0259 -0.6700
  386TMC3    C4 5822   2.580   0.367  11.993  0.9167 -0.1660 -0.2971
  386TMC3    C5 5823   2.528   0.492  11.987  0.0869 -0.1166  0.2870
  386TMC3    C6 5824   2.508   0.543  11.859  0.1591  0.1314  0.1236
  386TMC3     C 5825   2.750   0.236  11.912 -0.7324 -0.3381 -0.1905
  386TMC3     O 5826   2.860   0.276  11.869 -0.6536 -0.0579 -0.3255
  386TMC3     H 5827   2.669   0.315  11.677  1.7699  0.0063  1.0898
  386TMC3    H1 5828   2.595   0.331  12.094  0.1370 -0.8825 -0.4416
  386TMC3    H2 5829   2.442   0.629  11.855  0.9187  0.7226  0.2546
  386TMC3    C7 5830   2.411   0.504  12.069 -0.4548  0.1935 -0.6456
  386TMC3    C8 5831   2.454   0.499  11.631 -0.9431 -0.6671 -0.1466
  386TMC3    O1 5832   2.356   0.395  12.098 -0.7301  0.2310 -0.0149
  386TMC3    O2 5833   2.388   0.603  11.622  0.4278  0.0946  0.2104
  387MPD2     C 5834   0.093   0.371  10.034 -0.4724  0.3729  0.5834
  387MPD2    C1 5835   0.065   0.374  10.165 -0.0481 -0.0300  0.0670
  387MPD2    C2 5836   4.728   0.278  10.227 -0.4291  0.0171  0.3914
  387MPD2    C3 5837   4.674   0.180  10.153  0.3900 -0.1889  0.5843
  387MPD2    C4 5838   4.699   0.163  10.020  0.6299  0.4269 -0.6668
  387MPD2    C5 5839   0.033   0.266   9.964 -0.7255 -0.0207  0.3818
  387MPD2     H 5840   4.735   0.285  10.334 -2.6389  0.9449  0.4861
  387MPD2    H1 5841   4.662   0.084   9.956 -2.0733  0.4951  0.8281
  387MPD2    H2 5842   0.153   0.442   9.978  0.2339 -1.0235 -0.4261
  387MPD2    H3 5843   0.056   0.251   9.859 -1.5095  1.5594 -0.0142
  387MPD2     N 5844   4.616   0.079  10.229 -0.8175  0.5918  0.1361
  387MPD2    H5 5845   4.622   0.095  10.329  0.6745  1.2402 -0.0686
  387MPD2    N1 5846   0.130   0.463  10.249 -0.6550 -0.3922  1.0453
  387MPD2    H7 5847   0.110   0.451  10.348 -0.5613  3.7083  1.5715
  388TMC3    C1 5848   0.272   0.624  10.338 -0.8451 -0.3873  0.2743
  388TMC3    C2 5849   0.272   0.761  10.361  0.1664 -0.0982 -0.6402
  388TMC3    C3 5850   0.317   0.807  10.484 -0.7595  0.7944  0.1672
  388TMC3    C4 5851   0.330   0.534  10.422 -0.0396 -0.1421  0.1431
  388TMC3    C5 5852   0.386   0.585  10.539 -0.4216  0.2745  0.4680
  388TMC3    C6 5853   0.388   0.723  10.562  0.7059 -0.0749  0.2216
  388TMC3     C 5854   0.211   0.565  10.216  0.4703  0.2060  0.3458
  388TMC3     O 5855   0.208   0.634  10.117  0.4450  0.5663 -0.3716
  388TMC3     H 5856   0.225   0.831  10.293 -1.9018 -0.5007  0.3763
  388TMC3    H1 5857   0.355   0.431  10.398  0.4349 -0.1608  0.7050
  388TMC3    H2 5858   0.433   0.765  10.650  2.8760  0.1819 -1.0172
  388TMC3    C7 5859   0.364   0.500  10.655  0.2762  0.1688 -0.6220
  388TMC3    C8 5860   0.339   0.945  10.494 -0.6856 -0.2909  0.0215
  388TMC3    O1 5861   0.328   0.564  10.752  0.0574  0.1246  0.5006
  388TMC3    O2 5862   0.365   1.010  10.394 -0.0066  0.4061 -0.0526
  389MPD2     C 5863   3.343   3.225  10.749  0.0487 -0.0239  0.2921
  389MPD2    C1 5864   3.305   3.361  10.745  0.4726 -0.0947  0.2037
  389MPD2    C2 5865   3.173   3.386  10.786  0.3287 -0.5441 -0.0368
  389MPD2    C3 5866   3.096   3.290  10.845 -0.0275 -1.4401  0.2696
  389MPD2    C4 5867   3.137   3.157  10.838  0.9527 -0.2594  0.6457
  389MPD2    C5 5868   3.261   3.120  10.792 -0.3352 -0.7079  0.5926
  389MPD2     H 5869   3.123   3.483  10.778  1.6625  0.0220 -1.4340
  389MPD2    H1 5870   3.073   3.078  10.876 -1.6687  1.6075  0.1615
  389MPD2    H2 5871   3.444   3.205  10.716 -0.9588 -3.1445 -0.9029
  389MPD2    H3 5872   3.300   3.019  10.790  1.4792  0.1067 -3.4948
  389MPD2     N 5873   2.983   3.316  10.923 -0.1155 -0.9958 -0.2331
  389MPD2    H5 5874   2.954   3.238  10.981 -1.8713  0.4860  0.8805
  389MPD2    N1 5875   3.384   3.462  10.691  0.1195  0.2887 -0.3690
  389MPD2    H7 5876   3.337   3.546  10.655  0.8389 -0.1879 -2.4305
  390TMC3    C1 5877   2.837   3.412  11.066  0.2513  0.4122  0.3652
  390TMC3    C2 5878   2.773   3.287  11.083 -0.3785 -0.1437  0.3354
  390TMC3    C3 5879   2.717   3.259  11.202 -0.2613 -0.4743 -1.0772
  390TMC3    C4 5880   2.829   3.506  11.167  0.2084 -0.0506  0.1549
  390TMC3    C5 5881   2.767   3.473  11.285  0.0807 -0.1403  0.2528
  390TMC3    C6 5882   2.708   3.349  11.299 -0.6546  0.8415 -0.0204
  390TMC3     C 5883   2.937   3.435  10.968  0.5206 -0.3479 -0.5446
  390TMC3     O 5884   2.983   3.547  10.956  0.2200 -0.2258 -0.0631
  390TMC3     H 5885   2.783   3.205  11.012 -0.3755 -1.7828  2.2081
  390TMC3    H1 5886   2.883   3.599  11.154  1.8666 -0.9568  0.5875
  390TMC3    H2 5887   2.679   3.302  11.392  0.0020 -1.0880 -0.7933
  390TMC3    C7 5888   2.819   3.532  11.409  0.7375 -0.2635  0.9257
  390TMC3    C8 5889   2.656   3.132  11.229  0.8367  0.3980 -0.2164
  390TMC3    O1 5890   2.910   3.615  11.394  0.0320 -1.0790 -0.1294
  390TMC3    O2 5891   2.712   3.034  11.179  0.2014  0.4539 -0.0851
  391MPD2     C 5892   2.837   0.399  11.479 -0.3092  0.0599 -0.2814
  391MPD2    C1 5893   2.961   0.450  11.467 -0.3975 -0.1709  0.3109
  391MPD2    C2 5894   2.995   0.529  11.358 -0.1270 -0.7827  0.1560
  391MPD2    C3 5895   2.901   0.568  11.267 -0.2055  0.3856 -0.9386
  391MPD2    C4 5896   2.776   0.506  11.288  0.4986 -1.0642  0.4009
  391MPD2    C5 5897   2.747   0.425  11.388  1.0706 -0.1799  0.0533
  391MPD2     H 5898   3.093   0.570  11.338 -0.0276 -0.1218  2.0725
  391MPD2    H1 5899   2.689   0.517  11.225  1.0669 -1.3379 -0.4406
  391MPD2    H2 5900   2.813   0.337  11.564 -0.5421 -0.8203 -0.9854
  391MPD2    H3 5901   2.644   0.393  11.398  0.8413 -0.3362 -3.0462
  391MPD2     N 5902   2.928   0.655  11.160  0.0640 -1.0033 -0.2950
  391MPD2    H5 5903   3.023   0.688  11.147 -0.8398  1.7840  0.1438
  391MPD2    N1 5904   3.049   0.427  11.573  0.4911 -0.0722  0.4475
  391MPD2    H7 5905   3.011   0.368  11.647 -1.1796  1.7564  1.0285
  392TMC3    C1 5906   2.903   0.786  10.973  0.3428 -0.6276 -0.8533
  392TMC3    C2 5907   2.842   0.798  10.852 -0.5794 -0.2506 -0.2090
  392TMC3    C3 5908   2.922   0.821  10.740  0.4251  0.1227  0.5358
  392TMC3    C4 5909   3.037   0.832  10.994  0.4163 -0.9550 -0.0814
  392TMC3    C5 5910   3.102   0.874  10.881 -0.1425  0.6596 -0.0826
  392TMC3    C6 5911   3.053   0.858  10.750 -0.5174 -0.0740 -0.5213
  392TMC3     C 5912   2.838   0.704  11.074  0.2546  0.3942  0.1364
  392TMC3     O 5913   2.716   0.700  11.075 -0.0143  0.3897  0.6949
  392TMC3     H 5914   2.740   0.763  10.843  0.0358 -2.6629  2.0864
  392TMC3    H1 5915   3.080   0.851  11.091  0.6956 -0.9169 -0.2125
  392TMC3    H2 5916   3.107   0.871  10.657 -0.1944 -0.9903 -0.4639
  392TMC3    C7 5917   3.240   0.924  10.895  0.5729  0.2988 -0.3048
  392TMC3    C8 5918   2.844   0.839  10.619 -0.3731 -1.0522  0.5238
  392TMC3    O1 5919   3.298   0.925  11.002  0.2857 -0.4295  0.5724
  392TMC3    O2 5920   2.747   0.758  10.607  0.0651 -0.3565  0.4760
  393TMC3    C1 5921   1.865   3.353  10.967  0.0479  0.5424  0.2472
  393TMC3    C2 5922   1.750   3.306  11.025  0.5608 -0.5405  0.5511
  393TMC3    C3 5923   1.684   3.201  10.959 -0.7826 -0.2850  0.0240
  393TMC3    C4 5924   1.902   3.303  10.846 -0.0724 -0.0588  0.1993
  393TMC3    C5 5925   1.840   3.190  10.792  0.2807  0.3775 -0.8000
  393TMC3    C6 5926   1.723   3.142  10.842 -0.7573 -0.0040 -0.5559
  393TMC3     C 5927   1.903   3.495  10.984  0.6774 -0.7625 -0.4844
  393TMC3     O 5928   1.894   3.563  10.885  0.5792 -0.7298 -0.1212
  393TMC3     H 5929   1.721   3.348  11.121 -2.0804  1.6192 -1.2163
  393TMC3    H1 5930   1.993   3.341  10.802  1.0437 -2.2243  0.6449
  393TMC3    H2 5931   1.670   3.053  10.810 -3.1438  0.8895  0.8713
  393TMC3    C7 5932   1.903   3.116  10.680 -0.5778  0.5311  0.0015
  393TMC3    C8 5933   1.565   3.165  11.024 -0.2864  0.2306  0.4479
  393TMC3    O1 5934   1.827   3.029  10.637 -0.6717 -0.0590 -0.0316
  393TMC3    O2 5935   1.536   3.204  11.137  0.5115  0.4770 -0.1301
  394TMC3    C1 5936   3.583   3.571  10.638 -0.4259 -0.6031 -0.8590
  394TMC3    C2 5937   3.532   3.605  10.515  0.3553 -0.2642 -0.2785
  394TMC3    C3 5938   3.612   3.683  10.437  0.4202 -0.3567  0.2827
  394TMC3    C4 5939   3.710   3.608  10.688  0.6647  0.6216  0.3675
  394TMC3    C5 5940   3.781   3.697  10.612 -0.1924 -0.7284  0.1875
  394TMC3    C6 5941   3.732   3.730  10.486  0.7562 -0.6255 -0.5121
  394TMC3     C 5942   3.521   3.461  10.705 -1.2019 -0.2499  0.1325
  394TMC3     O 5943   3.594   3.385  10.768 -0.2799  0.0969  0.1518
  394TMC3     H 5944   3.449   3.553  10.468 -0.9707  1.4155  0.2037
  394TMC3    H1 5945   3.745   3.566  10.782  0.1419  1.1579  0.7958
  394TMC3    H2 5946   3.799   3.793  10.428 -1.5991  1.0548 -1.3845
  394TMC3    C7 5947   3.896   3.771  10.653  0.2202  0.1712 -0.0937
  394TMC3    C8 5948   3.619   3.621  10.302 -0.3529 -0.5550  0.7414
  394TMC3    O1 5949   3.934   3.866  10.585  0.0800  0.4977  0.0561
  394TMC3    O2 5950   3.516   3.602  10.244  0.0560 -0.4370  0.1490
  395TMC3    C1 5951   3.527   4.639  15.061  0.4780 -0.3984 -0.5107
  395TMC3    C2 5952   3.523   4.531  14.977  0.1764  0.1741  0.3392
  395TMC3    C3 5953   3.584   4.542  14.850  0.2178 -0.4742 -0.1074
  395TMC3    C4 5954   3.585   0.013  15.018  0.4976  0.0289  0.2255
  395TMC3    C5 5955   3.655   0.013  14.902 -0.7596 -0.6265 -0.4350
  395TMC3    C6 5956   3.657   4.647  14.819 -0.4949  0.6445 -0.4768
  395TMC3     C 5957   3.456   4.638  15.192  0.1523  0.0907  1.0043
  395TMC3     O 5958   3.453   0.007  15.251 -0.0050  0.1180 -0.2278
  395TMC3     H 5959   3.453   4.450  14.995 -1.9587  2.0609  0.5114
  395TMC3    H1 5960   3.587   0.097  15.087  0.6263  0.2130 -0.0016
  395TMC3    H2 5961   3.689   4.657  14.716 -1.3179  2.3979 -0.5608
  395TMC3    C7 5962   3.721   0.134  14.869 -0.1240  0.6910  0.0841
  395TMC3    C8 5963   3.584   4.433  14.758  0.2617 -0.6231  0.3101
  395TMC3    O1 5964   3.751   0.207  14.961  0.1151 -0.0681 -0.5855
  395TMC3    O2 5965   3.684   4.421  14.685 -0.2591 -0.0714 -0.5880
  396MPD2     C 5966   3.318   0.890  16.676  0.3215 -0.6115  0.5623
  396MPD2    C1 5967   3.377   0.976  16.769 -0.7842  0.0637  0.1695
  396MPD2    C2 5968   3.452   1.088  16.719 -0.2632 -0.7865  0.4646
  396MPD2    C3 5969   3.453   1.118  16.588  0.5725 -0.4335 -0.0399
  396MPD2    C4 5970   3.393   1.036  16.498 -0.1516  0.1605  1.2161
  396MPD2    C5 5971   3.322   0.923  16.542  0.2610  0.1471  0.2619
  396MPD2     H 5972   3.495   1.163  16.785 -0.5143 -1.1017  0.9953
  396MPD2    H1 5973   3.378   1.062  16.394  1.1499  0.4633  1.0980
  396MPD2    H2 5974   3.262   0.799  16.695  1.1786 -1.4359 -0.8158
  396MPD2    H3 5975   3.263   0.874  16.466 -0.1855 -1.2945  1.5363
  396MPD2     N 5976   3.525   1.230  16.534 -0.0867  0.2074  0.2661
  396MPD2    H5 5977   3.574   1.284  16.604 -0.4881  0.7252  0.1459
  396MPD2    N1 5978   3.359   0.951  16.908 -0.4891  0.0224  0.0343
  396MPD2    H7 5979   3.309   0.865  16.925 -1.8401  0.5760 -1.1481
  397TMC3    C1 5980   3.414   0.949  17.139  0.2720 -0.1568 -0.0372
  397TMC3    C2 5981   3.539   0.940  17.184 -0.4277  0.0614 -0.5238
  397TMC3    C3 5982   3.578   0.824  17.255 -0.3783  1.2672 -0.2411
  397TMC3    C4 5983   3.335   0.836  17.150  0.1435  0.8617 -0.7828
  397TMC3    C5 5984   3.383   0.724  17.206 -0.1798  0.1872 -0.2574
  397TMC3    C6 5985   3.505   0.711  17.260  0.1190 -0.3255 -0.8087
  397TMC3     C 5986   3.428   1.004  17.010  0.8206 -1.1101 -0.5612
  397TMC3     O 5987   3.495   1.106  17.000 -0.0857  0.0158 -0.4413
  397TMC3     H 5988   3.615   1.015  17.164 -1.2004  1.3871  1.5296
  397TMC3    H1 5989   3.231   0.844  17.118  0.1145 -0.3691 -0.9805
  397TMC3    H2 5990   3.536   0.620  17.310 -1.9806 -0.1120  0.8895
  397TMC3    C7 5991   3.295   0.662  17.304 -0.1329 -0.2806  0.3193
  397TMC3    C8 5992   3.673   0.833  17.366  0.9055 -0.0590 -0.5608
  397TMC3    O1 5993   3.351   0.624  17.405  0.4827  0.0159 -0.5180
  397TMC3    O2 5994   3.642   0.792  17.474  0.0201  0.1762 -0.2053
  398MPD2     C 5995   1.664   2.745  17.692  0.1027 -0.0003 -0.0442
  398MPD2    C1 5996   1.765   2.662  17.741 -0.2557  1.2782  0.5935
  398MPD2    C2 5997   1.898   2.687  17.707 -0.4020  0.3184 -0.8044
  398MPD2    C3 5998   1.936   2.795  17.631  0.5420  0.1276  0.1782
  398MPD2    C4 5999   1.837   2.881  17.584 -0.1705 -0.0050 -1.5525
  398MPD2    C5 6000   1.707   2.854  17.617 -0.3332 -0.2208  0.5271
  398MPD2     H 6001   1.966   2.611  17.744  0.9074  1.3299 -1.1399
  398MPD2    H1 6002   1.857   2.971  17.527  1.1735  0.4619 -0.3445
  398MPD2    H2 6003   1.557   2.728  17.700  0.0440  0.6875  0.6346
  398MPD2    H3 6004   1.637   2.920  17.568  1.7199  1.8747  0.3762
  398MPD2     N 6005   2.075   2.813  17.598 -0.4505 -0.0540  0.6133
  398MPD2    H5 6006   2.141   2.750  17.643 -1.4147 -1.0648  0.5992
  398MPD2    N1 6007   1.733   2.534   0.045 -0.0597  0.0067 -0.1721
  398MPD2    H7 6008   1.810   2.468   0.042 -1.4604 -1.6540  0.3073
  399TMC3    C1 6009   1.609   2.351   0.120 -0.2952 -0.2064  0.4728
  399TMC3    C2 6010   1.729   2.296   0.151 -0.0905 -0.1201  0.0813
  399TMC3    C3 6011   1.749   2.163   0.116 -0.0644 -0.8478 -0.4276
  399TMC3    C4 6012   1.504   2.269   0.080 -0.3411 -1.1290  0.4906
  399TMC3    C5 6013   1.533   2.138   0.037 -0.3755 -0.3587  0.6920
  399TMC3    C6 6014   1.656   2.090   0.055  0.3783  1.0889  0.2012
  399TMC3     C 6015   1.608   2.485   0.075 -0.7270  0.2748 -0.1612
  399TMC3     O 6016   1.497   2.523   0.051  0.3754 -0.3736  0.3916
  399TMC3     H 6017   1.791   2.360   0.211  0.6823 -0.3798 -0.4406
  399TMC3    H1 6018   1.406   2.315   0.080  0.2903  0.2111  1.8310
  399TMC3    H2 6019   1.678   1.987   0.028  0.3513  0.8651  1.0432
  399TMC3    C7 6020   1.437   2.060  17.721  0.1191  0.1219 -0.1195
  399TMC3    C8 6021   1.890   2.130   0.120 -0.6897 -0.8274  0.2560
  399TMC3    O1 6022   1.331   2.046   0.028 -0.5429  0.4521  0.2225
  399TMC3    O2 6023   1.954   2.229   0.144  0.1363  0.5644 -0.1686
  400TMC3    C1 6024   0.127   0.681  17.175 -0.3261  0.8484 -0.1598
  400TMC3    C2 6025   0.062   0.638  17.059 -0.1391  0.0113  0.6829
  400TMC3    C3 6026   0.009   0.735  16.981 -1.0646  0.4739 -0.7254
  400TMC3    C4 6027   0.127   0.812  17.217  0.3679 -0.0485 -0.7910
  400TMC3    C5 6028   0.068   0.898  17.137 -0.5895 -0.3357  0.1308
  400TMC3    C6 6029   0.010   0.866  17.017 -0.7903 -1.1671  0.0403
  400TMC3     C 6030   0.248   0.611  17.214 -0.5848  0.1911 -0.1604
  400TMC3     O 6031   0.237   0.488  17.210  0.6582 -0.5523 -0.6261
  400TMC3     H 6032   0.064   0.531  17.040  3.1259 -0.0135  1.2793
  400TMC3    H1 6033   0.143   0.837  17.321  0.0520 -0.9265 -0.5388
  400TMC3    H2 6034   4.693   0.935  16.954 -0.8021  0.0200  1.3306
  400TMC3    C7 6035   0.042   1.034  17.193 -0.8166  0.4991  0.4075
  400TMC3    C8 6036   4.630   0.700  16.909 -0.4586  0.0769 -0.6034
  400TMC3    O1 6037   0.043   1.047  17.312  0.2101 -0.1489  0.0894
  400TMC3    O2 6038   4.543   0.788  16.908 -0.5315  0.2182 -0.3721
  401MPD2     C 6039   2.707   4.090   0.852 -0.3346  0.3177  0.2239
  401MPD2    C1 6040   2.807   4.015   0.911 -0.1514 -0.1809  0.0148
  401MPD2    C2 6041   2.796   3.880   0.891 -0.5595 -0.0976  0.6694
  401MPD2    C3 6042   2.713   3.813   0.814  0.7993 -0.0256  0.3293
  401MPD2    C4 6043   2.615   3.888   0.752 -0.5318 -0.7422 -0.5450
  401MPD2    C5 6044   2.618   4.024   0.769  0.3624  0.1916 -0.1484
  401MPD2     H 6045   2.875   3.828   0.945  0.3075  1.9780  1.4353
  401MPD2    H1 6046   2.545   3.842   0.684 -2.2758 -1.6036  1.8254
  401MPD2    H2 6047   2.702   4.198   0.861 -0.8812  0.3737 -0.8035
  401MPD2    H3 6048   2.537   4.077   0.720  0.2987  1.5898  1.4910
  401MPD2     N 6049   2.727   3.675   0.814 -0.2752  0.3017 -0.0214
  401MPD2    H5 6050   2.794   3.626   0.872 -0.9068 -3.1016 -2.1612
  401MPD2    N1 6051   2.905   4.051   1.004  0.2491 -0.4326 -0.0936
  401MPD2    H7 6052   2.970   3.979   1.034  0.6558 -0.4130 -0.9213
  402TMC3    C1 6053   2.697   3.451   0.737  0.4750 -0.1826 -0.3125
  402TMC3    C2 6054   2.739   3.397   0.853  0.3120 -0.2799  1.0267
  402TMC3    C3 6055   2.795   3.275   0.846 -0.1266  0.4184  0.6614
  402TMC3    C4 6056   2.715   3.392   0.615 -0.6187 -0.5793 -0.7714
  402TMC3    C5 6057   2.766   3.261   0.616  0.2132  0.0211 -0.8268
  402TMC3    C6 6058   2.803   3.196   0.728  0.2028  0.4496 -0.1591
  402TMC3     C 6059   2.653   3.589   0.734  0.8076  0.6808  0.6279
  402TMC3     O 6060   2.573   3.619   0.647  0.2306 -0.2776 -0.3875
  402TMC3     H 6061   2.733   3.456   0.943 -1.4535 -0.4507  1.0261
  402TMC3    H1 6062   2.692   3.457   0.531 -1.1777 -1.4835 -1.3106
  402TMC3    H2 6063   2.837   3.094   0.717 -1.4262  0.0537 -1.4681
  402TMC3    C7 6064   2.842   3.236   0.502 -0.8740 -0.4918  0.0869
  402TMC3    C8 6065   2.888   3.224   0.947 -0.5018 -0.0669 -0.0138
  402TMC3    O1 6066   2.788   3.246   0.392 -0.1597  0.4513  0.0522
  402TMC3    O2 6067   2.968   3.142   0.900 -0.0404 -0.5312 -0.0294
  403MPD2     C 6068   1.465   2.403  13.344  0.2585  0.6779  0.0070
  403MPD2    C1 6069   1.396   2.405  13.470  0.4611 -0.4337  0.8741
  403MPD2    C2 6070   1.473   2.372  13.580 -0.1819  0.3652 -0.5614
  403MPD2    C3 6071   1.598   2.313  13.571 -0.2111  0.2628  0.2355
  403MPD2    C4 6072   1.655   2.291  13.446  0.6380 -0.3736 -0.0062
  403MPD2    C5 6073   1.590   2.339  13.337  0.1302  0.4312 -0.0156
  403MPD2     H 6074   1.432   2.387  13.679 -0.3391 -2.0567 -0.2499
  403MPD2    H1 6075   1.756   2.254  13.436  0.1452 -1.3782 -1.1958
  403MPD2    H2 6076   1.421   2.434  13.251 -2.0336 -1.6947  0.2928
  403MPD2    H3 6077   1.626   2.321  13.236 -1.6424 -1.2122 -0.3580
  403MPD2     N 6078   1.660   2.280  13.692  0.1913 -0.4436 -0.7587
  403MPD2    H5 6079   1.601   2.286  13.774 -0.3990 -1.1376 -1.1352
  403MPD2    N1 6080   1.264   2.447  13.473 -0.1639 -0.0623 -0.6397
  403MPD2    H7 6081   1.223   2.466  13.382 -0.2624 -2.1217 -1.0250
  404TMC3    C1 6082   1.054   2.434  13.539 -0.1439 -0.1286  0.0134
  404TMC3    C2 6083   0.992   2.329  13.601  0.1191  0.4342  0.5342
  404TMC3    C3 6084   0.932   2.228  13.527  0.8829 -0.6221  0.2560
  404TMC3    C4 6085   1.042   2.443  13.395 -0.8260 -0.9919 -0.3353
  404TMC3    C5 6086   0.971   2.347  13.333  0.1346  0.1226  0.5418
  404TMC3    C6 6087   0.907   2.243  13.395  0.3283  0.1765 -0.2880
  404TMC3     C 6088   1.185   2.449  13.588 -0.0520  0.2256  0.6541
  404TMC3     O 6089   1.211   2.397  13.695 -0.2300  0.3976 -0.0805
  404TMC3     H 6090   1.007   2.310  13.707  0.9963  0.1217  0.3545
  404TMC3    H1 6091   1.066   2.538  13.349 -0.0112 -1.0722 -0.0883
  404TMC3    H2 6092   0.878   2.154  13.340 -0.4445  0.1701  0.1236
  404TMC3    C7 6093   0.982   2.355  13.194 -0.4235 -0.0067  0.5403
  404TMC3    C8 6094   0.942   2.092  13.582  0.0250  0.2022 -0.9486
  404TMC3    O1 6095   1.091   2.398  13.156  0.1428  0.7729 -0.0239
  404TMC3    O2 6096   0.980   2.006  13.507  0.8119 -0.4455  0.5642
  405MPD2     C 6097   1.786   3.130  14.875 -0.0195  0.1756  0.2617
  405MPD2    C1 6098   1.703   3.044  14.809 -0.3626  0.6125 -0.5623
  405MPD2    C2 6099   1.580   3.094  14.760 -0.5361 -0.4504 -1.1615
  405MPD2    C3 6100   1.534   3.216  14.804 -0.2319 -0.1284 -0.5769
  405MPD2    C4 6101   1.619   3.301  14.875  0.4022 -0.6524  0.3025
  405MPD2    C5 6102   1.744   3.255  14.910  0.2149 -0.3325  0.1612
  405MPD2     H 6103   1.514   3.035  14.698  0.1205 -0.9255 -1.4075
  405MPD2    H1 6104   1.585   3.393  14.921  1.8189  0.0344 -0.0330
  405MPD2    H2 6105   1.886   3.097  14.899 -0.9750 -1.6578  1.7257
  405MPD2    H3 6106   1.812   3.315  14.969 -0.7695  0.2870  0.6724
  405MPD2     N 6107   1.400   3.251  14.770  1.3100 -0.1190 -0.4013
  405MPD2    H5 6108   1.342   3.192  14.711 -1.5565  3.2632 -0.9732
  405MPD2    N1 6109   1.738   2.910  14.788 -0.5492 -0.1162  0.5964
  405MPD2    H7 6110   1.817   2.871  14.839  0.1641  0.2451 -0.2354
  406TMC3    C1 6111   0.983   3.364  14.667 -0.1747  0.0929 -0.8889
  406TMC3    C2 6112   0.941   3.237  14.697 -0.3678  0.4266 -0.1937
  406TMC3    C3 6113   1.015   3.158  14.778  0.5591 -0.0447  0.0070
  406TMC3    C4 6114   1.104   3.404  14.718  0.3115 -0.1294  0.0178
  406TMC3    C5 6115   1.187   3.318  14.784 -0.6098  1.0163  0.2119
  406TMC3    C6 6116   1.141   3.196  14.814 -0.0373 -0.3838 -0.1740
  406TMC3     C 6117   0.907   3.450  14.580 -0.0213 -0.4006  0.7566
  406TMC3     O 6118   0.936   3.570  14.586 -0.5167 -0.4342 -0.3941
  406TMC3     H 6119   0.838   3.214  14.675 -0.2018 -0.1981 -0.3323
  406TMC3    H1 6120   1.145   3.500  14.686  2.8275 -1.9879 -2.3006
  406TMC3    H2 6121   1.200   3.140  14.886 -0.0260 -1.1288 -0.7670
  406TMC3    C7 6122   1.325   3.352  14.819  0.8898  0.3298 -0.1010
  406TMC3    C8 6123   0.981   3.024  14.795 -0.4474  0.5302  1.1003
  406TMC3    O1 6124   1.353   3.447  14.892 -0.1181  0.2789  0.2183
  406TMC3    O2 6125   0.865   2.994  14.793 -0.2361 -0.7962 -0.2488
  407MPD2     C 6126   4.164   4.217   9.884 -0.5193  0.0558 -0.4092
  407MPD2    C1 6127   4.222   4.255  10.009  1.1535  0.0239  0.5127
  407MPD2    C2 6128   4.199   4.393  10.047 -0.2606 -0.0936  0.1546
  407MPD2    C3 6129   4.122   4.480   9.964  0.5270 -0.3361 -0.3165
  407MPD2    C4 6130   4.064   4.426   9.850  1.1182 -0.1849 -0.4263
  407MPD2    C5 6131   4.082   4.295   9.810  0.5353  0.7717 -0.2228
  407MPD2     H 6132   4.244   4.434  10.136  0.4113  0.8443 -0.6084
  407MPD2    H1 6133   4.000   4.494   9.795 -0.8979 -1.4722  0.3337
  407MPD2    H2 6134   4.192   4.121   9.842 -0.2954  0.4456 -1.1448
  407MPD2    H3 6135   4.032   4.253   9.724 -0.4682  0.9350  0.2850
  407MPD2     N 6136   4.097   4.616   9.993  0.1540 -0.7161 -0.1801
  407MPD2    H5 6137   4.016   4.647   9.941  0.8252  1.3940  0.0410
  407MPD2    N1 6138   4.298   4.171  10.101  0.1217 -0.4665  0.5284
  407MPD2    H7 6139   4.349   4.208  10.181  0.4048 -0.6259  0.4231
  408TMC3    C1 6140   4.446   3.983  10.153  0.6225 -0.0696  0.6170
  408TMC3    C2 6141   4.564   4.058  10.173  0.3817 -0.0447  0.0973
  408TMC3    C3 6142   4.676   3.996  10.227 -0.0773 -0.4980  0.2487
  408TMC3    C4 6143   4.452   3.844  10.167  0.4526 -0.4094 -0.4635
  408TMC3    C5 6144   4.565   3.785  10.221  0.1311  0.2607  0.0895
  408TMC3    C6 6145   4.676   3.860  10.247  0.2546  0.0938  0.5373
  408TMC3     C 6146   4.334   4.041  10.073 -0.0853  0.2112 -0.2276
  408TMC3     O 6147   4.280   3.966   9.993 -0.1845  0.6346 -0.3230
  408TMC3     H 6148   4.565   4.166  10.173 -0.0543 -0.0440 -0.3878
  408TMC3    H1 6149   4.359   3.791  10.148  1.0197 -1.5454 -0.0736
  408TMC3    H2 6150   0.017   3.817  10.305  0.7948  0.4648  0.0689
  408TMC3    C7 6151   4.576   3.642  10.252  0.7979 -0.8062  0.0964
  408TMC3    C8 6152   0.055   4.076  10.267  0.4273  0.0420  0.4538
  408TMC3    O1 6153   4.685   3.602  10.289  0.2179  0.5513 -0.5232
  408TMC3    O2 6154   0.118   4.025  10.356 -0.3969  0.1695 -0.1409
  409MPD2     C 6155   4.082   4.628  16.931 -0.4142  0.4477 -0.7286
  409MPD2    C1 6156   4.127   4.632  17.065  0.2104  0.2441  0.4002
  409MPD2    C2 6157   4.182   0.013  17.110 -0.4677  0.3416  0.6785
  409MPD2    C3 6158   4.193   0.118  17.024  0.3439  0.7779 -0.1161
  409MPD2    C4 6159   4.163   0.107  16.893 -0.7857  0.5568 -0.0648
  409MPD2    C5 6160   4.115   4.730  16.850 -0.0013  0.7704  0.1957
  409MPD2     H 6161   4.204   0.021  17.216  1.9786  0.1155  0.1892
  409MPD2    H1 6162   4.166   0.195  16.830  0.7084 -1.1109 -2.3042
  409MPD2    H2 6163   4.036   4.542  16.884 -0.5531 -0.3086  0.7989
  409MPD2    H3 6164   4.096   4.716  16.744 -1.1830  0.0219  0.5064
  409MPD2     N 6165   4.215   0.246  17.062 -0.3121  0.2948  0.3081
  409MPD2    H5 6166   4.204   0.319  16.992 -0.6920 -0.3774 -0.3355
  409MPD2    N1 6167   4.095   4.523  17.147  0.2768  0.7494 -0.3342
  409MPD2    H7 6168   4.136   4.535  17.239 -1.0343 -0.0324  0.3470
  410TMC3    C1 6169   4.283   0.429  17.197  0.0944  0.1012 -1.0361
  410TMC3    C2 6170   4.388   0.475  17.268  0.5717 -0.4858  0.2857
  410TMC3    C3 6171   4.427   0.605  17.247 -0.4358  0.3641  0.2413
  410TMC3    C4 6172   4.202   0.506  17.121 -0.4834  0.3805 -0.3268
  410TMC3    C5 6173   4.245   0.638  17.101 -0.5006  0.6939 -0.4350
  410TMC3    C6 6174   4.363   0.685  17.155 -0.4717 -0.3478 -0.0577
  410TMC3     C 6175   4.261   0.287  17.187 -0.1993  0.4008 -0.2366
  410TMC3     O 6176   4.278   0.225  17.292 -0.0578  0.0480  0.4209
  410TMC3     H 6177   4.432   0.404  17.337  1.2414  0.2865  0.6492
  410TMC3    H1 6178   4.115   0.470  17.067 -0.9139  0.7039  0.1516
  410TMC3    H2 6179   4.396   0.788  17.150  0.3406 -0.5860  0.2875
  410TMC3    C7 6180   4.179   0.712  16.996  0.0963  0.5189 -0.4608
  410TMC3    C8 6181   4.510   0.671  17.342  0.4401  0.4898 -0.6206
  410TMC3    O1 6182   4.086   0.651  16.941  0.2629 -0.1732  0.2618
  410TMC3    O2 6183   4.486   0.790  17.350  0.6614 -0.3310 -0.0391
  411MPD2     C 6184   3.754   0.741  14.925  0.8097  0.1968 -0.3524
  411MPD2    C1 6185   3.691   0.806  14.822 -0.3036  0.4792 -0.5604
  411MPD2    C2 6186   3.598   0.734  14.753  0.1567  1.1556  0.1243
  411MPD2    C3 6187   3.566   0.602  14.782 -0.0806 -0.1772 -0.5930
  411MPD2    C4 6188   3.630   0.541  14.885 -0.0043  0.4017  0.0521
  411MPD2    C5 6189   3.714   0.617  14.960 -0.7333  0.1303 -0.5706
  411MPD2     H 6190   3.547   0.790  14.676 -1.4334 -1.3542 -0.6121
  411MPD2    H1 6191   3.600   0.447  14.929 -0.6718  0.0973 -1.0351
  411MPD2    H2 6192   3.836   0.786  14.979  0.3454  0.6144  0.0005
  411MPD2    H3 6193   3.785   0.571  15.028 -0.5364 -0.0736 -0.9087
  411MPD2     N 6194   3.491   0.522  14.691  0.0484  0.5053 -0.1040
  411MPD2    H5 6195   3.507   0.421  14.687  0.2836  0.5621 -0.6535
  411MPD2    N1 6196   3.718   0.941  14.784 -1.1639  0.0677  0.3758
  411MPD2    H7 6197   3.682   0.967  14.693 -0.8899 -0.3988  0.1306
  412TMC3    C1 6198   3.333   0.496  14.512  0.4015  0.6439  0.0389
  412TMC3    C2 6199   3.220   0.531  14.446  0.1318 -0.0120 -0.2941
  412TMC3    C3 6200   3.198   0.499  14.314  0.0115  0.4767  0.1263
  412TMC3    C4 6201   3.431   0.424  14.454  0.0899 -0.3841 -0.0534
  412TMC3    C5 6202   3.409   0.379  14.325  0.5104 -0.4954  0.3067
  412TMC3    C6 6203   3.293   0.418  14.261  0.8341  0.1395  0.5373
  412TMC3     C 6204   3.383   0.577  14.620 -0.4029 -1.2133  0.5451
  412TMC3     O 6205   3.314   0.673  14.652 -0.4280 -0.0375 -0.1573
  412TMC3     H 6206   3.154   0.612  14.476 -2.1616 -2.2401  0.6961
  412TMC3    H1 6207   3.533   0.410  14.486 -0.0485 -2.5846 -0.5601
  412TMC3    H2 6208   3.286   0.402  14.154  0.0641  0.2801  0.5675
  412TMC3    C7 6209   3.523   0.415  14.250  0.2165 -0.1248 -0.3212
  412TMC3    C8 6210   3.161   0.625  14.242  0.2537 -0.2071  0.4138
  412TMC3    O1 6211   3.533   0.533  14.220  0.0605  0.2699 -0.0115
  412TMC3    O2 6212   3.051   0.676  14.259 -0.8397 -0.2359  0.2867
  413MPD2     C 6213   1.018   4.338  15.542  0.6320  0.6829 -0.4198
  413MPD2    C1 6214   0.955   4.262  15.444 -0.0183  0.1436  0.1559
  413MPD2    C2 6215   1.033   4.174  15.368  0.2582 -0.2092 -0.3346
  413MPD2    C3 6216   1.171   4.174  15.379 -0.6242 -0.2597 -0.4205
  413MPD2    C4 6217   1.231   4.262  15.464  0.2172 -0.4734  0.3819
  413MPD2    C5 6218   1.152   4.335  15.554  0.8359  0.2102 -0.1962
  413MPD2     H 6219   0.987   4.099  15.304 -1.3362  1.7802 -1.5441
  413MPD2    H1 6220   1.338   4.260  15.480  0.5463  0.6451 -1.7311
  413MPD2    H2 6221   0.965   4.404  15.610  0.8589  1.8867 -1.4116
  413MPD2    H3 6222   1.200   4.404  15.623  0.1588  1.2289 -0.7494
  413MPD2     N 6223   1.254   4.082  15.295  0.3304  0.3124 -0.5125
  413MPD2    H5 6224   1.203   4.014  15.241 -3.1051  2.5892 -0.1790
  413MPD2    N1 6225   0.812   4.272  15.429 -0.0567  0.1167 -0.4123
  413MPD2    H7 6226   0.755   4.332  15.488  0.6707  1.2634 -0.8640
  414TMC3    C1 6227   1.443   3.971  15.205 -0.0119  0.3286  0.5737
  414TMC3    C2 6228   1.552   3.890  15.235  0.4747  0.1167 -0.1945
  414TMC3    C3 6229   1.568   3.775  15.158  0.3767 -0.2584 -0.2292
  414TMC3    C4 6230   1.360   3.947  15.096  0.3708 -0.1147 -0.2609
  414TMC3    C5 6231   1.384   3.824  15.030  0.6724 -0.7599 -0.4746
  414TMC3    C6 6232   1.490   3.744  15.054  0.2295 -0.0121  0.4667
  414TMC3     C 6233   1.393   4.073  15.295  0.4810  0.1962  0.5926
  414TMC3     O 6234   1.476   4.120  15.370  0.5913  0.1582  0.2767
  414TMC3     H 6235   1.606   3.907  15.328 -1.8361  0.6633  1.0789
  414TMC3    H1 6236   1.289   4.020  15.058  1.8724 -0.2975 -3.4071
  414TMC3    H2 6237   1.494   3.654  14.993 -2.9564  0.9005 -1.0818
  414TMC3    C7 6238   1.303   3.816  14.906  0.0488 -0.8739  0.4197
  414TMC3    C8 6239   1.671   3.672  15.186  0.0947 -0.6900 -0.1877
  414TMC3    O1 6240   1.187   3.854  14.932 -0.0724 -0.2551  0.0564
  414TMC3    O2 6241   1.665   3.565  15.123 -0.0102 -0.6337 -0.5716
  415TMC3    C1 6242   1.480   2.307  10.553  0.2112 -0.2484 -0.4660
  415TMC3    C2 6243   1.503   2.411  10.462 -0.0582  0.1226  0.4198
  415TMC3    C3 6244   1.477   2.384  10.330  0.0577 -0.1561 -0.0501
  415TMC3    C4 6245   1.421   2.190  10.519 -0.1431 -0.7086  0.4040
  415TMC3    C5 6246   1.386   2.172  10.387 -0.4242  0.4575  0.4157
  415TMC3    C6 6247   1.412   2.267  10.298 -0.6002 -0.1636 -0.4745
  415TMC3     C 6248   1.518   2.343  10.691  0.5612  0.2465 -0.2519
  415TMC3     O 6249   1.563   2.252  10.763 -0.1934  0.1763  0.2620
  415TMC3     H 6250   1.564   2.495  10.494  1.1764 -0.7857  0.4443
  415TMC3    H1 6251   1.394   2.122  10.598  1.9855 -2.0059 -0.0009
  415TMC3    H2 6252   1.384   2.247  10.195  0.3299  2.1086 -1.1671
  415TMC3    C7 6253   1.325   2.047  10.339  0.3161  0.2330 -0.9726
  415TMC3    C8 6254   1.539   2.461  10.217 -0.0149  0.4747  0.0495
  415TMC3    O1 6255   1.362   1.996  10.233 -0.2248 -0.0324 -0.2173
  415TMC3    O2 6256   1.539   2.399  10.111 -0.8454  0.1283  0.3063
  416MPD2     C 6257   3.482   1.677  11.745 -0.1537 -0.3988  0.2535
  416MPD2    C1 6258   3.398   1.589  11.811 -0.0440  0.7410 -0.2648
  416MPD2    C2 6259   3.397   1.457  11.759  0.3671  0.9794 -0.4980
  416MPD2    C3 6260   3.468   1.418  11.644 -0.5150 -0.4110 -0.1387
  416MPD2    C4 6261   3.562   1.504  11.594  0.6456 -0.0627 -0.1337
  416MPD2    C5 6262   3.570   1.626  11.650  0.1890  0.2923  0.0049
  416MPD2     H 6263   3.330   1.393  11.815  3.1185 -0.1688  1.4976
  416MPD2    H1 6264   3.634   1.473  11.519  0.4276  0.3354 -0.5053
  416MPD2    H2 6265   3.492   1.779  11.779  1.5328 -0.0793 -1.2075
  416MPD2    H3 6266   3.642   1.695  11.607  0.5554 -0.3825 -0.4776
  416MPD2     N 6267   3.446   1.290  11.590  0.7738 -0.4975 -0.1139
  416MPD2    H5 6268   3.386   1.230  11.646  0.5275 -0.9677 -0.8837
  416MPD2    N1 6269   3.326   1.642  11.926  0.2153 -0.1241  0.3276
  416MPD2    H7 6270   3.336   1.743  11.935  2.0440 -0.3061  0.4695
  417TMC3    C1 6271   3.178   1.662  12.112  0.0912 -0.1468 -0.5378
  417TMC3    C2 6272   3.138   1.630  12.238  0.5589  0.8889  0.3875
  417TMC3    C3 6273   3.048   1.708  12.298 -0.1640 -0.6769  0.1067
  417TMC3    C4 6274   3.132   1.775  12.051 -0.5541 -0.3575  0.0248
  417TMC3    C5 6275   3.047   1.857  12.122  0.3335  1.1562  0.7121
  417TMC3    C6 6276   2.993   1.824  12.241 -0.6328 -0.1793  0.4744
  417TMC3     C 6277   3.258   1.573  12.030 -0.5786 -0.4873 -1.1544
  417TMC3     O 6278   3.237   1.453  12.041  0.0596  0.2543  0.8504
  417TMC3     H 6279   3.170   1.542  12.293  0.9632 -0.5928 -2.1748
  417TMC3    H1 6280   3.154   1.798  11.947 -1.3338 -0.4605 -0.1610
  417TMC3    H2 6281   2.925   1.882  12.303  0.1082  2.5107 -1.1881
  417TMC3    C7 6282   2.946   1.902  12.030 -0.2258 -0.0741  0.0419
  417TMC3    C8 6283   3.045   1.708  12.445 -0.1540 -0.2490 -0.6156
  417TMC3    O1 6284   2.986   1.944  11.921  0.0654  0.5009  0.0066
  417TMC3    O2 6285   3.083   1.812  12.500 -1.5956 -0.4905 -0.1379
  418TMC3    C1 6286   2.432   2.807  17.358  0.3499 -0.0011  0.3748
  418TMC3    C2 6287   2.315   2.872  17.376 -0.4963 -0.3436 -0.0256
  418TMC3    C3 6288   2.270   2.899  17.500  0.2284 -0.2612 -0.4589
  418TMC3    C4 6289   2.509   2.764  17.463 -0.1663 -0.0333  0.0838
  418TMC3    C5 6290   2.459   2.798  17.588  0.3176 -0.1721  0.4940
  418TMC3    C6 6291   2.337   2.856  17.613 -0.3138  0.1173  0.1411
  418TMC3     C 6292   2.463   2.762  17.222  0.4991 -0.2580  0.1971
  418TMC3     O 6293   2.410   2.821  17.128 -0.1579 -0.1824  0.6178
  418TMC3     H 6294   2.262   2.910  17.290  0.2684  0.5359 -0.1021
  418TMC3    H1 6295   2.595   2.700  17.450  0.3246  0.5698  0.3836
  418TMC3    H2 6296   2.302   2.870  17.715 -0.7874  0.4408 -0.0707
  418TMC3    C7 6297   2.534   2.736  17.697  0.8377  0.3377  0.9801
  418TMC3    C8 6298   2.128   2.901  17.509 -0.0026  1.0053 -0.1328
  418TMC3    O1 6299   2.596   2.636  17.671  0.3347  0.3349 -0.6405
  418TMC3    O2 6300   2.064   2.974  17.434  0.0773 -0.1657  0.1443
  419MPD2     C 6301   0.729   1.101  12.389 -0.2594 -0.4661 -0.3733
  419MPD2    C1 6302   0.625   1.185  12.423 -0.3372  0.0027  0.1560
  419MPD2    C2 6303   0.570   1.178  12.547  0.0452  0.4632 -0.0414
  419MPD2    C3 6304   0.612   1.090  12.640 -0.1783 -0.1649 -0.2330
  419MPD2    C4 6305   0.732   1.025  12.617  0.5390 -0.2807  0.1386
  419MPD2    C5 6306   0.783   1.026  12.488 -0.0586 -0.3551 -0.7808
  419MPD2     H 6307   0.485   1.244  12.561 -0.8371 -0.7527  0.2434
  419MPD2    H1 6308   0.792   0.969  12.688  0.9480 -0.6956 -0.5355
  419MPD2    H2 6309   0.781   1.100  12.294  0.6634  0.4524  0.1284
  419MPD2    H3 6310   0.875   0.970  12.480  1.0863  1.1286  1.9801
  419MPD2     N 6311   0.530   1.079  12.751  0.3053 -0.3833 -0.0499
  419MPD2    H5 6312   0.449   1.141  12.750  0.9088  0.4340  1.8189
  419MPD2    N1 6313   0.565   1.280  12.339 -0.0537  0.3317 -0.0589
  419MPD2    H7 6314   0.502   1.346  12.384 -0.8360  0.0490 -0.7302
  420TMC3    C1 6315   0.444   1.009  12.961 -0.7494 -0.8500  0.4154
  420TMC3    C2 6316   0.321   1.037  12.912  0.1594 -0.8331  0.0878
  420TMC3    C3 6317   0.234   1.094  13.004  0.1114 -0.5250 -0.1529
  420TMC3    C4 6318   0.479   1.039  13.089 -0.6404  0.7569  0.0036
  420TMC3    C5 6319   0.386   1.093  13.172 -0.1107  0.4864  0.0083
  420TMC3    C6 6320   0.258   1.117  13.136  0.1422  0.5580  0.3458
  420TMC3     C 6321   0.548   0.995  12.856 -0.2413  0.3736 -0.3428
  420TMC3     O 6322   0.641   0.923  12.871 -0.1046 -0.0441 -0.1989
  420TMC3     H 6323   0.289   1.013  12.812 -0.1664  0.7140 -0.1849
  420TMC3    H1 6324   0.579   1.038  13.133 -0.8255 -0.3404  0.3885
  420TMC3    H2 6325   0.187   1.147  13.212 -1.1908  1.1177 -1.1296
  420TMC3    C7 6326   0.425   1.104  13.307 -0.5506 -0.3992 -0.0774
  420TMC3    C8 6327   0.117   1.152  12.945 -0.8035  0.1135  0.6279
  420TMC3    O1 6328   0.495   1.015  13.351  0.0670 -0.0663  0.2300
  420TMC3    O2 6329   0.091   1.110  12.831 -0.5552  0.2782 -0.2429
  421TMC3    C1 6330   1.825   2.207  13.847  0.3177  0.9023  0.0637
  421TMC3    C2 6331   1.735   2.193  13.943 -0.1454  0.2994  0.6559
  421TMC3    C3 6332   1.772   2.142  14.067 -0.7752 -0.0843  0.1058
  421TMC3    C4 6333   1.960   2.174  13.860 -0.6836 -0.3613  0.1676
  421TMC3    C5 6334   1.990   2.126  13.989 -0.4436  0.0169 -0.3396
  421TMC3    C6 6335   1.906   2.116  14.095 -0.2812 -0.1335  0.0659
  421TMC3     C 6336   1.786   2.229  13.705 -0.2769 -0.1124 -0.0474
  421TMC3     O 6337   1.875   2.218  13.625 -0.0442  0.0424  0.7924
  421TMC3     H 6338   1.633   2.226  13.925  1.0192  2.2727 -2.3566
  421TMC3    H1 6339   2.038   2.177  13.785 -3.0213 -3.4882 -2.3623
  421TMC3    H2 6340   1.930   2.069  14.189 -1.0462  0.7289  0.6953
  421TMC3    C7 6341   2.128   2.099  14.016 -0.6970  0.0876 -0.2612
  421TMC3    C8 6342   1.718   2.215  14.181  0.1733  0.0610  0.7839
  421TMC3    O1 6343   2.211   2.155  13.943 -0.5055  0.4696 -0.3204
  421TMC3    O2 6344   1.671   2.147  14.267  0.2096  0.1109  0.5640
  422TMC3    C1 6345   3.782   4.000  12.687 -0.2355 -0.2920 -0.6703
  422TMC3    C2 6346   3.781   4.046  12.816  0.1311  0.2228 -0.3007
  422TMC3    C3 6347   3.675   4.019  12.893 -0.0543 -0.6660  0.0184
  422TMC3    C4 6348   3.684   3.917  12.640  0.2369 -0.7448  0.6824
  422TMC3    C5 6349   3.576   3.887  12.723 -0.6247 -0.2379  1.1662
  422TMC3    C6 6350   3.568   3.943  12.848 -0.5124  0.7699 -0.3247
  422TMC3     C 6351   3.878   4.074  12.606 -0.1105 -0.0772 -0.0432
  422TMC3     O 6352   3.971   4.126  12.663  0.7465 -0.2558 -0.0552
  422TMC3     H 6353   3.860   4.111  12.851  3.1856 -2.2356 -2.5717
  422TMC3    H1 6354   3.675   3.889  12.535  1.0145 -0.4223  0.5308
  422TMC3    H2 6355   3.494   3.901  12.914 -1.5032  2.1243 -0.5610
  422TMC3    C7 6356   3.472   3.797  12.673 -0.5839  0.0091  0.2390
  422TMC3    C8 6357   3.667   4.113  13.002  0.2397 -0.1363  0.3658
  422TMC3    O1 6358   3.499   3.718  12.585  0.3256 -0.2706 -0.1511
  422TMC3    O2 6359   3.774   4.140  13.060  0.1867 -0.5342  0.2923
  423MPD2     C 6360   0.427   4.311   0.800 -0.6042  0.0685 -0.5457
  423MPD2    C1 6361   0.558   4.340   0.798  0.2326 -0.6331  0.0540
  423MPD2    C2 6362   0.638   4.292   0.698  0.0629 -0.3244 -0.7722
  423MPD2    C3 6363   0.582   4.222   0.589 -0.8971  0.0483 -0.0890
  423MPD2    C4 6364   0.448   4.189   0.588  0.4035 -0.0751  0.0429
  423MPD2    C5 6365   0.376   4.233   0.695  0.1941  0.5632 -0.3961
  423MPD2     H 6366   0.746   4.288   0.699  0.0169 -1.3913 -0.3028
  423MPD2    H1 6367   0.399   4.144   0.503  0.6006  2.0630 -1.2109
  423MPD2    H2 6368   0.365   4.333   0.886  0.3156  1.9483 -0.3446
  423MPD2    H3 6369   0.272   4.202   0.693  0.0624  0.9665  0.0661
  423MPD2     N 6370   0.658   4.190   0.474  1.0668 -0.0713 -0.4229
  423MPD2    H5 6371   0.627   4.117   0.411 -0.7661 -0.7669  1.2639
  423MPD2    N1 6372   0.620   4.403   0.906 -0.0180 -0.1426 -0.3737
  423MPD2    H7 6373   0.722   4.396   0.908 -0.2001 -2.4776  0.6638
  424TMC3    C1 6374   0.665   4.475   1.134 -0.1130 -0.2591  0.0674
  424TMC3    C2 6375   0.779   4.406   1.146  0.0916  0.5301  0.2549
  424TMC3    C3 6376   0.831   4.389   1.274 -0.0533 -0.3314 -0.0470
  424TMC3    C4 6377   0.616   4.538   1.248  0.1433 -0.5446 -1.0621
  424TMC3    C5 6378   0.672   4.521   1.369 -0.3501  0.6980 -0.6438
  424TMC3    C6 6379   0.788   4.452   1.382 -0.6512 -0.2828 -0.0207
  424TMC3     C 6380   0.563   4.455   1.020  0.1830  0.6365 -1.1755
  424TMC3     O 6381   0.447   4.478   1.049  0.1818 -0.1848 -0.1325
  424TMC3     H 6382   0.818   4.352   1.061 -1.4674 -0.4296  0.1530
  424TMC3    H1 6383   0.525   4.596   1.235  1.7204  1.8531 -1.4060
  424TMC3    H2 6384   0.837   4.452   1.479  0.0266 -1.0447 -0.3608
  424TMC3    C7 6385   0.615   4.573   1.489  1.1291 -0.7525  0.9792
  424TMC3    C8 6386   0.969   4.344   1.281 -0.4823 -0.5005 -0.1611
  424TMC3    O1 6387   0.662   4.530   1.591  0.3388 -0.2446  0.0578
  424TMC3    O2 6388   1.016   4.289   1.380  0.0681 -0.0542  0.3609
  425MPD2     C 6389   4.524   3.883  17.168 -0.0612  0.4563 -0.0526
  425MPD2    C1 6390   4.467   3.760  17.210  0.1902  0.7109  0.1053
  425MPD2    C2 6391   4.358   3.765  17.299 -0.4186 -0.2355 -0.5246
  425MPD2    C3 6392   4.319   3.886  17.359 -0.1179 -0.6050  0.3845
  425MPD2    C4 6393   4.372   4.002  17.321 -0.6926 -0.4716 -0.3393
  425MPD2    C5 6394   4.474   4.003  17.222 -0.2100 -0.2886 -0.8224
  425MPD2     H 6395   4.299   3.679  17.331  0.0848 -0.5560 -0.4605
  425MPD2    H1 6396   4.332   4.100  17.343 -2.5094 -1.1398 -0.6882
  425MPD2    H2 6397   4.606   3.887  17.098 -1.4340  0.7187 -1.6414
  425MPD2    H3 6398   4.508   4.099  17.184  0.7691 -0.0034  0.7605
  425MPD2     N 6399   4.215   3.879  17.453  0.4101 -0.1996  0.2912
  425MPD2    H5 6400   4.190   3.787  17.486 -3.7134  1.3675  1.5497
  425MPD2    N1 6401   4.506   3.643  17.139 -0.2674  0.3944  0.1438
  425MPD2    H7 6402   4.573   3.663  17.066  1.0957  1.9985  1.8396
  426TMC3    C1 6403   4.492   3.410  17.071 -0.2995  0.1859  0.3003
  426TMC3    C2 6404   4.622   3.389  17.036 -0.1909  0.0835  0.3033
  426TMC3    C3 6405   4.664   3.265  16.996 -0.0710  0.5185 -0.6940
  426TMC3    C4 6406   4.401   3.309  17.065  0.2228 -0.1224 -0.5043
  426TMC3    C5 6407   4.448   3.185  17.045 -0.1780  0.5838 -0.0672
  426TMC3    C6 6408   4.576   3.156  17.003  0.4436  0.3299  0.5546
  426TMC3     C 6409   4.454   3.517  17.157  0.6035  0.2418  0.3331
  426TMC3     O 6410   4.374   3.484  17.245  0.4016 -0.5199 -0.4342
  426TMC3     H 6411   4.693   3.466  17.065  1.5519 -0.7575 -1.7202
  426TMC3    H1 6412   4.296   3.325  17.090  0.2275  2.5734 -2.2630
  426TMC3    H2 6413   4.607   3.054  16.982 -0.4276  0.3134 -0.6017
  426TMC3    C7 6414   4.352   3.079  17.059 -0.3242 -0.4663  0.5839
  426TMC3    C8 6415   0.023   3.245  16.892  0.6477  0.6604 -0.6941
  426TMC3    O1 6416   4.401   2.974  17.017 -0.5010  0.3908 -0.1392
  426TMC3    O2 6417   0.051   3.129  16.874 -0.0213 -0.2039  0.1918
  427MPD2     C 6418   3.215   1.109  14.783  0.4731  0.1031 -0.3548
  427MPD2    C1 6419   3.201   1.145  14.918 -0.1502 -0.0019 -0.4079
  427MPD2    C2 6420   3.091   1.220  14.955  0.0362  0.1643 -0.1656
  427MPD2    C3 6421   2.983   1.245  14.869 -0.2215  0.5820 -0.3572
  427MPD2    C4 6422   2.992   1.198  14.737 -0.3366  0.0521  0.0392
  427MPD2    C5 6423   3.114   1.132  14.695  0.2304 -0.0596  0.0787
  427MPD2     H 6424   3.082   1.249  15.059 -2.1204  0.4408 -0.4269
  427MPD2    H1 6425   2.904   1.211  14.676 -1.9506 -1.2577  2.0584
  427MPD2    H2 6426   3.299   1.044  14.758  0.5587 -0.2675  0.8548
  427MPD2    H3 6427   3.117   1.107  14.590 -0.7013 -1.7816  0.4681
  427MPD2     N 6428   2.864   1.317  14.911 -0.2405  0.3127 -0.1421
  427MPD2    H5 6429   2.784   1.314  14.848 -0.8317 -1.1346  0.6750
  427MPD2    N1 6430   3.291   1.089  15.018  0.0359  0.5382 -0.4404
  427MPD2    H7 6431   3.261   1.064  15.111  0.2354 -0.9984 -0.7897
  428TMC3    C1 6432   3.473   0.962  15.092 -0.5813 -0.4306 -0.1951
  428TMC3    C2 6433   3.388   0.866  15.132 -0.0873  0.3815 -0.6252
  428TMC3    C3 6434   3.450   0.779  15.227  0.0228 -0.5551  0.4127
  428TMC3    C4 6435   3.608   0.972  15.123  0.4772  0.0308  0.2471
  428TMC3    C5 6436   3.654   0.897  15.224 -0.1560 -0.3571  0.8107
  428TMC3    C6 6437   3.577   0.796  15.279  0.5512  0.2770 -0.6440
  428TMC3     C 6438   3.417   1.055  14.992 -0.6050  0.4577 -0.1279
  428TMC3     O 6439   3.492   1.098  14.906 -0.0110  0.0783  0.0166
  428TMC3     H 6440   3.287   0.862  15.095 -0.1124 -0.9462 -0.4261
  428TMC3    H1 6441   3.663   1.051  15.074  0.2026 -0.9576 -1.6655
  428TMC3    H2 6442   3.625   0.737  15.357  0.0426  2.2017  1.1082
  428TMC3    C7 6443   3.766   0.951  15.309 -0.6151 -0.6531 -0.1491
  428TMC3    C8 6444   3.362   0.707  15.314 -0.1741  0.5142 -0.4901
  428TMC3    O1 6445   3.758   0.919  15.430  0.0458 -0.1590  0.5991
  428TMC3    O2 6446   3.388   0.710  15.434  0.3899 -0.2387 -0.2836
  429MPD2     C 6447   3.812   0.867   0.014  0.2029 -0.2644 -0.0150
  429MPD2    C1 6448   3.948   0.849   0.012 -0.6839 -0.0658 -0.6941
  429MPD2    C2 6449   4.029   0.956  17.715  0.3107  0.0544  0.5701
  429MPD2    C3 6450   3.966   1.071  17.671  1.1390  0.2687 -0.4664
  429MPD2    C4 6451   3.827   1.086  17.675  0.1860 -0.7651 -0.4279
  429MPD2    C5 6452   3.751   0.984  17.723 -1.1952 -0.1680  0.3737
  429MPD2     H 6453   4.134   0.941  17.694 -0.3192 -0.7790 -1.9426
  429MPD2    H1 6454   3.778   1.178  17.647 -0.0412  0.1446  2.9416
  429MPD2    H2 6455   3.740   0.788   0.032  0.3011 -0.0802  1.1942
  429MPD2    H3 6456   3.643   0.994  17.732 -1.4376 -1.8657 -0.6073
  429MPD2     N 6457   4.055   1.176  17.647  0.1963 -0.5637 -0.0396
  429MPD2    H5 6458   4.149   1.144  17.668 -1.0774 -3.5901  1.0729
  429MPD2    N1 6459   4.002   0.728   0.056 -0.1495  0.2499  0.5558
  429MPD2    H7 6460   4.101   0.736   0.074 -0.4931  0.4706  2.4228
  430TMC3    C1 6461   4.133   1.390  17.579  0.5460  0.4285  0.3536
  430TMC3    C2 6462   4.114   1.515  17.550  0.4579 -0.6053  0.0224
  430TMC3    C3 6463   4.219   1.592  17.514 -0.4598 -0.2741 -0.5486
  430TMC3    C4 6464   4.256   1.333  17.570  0.1968 -0.3443  0.0980
  430TMC3    C5 6465   4.362   1.417  17.541  0.4793  0.3835 -0.2236
  430TMC3    C6 6466   4.346   1.550  17.528  0.1083  0.7610 -0.6781
  430TMC3     C 6467   4.018   1.304  17.603  0.6064 -0.2158  0.3087
  430TMC3     O 6468   3.907   1.345  17.576 -0.0942 -0.1116  0.7055
  430TMC3     H 6469   4.013   1.547  17.528 -0.5908 -2.8555  1.5086
  430TMC3    H1 6470   4.290   1.233  17.594 -1.5136 -0.7730  0.7150
  430TMC3    H2 6471   4.423   1.625  17.514  0.9723 -0.4682 -2.4297
  430TMC3    C7 6472   4.459   1.358  17.450 -0.0557 -0.7204 -0.1247
  430TMC3    C8 6473   4.188   1.653  17.385  0.5084  0.0478  0.3553
  430TMC3    O1 6474   4.466   1.238  17.457  0.7495  0.1040 -0.1655
  430TMC3    O2 6475   4.102   1.604  17.317 -0.0594 -0.6165  0.2968
  431MPD2     C 6476   4.731   1.734  12.666 -1.0541  0.5527  0.4138
  431MPD2    C1 6477   0.061   1.824  12.586  0.1532 -0.3411  0.1397
  431MPD2    C2 6478   0.118   1.794  12.468  0.2351 -0.1846  0.3072
  431MPD2    C3 6479   0.137   1.660  12.436  0.3047 -0.6796 -0.0146
  431MPD2    C4 6480   0.077   1.575  12.521 -0.1835  0.2728 -0.1243
  431MPD2    C5 6481   4.738   1.610  12.626 -0.7261 -0.3245 -0.3674
  431MPD2     H 6482   0.169   1.871  12.412 -1.3266 -0.0139 -0.8902
  431MPD2    H1 6483   0.076   1.468  12.505 -0.5159  0.2931 -0.2262
  431MPD2    H2 6484   4.669   1.755  12.753 -1.0455 -0.2799  0.6173
  431MPD2    H3 6485   4.689   1.536  12.689  0.6666  0.2350  1.3847
  431MPD2     N 6486   0.220   1.611  12.335  0.1758 -0.2052  0.2857
  431MPD2    H5 6487   0.215   1.510  12.326 -1.0134 -0.1086 -0.2028
  431MPD2    N1 6488   0.074   1.963  12.612  0.0803  0.2940 -0.3859
  431MPD2    H7 6489   0.108   2.033  12.547 -1.6421  0.4817 -1.0803
  432TMC3    C1 6490   0.391   1.611  12.171 -0.1710  0.2994  0.6150
  432TMC3    C2 6491   0.456   1.679  12.071  0.2891  0.0093  0.4557
  432TMC3    C3 6492   0.574   1.626  12.023  0.6667  0.2088 -0.4586
  432TMC3    C4 6493   0.430   1.482  12.212  0.4068  0.4093  0.2645
  432TMC3    C5 6494   0.552   1.436  12.164  0.0178 -0.0343  0.2218
  432TMC3    C6 6495   0.620   1.504  12.064 -0.3243  0.1365 -0.3026
  432TMC3     C 6496   0.291   1.685  12.245  0.1674  0.3720 -0.2624
  432TMC3     O 6497   0.293   1.806  12.221  0.6338  0.0854  0.2925
  432TMC3     H 6498   0.423   1.774  12.029  1.4226  0.4845  0.6370
  432TMC3    H1 6499   0.387   1.421  12.290  1.3372  0.1744  0.5863
  432TMC3    H2 6500   0.712   1.460  12.028 -1.4747 -1.5281 -1.2150
  432TMC3    C7 6501   0.613   1.308  12.212 -0.8255 -0.3406 -0.0342
  432TMC3    C8 6502   0.671   1.730  11.980 -0.5608  0.7352  0.1072
  432TMC3    O1 6503   0.711   1.269  12.154 -0.1889 -0.1671  0.0483
  432TMC3    O2 6504   0.613   1.832  11.943  0.1369 -0.4614 -0.2016
  433MPD2     C 6505   4.262   0.495  11.066  0.5415  0.8528 -0.3174
  433MPD2    C1 6506   4.149   0.445  11.121 -0.1995  0.0354  0.2436
  433MPD2    C2 6507   4.132   0.443  11.264 -0.7563  0.2211 -0.3488
  433MPD2    C3 6508   4.240   0.483  11.340 -0.1401 -0.4432 -0.4286
  433MPD2    C4 6509   4.354   0.540  11.280 -0.0997 -0.3932  0.1886
  433MPD2    C5 6510   4.365   0.533  11.146 -0.0877  0.8382 -0.6385
  433MPD2     H 6511   4.053   0.389  11.315  2.1639 -0.9395  2.9600
  433MPD2    H1 6512   4.435   0.589  11.332  0.8402  0.2680 -1.9116
  433MPD2    H2 6513   4.259   0.497  10.958 -1.9663  0.1616 -0.2461
  433MPD2    H3 6514   4.459   0.573  11.109  0.9968 -0.2206  0.9612
  433MPD2     N 6515   4.237   0.470  11.484  0.2512 -0.1209  0.4850
  433MPD2    H5 6516   4.153   0.444  11.536 -0.2725  1.1375  0.2737
  433MPD2    N1 6517   4.041   0.403  11.032 -0.3085  0.0032 -0.2590
  433MPD2    H7 6518   4.075   0.390  10.937 -0.1589 -1.7738  0.0259
  434TMC3    C1 6519   3.875   0.274  10.972  0.8644  0.4629  0.1141
  434TMC3    C2 6520   3.842   0.153  11.026 -0.3689 -0.5169  0.0061
  434TMC3    C3 6521   3.848   0.050  10.939  0.8081  0.0391  0.2799
  434TMC3    C4 6522   3.898   0.288  10.839  0.5631 -0.1377 -0.2902
  434TMC3    C5 6523   3.898   0.181  10.753 -0.3458  0.3529  0.1542
  434TMC3    C6 6524   3.872   0.056  10.802  0.0482 -0.3013 -0.2721
  434TMC3     C 6525   3.925   0.361  11.071  0.7238  0.1041  0.4624
  434TMC3     O 6526   3.871   0.352  11.183  0.1082  0.3295  0.3364
  434TMC3     H 6527   3.828   0.133  11.132 -3.1343  1.0099 -0.0754
  434TMC3    H1 6528   3.906   0.386  10.794 -1.1034 -0.4419 -1.2848
  434TMC3    H2 6529   3.881   4.703  10.745 -0.1374 -1.3748  1.4236
  434TMC3    C7 6530   3.865   0.207  10.610  0.3643 -0.4397 -0.3335
  434TMC3    C8 6531   3.883   4.662  11.001  0.1668  0.1861  0.0849
  434TMC3    O1 6532   3.887   0.319  10.574  0.7005  1.1330 -0.1587
  434TMC3    O2 6533   3.928   4.667  11.115 -0.2451  0.4048 -0.0548
  435MPD2     C 6534   1.572   0.175  15.691 -0.2383 -0.6087 -0.2198
  435MPD2    C1 6535   1.567   0.150  15.827  0.1293  0.0704  0.2856
  435MPD2    C2 6536   1.668   0.076  15.886  0.1692  0.5856 -0.2522
  435MPD2    C3 6537   1.779   0.021  15.819 -0.3659 -0.0136  0.0359
  435MPD2    C4 6538   1.777   0.039  15.684  0.6035  0.6644  0.0485
  435MPD2    C5 6539   1.671   0.113  15.625  0.5307 -0.1933  0.7136
  435MPD2     H 6540   1.668   0.058  15.993  0.0901 -0.1997 -0.3899
  435MPD2    H1 6541   1.860   0.005  15.623  0.9802  1.7399 -0.0436
  435MPD2    H2 6542   1.497   0.235  15.641 -0.2751 -0.5751 -0.1242
  435MPD2    H3 6543   1.674   0.108  15.517 -3.1199  0.7003  0.5772
  435MPD2     N 6544   1.852   4.667  15.894 -0.8660  0.3503 -0.1340
  435MPD2    H5 6545   1.823   4.650  15.990  1.4058 -0.6756  0.3580
  435MPD2    N1 6546   1.457   0.188  15.904  0.8438  0.2431  0.4695
  435MPD2    H7 6547   1.457   0.157  16.001  2.1450  1.5504  0.8909
  436TMC3    C1 6548   1.175   0.294  16.193 -0.3729  0.1182 -0.3021
  436TMC3    C2 6549   1.270   0.281  16.092 -0.0993  0.4881  0.4648
  436TMC3    C3 6550   1.244   0.258  15.964 -0.1047  0.2351  0.5464
  436TMC3    C4 6551   1.047   0.252  16.160  0.1523  0.4534 -0.3540
  436TMC3    C5 6552   1.023   0.220  16.032  0.8096 -0.3786  0.1592
  436TMC3    C6 6553   1.115   0.235  15.932  0.1967  0.6878 -0.2559
  436TMC3     C 6554   1.216   0.320  16.332  0.1685 -0.4578  0.3020
  436TMC3     O 6555   1.339   0.327  16.345 -0.4017 -0.5568  0.6398
  436TMC3     H 6556   1.373   0.305  16.115 -0.6640  0.8930  2.6021
  436TMC3    H1 6557   0.972   0.241  16.238 -1.2800 -1.0186 -1.9462
  436TMC3    H2 6558   1.083   0.224  15.829 -1.9631  1.4691  0.3158
  436TMC3    C7 6559   0.880   0.183  16.006  0.0428  0.5213  0.1623
  436TMC3    C8 6560   1.342   0.245  15.860  0.4944  0.6936  0.0903
  436TMC3    O1 6561   0.806   0.181  16.104 -0.2032 -0.1926  0.8543
  436TMC3    O2 6562   1.304   0.277  15.746  0.6047  0.2067 -0.4433
  437TMC3    C1 6563   4.545   2.766  12.504 -0.5312  0.6729  0.0994
  437TMC3    C2 6564   4.466   2.800  12.400  0.5639  0.1939  0.2422
  437TMC3    C3 6565   4.532   2.839  12.285 -0.5304 -0.0056  0.0609
  437TMC3    C4 6566   4.685   2.780  12.499  0.3138  0.0260 -0.1264
  437TMC3    C5 6567   0.006   2.824  12.383 -0.0352 -0.8817 -0.0019
  437TMC3    C6 6568   4.667   2.854  12.271  0.1335 -0.3250  0.6787
  437TMC3     C 6569   4.475   2.687  12.604  0.0021 -0.5369 -0.2292
  437TMC3     O 6570   4.540   2.596  12.653  0.3881  0.1249  0.3550
  437TMC3     H 6571   4.359   2.784  12.402  0.4557  0.7776 -0.6914
  437TMC3    H1 6572   0.001   2.725  12.576 -0.2283 -0.9828 -0.4635
  437TMC3    H2 6573   4.715   2.877  12.177  0.2138  0.6145  0.9465
  437TMC3    C7 6574   0.152   2.834  12.362 -0.3755  0.3888 -0.6501
  437TMC3    C8 6575   4.465   2.826  12.156  0.5147 -0.8188  0.0852
  437TMC3    O1 6576   0.195   2.891  12.265 -0.6223 -0.1640  0.4567
  437TMC3    O2 6577   4.527   2.875  12.061 -0.0938 -0.3354 -0.0224
  438MPD2     C 6578   2.533   2.770  16.263 -0.6018 -0.3146 -0.5477
  438MPD2    C1 6579   2.594   2.669  16.340 -0.0489 -0.3101 -0.0081
  438MPD2    C2 6580   2.521   2.602  16.436  0.1683  0.2237 -0.0909
  438MPD2    C3 6581   2.385   2.643  16.459  0.0119  0.2432  0.2252
  438MPD2    C4 6582   2.349   2.770  16.420 -0.0214 -0.0290  0.0263
  438MPD2    C5 6583   2.422   2.819  16.317  0.8708 -0.1191  0.4237
  438MPD2     H 6584   2.554   2.509  16.482 -4.5651 -0.8160  1.2263
  438MPD2    H1 6585   2.258   2.819  16.454 -1.1149 -1.3351 -0.9987
  438MPD2    H2 6586   2.570   2.811  16.170  1.6932  0.4428  0.6924
  438MPD2    H3 6587   2.374   2.904  16.271 -0.4136 -1.7572 -1.2684
  438MPD2     N 6588   2.306   2.571  16.556 -0.4059 -0.0165 -0.6685
  438MPD2    H5 6589   2.231   2.623  16.602  1.9870  1.2742  1.7514
  438MPD2    N1 6590   2.725   2.627  16.320  0.2267 -0.4010  0.1622
  438MPD2    H7 6591   2.749   2.537  16.360  0.5896 -0.7641 -0.8562
  439TMC3    C1 6592   2.921   2.586  16.222 -0.0678  0.2007 -0.4846
  439TMC3    C2 6593   2.929   2.531  16.098  0.2021 -0.5317 -0.3192
  439TMC3    C3 6594   2.958   2.401  16.084 -0.2623 -0.0642  0.0952
  439TMC3    C4 6595   2.964   2.515  16.334 -0.5139  0.7067  0.8172
  439TMC3    C5 6596   3.007   2.388  16.307 -0.6617  0.8591  0.0760
  439TMC3    C6 6597   3.000   2.326  16.186 -0.5659 -0.0468 -0.8271
  439TMC3     C 6598   2.816   2.679  16.234 -0.5534  0.0104 -0.0146
  439TMC3     O 6599   2.802   2.769  16.151  0.3136  0.0766 -0.6624
  439TMC3     H 6600   2.879   2.595  16.026 -0.7586 -0.5579  0.3232
  439TMC3    H1 6601   2.941   2.545  16.436 -1.1512 -0.5115  1.0288
  439TMC3    H2 6602   3.037   2.226  16.167  0.2186  0.3507 -1.3814
  439TMC3    C7 6603   3.035   2.302  16.427  0.2544 -0.2265 -0.2972
  439TMC3    C8 6604   2.957   2.328  15.956  0.2254 -0.2154  0.3072
  439TMC3    O1 6605   3.093   2.338  16.529 -0.1680  0.6227  0.4742
  439TMC3    O2 6606   3.011   2.216  15.947 -0.2017  0.5449  0.2881
  440MPD2     C 6607   1.180   2.971  15.121 -0.1712  0.4149  0.2990
  440MPD2    C1 6608   1.257   3.083  15.149 -0.1908  0.0635 -0.9892
  440MPD2    C2 6609   1.392   3.072  15.161  0.4134  0.5690 -0.5433
  440MPD2    C3 6610   1.457   2.954  15.143  0.4776  0.6120  0.5884
  440MPD2    C4 6611   1.379   2.852  15.096  0.6573  0.1463 -0.1326
  440MPD2    C5 6612   1.245   2.855  15.076 -0.3713 -0.0916 -0.3950
  440MPD2     H 6613   1.443   3.160  15.198  0.9184 -0.1378  0.4336
  440MPD2    H1 6614   1.418   2.757  15.061 -2.6369 -0.4595 -2.1756
  440MPD2    H2 6615   1.072   2.974  15.123 -0.2475 -3.2926  1.7786
  440MPD2    H3 6616   1.192   2.771  15.032 -0.8981 -0.3557  0.7207
  440MPD2     N 6617   1.597   2.926  15.150 -0.5482 -0.0305 -0.2003
  440MPD2    H5 6618   1.625   2.829  15.133  0.0447  0.2847 -1.0645
  440MPD2    N1 6619   1.201   3.212  15.174  0.1604 -0.0993 -0.1075
  440MPD2    H7 6620   1.272   3.285  15.168  1.0187 -0.6130  3.7899
  441TMC3    C1 6621   1.827   2.938  15.190 -0.0328 -0.5582 -0.7283
  441TMC3    C2 6622   1.922   3.030  15.226  0.1846  0.6241  0.4692
  441TMC3    C3 6623   1.980   3.032  15.350 -0.2316 -0.7203  0.5972
  441TMC3    C4 6624   1.824   2.823  15.266  0.4772 -0.9699 -0.0753
  441TMC3    C5 6625   1.885   2.828  15.383  0.0955  0.3194 -0.1137
  441TMC3    C6 6626   1.956   2.929  15.436 -0.9280 -0.0462 -0.7667
  441TMC3     C 6627   1.704   3.008  15.173 -0.3782  0.0597 -0.2846
  441TMC3     O 6628   1.701   3.120  15.220  0.2675  0.0714 -0.4129
  441TMC3     H 6629   1.929   3.116  15.161  1.1687 -0.4996 -0.9090
  441TMC3    H1 6630   1.769   2.737  15.229 -0.8506 -1.6034  3.4479
  441TMC3    H2 6631   2.007   2.919  15.531 -0.4629 -2.9989 -1.3277
  441TMC3    C7 6632   1.861   2.704  15.464  0.2313  0.3962  0.5357
  441TMC3    C8 6633   2.031   3.160  15.393  0.0974 -0.0269 -0.1320
  441TMC3    O1 6634   1.783   2.620  15.424  0.2954  0.6169 -0.0366
  441TMC3    O2 6635   2.103   3.166  15.491 -0.3899  0.8638 -0.0890
  442MPD2     C 6636   4.196   3.340  16.245  0.4725 -0.0503  0.0685
  442MPD2    C1 6637   4.133   3.251  16.332  0.5217  0.0866  0.1794
  442MPD2    C2 6638   4.117   3.118  16.297 -0.2184  0.3965  0.1643
  442MPD2    C3 6639   4.174   3.076  16.181  0.6145  0.6925  0.2488
  442MPD2    C4 6640   4.250   3.159  16.100  0.0747  0.1901  0.0180
  442MPD2    C5 6641   4.251   3.291  16.133  0.5401 -0.4373  0.1096
  442MPD2     H 6642   4.045   3.057  16.351 -2.1513  0.9194 -1.8120
  442MPD2    H1 6643   4.305   3.134  16.010  0.0672  0.8803 -0.1834
  442MPD2    H2 6644   4.207   3.446  16.261  0.2686 -0.0032 -0.0951
  442MPD2    H3 6645   4.293   3.362  16.063 -1.3560  1.1178  0.5573
  442MPD2     N 6646   4.168   2.942  16.136 -0.2073 -0.0248  0.0447
  442MPD2    H5 6647   4.194   2.924  16.040  1.9890 -0.0864  0.6460
  442MPD2    N1 6648   4.066   3.312  16.443 -0.1735 -0.3668  0.2661
  442MPD2    H7 6649   3.993   3.269  16.499 -2.7064 -1.6107 -4.0082
  443TMC3    C1 6650   4.016   3.495  16.595  0.0251 -0.5491 -0.3747
  443TMC3    C2 6651   4.002   3.627  16.600  1.0348 -0.0561  0.5087
  443TMC3    C3 6652   3.884   3.675  16.640  0.3492 -0.1830  0.2693
  443TMC3    C4 6653   3.926   3.409  16.649  0.3086  0.2918  0.0700
  443TMC3    C5 6654   3.832   3.462  16.729 -0.1905  0.2151 -0.1993
  443TMC3    C6 6655   3.798   3.598  16.718  0.8381  1.0580  0.8940
  443TMC3     C 6656   4.106   3.438  16.493  0.6977 -0.6038 -0.4118
  443TMC3     O 6657   4.208   3.506  16.476 -0.1466  1.0102 -0.2022
  443TMC3     H 6658   4.079   3.687  16.554 -1.9688  2.9930 -0.5452
  443TMC3    H1 6659   3.946   3.303  16.658  1.8498  0.6564  1.0741
  443TMC3    H2 6660   3.714   3.644  16.769 -0.9639 -1.1155 -0.1303
  443TMC3    C7 6661   3.730   3.376  16.783  0.4380  0.5474  0.2430
  443TMC3    C8 6662   3.865   3.820  16.649  0.0857 -0.1221  0.1922
  443TMC3    O1 6663   3.706   3.269  16.726 -0.4136  0.2357  0.2470
  443TMC3    O2 6664   3.831   3.861  16.758 -0.2141 -0.1330 -0.3931
  444MPD2     C 6665   4.090   3.182  16.846 -0.8535  0.5123 -0.7948
  444MPD2    C1 6666   4.026   3.061  16.840 -0.5836  0.1345 -0.1153
  444MPD2    C2 6667   4.068   2.969  16.752 -0.1051 -0.5625  0.3743
  444MPD2    C3 6668   4.189   2.982  16.688  0.5363 -0.9267  0.8233
  444MPD2    C4 6669   4.255   3.104  16.690 -0.5132  1.1890 -0.0405
  444MPD2    C5 6670   4.203   3.207  16.768 -0.2155  0.2517 -0.4475
  444MPD2     H 6671   4.024   2.871  16.739 -0.2783 -0.3440 -0.7173
  444MPD2    H1 6672   4.337   3.133  16.626  0.4321 -1.1284  0.0901
  444MPD2    H2 6673   4.061   3.271  16.900 -0.3760  0.3367 -0.2433
  444MPD2    H3 6674   4.249   3.305  16.770  0.3479  0.0042 -1.1598
  444MPD2     N 6675   4.224   2.869  16.607 -0.3065 -0.0912 -0.0709
  444MPD2    H5 6676   4.176   2.781  16.622  1.3246 -1.0645 -0.4479
  444MPD2    N1 6677   3.904   3.040  16.908  0.0489  0.2868 -0.4645
  444MPD2    H7 6678   3.869   2.949  16.880 -0.2361 -0.3185  1.8927
  445TMC3    C1 6679   4.355   2.734  16.461 -0.6049 -0.3458 -1.0198
  445TMC3    C2 6680   4.255   2.636  16.467  0.1762 -0.0160 -0.4022
  445TMC3    C3 6681   4.291   2.510  16.419  0.4604  0.1008  0.1590
  445TMC3    C4 6682   4.481   2.700  16.416 -0.5037  0.2660  0.3029
  445TMC3    C5 6683   4.515   2.573  16.382 -0.1410 -0.1742 -0.7000
  445TMC3    C6 6684   4.419   2.474  16.383 -0.1211  0.2285  0.6072
  445TMC3     C 6685   4.330   2.868  16.517  0.3569  0.7652  0.0013
  445TMC3     O 6686   4.426   2.949  16.510 -0.1224 -0.6306  0.4788
  445TMC3     H 6687   4.153   2.671  16.478  0.6176  1.0076  0.4031
  445TMC3    H1 6688   4.560   2.774  16.421  1.0455 -1.2001 -2.1890
  445TMC3    H2 6689   4.433   2.371  16.350 -0.2935  0.0186  1.1939
  445TMC3    C7 6690   4.658   2.546  16.390 -0.3489 -0.0395  0.1567
  445TMC3    C8 6691   4.199   2.395  16.439  0.3952 -0.7778 -0.5398
  445TMC3    O1 6692   4.733   2.644  16.369 -0.1228  0.0808  0.3829
  445TMC3    O2 6693   4.212   2.299  16.363 -0.0678  0.1781 -0.1417
  446MPD2     C 6694   3.847   0.269  11.578  0.6223 -0.0399  0.8488
  446MPD2    C1 6695   3.814   0.201  11.471 -0.0582 -0.3315 -0.7474
  446MPD2    C2 6696   3.912   0.134  11.401  0.2932 -0.5171 -0.3392
  446MPD2    C3 6697   4.040   0.120  11.446  0.1086  1.0947  0.3640
  446MPD2    C4 6698   4.070   0.184  11.566  0.3877 -0.0238  0.7725
  446MPD2    C5 6699   3.979   0.256  11.624 -0.1229  0.1507  0.2208
  446MPD2     H 6700   3.888   0.079  11.311  1.1391 -1.6110  0.0941
  446MPD2    H1 6701   4.175   0.180  11.592  0.2380  1.1231  1.5540
  446MPD2    H2 6702   3.781   0.323  11.644  1.8339  0.0065  2.0385
  446MPD2    H3 6703   3.992   0.312  11.716 -1.1768  2.3565 -0.9604
  446MPD2     N 6704   4.135   0.066  11.360 -0.5324 -0.1534  0.0011
  446MPD2    H5 6705   4.093   0.030  11.274 -1.7642  0.1937  0.4582
  446MPD2    N1 6706   3.685   0.196  11.421  0.5645 -0.8886 -0.6445
  446MPD2    H7 6707   3.666   0.135  11.342 -0.4137 -2.6059  0.9173
  447TMC3    C1 6708   4.339   0.043  11.260 -0.6699 -0.0169  0.0053
  447TMC3    C2 6709   4.285   0.065  11.141  0.1705 -0.0011  0.0578
  447TMC3    C3 6710   4.368   0.055  11.033  0.0548  0.0063  0.3803
  447TMC3    C4 6711   4.474   0.012  11.271  0.1390 -0.6974  0.4402
  447TMC3    C5 6712   4.551   0.004  11.151 -0.2702  0.5272  0.3955
  447TMC3    C6 6713   4.495   0.021  11.029 -0.1499 -0.4834  0.3199
  447TMC3     C 6714   4.273   0.063  11.379  0.4682 -0.0729 -0.0530
  447TMC3     O 6715   4.334   0.081  11.483  0.2695 -0.3705 -0.6524
  447TMC3     H 6716   4.186   0.102  11.121 -0.6726 -1.8865  0.7186
  447TMC3    H1 6717   4.518   4.735  11.369 -0.2753 -2.5406  0.3203
  447TMC3    H2 6718   4.552   4.736  10.940 -1.0966 -0.2559 -0.3495
  447TMC3    C7 6719   4.691   4.697  11.154 -0.2198  0.0920  0.5632
  447TMC3    C8 6720   4.315   0.129  10.920 -0.3298 -0.0801  0.3983
  447TMC3    O1 6721   0.005   4.674  11.051  0.0613 -0.2745 -0.3552
  447TMC3    O2 6722   4.199   0.109  10.890 -0.2858  0.3632 -1.0434
  448TMC3    C1 6723   2.188   3.718  17.037 -0.3294 -0.2740 -0.1239
  448TMC3    C2 6724   2.165   3.699  16.898 -0.5361  0.3454  0.2533
  448TMC3    C3 6725   2.179   3.572  16.843 -0.1062  0.3610  0.5256
  448TMC3    C4 6726   2.229   3.616  17.119  0.2737  0.4709  0.1708
  448TMC3    C5 6727   2.259   3.500  17.051  0.3942  0.0952  0.0033
  448TMC3    C6 6728   2.247   3.479  16.916 -0.2141  0.3490 -0.3063
  448TMC3     C 6729   2.157   3.847  17.094 -0.0477 -0.1433 -0.7575
  448TMC3     O 6730   2.144   3.852  17.219  1.0519  0.0885 -0.2480
  448TMC3     H 6731   2.110   3.765  16.831 -1.9232 -1.6620 -0.5731
  448TMC3    H1 6732   2.253   3.639  17.222 -0.7374 -3.7901  1.3701
  448TMC3    H2 6733   2.277   3.388  16.864  1.3418 -0.4245  1.9118
  448TMC3    C7 6734   2.342   3.394  17.114  0.1646 -0.0269 -0.3091
  448TMC3    C8 6735   2.182   3.543  16.699 -0.2811  0.6243 -0.5289
  448TMC3    O1 6736   2.385   3.314  17.032  0.5957 -1.0452  0.0399
  448TMC3    O2 6737   2.179   3.429  16.663  0.3425  0.3853 -0.4053
  449MPD2     C 6738   3.903   2.689  14.150  0.2225 -0.2179 -0.5591
  449MPD2    C1 6739   3.841   2.808  14.134 -0.2677  0.4085  0.3165
  449MPD2    C2 6740   3.700   2.815  14.144  0.7232  0.2609 -0.0292
  449MPD2    C3 6741   3.623   2.705  14.179 -0.0277  0.0540  0.9189
  449MPD2    C4 6742   3.688   2.590  14.224 -0.1565 -0.3037 -0.1805
  449MPD2    C5 6743   3.826   2.586  14.204  0.1749 -0.3120  0.4198
  449MPD2     H 6744   3.647   2.909  14.136 -0.8267 -0.7456 -1.4887
  449MPD2    H1 6745   3.641   2.498  14.255 -0.4441 -0.1070 -0.0353
  449MPD2    H2 6746   4.010   2.673  14.155  0.6050  1.7816 -2.4873
  449MPD2    H3 6747   3.879   2.496  14.232 -1.1077 -0.9059  0.9739
  449MPD2     N 6748   3.480   2.719  14.173  0.0460  0.6316 -0.2446
  449MPD2    H5 6749   3.443   2.806  14.137 -0.6013  1.1827  1.7726
  449MPD2    N1 6750   3.897   2.932  14.106 -0.1710  0.3171 -0.1983
  449MPD2    H7 6751   3.827   3.005  14.102 -0.6162 -0.0619  0.7287
  450TMC3    C1 6752   4.075   3.101  14.081  0.0276  0.7823  0.0082
  450TMC3    C2 6753   4.090   3.131  13.950  0.2333  0.0945  0.7976
  450TMC3    C3 6754   4.026   3.244  13.898  0.6286  0.0071 -0.1905
  450TMC3    C4 6755   3.999   3.181  14.159 -0.1239  0.0347 -0.6791
  450TMC3    C5 6756   3.936   3.296  14.105 -0.0338 -0.6995  0.0263
  450TMC3    C6 6757   3.949   3.325  13.975  0.7996 -0.4106  0.3320
  450TMC3     C 6758   4.033   2.962  14.087 -0.1008  0.4172  0.0446
  450TMC3     O 6759   4.127   2.881  14.087  0.3164  0.3172  0.0037
  450TMC3     H 6760   4.150   3.060  13.894  0.8932  1.0147  0.3325
  450TMC3    H1 6761   3.999   3.166  14.266  1.0253 -0.4946 -0.7501
  450TMC3    H2 6762   3.914   3.420  13.938 -3.5727 -1.4129  1.8783
  450TMC3    C7 6763   3.795   3.299  14.147  0.4196  0.2995  0.0691
  450TMC3    C8 6764   4.004   3.246  13.753  0.1236  0.4320 -0.3660
  450TMC3    O1 6765   3.767   3.203  14.222 -0.1602  0.0654 -0.2926
  450TMC3    O2 6766   3.916   3.323  13.725 -0.3989 -0.0932 -0.7166
  451MPD2     C 6767   0.936   1.989   1.156  0.2758  0.0161 -0.0461
  451MPD2    C1 6768   0.841   1.897   1.191  0.0394 -0.1375 -0.6123
  451MPD2    C2 6769   0.830   1.780   1.123  0.7068 -0.2855 -0.3867
  451MPD2    C3 6770   0.906   1.751   1.005  0.3605  0.3683 -0.3680
  451MPD2    C4 6771   0.990   1.847   0.965 -0.4631  0.9844  0.1279
  451MPD2    C5 6772   1.004   1.963   1.038 -0.3062  0.1134 -0.0938
  451MPD2     H 6773   0.759   1.709   1.164  0.6351  1.0498  1.8095
  451MPD2    H1 6774   1.045   1.839   0.872 -0.3136 -2.0138  0.4499
  451MPD2    H2 6775   0.952   2.077   1.218 -1.7687 -0.8008  1.6204
  451MPD2    H3 6776   1.084   2.027   1.004 -0.4311 -0.0703 -0.7330
  451MPD2     N 6777   0.880   1.631   0.923  0.4338  0.2406  0.2285
  451MPD2    H5 6778   0.939   1.620   0.841  0.5402  0.3942  0.2836
  451MPD2    N1 6779   0.757   1.930   1.298  0.2897 -0.0937  0.3089
  451MPD2    H7 6780   0.755   2.029   1.322 -0.4250 -0.1989  0.6620
  452TMC3    C1 6781   0.781   1.433   0.869 -1.0714 -0.1905  0.0192
  452TMC3    C2 6782   0.746   1.306   0.920 -0.3871 -0.1687 -0.2474
  452TMC3    C3 6783   0.674   1.225   0.840  0.5401  0.1231  0.1622
  452TMC3    C4 6784   0.742   1.478   0.747 -0.5583 -0.2501  0.2480
  452TMC3    C5 6785   0.662   1.395   0.674 -0.0602  0.2800 -0.8779
  452TMC3    C6 6786   0.629   1.270   0.719 -0.0943  0.0267 -0.9039
  452TMC3     C 6787   0.804   1.528   0.968 -0.7978  1.1556 -0.6687
  452TMC3     O 6788   0.775   1.502   1.084 -0.2453 -0.4040  0.3234
  452TMC3     H 6789   0.764   1.273   1.021 -1.7382  0.1469  0.1023
  452TMC3    H1 6790   0.761   1.579   0.711 -1.2045 -0.5645 -0.9928
  452TMC3    H2 6791   0.592   1.200   0.645 -1.3877 -1.1473  0.8440
  452TMC3    C7 6792   0.648   1.418   0.535 -0.2513  0.6725 -0.1554
  452TMC3    C8 6793   0.675   1.082   0.854 -0.0461 -0.3659  0.1797
  452TMC3    O1 6794   0.735   1.477   0.471 -0.1305  0.1290 -0.0415
  452TMC3    O2 6795   0.586   1.019   0.799  0.0787 -0.4290 -0.2595
  453TMC3    C1 6796   1.363   3.464  11.700  0.5445 -0.0993 -0.0290
  453TMC3    C2 6797   1.313   3.366  11.779  0.4093 -0.1626 -0.1025
  453TMC3    C3 6798   1.190   3.325  11.749 -0.3718  0.3271  0.1373
  453TMC3    C4 6799   1.283   3.535  11.612  0.5052  0.1277 -0.4798
  453TMC3    C5 6800   1.155   3.488  11.587 -0.6833  0.1368  0.3528
  453TMC3    C6 6801   1.110   3.384  11.653  1.0485  0.1262 -0.2783
  453TMC3     C 6802   1.456   3.550  11.765  0.0996  0.2210 -0.2511
  453TMC3     O 6803   1.536   3.490  11.835 -0.3074 -0.4032  0.3904
  453TMC3     H 6804   1.370   3.342  11.868  2.1183  0.1424 -1.0963
  453TMC3    H1 6805   1.325   3.606  11.542 -0.7394  0.2326 -1.1370
  453TMC3    H2 6806   1.007   3.352  11.647  1.8026 -1.9598 -2.0157
  453TMC3    C7 6807   1.065   3.598  11.584  0.7335 -0.2751  0.4394
  453TMC3    C8 6808   1.146   3.187  11.785  0.3431  0.3476  0.1867
  453TMC3    O1 6809   1.119   3.707  11.581 -0.1442 -0.0556 -0.1361
  453TMC3    O2 6810   1.029   3.161  11.764  0.6978 -0.2234 -0.7027
  454MPD2     C 6811   0.595   2.648  15.664  0.4593  0.1587 -0.5033
  454MPD2    C1 6812   0.459   2.608  15.690 -0.1074  0.2802 -0.4047
  454MPD2    C2 6813   0.376   2.698  15.757  0.5010 -0.1722  0.4979
  454MPD2    C3 6814   0.428   2.808  15.813 -0.1512 -0.3378  0.0607
  454MPD2    C4 6815   0.557   2.848  15.789  0.1824  0.0669  0.7450
  454MPD2    C5 6816   0.645   2.761  15.723 -0.2035  0.0873 -0.6653
  454MPD2     H 6817   0.272   2.666  15.765  2.0392 -5.4971 -0.6126
  454MPD2    H1 6818   0.600   2.944  15.818  0.9405  0.6681 -2.4059
  454MPD2    H2 6819   0.643   2.601  15.579 -1.0533  0.2642 -1.4046
  454MPD2    H3 6820   0.743   2.804  15.709 -0.6729  1.5423  0.4298
  454MPD2     N 6821   0.332   2.878  15.893 -0.1566  0.4526 -1.1949
  454MPD2    H5 6822   0.237   2.842  15.888  0.8226 -2.3710  0.9161
  454MPD2    N1 6823   0.400   2.504  15.615  0.0553  0.4775  0.0719
  454MPD2    H7 6824   0.299   2.492  15.620  0.0547  1.0911  1.3706
  455TMC3    C1 6825   0.219   3.032  16.012  0.1774 -0.3925 -0.0339
  455TMC3    C2 6826   0.236   3.073  16.144  0.0343  0.3492  0.2798
  455TMC3    C3 6827   0.155   3.029  16.245  0.3033  0.0491  0.7032
  455TMC3    C4 6828   0.122   2.941  15.988  0.6986 -0.3867  0.6660
  455TMC3    C5 6829   0.043   2.893  16.094 -0.2732  0.3391 -0.6520
  455TMC3    C6 6830   0.064   2.931  16.223  0.0300 -0.1253 -0.7242
  455TMC3     C 6831   0.350   3.000  15.954 -0.6052 -0.0817  0.4638
  455TMC3     O 6832   0.454   3.057  15.976 -0.7907  0.0845  0.2610
  455TMC3     H 6833   0.331   3.122  16.158 -0.1720  0.6964  0.4584
  455TMC3    H1 6834   0.077   2.933  15.890  0.9240 -0.3404  0.5590
  455TMC3    H2 6835   0.013   2.891  16.310 -0.0321  3.0859  0.7131
  455TMC3    C7 6836   0.005   2.755  16.067 -0.5402 -0.0525  0.4450
  455TMC3    C8 6837   0.165   3.083  16.380  0.1910 -0.4272  0.0332
  455TMC3    O1 6838   4.632   2.713  16.101 -0.4500  0.1404  0.5466
  455TMC3    O2 6839   0.106   3.024  16.474 -0.6841 -0.4373 -0.3879
  456MPD2     C 6840   3.206   2.969  15.652  0.5455  0.4016  0.3329
  456MPD2    C1 6841   3.156   2.865  15.728 -0.9554  0.6879  0.5385
  456MPD2    C2 6842   3.078   2.900  15.838 -0.4831  0.1910 -0.3835
  456MPD2    C3 6843   3.036   3.035  15.857 -0.1131  0.4513 -0.2646
  456MPD2    C4 6844   3.084   3.132  15.773 -0.2144 -0.1753  0.0463
  456MPD2    C5 6845   3.169   3.100  15.670 -0.8197  0.3729  0.2508
  456MPD2     H 6846   3.051   2.827  15.913 -0.1033 -1.1116 -1.5285
  456MPD2    H1 6847   3.062   3.238  15.778 -0.4758 -0.3629  3.1044
  456MPD2    H2 6848   3.271   2.945  15.568  0.0317  2.0088 -0.5203
  456MPD2    H3 6849   3.209   3.167  15.594 -2.8321  2.1494  0.7578
  456MPD2     N 6850   2.957   3.068  15.967  0.8227  0.5642 -0.0349
  456MPD2    H5 6851   2.928   2.992  16.028 -1.0667  0.8124 -0.6336
  456MPD2    N1 6852   3.212   2.738  15.703  0.3344  0.2819  0.1674
  456MPD2    H7 6853   3.279   2.724  15.629 -0.1116 -1.0201  0.0155
  457TMC3    C1 6854   2.834   3.196  16.120  0.4226 -0.4638  0.1691
  457TMC3    C2 6855   2.734   3.290  16.109  0.3717 -0.1822 -0.4439
  457TMC3    C3 6856   2.628   3.281  16.192 -0.6360 -0.5921  0.0322
  457TMC3    C4 6857   2.827   3.104  16.222 -0.0063  0.0258  0.1946
  457TMC3    C5 6858   2.723   3.103  16.310 -0.2550 -0.0769 -0.0938
  457TMC3    C6 6859   2.617   3.190  16.291  0.2177  0.2560 -0.0664
  457TMC3     C 6860   2.921   3.194  16.004  0.0321  0.2068 -0.8609
  457TMC3     O 6861   2.923   3.299  15.943 -0.7646  0.1627 -0.2243
  457TMC3     H 6862   2.743   3.365  16.032  0.2890  0.3408  0.0572
  457TMC3    H1 6863   2.915   3.043  16.239 -1.7049 -2.1317  1.2431
  457TMC3    H2 6864   2.533   3.199  16.359 -0.2617 -0.6710 -0.5381
  457TMC3    C7 6865   2.741   3.019  16.426 -0.0791  0.6900  0.1245
  457TMC3    C8 6866   2.553   3.407  16.192 -0.0722  0.6847  0.0564
  457TMC3    O1 6867   2.842   2.955  16.440  0.2070  1.0844 -0.4920
  457TMC3    O2 6868   2.574   3.492  16.108  0.6012 -0.0619  0.2039
  458MPD2     C 6869   0.582   2.609  12.527  0.4807  0.4249 -0.4090
  458MPD2    C1 6870   0.496   2.623  12.636 -0.3681  0.1861 -0.0949
  458MPD2    C2 6871   0.369   2.674  12.615  0.1703  0.7607 -0.4970
  458MPD2    C3 6872   0.339   2.739  12.492  0.2892  0.9467  0.2195
  458MPD2    C4 6873   0.432   2.721  12.387  0.3330 -0.0892  0.1818
  458MPD2    C5 6874   0.551   2.658  12.405  0.3043  0.3210  0.6402
  458MPD2     H 6875   0.296   2.689  12.693  1.5289 -0.5151  1.0135
  458MPD2    H1 6876   0.404   2.747  12.285 -0.9303 -1.0434  0.2909
  458MPD2    H2 6877   0.677   2.559  12.534  0.2383 -0.0831 -0.7320
  458MPD2    H3 6878   0.612   2.641  12.317  0.1506 -0.2173  0.6372
  458MPD2     N 6879   0.211   2.791  12.477  0.4321 -0.3645  0.2721
  458MPD2    H5 6880   0.151   2.775  12.557  0.0697 -0.4527 -0.0170
  458MPD2    N1 6881   0.546   2.608  12.770  0.3182  0.0298 -0.5975
  458MPD2    H7 6882   0.645   2.590  12.780  0.5369  0.9866 -1.0564
  459TMC3    C1 6883   0.549   2.616  13.004  0.4696  0.4011  0.4638
  459TMC3    C2 6884   0.669   2.682  12.996 -0.4347  0.4533  0.1624
  459TMC3    C3 6885   0.753   2.663  13.102  0.4632 -0.5798  0.6134
  459TMC3    C4 6886   0.512   2.536  13.108 -0.4772 -0.1911 -0.3030
  459TMC3    C5 6887   0.587   2.534  13.222  0.6900 -0.7105  0.2753
  459TMC3    C6 6888   0.709   2.604  13.215  0.1838  0.4993  0.3991
  459TMC3     C 6889   0.467   2.621  12.886  0.2025  0.1408  0.3594
  459TMC3     O 6890   0.347   2.613  12.897  0.5645  0.0107 -0.2400
  459TMC3     H 6891   0.702   2.737  12.909 -1.3074 -1.5599 -1.4515
  459TMC3    H1 6892   0.434   2.461  13.106 -0.4746 -0.2507  1.5447
  459TMC3    H2 6893   0.782   2.613  13.294  1.5143  1.7177 -0.9712
  459TMC3    C7 6894   0.589   2.415  13.305  0.1124 -0.0050 -0.2037
  459TMC3    C8 6895   0.888   2.711  13.087  0.5243 -0.7682 -0.6212
  459TMC3    O1 6896   0.647   2.314  13.266  0.2022  0.1562 -0.0705
  459TMC3    O2 6897   0.957   2.719  13.187  0.1071  0.1068  0.1148
  460MPD2     C 6898   4.463   0.402  10.731 -0.4491 -0.2339 -0.7312
  460MPD2    C1 6899   4.384   0.292  10.742  0.1646 -0.0286 -0.0552
  460MPD2    C2 6900   4.282   0.262  10.651  0.3031 -0.6625 -0.5537
  460MPD2    C3 6901   4.272   0.346  10.542  0.2579  0.1444 -0.1773
  460MPD2    C4 6902   4.350   0.459  10.527 -0.1591  0.2679 -0.5847
  460MPD2    C5 6903   4.445   0.487  10.623  0.0309  0.5824 -0.0559
  460MPD2     H 6904   4.224   0.172  10.665 -0.4281  0.1665  1.8612
  460MPD2    H1 6905   4.347   0.519  10.436  2.0887 -1.8418 -2.0224
  460MPD2    H2 6906   4.539   0.415  10.808  0.1135  0.1937 -1.3591
  460MPD2    H3 6907   4.509   0.573  10.613 -0.0971  0.3995 -2.3631
  460MPD2     N 6908   4.184   0.311  10.441  0.6356  0.8784  0.0257
  460MPD2    H5 6909   4.141   0.219  10.448  2.1808  0.3490  2.6319
  460MPD2    N1 6910   4.408   0.203  10.854 -0.2321  0.0541 -0.0335
  460MPD2    H7 6911   4.487   0.228  10.913  0.6031  0.9165 -1.4945
  461TMC3    C1 6912   4.105   0.293  10.215  0.1468 -0.5373 -0.5395
  461TMC3    C2 6913   4.134   0.159  10.207 -0.2663  0.2982 -0.7392
  461TMC3    C3 6914   4.113   0.093  10.095  0.0521  0.3037 -0.2591
  461TMC3    C4 6915   4.034   0.358  10.110  0.2796  0.4918 -0.1286
  461TMC3    C5 6916   4.006   0.286   9.999  0.2827  0.4123  0.3145
  461TMC3    C6 6917   4.042   0.149   9.994  0.0784  1.0646 -0.8274
  461TMC3     C 6918   4.160   0.374  10.320  0.0531  0.0803 -0.3230
  461TMC3     O 6919   4.184   0.485  10.278 -0.1656  0.8941  0.0835
  461TMC3     H 6920   4.165   0.100  10.292  0.7564  1.8172 -0.0566
  461TMC3    H1 6921   3.991   0.456  10.126  3.3395  1.9556 -0.8744
  461TMC3    H2 6922   4.004   0.084   9.916  0.0320  0.9802 -0.7341
  461TMC3    C7 6923   3.883   0.319   9.930 -0.3445  0.2548  0.3270
  461TMC3    C8 6924   4.167   4.693  10.084 -0.0741  0.0732 -0.0122
  461TMC3    O1 6925   3.826   0.237   9.861  0.7369  0.0729 -0.3729
  461TMC3    O2 6926   4.244   4.658  10.165  0.8048 -0.6392  0.4845
  462TMC3    C1 6927   4.283   1.049   0.240 -0.7715 -0.6542 -0.4050
  462TMC3    C2 6928   4.332   0.956   0.148 -0.0480  0.3875 -0.3709
  462TMC3    C3 6929   4.389   0.849   0.200 -0.1812 -0.0686 -0.2981
  462TMC3    C4 6930   4.261   1.010   0.370  0.7747 -0.7461 -0.6502
  462TMC3    C5 6931   4.316   0.893   0.412  0.6295  0.0213  0.5992
  462TMC3    C6 6932   4.395   0.812   0.334 -0.3094  0.0449 -0.8564
  462TMC3     C 6933   4.270   1.194   0.197  0.1905  0.1768 -0.3438
  462TMC3     O 6934   4.299   1.213   0.077  0.0394 -0.0719  1.0182
  462TMC3     H 6935   4.335   0.983   0.043  1.0809  2.7431  0.2664
  462TMC3    H1 6936   4.229   1.079   0.448  2.2533 -1.2076  0.3632
  462TMC3    H2 6937   4.411   0.710   0.367 -0.1323  0.7569  1.2770
  462TMC3    C7 6938   4.214   0.812   0.475 -1.0103 -0.6579 -0.0138
  462TMC3    C8 6939   4.382   0.743   0.107  0.0817  0.3170  0.1819
  462TMC3    O1 6940   4.245   0.713   0.539 -0.7804  0.3555  0.5468
  462TMC3    O2 6941   4.286   0.744   0.037  0.0783 -0.2157  0.3395
  463MPD2     C 6942   1.261   3.060   1.325  0.0365 -0.1545  0.1064
  463MPD2    C1 6943   1.186   3.175   1.343 -0.3590 -0.4712 -0.1707
  463MPD2    C2 6944   1.222   3.260   1.447 -0.3157 -0.4165 -0.6942
  463MPD2    C3 6945   1.328   3.226   1.525 -0.1936  0.0053 -0.3424
  463MPD2    C4 6946   1.413   3.125   1.489 -0.0812  0.7591 -0.1643
  463MPD2    C5 6947   1.382   3.036   1.394 -0.3412 -0.6395 -0.6313
  463MPD2     H 6948   1.164   3.351   1.459 -0.0725 -0.2758 -0.5952
  463MPD2    H1 6949   1.502   3.100   1.546 -0.8463  0.1780  0.7687
  463MPD2    H2 6950   1.229   2.984   1.254  0.2804  1.9902 -2.3105
  463MPD2    H3 6951   1.440   2.950   1.363 -0.9274 -0.8354 -1.1774
  463MPD2     N 6952   1.368   3.303   1.637  0.2744  0.0330 -0.4182
  463MPD2    H5 6953   1.440   3.273   1.702  0.5078  0.3844 -0.5102
  463MPD2    N1 6954   1.087   3.218   1.250 -0.3362  0.8776  0.4229
  463MPD2    H7 6955   1.052   3.312   1.269  0.3795  1.0777  0.7618
  464TMC3    C1 6956   0.950   3.221   1.056 -0.2290  0.7638  0.7079
  464TMC3    C2 6957   0.933   3.360   1.061 -0.2700  0.0884 -0.6664
  464TMC3    C3 6958   0.822   3.410   0.994  0.6468 -0.0441 -0.4143
  464TMC3    C4 6959   0.859   3.136   1.006  0.3601 -0.5301  0.1288
  464TMC3    C5 6960   0.756   3.188   0.935  0.2586  0.1604 -0.4282
  464TMC3    C6 6961   0.738   3.323   0.930 -0.9401  0.1928  0.6391
  464TMC3     C 6962   1.043   3.153   1.145 -0.0060 -0.1451  0.5996
  464TMC3     O 6963   1.067   3.038   1.113  0.0910  0.0032  0.1929
  464TMC3     H 6964   1.006   3.430   1.099  0.0955 -1.4049  1.3872
  464TMC3    H1 6965   0.849   3.030   1.024  0.5691 -0.8067 -1.4002
  464TMC3    H2 6966   0.671   3.379   0.865  0.6041 -0.0226 -1.1346
  464TMC3    C7 6967   0.641   3.106   0.905 -0.1279  0.4204  0.3940
  464TMC3    C8 6968   0.758   3.534   1.025 -0.7727  0.2520 -0.0456
  464TMC3    O1 6969   0.658   2.984   0.902 -0.5544 -0.0761  0.1986
  464TMC3    O2 6970   0.641   3.551   1.000 -0.0712 -0.3747 -0.6322
  465MPD2     C 6971   1.768   2.529  16.662  0.6693 -0.0882  0.0258
  465MPD2    C1 6972   1.684   2.598  16.745 -0.0478 -0.1414 -0.6618
  465MPD2    C2 6973   1.609   2.692  16.687 -0.3688  0.2770 -0.5446
  465MPD2    C3 6974   1.602   2.704  16.546 -0.1893 -0.2314 -0.4166
  465MPD2    C4 6975   1.693   2.641  16.468  1.3843 -0.1729 -0.6884
  465MPD2    C5 6976   1.790   2.557  16.533  0.2688  0.5012  0.2743
  465MPD2     H 6977   1.527   2.741  16.739  0.6673  0.8755  0.5096
  465MPD2    H1 6978   1.719   2.654  16.363  4.1745  0.8147  0.1267
  465MPD2    H2 6979   1.831   2.447  16.694 -0.3381 -1.1540 -0.7055
  465MPD2    H3 6980   1.863   2.495  16.481  1.5820 -0.3329  3.0663
  465MPD2     N 6981   1.502   2.790  16.485  1.2096  0.4629  0.8614
  465MPD2    H5 6982   1.444   2.850  16.544  0.5068  0.7958 -0.1799
  465MPD2    N1 6983   1.676   2.577  16.886 -0.0991 -0.3077  0.0091
  465MPD2    H7 6984   1.609   2.636  16.934  1.0318  0.7397  0.2911
  466TMC3    C1 6985   1.150   2.849  16.220  0.1442  0.2284  0.6499
  466TMC3    C2 6986   1.130   2.973  16.269  0.5931 -0.3879  0.0934
  466TMC3    C3 6987   1.224   3.049  16.338  0.0487 -0.5085 -0.1546
  466TMC3    C4 6988   1.277   2.804  16.235 -1.0920  0.0451 -0.4750
  466TMC3    C5 6989   1.371   2.879  16.298  0.0570 -0.1008  0.1922
  466TMC3    C6 6990   1.349   3.002  16.356  0.4003 -0.4117 -0.1190
  466TMC3     C 6991   1.054   2.755  16.268 -0.1984  0.5294 -0.2970
  466TMC3     O 6992   1.044   2.647  16.214 -0.7950 -0.1221  0.1187
  466TMC3     H 6993   1.030   3.013  16.259  1.4781  2.0450  0.8869
  466TMC3    H1 6994   1.296   2.702  16.201 -1.4320  0.9243 -3.3309
  466TMC3    H2 6995   1.429   3.041  16.419 -1.1698  0.8614  1.0716
  466TMC3    C7 6996   1.481   2.795  16.347  0.4889  0.5458 -0.0615
  466TMC3    C8 6997   1.162   3.122  16.452 -0.1240  1.1097 -0.5432
  466TMC3    O1 6998   1.517   2.718  16.259  1.0021  0.6801  0.2715
  466TMC3    O2 6999   1.042   3.101  16.463 -0.0838 -0.3100  0.7830
  467TMC3    C1 7000   2.750   1.662  13.993 -0.2082  0.1842  0.6317
  467TMC3    C2 7001   2.799   1.777  13.942 -0.2454  0.8665  0.1523
  467TMC3    C3 7002   2.715   1.855  13.875 -0.4828  0.2597  0.6838
  467TMC3    C4 7003   2.622   1.627  13.990 -0.0234  0.4533  0.6789
  467TMC3    C5 7004   2.538   1.711  13.920 -0.5671  0.9120 -0.6808
  467TMC3    C6 7005   2.584   1.826  13.859  0.5757  0.1957 -0.6114
  467TMC3     C 7006   2.840   1.553  14.037 -0.4604  0.7946  0.5100
  467TMC3     O 7007   2.912   1.592  14.129  0.3283 -0.1895  0.1771
  467TMC3     H 7008   2.906   1.793  13.956  0.1528 -0.1334 -1.7085
  467TMC3    H1 7009   2.593   1.550  14.060 -0.5080  0.6625  0.7086
  467TMC3    H2 7010   2.520   1.907  13.825 -2.5976 -2.1592 -0.2269
  467TMC3    C7 7011   2.394   1.688  13.935  0.0663  0.0858 -0.4617
  467TMC3    C8 7012   2.784   1.948  13.788 -0.0952  0.4444  0.1087
  467TMC3    O1 7013   2.362   1.585  13.990 -0.8217 -0.0051 -0.3120
  467TMC3    O2 7014   2.748   2.067  13.793  0.2102 -0.0467 -0.9542
  468MPD2     C 7015   1.209   0.435  11.331  0.2220  0.3456  0.2766
  468MPD2    C1 7016   1.328   0.390  11.284 -0.2521 -0.1863 -0.3908
  468MPD2    C2 7017   1.347   0.252  11.267 -0.0885 -0.1246  0.1604
  468MPD2    C3 7018   1.248   0.167  11.297 -0.7001 -0.1739  0.1596
  468MPD2    C4 7019   1.126   0.207  11.340  0.7549  0.1104 -0.3094
  468MPD2    C5 7020   1.112   0.348  11.362  0.5860  0.4213  0.2968
  468MPD2     H 7021   1.441   0.226  11.221  0.8618  1.7734  1.0335
  468MPD2    H1 7022   1.047   0.134  11.354  0.6236  0.0784 -1.2224
  468MPD2    H2 7023   1.178   0.536  11.352  2.1690  0.4210  2.9266
  468MPD2    H3 7024   1.021   0.383  11.409 -0.5166 -2.1599  0.0949
  468MPD2     N 7025   1.265   0.025  11.297 -0.0977  0.1982  0.3849
  468MPD2    H5 7026   1.186   4.707  11.326  1.4574 -1.3845  1.4634
  468MPD2    N1 7027   1.441   0.461  11.249  0.0140 -0.1993 -0.2559
  468MPD2    H7 7028   1.528   0.411  11.231  0.8349  0.0533  3.0120
  469TMC3    C1 7029   1.593   0.643  11.256  0.3235 -0.7468 -0.6713
  469TMC3    C2 7030   1.687   0.551  11.222 -0.4871 -0.7291  1.0571
  469TMC3    C3 7031   1.818   0.565  11.265  0.7955  0.2709  0.5720
  469TMC3    C4 7032   1.619   0.760  11.315 -0.0189  0.7562  0.0455
  469TMC3    C5 7033   1.752   0.781  11.350  0.3115  0.5014  0.0355
  469TMC3    C6 7034   1.848   0.679  11.326  0.0656 -0.3702 -0.6761
  469TMC3     C 7035   1.453   0.600  11.258  0.4041 -0.2852 -0.7264
  469TMC3     O 7036   1.368   0.676  11.301  0.6602  0.5757 -0.3468
  469TMC3     H 7037   1.659   0.460  11.171 -0.9758 -0.9586  1.7346
  469TMC3    H1 7038   1.542   0.829  11.348 -0.8255  0.1439 -0.5453
  469TMC3    H2 7039   1.951   0.690  11.358 -0.2562  0.3542  0.0986
  469TMC3    C7 7040   1.758   0.843  11.484 -0.0864  0.5281 -0.7569
  469TMC3    C8 7041   1.909   0.452  11.248  0.1683 -0.3254  0.0134
  469TMC3    O1 7042   1.664   0.824  11.557 -0.1168 -0.1877  0.1634
  469TMC3    O2 7043   1.879   0.351  11.182 -0.1418  0.7659 -0.2030
  470TMC3    C1 7044   3.440   0.902   0.315  0.8000  0.5591  0.2846
  470TMC3    C2 7045   3.525   0.968   0.408 -0.3463  0.0871  0.1970
  470TMC3    C3 7046   3.542   0.901   0.527 -1.2349 -0.0124 -0.0861
  470TMC3    C4 7047   3.377   0.785   0.340 -0.3599  0.2788  0.8882
  470TMC3    C5 7048   3.392   0.727   0.462 -0.5674 -0.3941 -0.4724
  470TMC3    C6 7049   3.484   0.777   0.550  0.0219  0.0936 -0.8020
  470TMC3     C 7050   3.439   0.968   0.182  0.1436 -0.0008 -0.1881
  470TMC3     O 7051   3.522   1.056   0.165  0.3393 -0.2176  0.0476
  470TMC3     H 7052   3.599   1.040   0.377  0.8722 -1.3872 -0.3235
  470TMC3    H1 7053   3.319   0.732   0.265  1.2452 -0.0046 -0.1515
  470TMC3    H2 7054   3.503   0.726   0.644 -0.7600  0.4543 -0.4537
  470TMC3    C7 7055   3.304   0.613   0.492 -0.2926  0.0400 -0.2803
  470TMC3    C8 7056   3.639   0.949   0.617  1.1035 -0.3124 -0.7176
  470TMC3    O1 7057   3.235   0.567   0.404 -0.5816 -0.7945  1.0842
  470TMC3    O2 7058   3.659   1.073   0.622  0.0963  0.2545  0.2221
  471MPD2     C 7059   4.365   1.894  16.974  0.4182 -0.7940  0.0702
  471MPD2    C1 7060   4.311   1.763  16.982  0.3836  0.1031  0.1257
  471MPD2    C2 7061   4.294   1.709  17.113  0.1255 -0.2969 -0.5629
  471MPD2    C3 7062   4.309   1.792  17.228 -0.4357  0.0607 -0.1901
  471MPD2    C4 7063   4.351   1.920  17.210 -0.4856  0.2225  0.3738
  471MPD2    C5 7064   4.379   1.969  17.089  1.0629 -0.4696 -0.4461
  471MPD2     H 7065   4.261   1.607  17.128  1.4071 -0.7730 -0.9632
  471MPD2    H1 7066   4.374   1.977  17.299 -0.0168 -1.9676  1.6716
  471MPD2    H2 7067   4.413   1.936  16.887  0.9359  1.8903  1.6323
  471MPD2    H3 7068   4.410   2.072  17.079 -1.9588  0.5992  1.1221
  471MPD2     N 7069   4.283   1.747  17.357 -0.4881 -0.3399  0.1004
  471MPD2    H5 7070   4.313   1.794  17.441  0.8717 -1.6856  0.3622
  471MPD2    N1 7071   4.306   1.680  16.872 -0.0947  0.1685 -0.5164
  471MPD2    H7 7072   4.295   1.580  16.885  0.1249  0.0614 -1.1690
  472TMC3    C1 7073   4.368   1.584  16.677  0.0360 -0.1919 -0.1791
  472TMC3    C2 7074   4.345   1.569  16.542 -0.1796 -0.3467  0.2971
  472TMC3    C3 7075   4.406   1.471  16.470  0.2004  0.6845 -1.2025
  472TMC3    C4 7076   4.439   1.498  16.752  0.1430 -0.5637  0.1916
  472TMC3    C5 7077   4.485   1.392  16.681 -0.0795 -1.2242  0.0076
  472TMC3    C6 7078   4.482   1.385  16.542 -0.3998 -0.7421  0.3116
  472TMC3     C 7079   4.335   1.708  16.743  0.7676  0.7477 -0.4407
  472TMC3     O 7080   4.365   1.812  16.688 -0.0569  0.1184 -0.5241
  472TMC3     H 7081   4.264   1.632  16.506 -0.4528 -0.7020  0.2906
  472TMC3    H1 7082   4.453   1.499  16.860 -0.8798 -2.2688  0.3454
  472TMC3    H2 7083   4.528   1.308  16.482  0.2813 -0.6637  0.7368
  472TMC3    C7 7084   4.461   1.261  16.741  0.2548 -0.1861 -0.1485
  472TMC3    C8 7085   4.304   1.392  16.404 -0.2194  0.2810  0.1095
  472TMC3    O1 7086   4.461   1.251  16.865  0.5235  0.7445 -0.3562
  472TMC3    O2 7087   4.306   1.270  16.419 -0.1309 -0.1596 -0.2508
  473MPD2     C 7088   4.045   3.633  13.621 -0.1742  0.2951  0.2941
  473MPD2    C1 7089   4.050   3.759  13.562  0.1421  0.6721  0.2142
  473MPD2    C2 7090   4.156   3.844  13.593  0.1094  0.6802  0.4065
  473MPD2    C3 7091   4.249   3.802  13.686 -0.4098  0.6928  0.7291
  473MPD2    C4 7092   4.232   3.680  13.754  0.4530  0.0105  0.7536
  473MPD2    C5 7093   4.131   3.596  13.712 -0.0536 -0.1458  0.4313
  473MPD2     H 7094   4.161   3.943  13.550  0.9296 -0.0172 -1.1225
  473MPD2    H1 7095   4.299   3.648  13.833 -0.0419  1.0302  1.6036
  473MPD2    H2 7096   3.969   3.559  13.600  0.7267 -0.7489  0.7409
  473MPD2    H3 7097   4.125   3.495  13.750  1.5517  0.9768  3.6468
  473MPD2     N 7098   4.345   3.885  13.744 -0.3375 -0.2858  0.1362
  473MPD2    H5 7099   4.377   3.852  13.835 -0.8852 -0.0351  0.4207
  473MPD2    N1 7100   3.948   3.801  13.469 -0.1948  0.0530  0.1104
  473MPD2    H7 7101   3.942   3.898  13.442 -2.5943  0.3165  1.5732
  474TMC3    C1 7102   4.442   4.098  13.811  0.1730  0.2270  0.4504
  474TMC3    C2 7103   4.496   4.218  13.773 -0.5962  0.9109  0.0155
  474TMC3    C3 7104   4.571   4.280  13.868 -0.4308 -0.1010  0.0364
  474TMC3    C4 7105   4.440   4.047  13.934 -0.4690 -0.5627 -0.2414
  474TMC3    C5 7106   4.505   4.121  14.028  0.5147  0.1270 -0.3696
  474TMC3    C6 7107   4.580   4.231  13.996 -0.7034  0.1315  0.2247
  474TMC3     C 7108   4.378   4.016  13.707 -0.8508 -0.3053 -0.0773
  474TMC3     O 7109   4.351   4.084  13.607  0.5130  0.3287 -0.2332
  474TMC3     H 7110   4.474   4.251  13.672 -0.6116 -2.8555 -1.2412
  474TMC3    H1 7111   4.406   3.951  13.972  1.8879 -1.7423 -1.1127
  474TMC3    H2 7112   4.618   4.301  14.070  1.2598 -0.7642  0.0541
  474TMC3    C7 7113   4.490   4.074  14.165  0.4744  0.7700  0.2120
  474TMC3    C8 7114   4.590   4.422  13.853  0.7000  0.0018 -0.2350
  474TMC3    O1 7115   4.464   3.956  14.181 -0.0072  0.0522  0.1496
  474TMC3    O2 7116   4.581   4.491  13.950 -0.1605 -0.6624 -0.4872
  475MPD2     C 7117   2.269   2.973  10.344  0.3793 -0.2690 -0.0786
  475MPD2    C1 7118   2.320   3.090  10.405  0.2006 -0.1432 -0.0486
  475MPD2    C2 7119   2.230   3.148  10.500 -0.3677  0.7595 -0.4506
  475MPD2    C3 7120   2.107   3.094  10.533 -0.5360  0.4385  0.6120
  475MPD2    C4 7121   2.070   2.972  10.474  0.4430 -0.5070  0.7415
  475MPD2    C5 7122   2.155   2.911  10.386  0.2025  0.1063  0.5169
  475MPD2     H 7123   2.252   3.241  10.552  1.3833 -0.1568  0.4453
  475MPD2    H1 7124   1.975   2.923  10.495  0.0190 -0.4578 -1.0019
  475MPD2    H2 7125   2.324   2.922  10.266  2.6138 -0.7091  1.7648
  475MPD2    H3 7126   2.116   2.821  10.341  0.0504 -0.8440  2.5324
  475MPD2     N 7127   2.030   3.158  10.636 -0.6897 -0.0566 -0.1026
  475MPD2    H5 7128   2.062   3.248  10.672 -0.7043  0.4943 -1.4396
  475MPD2    N1 7129   2.448   3.144  10.359 -0.6266 -0.2560 -0.4994
  475MPD2    H7 7130   2.498   3.093  10.288  2.3531  0.5110  1.0281
  476TMC3    C1 7131   2.590   3.329  10.316 -0.5058 -0.2231  0.4596
  476TMC3    C2 7132   2.615   3.261  10.201 -0.4508 -0.1164  0.3414
  476TMC3    C3 7133   2.718   3.313  10.136 -0.4940 -0.3470 -0.1774
  476TMC3    C4 7134   2.665   3.434  10.367 -0.3423  0.1907 -0.6012
  476TMC3    C5 7135   2.782   3.472  10.308 -0.0003  0.0919 -0.1035
  476TMC3    C6 7136   2.799   3.415  10.189  0.0028  0.0196  0.2080
  476TMC3     C 7137   2.498   3.263  10.410 -0.1237 -0.5346  0.3413
  476TMC3     O 7138   2.471   3.318  10.516 -0.0437 -0.0736 -0.1525
  476TMC3     H 7139   2.543   3.196  10.152  0.8641 -0.3902 -1.2329
  476TMC3    H1 7140   2.636   3.485  10.459  1.3474  2.0169 -1.0814
  476TMC3    H2 7141   2.891   3.425  10.133  0.5356 -2.1202  0.7260
  476TMC3    C7 7142   2.864   3.582  10.346  0.5752  0.3837 -1.1175
  476TMC3    C8 7143   2.768   3.240  10.026  0.1969 -0.4614  0.0709
  476TMC3    O1 7144   2.910   3.634  10.243 -0.0131  0.2309 -0.4088
  476TMC3    O2 7145   2.850   3.290   9.948 -0.0665 -0.1031 -0.2978
  477MPD2     C 7146   4.326   3.782  11.761  0.2423  0.2960 -0.3483
  477MPD2    C1 7147   4.443   3.802  11.692 -0.3782  0.8603 -1.0458
  477MPD2    C2 7148   4.563   3.765  11.748 -0.0828  0.2678  0.2421
  477MPD2    C3 7149   4.571   3.721  11.876 -0.1428 -0.2822 -0.1166
  477MPD2    C4 7150   4.456   3.715  11.950  0.1805 -0.3959 -1.2703
  477MPD2    C5 7151   4.335   3.741  11.886  0.3086 -0.3589  0.1089
  477MPD2     H 7152   4.652   3.760  11.687  0.7737 -0.9454  1.5815
  477MPD2    H1 7153   4.448   3.689  12.055  1.6138  1.3885 -0.7043
  477MPD2    H2 7154   4.232   3.817  11.720 -1.4402 -0.7473  2.6759
  477MPD2    H3 7155   4.238   3.736  11.933  1.7875 -2.3797  2.9806
  477MPD2     N 7156   4.702   3.699  11.927  0.2655  0.9984  0.1791
  477MPD2    H5 7157   0.043   3.691  11.864 -0.1867 -1.7942 -0.0582
  477MPD2    N1 7158   4.428   3.861  11.559 -0.5660 -0.0607  0.2185
  477MPD2    H7 7159   4.335   3.874  11.520  0.0305  1.7793 -0.5737
  478TMC3    C1 7160   4.477   4.036  11.402  0.2940  0.4057  0.6388
  478TMC3    C2 7161   4.558   4.153  11.403 -0.0506  0.0452 -0.6101
  478TMC3    C3 7162   4.498   4.261  11.333  0.1726  0.4014  0.2961
  478TMC3    C4 7163   4.352   4.031  11.348  0.1105  0.0951 -0.4899
  478TMC3    C5 7164   4.304   4.138  11.274 -0.0974  0.8597  0.2832
  478TMC3    C6 7165   4.380   4.254  11.268  0.0679 -0.1314  0.5731
  478TMC3     C 7166   4.526   3.933  11.494 -0.3363  0.7736 -0.0791
  478TMC3     O 7167   4.646   3.945  11.525  0.1513  0.3358 -0.3522
  478TMC3     H 7168   4.656   4.143  11.448  1.1548 -0.5417 -3.3804
  478TMC3    H1 7169   4.291   3.941  11.340  0.9411 -0.5200  0.0211
  478TMC3    H2 7170   4.340   4.342  11.218  1.1292  0.0320  0.0207
  478TMC3    C7 7171   4.174   4.120  11.206 -0.2424 -0.2851 -0.1330
  478TMC3    C8 7172   4.519   4.391  11.392 -0.1125  0.6431 -0.7877
  478TMC3    O1 7173   4.118   4.009  11.216 -0.4397 -0.9543  0.2917
  478TMC3    O2 7174   4.431   4.472  11.365  0.1970 -0.5548  0.2251
  479MPD2     C 7175   4.047   1.171  15.215  1.1930  0.1700 -0.5226
  479MPD2    C1 7176   3.969   1.080  15.289  0.3522 -0.4647 -0.5135
  479MPD2    C2 7177   4.011   1.064  15.421 -0.1204  0.1422 -0.3607
  479MPD2    C3 7178   4.117   1.142  15.474  0.5309 -0.7994  0.8703
  479MPD2    C4 7179   4.181   1.235  15.399 -0.0574 -0.9478 -0.2763
  479MPD2    C5 7180   4.144   1.249  15.273  0.2066 -0.3810  0.3050
  479MPD2     H 7181   3.967   0.983  15.479 -0.1661  2.3308  2.6696
  479MPD2    H1 7182   4.265   1.293  15.435 -0.2417 -0.7542 -0.1657
  479MPD2    H2 7183   4.022   1.190  15.111 -2.0962 -1.0069  0.0440
  479MPD2    H3 7184   4.200   1.315  15.207  0.8122 -0.2871  0.9105
  479MPD2     N 7185   4.173   1.121  15.603  0.5405  0.2416 -0.3055
  479MPD2    H5 7186   4.266   1.159  15.612  1.1074 -0.8836 -1.3611
  479MPD2    N1 7187   3.861   1.018  15.236 -0.1198  0.0630  0.2642
  479MPD2    H7 7188   3.838   1.029  15.138 -0.0318  5.3568  0.8046
  480TMC3    C1 7189   3.861   0.891  15.884 -0.6004  0.3865 -0.4120
  480TMC3    C2 7190   3.744   0.953  15.839  0.3366 -0.5187  0.3882
  480TMC3    C3 7191   3.760   1.061  15.755 -0.9956  0.3109 -0.1358
  480TMC3    C4 7192   3.985   0.918  15.831 -0.0286  0.2684  0.2359
  480TMC3    C5 7193   3.992   1.015  15.737 -0.3972 -0.0033  0.4940
  480TMC3    C6 7194   3.885   1.090  15.699  0.5454 -0.3228  1.1038
  480TMC3     C 7195   3.851   0.826  16.013 -0.0315 -0.6089 -0.0175
  480TMC3     O 7196   3.740   0.801  16.057 -0.2674 -0.0838 -0.3105
  480TMC3     H 7197   3.645   0.914  15.858  0.0075 -0.6181 -1.5951
  480TMC3    H1 7198   4.073   0.860  15.857  0.5231  1.1037  0.2400
  480TMC3    H2 7199   3.912   1.175  15.637  2.0223 -1.0138  0.7999
  480TMC3    C7 7200   4.134   1.048  15.709  0.2550 -0.3048  0.7363
  480TMC3    C8 7201   3.642   1.112  15.679  0.5739 -0.0413 -0.9383
  480TMC3    O1 7202   4.212   1.026  15.801  0.1894 -0.8037 -0.6311
  480TMC3    O2 7203   3.535   1.086  15.729  0.0842 -0.0426 -0.2478
  481MPD2     C 7204   0.751   1.195  14.552 -0.5821  0.1134 -0.2931
  481MPD2    C1 7205   0.735   1.067  14.516  0.1095  0.1041  0.4376
  481MPD2    C2 7206   0.763   0.977  14.616 -0.2287  0.9124  0.2923
  481MPD2    C3 7207   0.806   1.010  14.748  0.3524  0.7424 -0.0465
  481MPD2    C4 7208   0.815   1.142  14.778  0.1027  0.1098  0.2993
  481MPD2    C5 7209   0.782   1.234  14.679 -0.3014 -0.3103  0.1870
  481MPD2     H 7210   0.752   0.873  14.587 -2.8814  1.0344  0.8763
  481MPD2    H1 7211   0.857   1.180  14.871 -1.0831 -3.0450  2.1362
  481MPD2    H2 7212   0.727   1.261  14.469  0.0464  0.6600 -0.0436
  481MPD2    H3 7213   0.786   1.338  14.710 -2.7657  0.2119 -1.3034
  481MPD2     N 7214   0.835   0.921  14.857  0.3219 -0.0183  0.1350
  481MPD2    H5 7215   0.841   0.954  14.953 -0.6822  2.6983 -0.7431
  481MPD2    N1 7216   0.683   1.045  14.383  0.2965 -0.3001 -0.0703
  481MPD2    H7 7217   0.660   1.127  14.328  2.1543  1.4552  1.7657
  482TMC3    C1 7218   0.555   0.930  14.222 -0.4751  1.2829 -0.0213
  482TMC3    C2 7219   0.466   0.818  14.209  0.5033 -0.0751 -0.3697
  482TMC3    C3 7220   0.386   0.828  14.099  0.3274  0.6339 -0.3595
  482TMC3    C4 7221   0.557   1.050  14.145  0.1117  0.6596  1.0807
  482TMC3    C5 7222   0.467   1.049  14.042  0.7490  0.4071  0.0417
  482TMC3    C6 7223   0.383   0.946  14.025  0.0554 -0.8429  0.5091
  482TMC3     C 7224   0.631   0.927  14.345 -0.6072 -0.3588 -0.1503
  482TMC3     O 7225   0.628   0.816  14.400 -0.2129 -0.1408 -0.3921
  482TMC3     H 7226   0.474   0.730  14.271 -1.2377  0.5014  0.6814
  482TMC3    H1 7227   0.640   1.120  14.146  0.4296  0.3019 -0.3186
  482TMC3    H2 7228   0.305   0.971  13.954  0.1416  1.1391  1.1130
  482TMC3    C7 7229   0.496   1.155  13.944 -0.2986  0.4665  0.3777
  482TMC3    C8 7230   0.310   0.711  14.058  0.1513  0.2277  0.2663
  482TMC3    O1 7231   0.545   1.256  13.992 -0.7188  0.0790 -0.2238
  482TMC3    O2 7232   0.350   0.604  14.098 -0.2536  0.5240 -0.2578
  483TMC3    C1 7233   3.038   4.194   1.141  1.0833  0.1745 -0.0660
  483TMC3    C2 7234   3.124   4.295   1.116  0.2603 -0.1135  0.2243
  483TMC3    C3 7235   3.232   4.301   1.199 -0.0199 -0.9716  0.4947
  483TMC3    C4 7236   3.059   4.091   1.237 -0.3243  0.1853  0.5815
  483TMC3    C5 7237   3.171   4.103   1.312 -0.8067  0.2181 -0.4097
  483TMC3    C6 7238   3.252   4.210   1.302 -0.4902 -0.5356  0.2542
  483TMC3     C 7239   2.930   4.178   1.046  0.5624 -0.7503 -0.0484
  483TMC3     O 7240   2.877   4.280   1.008 -0.2708 -0.3625  0.4716
  483TMC3     H 7241   3.119   4.347   1.022  1.4220  2.0036  1.3294
  483TMC3    H1 7242   2.990   4.009   1.252 -1.4985  1.3532  1.5738
  483TMC3    H2 7243   3.342   4.201   1.361  0.0916 -0.4757 -0.6236
  483TMC3    C7 7244   3.252   3.981   1.314 -0.2708 -0.0450  0.2865
  483TMC3    C8 7245   3.347   4.365   1.143  0.0881  0.2226 -0.4126
  483TMC3    O1 7246   3.369   3.996   1.291 -0.2356 -0.4489 -0.0698
  483TMC3    O2 7247   3.347   4.386   1.021  0.4428  0.0206 -0.4753
  484MPD2     C 7248   1.083   2.723  12.776 -0.0165  0.1343  0.1591
  484MPD2    C1 7249   1.037   2.771  12.896 -0.9301 -0.3243  1.3088
  484MPD2    C2 7250   1.112   2.872  12.960 -0.1730 -0.5524  0.6234
  484MPD2    C3 7251   1.219   2.927  12.894  0.0595  0.2175  0.1583
  484MPD2    C4 7252   1.250   2.884  12.769  0.2792 -0.0620 -0.1037
  484MPD2    C5 7253   1.185   2.779  12.709 -0.4131 -0.2858  0.1535
  484MPD2     H 7254   1.076   2.902  13.058  0.4424  0.0648  0.6627
  484MPD2    H1 7255   1.330   2.931  12.712  0.1097  1.4849  0.9608
  484MPD2    H2 7256   1.027   2.653  12.716  1.1457 -1.1202  0.5543
  484MPD2    H3 7257   1.211   2.754  12.606 -1.8267  1.1059 -0.5402
  484MPD2     N 7258   1.306   3.022  12.944  0.2124  0.3218  0.0617
  484MPD2    H5 7259   1.382   3.046  12.882  0.7898 -1.3054  0.1575
  484MPD2    N1 7260   0.932   2.700  12.959  0.6564  0.5702  0.0729
  484MPD2    H7 7261   0.882   2.638  12.896 -0.6949  1.2826  0.4409
  485TMC3    C1 7262   1.433   3.136  13.096 -0.3466  0.1339 -0.1907
  485TMC3    C2 7263   1.506   3.093  13.201  0.4990  0.2303  0.2394
  485TMC3    C3 7264   1.641   3.131  13.209  0.8966 -0.6433 -0.2884
  485TMC3    C4 7265   1.490   3.228  13.007  0.6388  0.1196  0.4748
  485TMC3    C5 7266   1.617   3.278  13.027 -0.0127 -0.0246 -0.6652
  485TMC3    C6 7267   1.694   3.229  13.132 -0.1702  0.1586 -0.3472
  485TMC3     C 7268   1.318   3.053  13.069 -0.0017 -0.5764 -0.0470
  485TMC3     O 7269   1.250   3.019  13.165  0.0040 -0.0997  0.7721
  485TMC3     H 7270   1.468   3.016  13.267 -0.9999  1.3542  0.6900
  485TMC3    H1 7271   1.441   3.239  12.911  2.6306  3.3210 -0.1694
  485TMC3    H2 7272   1.797   3.256  13.151 -0.3991 -0.5140  1.8524
  485TMC3    C7 7273   1.694   3.276  12.903  0.3045  0.5760 -0.4535
  485TMC3    C8 7274   1.734   3.025  13.238  0.3842 -0.2033 -0.2052
  485TMC3    O1 7275   1.651   3.329  12.802  0.2394  0.3847  0.3739
  485TMC3    O2 7276   1.823   3.028  13.156  0.4174  0.0630 -0.3975
  486MPD2     C 7277   3.376   1.889  13.247  0.4177  0.2616 -0.1326
  486MPD2    C1 7278   3.296   1.852  13.143 -0.5050 -0.7043 -1.2019
  486MPD2    C2 7279   3.259   1.952  13.049 -0.8159  0.1955  0.3981
  486MPD2    C3 7280   3.287   2.083  13.072  0.4521  0.3879 -0.6040
  486MPD2    C4 7281   3.359   2.116  13.183 -0.0479  0.3268  0.2246
  486MPD2    C5 7282   3.413   2.019  13.267  0.0588  0.3793  0.8868
  486MPD2     H 7283   3.206   1.933  12.957 -1.5231  1.7858  0.4666
  486MPD2    H1 7284   3.388   2.214  13.218 -0.5732  0.4156  0.4136
  486MPD2    H2 7285   3.405   1.816  13.322  0.5960  0.1532 -0.3066
  486MPD2    H3 7286   3.486   2.048  13.342  0.9016 -0.5725  0.4343
  486MPD2     N 7287   3.247   2.177  12.982 -0.2534  0.1554  0.0226
  486MPD2    H5 7288   3.204   2.149  12.894  0.9983 -0.0880 -0.5163
  486MPD2    N1 7289   3.262   1.714  13.132 -0.6537  0.3341 -0.0026
  486MPD2    H7 7290   3.295   1.657  13.210  1.3090 -0.6886 -1.5626
  487TMC3    C1 7291   3.224   1.512  13.015 -0.2068  0.4338  0.3885
  487TMC3    C2 7292   3.125   1.456  12.938 -0.9310  0.6328  0.5961
  487TMC3    C3 7293   3.138   1.323  12.908 -0.0262 -0.2533  0.6919
  487TMC3    C4 7294   3.317   1.434  13.078  0.3326 -0.7232 -0.2403
  487TMC3    C5 7295   3.327   1.307  13.041 -0.0005  0.2348  0.2172
  487TMC3    C6 7296   3.238   1.245  12.953 -0.7785  0.2792 -0.0437
  487TMC3     C 7297   3.211   1.658  13.017 -0.2159  0.1017  0.1852
  487TMC3     O 7298   3.185   1.717  12.914 -0.1064 -0.4067  0.2941
  487TMC3     H 7299   3.036   1.513  12.912  0.1982  0.7113 -3.0835
  487TMC3    H1 7300   3.395   1.492  13.126 -0.0091 -1.3982  1.1284
  487TMC3    H2 7301   3.223   1.139  12.944  1.1282  0.0974 -0.9460
  487TMC3    C7 7302   3.427   1.227  13.111  0.0916 -0.0623 -1.0105
  487TMC3    C8 7303   3.013   1.252  12.880 -0.6040  0.5282 -0.2934
  487TMC3    O1 7304   3.474   1.257  13.219 -0.4603 -0.2911  0.4889
  487TMC3    O2 7305   3.010   1.185  12.780 -0.4461 -0.0031  0.4618
  488MPD2     C 7306   3.599   2.733  16.188  0.5011  0.3868  0.3398
  488MPD2    C1 7307   3.603   2.852  16.261 -0.6417 -0.3841 -0.3703
  488MPD2    C2 7308   3.540   2.866  16.381  0.0136  0.1626 -0.6814
  488MPD2    C3 7309   3.492   2.753  16.443 -0.3682  0.2133 -0.0563
  488MPD2    C4 7310   3.504   2.635  16.379 -1.0618  0.2823 -0.2340
  488MPD2    C5 7311   3.541   2.626  16.249  0.1798  0.0133  0.9339
  488MPD2     H 7312   3.535   2.958  16.440 -0.4164 -0.4911  0.3045
  488MPD2    H1 7313   3.483   2.540  16.425 -0.0068  0.6293  0.9677
  488MPD2    H2 7314   3.658   2.711  16.099 -2.5906  1.3823 -1.9477
  488MPD2    H3 7315   3.533   2.531  16.198 -0.9299  0.5547  0.1126
  488MPD2     N 7316   3.418   2.767  16.568  0.4251 -0.0665 -0.5555
  488MPD2    H5 7317   3.402   2.859  16.607  0.5844  0.7113 -2.3297
  488MPD2    N1 7318   3.675   2.972  16.213  0.4949  0.1052  0.5713
  488MPD2    H7 7319   3.669   3.052  16.274  2.4895  0.0598  0.8364
  489TMC3    C1 7320   3.288   2.710  16.752 -0.3275  0.2413 -0.4892
  489TMC3    C2 7321   3.268   2.852  16.755  0.1806  0.1635  0.2178
  489TMC3    C3 7322   3.275   2.905  16.878  0.7052 -0.1842  0.2630
  489TMC3    C4 7323   3.308   2.634  16.859 -0.6784  0.0903  1.3636
  489TMC3    C5 7324   3.323   2.705  16.974 -0.0358  0.3128 -0.2955
  489TMC3    C6 7325   3.304   2.840  16.995  0.2681  0.4026 -0.0046
  489TMC3     C 7326   3.352   2.664  16.636  0.0337 -0.4003  0.0097
  489TMC3     O 7327   3.334   2.545  16.610  0.3805  0.7116  0.1762
  489TMC3     H 7328   3.235   2.909  16.670  0.8909  2.3383  1.4122
  489TMC3    H1 7329   3.353   2.537  16.842  3.6582  2.1214  1.2215
  489TMC3    H2 7330   3.310   2.883  17.094 -0.4679 -0.8677  0.6033
  489TMC3    C7 7331   3.345   2.633  17.098  0.3506 -0.7309 -0.3460
  489TMC3    C8 7332   3.326   3.037  16.875  0.7425 -0.3828 -0.5714
  489TMC3    O1 7333   3.350   2.691  17.207  0.0226 -0.3332 -0.0300
  489TMC3    O2 7334   3.365   3.066  16.763  0.5454  0.1324  0.0589
  490MPD2     C 7335   4.278   2.209  16.777  0.1348 -0.8886 -0.4300
  490MPD2    C1 7336   4.228   2.264  16.891 -0.2384 -0.0554 -0.5364
  490MPD2    C2 7337   4.290   2.381  16.937  0.2614  0.0022  0.4311
  490MPD2    C3 7338   4.398   2.435  16.872  0.9739  0.3504  0.1169
  490MPD2    C4 7339   4.434   2.379  16.750 -0.0769 -0.0530 -0.0670
  490MPD2    C5 7340   4.372   2.269  16.701 -0.1334  0.5302  0.0839
  490MPD2     H 7341   4.262   2.410  17.037 -0.4145 -2.9928  1.1210
  490MPD2    H1 7342   4.518   2.419  16.693  1.4279  0.4207  2.5164
  490MPD2    H2 7343   4.235   2.120  16.733 -0.3474 -0.6482 -0.4523
  490MPD2    H3 7344   4.406   2.228  16.606 -0.0158 -0.4150  0.5338
  490MPD2     N 7345   4.474   2.535  16.926  0.3103 -0.2679 -0.2522
  490MPD2    H5 7346   4.560   2.542  16.872 -0.7905  1.0186 -1.8166
  490MPD2    N1 7347   4.130   2.199  16.971  0.4970  0.0168 -0.0772
  490MPD2    H7 7348   4.115   2.242  17.061  0.9893  0.2351 -0.1011
  491TMC3    C1 7349   3.991   2.027  17.034  0.4687 -0.5111  0.0262
  491TMC3    C2 7350   4.014   2.058  17.167  0.0212  0.6209 -0.3394
  491TMC3    C3 7351   3.972   1.969  17.261  0.1546  0.5367 -0.2541
  491TMC3    C4 7352   3.921   1.910  17.004  0.1414  0.9498 -0.3128
  491TMC3    C5 7353   3.889   1.819  17.102 -0.0177 -0.4997 -0.0988
  491TMC3    C6 7354   3.910   1.848  17.237 -0.0269  0.6464  0.1322
  491TMC3     C 7355   4.070   2.078  16.931 -0.5722 -0.0791  0.3239
  491TMC3     O 7356   4.059   2.023  16.820 -0.3518  0.4974  0.2418
  491TMC3     H 7357   4.024   2.164  17.187 -0.1049  0.4227  0.7737
  491TMC3    H1 7358   3.905   1.884  16.900 -0.7068  1.5177 -0.3260
  491TMC3    H2 7359   3.905   1.766  17.307 -0.1140 -0.2655 -0.9376
  491TMC3    C7 7360   3.866   1.688  17.051  0.0848  0.0513 -0.3013
  491TMC3    C8 7361   4.012   1.992  17.397 -0.1732  0.2892 -0.3905
  491TMC3    O1 7362   3.779   1.687  16.965  0.3632 -0.2380  0.0271
  491TMC3    O2 7363   4.115   2.054  17.411  0.3856  0.5930 -0.0075
  492MPD2     C 7364   4.375   2.463  11.708  0.1446  0.1981  1.0249
  492MPD2    C1 7365   4.251   2.456  11.647  0.8972 -0.1917  0.4306
  492MPD2    C2 7366   4.140   2.408  11.707  0.6645 -0.4377 -0.0279
  492MPD2    C3 7367   4.153   2.355  11.832 -0.2602  0.0921 -0.0664
  492MPD2    C4 7368   4.275   2.364  11.894  0.0236  0.9011 -0.4391
  492MPD2    C5 7369   4.385   2.417  11.836 -0.5421  0.2273  0.2640
  492MPD2     H 7370   4.038   2.422  11.673  0.4461 -1.8666  0.0297
  492MPD2    H1 7371   4.284   2.318  11.992 -1.3211  2.3280  0.3535
  492MPD2    H2 7372   4.463   2.499  11.656 -1.4802  2.3210 -0.2681
  492MPD2    H3 7373   4.481   2.418  11.885 -0.0276  0.8655 -0.7569
  492MPD2     N 7374   4.053   2.292  11.899  0.7304  0.0799  0.2456
  492MPD2    H5 7375   4.072   2.252  11.990  1.4674  1.2088  0.5912
  492MPD2    N1 7376   4.239   2.510  11.511  0.0270 -0.1900  0.3251
  492MPD2    H7 7377   4.329   2.537  11.473 -0.2265 -0.7425 -0.6581
  493TMC3    C1 7378   4.161   2.562  11.293 -0.4593 -0.3227 -0.1252
  493TMC3    C2 7379   4.236   2.681  11.297  0.0072  0.0135 -0.0851
  493TMC3    C3 7380   4.230   2.761  11.186 -0.5165  0.3884 -0.4626
  493TMC3    C4 7381   4.085   2.533  11.182  0.2277 -0.7592  0.4552
  493TMC3    C5 7382   4.083   2.616  11.074 -0.3403  0.7341 -0.6106
  493TMC3    C6 7383   4.161   2.733  11.077 -0.1184 -0.7912 -1.0372
  493TMC3     C 7384   4.136   2.495  11.417 -0.0100  0.0229  0.0004
  493TMC3     O 7385   4.028   2.437  11.427  0.3082  0.7704 -0.2026
  493TMC3     H 7386   4.297   2.713  11.379 -0.7780 -0.1184  0.5531
  493TMC3    H1 7387   4.013   2.452  11.180  0.7977 -1.2990  1.4281
  493TMC3    H2 7388   4.149   2.803  10.996 -1.3900  0.3102  0.1085
  493TMC3    C7 7389   3.977   2.606  10.977  0.8149 -0.0015 -0.6486
  493TMC3    C8 7390   4.257   2.903  11.202  0.0549 -0.0333  0.5373
  493TMC3    O1 7391   3.942   2.704  10.915  0.7784  0.5664 -0.2772
  493TMC3    O2 7392   4.244   2.947  11.314  0.3518  0.1386  0.7120
  494TMC3    C1 7393   0.103   3.806   0.368  0.0427  0.8570 -0.1285
  494TMC3    C2 7394   0.150   3.682   0.372 -0.1078  0.1919 -0.1291
  494TMC3    C3 7395   0.286   3.667   0.327  0.6446 -0.9584  0.1336
  494TMC3    C4 7396   0.175   3.920   0.329  0.1576  0.1551  0.3854
  494TMC3    C5 7397   0.306   3.900   0.288 -0.3951  0.1228 -0.3358
  494TMC3    C6 7398   0.356   3.775   0.291  0.0475 -0.2411 -0.0726
  494TMC3     C 7399   0.026   3.834   0.485 -0.3057  0.5742  0.7619
  494TMC3     O 7400   0.050   3.780   0.592 -0.3719 -0.2315  0.1199
  494TMC3     H 7401   0.092   3.613   0.431  1.2330 -0.1539  0.7833
  494TMC3    H1 7402   0.137   4.012   0.374  3.0613  0.6584  1.7793
  494TMC3    H2 7403   0.458   3.753   0.265  0.3499  0.6000  0.3973
  494TMC3    C7 7404   0.393   4.012   0.260  0.0686 -0.3783 -0.6446
  494TMC3    C8 7405   0.346   3.537   0.337  0.1954 -0.1754  0.1739
  494TMC3    O1 7406   0.516   3.990   0.255 -0.4711 -0.2493  0.6408
  494TMC3    O2 7407   0.469   3.539   0.340 -0.2675  0.1793  0.3401
  495TMC3    C1 7408   3.810   1.162  14.787 -0.3201  0.5796 -0.8288
  495TMC3    C2 7409   3.706   1.182  14.693 -0.1147 -0.9929 -0.1376
  495TMC3    C3 7410   3.611   1.275  14.725 -0.7293 -0.1878 -0.1938
  495TMC3    C4 7411   3.839   1.250  14.883 -0.0533 -0.3482 -0.2650
  495TMC3    C5 7412   3.746   1.344  14.918 -0.3444  0.2195  0.3159
  495TMC3    C6 7413   3.632   1.352  14.838  0.1397  0.4081  0.1233
  495TMC3     C 7414   3.812   1.024  14.846  0.5754 -0.3843 -0.2681
  495TMC3     O 7415   3.871   1.010  14.949  0.6196  0.5048  0.0297
  495TMC3     H 7416   3.709   1.135  14.596  2.2337  0.2225 -0.6625
  495TMC3    H1 7417   3.928   1.229  14.941  0.1932 -0.8307 -0.8200
  495TMC3    H2 7418   3.567   1.438  14.850 -2.5559 -1.7524  0.8577
  495TMC3    C7 7419   3.730   1.348  15.061 -0.1894 -0.5522 -0.0228
  495TMC3    C8 7420   3.510   1.321  14.625  0.0364 -1.0527 -0.0641
  495TMC3    O1 7421   3.830   1.368  15.131  0.1959  0.2696  0.5856
  495TMC3    O2 7422   3.422   1.403  14.656  0.0744 -0.2187  0.2064
  496MPD2     C 7423   1.217   1.513  15.551 -0.0524 -0.2224 -0.5723
  496MPD2    C1 7424   1.217   1.414  15.450 -0.0409  0.4412 -0.2870
  496MPD2    C2 7425   1.118   1.321  15.453 -0.0953  0.6198 -0.3965
  496MPD2    C3 7426   1.012   1.339  15.546 -0.2350  0.1854  0.2662
  496MPD2    C4 7427   1.012   1.445  15.633 -0.1628  0.9820  0.6775
  496MPD2    C5 7428   1.113   1.534  15.635 -0.6817  0.5008  0.5289
  496MPD2     H 7429   1.121   1.235  15.387  0.3238 -1.5265  2.3867
  496MPD2    H1 7430   0.930   1.456  15.704 -1.1808  0.9708 -0.4945
  496MPD2    H2 7431   1.284   1.597  15.565 -0.3444 -0.2139  0.7746
  496MPD2    H3 7432   1.113   1.626  15.693  3.5273  0.3604  0.7757
  496MPD2     N 7433   0.910   1.245  15.559 -0.1332 -0.0304 -0.1335
  496MPD2    H5 7434   0.848   1.252  15.639  1.1047  0.3264  0.7962
  496MPD2    N1 7435   1.333   1.389  15.370  0.1371  0.3867 -0.5233
  496MPD2    H7 7436   1.406   1.455  15.396  0.2246 -0.5314  1.5573
  497TMC3    C1 7437   0.800   1.045  15.512  0.0806  0.2407  0.0699
  497TMC3    C2 7438   0.719   0.986  15.423 -0.6406  0.2158  0.3646
  497TMC3    C3 7439   0.615   0.909  15.461 -0.1122  0.2319  0.0507
  497TMC3    C4 7440   0.786   1.029  15.647  0.3187  0.2750  0.1451
  497TMC3    C5 7441   0.675   0.950  15.683 -0.1315  0.6642 -0.1884
  497TMC3    C6 7442   0.582   0.900  15.592  0.1789  0.5657  0.2751
  497TMC3     C 7443   0.886   1.149  15.463 -0.3080  0.6385  0.1023
  497TMC3     O 7444   0.921   1.139  15.347  0.0529  0.2509 -0.0302
  497TMC3     H 7445   0.734   1.000  15.317  0.5961  0.2405  0.5467
  497TMC3    H1 7446   0.857   1.077  15.712  1.6358  0.6100 -1.5229
  497TMC3    H2 7447   0.491   0.848  15.621 -0.1023  0.9622  0.1110
  497TMC3    C7 7448   0.660   0.893  15.823 -0.0709 -0.0242 -0.2917
  497TMC3    C8 7449   0.520   0.877  15.352  0.5694  0.2963  0.2025
  497TMC3    O1 7450   0.563   0.839  15.872  0.2855 -0.2533 -0.5656
  497TMC3    O2 7451   0.519   0.953  15.257  0.1061 -0.5890 -0.7199
  498MPD2     C 7452   1.873   2.795  10.031  0.1768  0.2162 -0.2607
  498MPD2    C1 7453   1.813   2.852  10.141 -0.2407 -0.0778  0.0107
  498MPD2    C2 7454   1.717   2.786  10.213  0.3063  0.0319 -0.1303
  498MPD2    C3 7455   1.681   2.660  10.168  0.0413  0.2751  0.0644
  498MPD2    C4 7456   1.740   2.601  10.062  0.4992 -0.3925  0.4012
  498MPD2    C5 7457   1.839   2.669   9.992 -0.2332  0.2098 -1.4780
  498MPD2     H 7458   1.667   2.835  10.295  1.2185 -0.0188  0.4606
  498MPD2    H1 7459   1.721   2.499  10.030  0.9007 -0.1679 -0.5581
  498MPD2    H2 7460   1.952   2.843   9.974  1.7691 -2.3752 -0.2240
  498MPD2    H3 7461   1.882   2.627   9.901 -0.7977  0.0916 -1.6894
  498MPD2     N 7462   1.580   2.592  10.245  0.3375  0.5716  0.4435
  498MPD2    H5 7463   1.553   2.629  10.336 -1.6109 -0.6620  0.3656
  498MPD2    N1 7464   1.850   2.988  10.182 -0.0223  0.5314  0.3149
  498MPD2    H7 7465   1.798   3.035  10.256  0.1961  1.1506  0.0821
  499TMC3    C1 7466   1.970   3.193  10.193 -0.3002 -0.6111  0.3797
  499TMC3    C2 7467   2.092   3.255  10.193 -0.2247  0.9282  0.5185
  499TMC3    C3 7468   2.098   3.386  10.228  0.2591  0.0791 -0.2922
  499TMC3    C4 7469   1.853   3.263  10.212 -0.4148 -0.1494  0.2478
  499TMC3    C5 7470   1.863   3.398  10.242  0.1551  0.3555 -0.3277
  499TMC3    C6 7471   1.986   3.457  10.241 -0.7006 -0.0938 -0.0843
  499TMC3     C 7472   1.963   3.055  10.141 -0.1083  0.1558 -0.4449
  499TMC3     O 7473   2.056   3.022  10.068 -0.5767  0.3313 -0.2049
  499TMC3     H 7474   2.181   3.195  10.180  0.5157  2.1148  0.1257
  499TMC3    H1 7475   1.761   3.206  10.205  0.0856 -1.0175  0.7828
  499TMC3    H2 7476   1.994   3.565  10.253 -1.3073 -0.1433  0.7606
  499TMC3    C7 7477   1.751   3.485  10.241 -0.4095  0.5636 -0.9147
  499TMC3    C8 7478   2.230   3.441  10.230  0.1451  0.1237 -0.2339
  499TMC3    O1 7479   1.770   3.608  10.247 -0.1728 -0.2570 -0.2507
  499TMC3    O2 7480   2.312   3.397  10.152 -0.2211 -0.1488  0.4887
  500MPD2     C 7481   2.947   4.136   9.858  0.5517  0.1850 -0.0661
  500MPD2    C1 7482   2.962   4.168   9.993  0.3930  0.4626 -0.3480
  500MPD2    C2 7483   2.854   4.158  10.080  0.2423 -0.9261 -0.0342
  500MPD2    C3 7484   2.726   4.126  10.038  0.6110  0.3111 -0.4712
  500MPD2    C4 7485   2.717   4.083   9.906 -0.3496 -0.5181 -0.1003
  500MPD2    C5 7486   2.823   4.098   9.813  0.2438  0.2983  1.1390
  500MPD2     H 7487   2.868   4.187  10.183 -1.4944 -0.5446  0.0910
  500MPD2    H1 7488   2.621   4.055   9.867 -0.6705  0.2663  0.1264
  500MPD2    H2 7489   3.033   4.139   9.792  0.9437 -0.5332  0.4107
  500MPD2    H3 7490   2.817   4.082   9.706  0.0977  1.0529  1.0394
  500MPD2     N 7491   2.604   4.135  10.113  0.8060  0.0324 -0.2175
  500MPD2    H5 7492   2.525   4.091  10.067  0.2062  1.0697 -0.1831
  500MPD2    N1 7493   3.082   4.218  10.036  0.7767 -0.1067 -0.2128
  500MPD2    H7 7494   3.099   4.225  10.136 -1.7168 -0.1056  0.2162
  501TMC3    C1 7495   3.306   4.288  10.040  0.7770  0.1538  0.2815
  501TMC3    C2 7496   3.390   4.382  10.003  0.1114  0.3764 -0.3608
  501TMC3    C3 7497   3.501   4.403  10.090 -0.5804  0.3072  0.0170
  501TMC3    C4 7498   3.324   4.207  10.155 -0.7019  0.4884 -0.5114
  501TMC3    C5 7499   3.442   4.219  10.221  0.5708  0.5024  0.1701
  501TMC3    C6 7500   3.527   4.320  10.199  0.2735 -0.1861  0.0838
  501TMC3     C 7501   3.189   4.261   9.961  0.2664  0.5824 -0.1073
  501TMC3     O 7502   3.203   4.279   9.845 -0.5631  0.0368  0.3593
  501TMC3     H 7503   3.379   4.428   9.905  0.0809 -0.2881 -0.6723
  501TMC3    H1 7504   3.260   4.121  10.170  1.2939 -0.9039  0.0435
  501TMC3    H2 7505   3.611   4.333  10.266  0.9547  2.7885 -1.3644
  501TMC3    C7 7506   3.467   4.120  10.323 -0.2056 -1.2576  0.2970
  501TMC3    C8 7507   3.546   4.546  10.090  0.4713  0.7293  1.1076
  501TMC3    O1 7508   3.556   4.143  10.398  0.1994 -0.4917  0.4534
  501TMC3    O2 7509   3.494   4.615  10.010 -0.0394  0.2738 -0.6740
  502TMC3    C1 7510   3.034   2.047  14.454 -0.2217  0.3173 -0.2844
  502TMC3    C2 7511   3.060   2.185  14.448  0.7574  0.3448 -0.8322
  502TMC3    C3 7512   2.971   2.270  14.500 -0.3492  0.0690 -0.3606
  502TMC3    C4 7513   2.915   2.006  14.516 -0.0522 -0.3970 -0.1130
  502TMC3    C5 7514   2.831   2.094  14.581 -0.3501  0.0281  0.1389
  502TMC3    C6 7515   2.854   2.227  14.561 -0.2082  0.4001  0.6263
  502TMC3     C 7516   3.154   1.976  14.483 -0.4294  0.8106 -0.0461
  502TMC3     O 7517   3.244   1.980  14.399  0.0841 -0.2378  0.0613
  502TMC3     H 7518   3.156   2.215  14.408  1.3819 -0.9504 -0.3347
  502TMC3    H1 7519   2.898   1.902  14.541  0.1518  0.2933  2.9172
  502TMC3    H2 7520   2.775   2.298  14.584 -2.2545 -1.5678 -0.4249
  502TMC3    C7 7521   2.838   2.076  14.723  0.1727 -0.0170 -0.6220
  502TMC3    C8 7522   3.030   2.395  14.546  0.1265 -0.1902  0.1547
  502TMC3    O1 7523   2.937   2.026  14.778 -0.1488 -0.0207  0.5644
  502TMC3    O2 7524   3.116   2.442  14.479  0.0270 -0.5778 -0.0483
  503MPD2     C 7525   0.567   2.853  16.937  0.2567  0.6954  0.1051
  503MPD2    C1 7526   0.545   2.868  17.075  0.0534  0.4065  0.5502
  503MPD2    C2 7527   0.562   2.758  17.153 -0.2796 -0.1636  0.5047
  503MPD2    C3 7528   0.586   2.626  17.101  0.1376 -0.4937 -0.5045
  503MPD2    C4 7529   0.600   2.619  16.961 -0.1501  0.0661  0.3746
  503MPD2    C5 7530   0.586   2.727  16.885  0.3515 -0.2483  0.0087
  503MPD2     H 7531   0.559   2.764  17.261 -0.0459 -1.9468  0.6091
  503MPD2    H1 7532   0.618   2.525  16.909  0.8278 -0.0213  0.8717
  503MPD2    H2 7533   0.550   2.934  16.866 -1.7742  0.3506  0.2089
  503MPD2    H3 7534   0.582   2.725  16.776  1.8174  1.1805 -0.0619
  503MPD2     N 7535   0.595   2.520  17.192  0.2031  0.2467 -0.3527
  503MPD2    H5 7536   0.567   2.533  17.289  0.7235  1.7591 -0.4144
  503MPD2    N1 7537   0.521   2.993  17.130  0.2618  0.3768  0.6965
  503MPD2    H7 7538   0.512   2.991  17.231 -0.4214 -1.9228  0.5888
  504TMC3    C1 7539   0.677   2.314  17.264  0.6047 -0.6910  1.2017
  504TMC3    C2 7540   0.668   2.376  17.382 -0.1041  0.3205 -0.2985
  504TMC3    C3 7541   0.767   2.365  17.474  0.1722  0.6451  0.3508
  504TMC3    C4 7542   0.787   2.236  17.231 -0.3256 -0.1133 -0.7176
  504TMC3    C5 7543   0.886   2.227  17.328 -0.8413  0.6560 -0.5115
  504TMC3    C6 7544   0.877   2.287  17.448 -0.6152  0.2334 -0.3343
  504TMC3     C 7545   0.633   2.392  17.152  0.9046 -0.1851  0.2603
  504TMC3     O 7546   0.675   2.360  17.041  0.5366 -0.1165 -0.5265
  504TMC3     H 7547   0.582   2.435  17.407  0.0574  0.8745 -1.0567
  504TMC3    H1 7548   0.797   2.185  17.136  0.2835  0.3962 -0.9350
  504TMC3    H2 7549   0.949   2.273  17.527 -1.1347  0.4218  0.1766
  504TMC3    C7 7550   1.021   2.205  17.274 -0.2957 -0.6760 -0.0471
  504TMC3    C8 7551   0.732   2.405  17.615 -0.6040  0.3257  0.3751
  504TMC3    O1 7552   1.038   2.165  17.160 -0.0330  0.4544  0.2381
  504TMC3    O2 7553   0.625   2.460  17.628 -0.0533 -0.0552  0.1005
  505MPD2     C 7554   0.794   1.812  11.502  0.2061  0.8836  0.5508
  505MPD2    C1 7555   0.861   1.842  11.393  1.1322 -0.1946  0.0283
  505MPD2    C2 7556   0.955   1.943  11.397  0.2813  0.2008  0.0629
  505MPD2    C3 7557   0.983   2.000  11.517  0.5823 -0.2258  0.3162
  505MPD2    C4 7558   0.913   1.962  11.634  0.1410 -0.1618 -0.6709
  505MPD2    C5 7559   0.814   1.877  11.617 -0.2509  0.5103 -0.2077
  505MPD2     H 7560   1.008   1.975  11.308  0.9167 -0.3686  0.2335
  505MPD2    H1 7561   0.937   2.019  11.723  0.1125 -0.7899 -0.2632
  505MPD2    H2 7562   0.734   1.723  11.519  5.6252 -2.9212  0.1227
  505MPD2    H3 7563   0.750   1.852  11.700  1.9241 -0.1599  1.2870
  505MPD2     N 7564   1.080   2.103  11.528 -0.0021 -0.0600 -0.5529
  505MPD2    H5 7565   1.102   2.123  11.625  2.2615  1.3608 -1.3533
  505MPD2    N1 7566   0.854   1.750  11.281  0.1992 -0.4632 -0.0250
  505MPD2    H7 7567   0.784   1.677  11.288  0.0294 -0.2084  0.9307
  506TMC3    C1 7568   0.901   1.631  11.095  0.2646  0.1553  0.2770
  506TMC3    C2 7569   0.951   1.637  10.969 -0.3545  0.2138  0.6923
  506TMC3    C3 7570   0.990   1.521  10.908  0.6162  0.2898 -0.3145
  506TMC3    C4 7571   0.922   1.521  11.177 -0.5360  0.0947 -0.2743
  506TMC3    C5 7572   0.992   1.416  11.123 -0.9545 -0.0933 -0.4190
  506TMC3    C6 7573   1.022   1.410  10.984  0.1163  0.8331  0.2324
  506TMC3     C 7574   0.915   1.757  11.165 -0.0544 -1.0748  0.0165
  506TMC3     O 7575   0.984   1.842  11.113  0.1557 -0.3011 -0.2154
  506TMC3     H 7576   0.933   1.724  10.907  1.2008 -1.5462 -2.2474
  506TMC3    H1 7577   0.879   1.507  11.275 -1.7148 -2.2636 -1.1319
  506TMC3    H2 7578   1.079   1.331  10.937 -2.2230 -0.1779 -0.9048
  506TMC3    C7 7579   1.117   1.388  11.198  0.1508 -1.3217  0.5082
  506TMC3    C8 7580   1.040   1.528  10.775 -0.6109 -0.5554  0.2307
  506TMC3    O1 7581   1.188   1.296  11.167  0.2029 -0.9350  0.2263
  506TMC3    O2 7582   1.063   1.423  10.713  0.7136 -0.2150  0.2818
  507TMC3    C1 7583   1.676   2.516  14.914  0.2483 -0.4398 -0.2944
  507TMC3    C2 7584   1.619   2.427  14.826  0.0190  0.3206  0.2169
  507TMC3    C3 7585   1.591   2.477  14.700 -0.0936 -0.1411  0.1490
  507TMC3    C4 7586   1.739   2.635  14.874  0.6387  0.0232 -0.3340
  507TMC3    C5 7587   1.708   2.681  14.742 -0.8552  0.2297 -0.2281
  507TMC3    C6 7588   1.637   2.600  14.659 -0.1453 -0.0760 -0.3089
  507TMC3     C 7589   1.603   2.530  15.034 -0.1099  0.1529  0.3877
  507TMC3     O 7590   1.640   2.621  15.108  0.0274 -0.0857 -0.1092
  507TMC3     H 7591   1.590   2.327  14.858 -1.9192  0.7884 -0.0913
  507TMC3    H1 7592   1.790   2.693  14.950 -1.0967  0.8929  0.1652
  507TMC3    H2 7593   1.608   2.639  14.562 -2.9296 -1.7472 -0.1435
  507TMC3    C7 7594   1.659   2.816  14.729  0.6956  0.0343  0.3128
  507TMC3    C8 7595   1.446   2.465  14.701 -0.3460  0.6595 -0.3328
  507TMC3    O1 7596   1.551   2.829  14.670  0.4421 -0.0082  0.0356
  507TMC3    O2 7597   1.399   2.370  14.758 -0.6330  0.4242  0.3105
  508MPD2     C 7598   2.855   4.645  16.029 -0.0088 -0.0509 -0.1854
  508MPD2    C1 7599   2.831   0.004  16.121  0.5558 -0.3063 -0.0358
  508MPD2    C2 7600   2.801   0.132  16.079  0.1699  0.2059 -0.1347
  508MPD2    C3 7601   2.791   0.156  15.944  0.3336  0.8617 -0.2726
  508MPD2    C4 7602   2.803   0.050  15.853  0.6569  0.2027 -0.0286
  508MPD2    C5 7603   2.829   4.660  15.894 -0.2835 -0.1064  0.1655
  508MPD2     H 7604   2.794   0.211  16.154 -0.2938 -1.8067  1.9263
  508MPD2    H1 7605   2.796   0.064  15.746  1.6981 -0.1122 -0.1390
  508MPD2    H2 7606   2.878   4.548  16.072  3.6518  0.6189 -0.6901
  508MPD2    H3 7607   2.838   4.574  15.828 -2.3659 -0.0697 -0.1744
  508MPD2     N 7608   2.768   0.292  15.906  0.7639  0.0692 -0.3812
  508MPD2    H5 7609   2.729   0.349  15.980 -0.2734 -1.2076  0.0643
  508MPD2    N1 7610   2.851   4.715  16.258 -0.8776  0.9397 -0.7531
  508MPD2    H7 7611   2.898   4.631  16.292  0.6176  2.1944  0.2524
  509TMC3    C1 7612   2.709   0.692  15.673 -0.5915  0.1459 -0.4736
  509TMC3    C2 7613   2.753   0.768  15.779  0.1283 -0.1175 -0.3790
  509TMC3    C3 7614   2.797   0.699  15.887 -0.2951  0.0485 -0.4808
  509TMC3    C4 7615   2.725   0.559  15.666  0.3949 -0.6186 -0.4801
  509TMC3    C5 7616   2.758   0.496  15.779  0.0539 -0.4090  0.6061
  509TMC3    C6 7617   2.793   0.563  15.897  0.5826 -0.0567 -0.2410
  509TMC3     C 7618   2.597   0.744  15.590 -0.6302 -0.3025 -0.5465
  509TMC3     O 7619   2.523   0.665  15.532  0.6901  0.1223 -0.4695
  509TMC3     H 7620   2.726   0.873  15.789  1.3790  0.1492  0.1496
  509TMC3    H1 7621   2.685   0.497  15.586  2.7062 -2.4918 -0.2040
  509TMC3    H2 7622   2.830   0.506  15.981  1.1433  0.5671 -0.0593
  509TMC3    C7 7623   2.777   0.353  15.776  0.6132 -0.6220 -0.3036
  509TMC3    C8 7624   2.873   0.774  15.988  0.1568  0.0527  1.5280
  509TMC3    O1 7625   2.793   0.295  15.669  0.0584 -0.8756  0.4150
  509TMC3    O2 7626   2.876   0.740  16.105  0.6016  0.3703 -0.1828
  510MPD2     C 7627   0.016   1.824  14.577 -0.3756 -0.4462 -0.6774
  510MPD2    C1 7628   0.079   1.708  14.611  0.0341 -0.2331 -0.6447
  510MPD2    C2 7629   0.215   1.698  14.596 -0.3565  0.7194  0.5094
  510MPD2    C3 7630   0.286   1.801  14.536 -0.2461 -0.3258  0.3682
  510MPD2    C4 7631   0.209   1.913  14.493 -0.1899 -0.7291 -0.7816
  510MPD2    C5 7632   0.079   1.925  14.515  0.0554  0.2708 -0.7513
  510MPD2     H 7633   0.254   1.604  14.632  0.5832  1.1190  0.5257
  510MPD2    H1 7634   0.249   2.003  14.446 -2.0186  0.7133  0.4134
  510MPD2    H2 7635   4.650   1.846  14.592 -0.0860  1.5616 -1.6827
  510MPD2    H3 7636   0.023   2.012  14.482  1.1799  1.3796  0.2720
  510MPD2     N 7637   0.430   1.799  14.533 -0.3579  0.3954  0.2473
  510MPD2    H5 7638   0.479   1.729  14.588  0.2683  4.2732  4.6615
  510MPD2    N1 7639   4.737   1.609  14.672 -0.2735  0.8250 -0.4911
  510MPD2    H7 7640   4.640   1.626  14.698  0.2248  4.2223 -0.8558
  511TMC3    C1 7641   4.667   1.426  14.785  0.4589  0.0047  0.1448
  511TMC3    C2 7642   4.605   1.490  14.894 -0.0632  0.4230 -0.5372
  511TMC3    C3 7643   4.539   1.413  14.986 -0.0915  0.1941 -0.1666
  511TMC3    C4 7644   4.674   1.292  14.790 -0.2912 -0.2481  0.5807
  511TMC3    C5 7645   4.604   1.219  14.880  0.8509  0.0465 -0.4468
  511TMC3    C6 7646   4.532   1.275  14.983 -0.0971  0.1919 -0.1248
  511TMC3     C 7647   0.039   1.489  14.725  0.0296 -0.1131 -0.1180
  511TMC3     O 7648   0.134   1.417  14.701 -0.3452  0.1727  0.2933
  511TMC3     H 7649   4.605   1.595  14.919 -0.2446  0.0664  0.9432
  511TMC3    H1 7650   4.729   1.236  14.714 -0.3869 -1.5765  1.4820
  511TMC3    H2 7651   4.476   1.203  15.042 -0.0089 -1.1983 -1.7356
  511TMC3    C7 7652   4.594   1.084  14.842  0.6323 -0.3385 -0.9959
  511TMC3    C8 7653   4.522   1.470  15.113 -0.3513 -0.6269  0.1384
  511TMC3    O1 7654   4.598   1.062  14.720  0.1716  0.1281 -0.0744
  511TMC3    O2 7655   4.536   1.590  15.119  0.5386  0.2890 -0.0274
  512TMC3    C1 7656   3.784   1.287  12.972 -0.2014 -0.0023 -0.3003
  512TMC3    C2 7657   3.882   1.275  13.070  0.0098 -0.5319  0.1596
  512TMC3    C3 7658   3.946   1.149  13.073 -0.8616  0.3034 -0.4732
  512TMC3    C4 7659   3.751   1.192  12.879 -0.1067 -0.0146 -0.8481
  512TMC3    C5 7660   3.817   1.074  12.883  0.4787 -0.6428 -0.1687
  512TMC3    C6 7661   3.917   1.055  12.983 -0.1279 -0.2036 -0.4439
  512TMC3     C 7662   3.712   1.411  12.967 -0.3878  0.0621  0.0892
  512TMC3     O 7663   3.606   1.417  12.907 -0.6506 -0.3564 -0.2684
  512TMC3     H 7664   3.899   1.344  13.152 -0.6787 -0.6777  0.4286
  512TMC3    H1 7665   3.674   1.215  12.807 -0.4083  0.5334 -0.3527
  512TMC3    H2 7666   3.979   0.969  12.959 -0.3113 -0.4128 -0.1497
  512TMC3    C7 7667   3.781   0.973  12.785  0.7427  0.5670 -0.3326
  512TMC3    C8 7668   4.064   1.123  13.151  0.5450  0.6021 -0.3934
  512TMC3    O1 7669   3.716   1.011  12.688 -0.1267  0.6420  0.3776
  512TMC3    O2 7670   4.105   1.010  13.165 -0.4766  0.3661 -0.3425
  513MPD2     C 7671   1.023   0.583  13.291 -0.3477 -0.0017  0.0829
  513MPD2    C1 7672   1.021   0.707  13.231 -0.0565 -0.4345 -0.7238
  513MPD2    C2 7673   0.938   0.808  13.283 -0.0475 -0.5233  0.2094
  513MPD2    C3 7674   0.873   0.780  13.401  1.3341 -0.6589 -0.4558
  513MPD2    C4 7675   0.879   0.653  13.460 -0.7278  0.1394 -0.0426
  513MPD2    C5 7676   0.953   0.563  13.403 -0.8870  0.4959 -0.1808
  513MPD2     H 7677   0.935   0.906  13.236 -3.1689 -1.2762 -1.1520
  513MPD2    H1 7678   0.836   0.628  13.557 -1.1238  3.1823  0.5827
  513MPD2    H2 7679   1.092   0.505  13.259  0.4506  0.2047  1.2810
  513MPD2    H3 7680   0.969   0.474  13.462 -2.4011 -0.9858 -2.0448
  513MPD2     N 7681   0.808   0.890  13.465 -0.0896  0.2935 -0.2506
  513MPD2    H5 7682   0.831   0.980  13.424  0.2138  0.0100 -0.6959
  513MPD2    N1 7683   1.100   0.724  13.116  0.6882 -0.2583 -0.5874
  513MPD2    H7 7684   1.154   0.644  13.084 -0.5333  0.4006 -4.3661
  514TMC3    C1 7685   1.242   0.824  12.976 -0.5938 -0.0422  1.0917
  514TMC3    C2 7686   1.246   0.893  12.859  0.1973  0.2013  0.1942
  514TMC3    C3 7687   1.371   0.931  12.816  1.1938  0.4076 -0.1486
  514TMC3    C4 7688   1.352   0.832  13.061 -1.1478  0.1586 -0.4660
  514TMC3    C5 7689   1.459   0.906  13.031  0.0301 -0.0047  0.3340
  514TMC3    C6 7690   1.471   0.947  12.905 -0.5704 -0.7638 -0.1898
  514TMC3     C 7691   1.119   0.832  13.046 -0.0636 -0.1582  0.8964
  514TMC3     O 7692   1.082   0.947  13.070 -0.2320  0.0141  0.2739
  514TMC3     H 7693   1.152   0.902  12.805  0.4565  0.8474 -0.1563
  514TMC3    H1 7694   1.345   0.800  13.164  1.0843 -1.8548 -0.9310
  514TMC3    H2 7695   1.560   1.005  12.881 -0.3126 -0.7491  0.7964
  514TMC3    C7 7696   1.473   1.024  13.114 -0.2293  0.9728 -0.1725
  514TMC3    C8 7697   1.378   1.018  12.695 -0.1634 -0.5479 -0.0766
  514TMC3    O1 7698   1.581   1.079  13.104 -0.3649 -0.2456  0.5442
  514TMC3    O2 7699   1.491   1.071  12.674 -0.0879 -0.1312  0.0039
  515MPD2     C 7700   3.762   2.699  15.229 -0.0312 -0.7233 -0.4717
  515MPD2    C1 7701   3.814   2.783  15.136 -0.5873  0.3988  0.0367
  515MPD2    C2 7702   3.928   2.850  15.166  0.2954 -0.3046 -0.8396
  515MPD2    C3 7703   3.981   2.853  15.293 -0.3350 -0.1891 -0.3185
  515MPD2    C4 7704   3.922   2.771  15.390  0.0830 -0.0014  0.0689
  515MPD2    C5 7705   3.814   2.694  15.359 -0.0156 -0.1067 -0.5286
  515MPD2     H 7706   3.972   2.900  15.081  1.1210 -1.1787 -0.9339
  515MPD2    H1 7707   3.951   2.763  15.494 -0.2243  0.0622  0.1614
  515MPD2    H2 7708   3.674   2.639  15.208  0.4117 -1.6936  0.4149
  515MPD2    H3 7709   3.764   2.627  15.427 -0.5173  0.2417 -0.5539
  515MPD2     N 7710   4.106   2.922  15.323 -0.7689 -0.1897  0.4661
  515MPD2    H5 7711   4.140   2.922  15.418  2.0331  0.9992 -0.5090
  515MPD2    N1 7712   3.752   2.776  15.012 -0.0423 -0.2411 -0.2340
  515MPD2    H7 7713   3.684   2.702  14.999  0.9435 -1.5452  2.0464
  516TMC3    C1 7714   3.734   2.783  14.772 -0.0371  0.2974  0.4636
  516TMC3    C2 7715   3.696   2.881  14.681 -0.1473 -0.3115 -0.9350
  516TMC3    C3 7716   3.629   2.827  14.572 -0.3039  0.2105 -0.0264
  516TMC3    C4 7717   3.728   2.650  14.762 -0.7935  0.5145  0.6459
  516TMC3    C5 7718   3.662   2.600  14.655  0.3216  0.3149 -0.0985
  516TMC3    C6 7719   3.614   2.686  14.561  0.2519  0.5118 -0.1817
  516TMC3     C 7720   3.790   2.841  14.895  0.0713  0.7249  0.0102
  516TMC3     O 7721   3.853   2.944  14.880  1.2924  0.5903 -0.2987
  516TMC3     H 7722   3.698   2.986  14.706  1.0904 -0.6819  0.4934
  516TMC3    H1 7723   3.779   2.583  14.830  0.8003 -0.0826 -1.1164
  516TMC3    H2 7724   3.557   2.644  14.480 -0.1702 -1.7356  1.2992
  516TMC3    C7 7725   3.727   2.482  14.605 -0.4456  0.5664 -0.0104
  516TMC3    C8 7726   3.520   2.907  14.521  0.4546  0.7700 -0.4993
  516TMC3    O1 7727   3.846   2.488  14.622 -0.2385 -0.2667  0.3310
  516TMC3    O2 7728   3.411   2.852  14.525 -0.3707 -0.2601  0.1904
  517MPD2     C 7729   3.615   4.256   0.079 -0.9053  0.5093  0.1813
  517MPD2    C1 7730   3.735   4.258   0.147  0.3521  0.2236 -0.4705
  517MPD2    C2 7731   3.758   4.368   0.228 -0.3414 -0.3912  0.5014
  517MPD2    C3 7732   3.669   4.472   0.243 -0.2114 -0.4582  0.6897
  517MPD2    C4 7733   3.557   4.474   0.171  0.7181 -0.0932 -0.7938
  517MPD2    C5 7734   3.528   4.362   0.095  0.0213 -0.1549 -0.3831
  517MPD2     H 7735   3.850   4.375   0.285  1.5364  0.9798 -2.7320
  517MPD2    H1 7736   3.492   4.561   0.164 -1.6831 -1.8403 -0.1876
  517MPD2    H2 7737   3.569   4.179   0.017  0.0288  0.7488 -0.7980
  517MPD2    H3 7738   3.440   4.343   0.036  0.2803  0.1616 -0.8676
  517MPD2     N 7739   3.696   4.578   0.329  0.5016  0.3701 -0.2253
  517MPD2    H5 7740   3.647   4.665   0.312 -0.5807 -0.0486  0.7334
  517MPD2    N1 7741   3.830   4.161   0.130  0.8353  0.3599 -0.1237
  517MPD2    H7 7742   3.924   4.170   0.166  0.0069  0.4435  2.0149
  518TMC3    C1 7743   3.917   3.959   0.040  0.0521  0.6485 -0.3859
  518TMC3    C2 7744   3.875   3.829   0.026 -0.0707 -0.0542  0.2123
  518TMC3    C3 7745   3.938   3.747  17.688 -0.2954 -0.1012  0.1958
  518TMC3    C4 7746   4.020   4.013  17.716 -0.1740 -0.0726  0.2141
  518TMC3    C5 7747   4.077   3.932  17.622  0.1145  0.4581  0.3010
  518TMC3    C6 7748   4.036   3.798  17.605  0.0587  0.3159 -0.4031
  518TMC3     C 7749   3.803   4.044   0.062 -0.6042 -0.8866  0.5895
  518TMC3     O 7750   3.708   4.002   0.001 -0.2207  0.8385  0.2045
  518TMC3     H 7751   3.788   3.804   0.086 -1.3052 -0.0647 -1.5990
  518TMC3    H1 7752   4.042   4.119  17.714 -1.8112  0.2809  0.7450
  518TMC3    H2 7753   4.063   3.727  17.528 -0.7770  0.4770 -0.8412
  518TMC3    C7 7754   4.157   3.991  17.518  0.1361 -0.2305  0.2874
  518TMC3    C8 7755   3.866   3.635  17.635  0.1294  0.2971  0.0231
  518TMC3    O1 7756   4.195   4.107  17.519  0.4208  0.0278  0.3922
  518TMC3    O2 7757   3.895   3.581  17.527 -0.5364  0.5056  0.7079
  519MPD2     C 7758   0.442   2.586  14.656 -0.3321  0.3302 -0.1159
  519MPD2    C1 7759   0.415   2.610  14.524  0.4160  0.3362 -0.6112
  519MPD2    C2 7760   0.515   2.599  14.432  0.1374 -0.5706  0.5416
  519MPD2    C3 7761   0.645   2.564  14.459 -0.3474 -0.2314 -0.9114
  519MPD2    C4 7762   0.668   2.537  14.592 -0.4490  0.3052  0.5401
  519MPD2    C5 7763   0.571   2.556  14.688 -0.4900 -0.1179 -0.3795
  519MPD2     H 7764   0.489   2.612  14.328  1.0402 -1.2093  0.2364
  519MPD2    H1 7765   0.767   2.507  14.623 -0.7877 -0.9463  0.3946
  519MPD2    H2 7766   0.367   2.585  14.734  0.3230 -0.3525  0.5019
  519MPD2    H3 7767   0.598   2.546  14.793  1.8658  3.0835 -0.6697
  519MPD2     N 7768   0.756   2.566  14.369 -0.3812  0.3452  0.4448
  519MPD2    H5 7769   0.845   2.533  14.405 -0.1788  2.5694  1.9360
  519MPD2    N1 7770   0.287   2.643  14.486 -0.2051 -0.5179 -0.3163
  519MPD2    H7 7771   0.233   2.686  14.560  2.0437  2.8161 -0.5995
  520TMC3    C1 7772   0.860   2.572  14.156 -0.1981  0.0737  0.8015
  520TMC3    C2 7773   0.856   2.629  14.034  0.8424  0.7565 -0.1100
  520TMC3    C3 7774   0.929   2.574  13.932  0.4594  0.2153  0.4515
  520TMC3    C4 7775   0.946   2.464  14.184  0.0786 -0.1310 -0.2437
  520TMC3    C5 7776   1.040   2.434  14.088  0.0309 -0.4548  0.4726
  520TMC3    C6 7777   1.031   2.486  13.964  0.7437 -0.3357  0.0433
  520TMC3     C 7778   0.744   2.595  14.233 -0.5402  0.4628 -0.0853
  520TMC3     O 7779   0.652   2.655  14.186 -0.3136  0.1751  0.4006
  520TMC3     H 7780   0.797   2.718  14.019  0.4447  0.6743  1.0085
  520TMC3    H1 7781   0.950   2.421  14.284 -1.4590  0.4886  0.0895
  520TMC3    H2 7782   1.106   2.467  13.887 -1.0248  2.1850 -2.3022
  520TMC3    C7 7783   1.128   2.316  14.117  0.2398  0.0051  0.4424
  520TMC3    C8 7784   0.916   2.625  13.803 -0.2042 -1.1380  0.2072
  520TMC3    O1 7785   1.147   2.284  14.233 -1.1582  0.3244  0.2182
  520TMC3    O2 7786   1.018   2.635  13.740 -0.1836 -0.4145  0.3729
  521MPD2     C 7787   1.514   0.374   0.098  0.1648 -0.4376 -0.6295
  521MPD2    C1 7788   1.493   0.456  17.746  0.6701  0.0131  0.3325
  521MPD2    C2 7789   1.593   0.457  17.647  0.9417  0.6119  0.1705
  521MPD2    C3 7790   1.717   0.402  17.670 -0.3027 -0.2258  0.0654
  521MPD2    C4 7791   1.740   0.325   0.028 -0.7058 -0.1528 -0.2218
  521MPD2    C5 7792   1.636   0.313   0.116 -0.0747 -0.4000 -0.0660
  521MPD2     H 7793   1.569   0.512  17.557 -0.6372 -0.0185  0.2112
  521MPD2    H1 7794   1.833   0.279   0.058  0.3231  1.3956 -1.0553
  521MPD2    H2 7795   1.437   0.353   0.171  0.3599  0.1492 -0.2571
  521MPD2    H3 7796   1.655   0.257   0.206 -0.1930  0.0744  0.2549
  521MPD2     N 7797   1.816   0.433  17.579 -0.2390  0.0675 -0.3485
  521MPD2    H5 7798   1.786   0.483  17.496 -1.1877 -0.8593 -0.5693
  521MPD2    N1 7799   1.366   0.514  17.731  0.5063  0.0978 -0.3507
  521MPD2    H7 7800   1.305   0.521   0.059 -0.4897 -0.1703 -1.0938
  522TMC3    C1 7801   2.018   0.405  17.467  0.0156 -0.2669 -0.1710
  522TMC3    C2 7802   2.159   0.415  17.470 -0.3730 -0.0118 -0.1031
  522TMC3    C3 7803   2.225   0.427  17.348  0.8967 -0.2625 -0.1378
  522TMC3    C4 7804   1.950   0.434  17.347 -0.1855  0.6525  0.1982
  522TMC3    C5 7805   2.032   0.448  17.235  0.6416 -0.1994 -0.0600
  522TMC3    C6 7806   2.166   0.452  17.232 -0.2667 -0.2668 -0.0206
  522TMC3     C 7807   1.947   0.389  17.592  0.0204 -0.0381 -0.2347
  522TMC3     O 7808   2.007   0.345  17.687  0.2135 -0.3994  0.1878
  522TMC3     H 7809   2.212   0.402  17.564 -1.1545 -1.4633  0.1287
  522TMC3    H1 7810   1.842   0.433  17.346 -0.1843 -1.1938  1.3652
  522TMC3    H2 7811   2.224   0.472  17.143  1.5013 -0.2151  1.1314
  522TMC3    C7 7812   1.949   0.489  17.120 -0.0444 -0.2602 -0.1480
  522TMC3    C8 7813   2.354   0.361  17.340 -0.3273 -0.2288 -0.5583
  522TMC3    O1 7814   1.826   0.495  17.130  0.3059  0.1160 -0.4275
  522TMC3    O2 7815   2.406   0.368  17.452  0.3952 -0.3168 -0.6592
  523MPD2     C 7816   3.695   0.632   9.881 -0.0359  0.2107  0.5244
  523MPD2    C1 7817   3.708   0.495   9.902  0.1973  0.5941  0.6015
  523MPD2    C2 7818   3.598   0.408   9.879 -0.3865  0.6565  0.3063
  523MPD2    C3 7819   3.481   0.463   9.845 -0.4094  0.8529 -0.2659
  523MPD2    C4 7820   3.470   0.602   9.815 -0.5963  0.2625 -0.2788
  523MPD2    C5 7821   3.584   0.688   9.832 -0.5957  0.3945 -0.1756
  523MPD2     H 7822   3.597   0.300   9.886  1.0202  0.6398  0.2459
  523MPD2    H1 7823   3.375   0.639   9.781 -0.1298  1.1263 -0.6282
  523MPD2    H2 7824   3.775   0.704   9.899  0.4766  0.5661 -3.0845
  523MPD2    H3 7825   3.577   0.795   9.820  1.8897  0.4967 -0.5546
  523MPD2     N 7826   3.361   0.386   9.823 -0.0961 -0.4305  0.3853
  523MPD2    H5 7827   3.282   0.427   9.773  0.0891 -1.6011 -0.8740
  523MPD2    N1 7828   3.835   0.448   9.944  0.1539 -0.4132 -0.6782
  523MPD2    H7 7829   3.906   0.518   9.964  0.2035  0.2570 -3.1644
  524TMC3    C1 7830   3.227   0.181   9.845  0.3744 -0.2382  0.1189
  524TMC3    C2 7831   3.217   0.063   9.912  0.5438 -0.4274 -0.3418
  524TMC3    C3 7832   3.106   4.735   9.897  0.0245  0.6372 -0.2508
  524TMC3    C4 7833   3.128   0.237   9.766 -0.0331  0.2408  0.6244
  524TMC3    C5 7834   3.008   0.167   9.767  0.6709 -0.1900  0.4719
  524TMC3    C6 7835   3.000   0.041   9.832  0.6729  0.3334 -0.4089
  524TMC3     C 7836   3.348   0.260   9.880  0.0181  0.2536 -0.5423
  524TMC3     O 7837   3.410   0.213   9.976 -0.5112  0.1539 -0.2436
  524TMC3     H 7838   3.307   0.017   9.950  0.9317  1.1094  0.6117
  524TMC3    H1 7839   3.138   0.326   9.706 -0.0930  0.7834  1.4263
  524TMC3    H2 7840   2.906   4.726   9.836  1.4595 -1.0223 -0.1274
  524TMC3    C7 7841   2.909   0.196   9.658 -0.0064  0.4241  0.0802
  524TMC3    C8 7842   3.088   4.620   9.990  0.4697  1.4352 -0.5440
  524TMC3    O1 7843   2.848   0.101   9.620 -0.2490 -0.1626  0.2020
  524TMC3    O2 7844   2.982   4.558   9.979  0.3085  0.1967 -0.1711
  525MPD2     C 7845   1.929   2.205  14.543  0.4118  0.7223 -0.7314
  525MPD2    C1 7846   2.048   2.220  14.609  0.1814 -0.2998 -0.3076
  525MPD2    C2 7847   2.120   2.335  14.591 -0.3125  0.0494  0.2156
  525MPD2    C3 7848   2.061   2.449  14.527 -0.1057  0.0226 -0.0130
  525MPD2    C4 7849   1.936   2.432  14.470 -0.6151  0.5669 -0.2767
  525MPD2    C5 7850   1.874   2.311  14.477 -0.7901  0.5019  0.4254
  525MPD2     H 7851   2.214   2.340  14.645  0.9074  0.1653 -1.8959
  525MPD2    H1 7852   1.886   2.504  14.406 -1.8880 -0.8246 -0.8406
  525MPD2    H2 7853   1.868   2.117  14.524  0.0296  0.8603 -0.1446
  525MPD2    H3 7854   1.781   2.292  14.424 -0.3666 -0.5178  0.0371
  525MPD2     N 7855   2.116   2.581  14.530 -0.4331 -0.0642  0.6956
  525MPD2    H5 7856   2.057   2.660  14.505 -0.1271  0.2469  0.9632
  525MPD2    N1 7857   2.108   2.122  14.705 -0.1115  0.5664  0.4016
  525MPD2    H7 7858   2.187   2.161  14.755  0.6587  0.1005 -0.4412
  526TMC3    C1 7859   2.111   1.948  14.867 -0.0231 -0.3003  0.2253
  526TMC3    C2 7860   2.035   1.871  14.954  0.1883 -0.3486 -0.0881
  526TMC3    C3 7861   2.103   1.801  15.051 -0.2763  0.7116 -0.4480
  526TMC3    C4 7862   2.244   1.948  14.870  0.4706  0.3829  0.1203
  526TMC3    C5 7863   2.302   1.870  14.972  0.3373 -0.3949  0.1560
  526TMC3    C6 7864   2.232   1.812  15.072 -0.7018  0.4934  0.0646
  526TMC3     C 7865   2.045   2.016  14.754 -0.8616 -0.2525  0.0186
  526TMC3     O 7866   1.931   1.980  14.716  0.1978  0.5254 -0.7491
  526TMC3     H 7867   1.928   1.859  14.945  0.4145 -2.5017  0.2098
  526TMC3    H1 7868   2.309   1.989  14.794 -1.6720  2.4359 -0.6294
  526TMC3    H2 7869   2.279   1.746  15.144  0.4849  0.9117 -0.3207
  526TMC3    C7 7870   2.447   1.852  14.969 -0.0514 -0.0373  0.0726
  526TMC3    C8 7871   2.035   1.761  15.174  0.0563 -0.3459  0.4339
  526TMC3    O1 7872   2.501   1.839  15.078  0.0453 -0.3296  0.1235
  526TMC3    O2 7873   2.107   1.703  15.255  0.0583 -0.4153 -0.6613
  527MPD2     C 7874   0.217   0.054   1.729 -0.0598  0.0536 -0.7931
  527MPD2    C1 7875   0.202   0.081   1.596  0.9061  0.1625  0.1882
  527MPD2    C2 7876   0.295   0.027   1.506  0.3042 -0.4621 -0.4299
  527MPD2    C3 7877   0.402   4.687   1.553  0.2375 -0.2770 -1.2956
  527MPD2    C4 7878   0.407   4.665   1.691  0.4135 -0.1225  0.2950
  527MPD2    C5 7879   0.305   4.702   1.771 -0.4108 -0.1537  0.1939
  527MPD2     H 7880   0.273   0.044   1.402 -1.0999  2.6684  0.3683
  527MPD2    H1 7881   0.474   4.587   1.726 -0.7419 -0.5319  1.5801
  527MPD2    H2 7882   0.160   0.101   1.808  1.4322  1.6469 -0.6746
  527MPD2    H3 7883   0.308   4.671   1.875 -1.2443  2.5874  1.0253
  527MPD2     N 7884   0.501   4.640   1.461 -0.6461  0.1246 -0.0465
  527MPD2    H5 7885   0.489   4.666   1.364  3.0802 -0.9062 -0.7926
  527MPD2    N1 7886   0.102   0.168   1.538  0.2502  0.6626 -0.1316
  527MPD2    H7 7887   0.113   0.187   1.439  0.1137 -1.1524 -0.4852
  528TMC3    C1 7888   4.657   0.293   1.502  0.0033  0.3153  0.2908
  528TMC3    C2 7889   4.723   0.357   1.399  0.0462  0.3267 -0.4202
  528TMC3    C3 7890   4.650   0.401   1.286  0.6103 -0.0807  0.2136
  528TMC3    C4 7891   4.521   0.276   1.500 -0.6663 -0.2718  0.2419
  528TMC3    C5 7892   4.452   0.337   1.394 -0.5779 -0.1933  0.7554
  528TMC3    C6 7893   4.516   0.399   1.292  0.0205  0.5761  0.3226
  528TMC3     C 7894   4.730   0.221   1.601  0.2663  0.0525  0.1724
  528TMC3     O 7895   4.679   0.187   1.706 -0.3042 -0.1272 -0.2098
  528TMC3     H 7896   0.092   0.368   1.403 -0.0174  0.7418  0.1552
  528TMC3    H1 7897   4.481   0.214   1.579 -1.9102 -0.3610 -0.4672
  528TMC3    H2 7898   4.448   0.447   1.222  0.1113 -1.4347 -1.1502
  528TMC3    C7 7899   4.310   0.315   1.370  0.3055 -1.7436  0.3632
  528TMC3    C8 7900   4.717   0.394   1.159 -0.1548  0.7011 -0.4429
  528TMC3    O1 7901   4.266   0.321   1.258 -0.0359 -0.5291 -0.1675
  528TMC3    O2 7902   0.093   0.356   1.168 -0.1357 -0.3327  0.2725
  529MPD2     C 7903   2.470   3.236   1.043  0.3158 -0.0635  0.0378
  529MPD2    C1 7904   2.502   3.135   0.957 -0.3749  0.2664  0.1599
  529MPD2    C2 7905   2.475   3.138   0.819 -0.1997 -0.3737 -0.8619
  529MPD2    C3 7906   2.420   3.247   0.770  0.3071 -0.4975 -0.5902
  529MPD2    C4 7907   2.383   3.345   0.857  0.2212 -0.5627  0.1190
  529MPD2    C5 7908   2.404   3.337   0.992  0.4048 -0.2823  0.2313
  529MPD2     H 7909   2.493   3.047   0.764  1.4462 -2.1125  2.6089
  529MPD2    H1 7910   2.339   3.430   0.805 -0.0135  0.9733  2.8548
  529MPD2    H2 7911   2.494   3.238   1.149 -0.1160 -0.0791  0.1380
  529MPD2    H3 7912   2.375   3.423   1.051  2.6556  0.7417 -0.1621
  529MPD2     N 7913   2.394   3.274   0.638 -0.2389 -0.1094  0.3118
  529MPD2    H5 7914   2.353   3.364   0.615  2.4676  1.0022 -0.1517
  529MPD2    N1 7915   2.570   3.019   0.994  0.0223  0.5010  0.5672
  529MPD2    H7 7916   2.567   2.947   0.923 -1.3589  0.2615  0.8679
  530TMC3    C1 7917   2.687   2.871   1.136 -0.0397  0.0733 -0.2943
  530TMC3    C2 7918   2.800   2.870   1.210 -0.0876 -0.3600  0.0056
  530TMC3    C3 7919   2.899   2.763   1.206  0.1578 -0.0715  0.2872
  530TMC3    C4 7920   2.657   2.763   1.056 -0.4456  0.2274  0.0858
  530TMC3    C5 7921   2.748   2.663   1.057  0.1933  0.1695 -0.4435
  530TMC3    C6 7922   2.867   2.655   1.124  0.3276 -0.6070  0.1949
  530TMC3     C 7923   2.626   3.000   1.119  0.1910  0.2039  0.1117
  530TMC3     O 7924   2.649   3.083   1.205  0.1975  0.3499  0.0224
  530TMC3     H 7925   2.812   2.955   1.277 -1.4757  0.5060 -0.8446
  530TMC3    H1 7926   2.564   2.754   1.002 -0.9473 -0.2165  1.0115
  530TMC3    H2 7927   2.925   2.564   1.120  1.5349  0.1599  0.2014
  530TMC3    C7 7928   2.716   2.546   0.977  0.0336  0.2221  0.2251
  530TMC3    C8 7929   2.987   2.740   1.320  0.1292 -0.0428  0.3870
  530TMC3    O1 7930   2.732   2.550   0.856 -0.2114  0.1456 -0.0800
  530TMC3    O2 7931   2.943   2.775   1.428 -0.4134 -0.0739 -0.3565
  531MPD2     C 7932   1.283   1.382  13.433 -0.0115  0.2819 -0.2676
  531MPD2    C1 7933   1.187   1.287  13.404  0.1174  0.1852 -1.1008
  531MPD2    C2 7934   1.208   1.194  13.307 -0.0520 -0.2362 -0.0469
  531MPD2    C3 7935   1.332   1.190  13.246  0.0793 -0.5098  0.4052
  531MPD2    C4 7936   1.428   1.286  13.266 -0.2847 -0.2428 -0.2102
  531MPD2    C5 7937   1.404   1.382  13.366  0.1171 -0.8870  0.0903
  531MPD2     H 7938   1.133   1.120  13.281  1.1218 -0.9505 -1.3807
  531MPD2    H1 7939   1.520   1.281  13.208  1.8505 -0.9128  3.2431
  531MPD2    H2 7940   1.274   1.462  13.505  3.2344  2.4826 -2.3379
  531MPD2    H3 7941   1.481   1.453  13.391  0.3547 -0.4651 -1.8550
  531MPD2     N 7942   1.352   1.074  13.163  1.0370  0.1206 -0.3908
  531MPD2    H5 7943   1.279   1.004  13.159  1.0197  0.0562  0.9517
  531MPD2    N1 7944   1.068   1.292  13.487 -0.0805 -0.5813 -0.2056
  531MPD2    H7 7945   1.067   1.358  13.563 -0.1255 -1.6712  0.7434
  532TMC3    C1 7946   0.882   1.193  13.589 -0.4024 -0.8975 -0.1655
  532TMC3    C2 7947   0.774   1.114  13.554 -0.9257 -0.4523 -0.0014
  532TMC3    C3 7948   0.737   1.021  13.651 -0.0809 -0.0500 -0.1328
  532TMC3    C4 7949   0.949   1.172  13.703  0.3315 -0.5037  0.2908
  532TMC3    C5 7950   0.903   1.076  13.791 -0.4175 -0.6590  0.3632
  532TMC3    C6 7951   0.794   1.008  13.776  0.5660  0.2095 -0.3665
  532TMC3     C 7952   0.963   1.210  13.470  1.0094 -0.7737 -0.3746
  532TMC3     O 7953   0.930   1.127  13.385  0.0948  0.0688  0.4872
  532TMC3     H 7954   0.711   1.120  13.467 -0.7773 -1.6665 -0.1950
  532TMC3    H1 7955   1.024   1.240  13.741 -0.1120 -0.0339  0.3245
  532TMC3    H2 7956   0.760   0.934  13.847  1.7502 -1.3982 -1.4903
  532TMC3    C7 7957   0.994   1.027  13.888  0.0302 -0.0577  0.6158
  532TMC3    C8 7958   0.744   0.888  13.590 -0.5238 -0.6126  0.1318
  532TMC3    O1 7959   0.957   0.954  13.982  0.0079  0.2246 -0.2837
  532TMC3    O2 7960   0.708   0.791  13.657  0.0143  0.3140 -0.0254
  533TMC3    C1 7961   2.239   2.757  14.600  0.1763 -0.3167  0.2342
  533TMC3    C2 7962   2.361   2.819  14.603  0.2939  1.0040 -0.0148
  533TMC3    C3 7963   2.378   2.939  14.659 -0.4977 -0.0828 -0.3991
  533TMC3    C4 7964   2.134   2.803  14.670 -0.1229  0.3031  0.1158
  533TMC3    C5 7965   2.156   2.924  14.738  0.9549  0.3033 -0.1459
  533TMC3    C6 7966   2.274   2.988  14.741 -0.5456  0.3986  0.3786
  533TMC3     C 7967   2.244   2.619  14.560  0.1351  0.4186 -0.2274
  533TMC3     O 7968   2.343   2.549  14.587 -0.0266  0.0344 -0.5002
  533TMC3     H 7969   2.438   2.779  14.538 -1.7802 -0.6624 -1.4438
  533TMC3    H1 7970   2.040   2.751  14.682  0.0907  0.2407  1.5263
  533TMC3    H2 7971   2.281   3.084  14.791  1.6516  0.6791 -0.4487
  533TMC3    C7 7972   2.084   2.929  14.868  0.3090  0.4669 -0.7682
  533TMC3    C8 7973   2.513   2.985  14.684  0.1342  0.3579  0.4098
  533TMC3    O1 7974   2.003   2.838  14.876  0.6821 -0.3877  0.3476
  533TMC3    O2 7975   2.599   2.896  14.696 -0.3700 -0.2172 -0.4025
  534MPD2     C 7976   0.422   3.007   0.717 -0.3310 -0.0841  0.2833
  534MPD2    C1 7977   0.414   3.122   0.796  0.3425  0.1972  0.1114
  534MPD2    C2 7978   0.290   3.184   0.815 -0.3553 -0.2705  0.0092
  534MPD2    C3 7979   0.180   3.151   0.735  0.9179  0.0373 -0.3974
  534MPD2    C4 7980   0.196   3.056   0.638  0.2356  0.3199  0.4769
  534MPD2    C5 7981   0.311   2.973   0.644 -0.4765  0.4802 -0.0305
  534MPD2     H 7982   0.277   3.271   0.878 -2.1895 -0.7356  0.2575
  534MPD2    H1 7983   0.131   3.044   0.553 -1.0743 -1.7229  1.7788
  534MPD2    H2 7984   0.513   2.952   0.698  1.6096  2.5395  2.0824
  534MPD2    H3 7985   0.320   2.906   0.560  2.5621  0.3484  0.4188
  534MPD2     N 7986   0.054   3.217   0.744 -0.5257  0.3417  0.2622
  534MPD2    H5 7987   4.728   3.198   0.668  0.5153  0.3951 -0.6358
  534MPD2    N1 7988   0.526   3.179   0.869  0.5615  0.7221 -0.4508
  534MPD2    H7 7989   0.512   3.270   0.914  2.9763  1.8267 -1.9357
  535TMC3    C1 7990   4.626   3.364   0.830 -0.7412 -0.4355 -0.2133
  535TMC3    C2 7991   4.546   3.389   0.936 -0.4001  0.3312  0.0650
  535TMC3    C3 7992   4.427   3.454   0.916 -0.0877  0.2509 -0.0199
  535TMC3    C4 7993   4.599   3.420   0.713 -0.0007 -0.1798 -0.2465
  535TMC3    C5 7994   4.485   3.497   0.698  0.1304  0.0457 -0.3795
  535TMC3    C6 7995   4.397   3.507   0.795  0.1573 -0.2735  0.2297
  535TMC3     C 7996   0.009   3.292   0.853 -0.0908  0.1444  0.2792
  535TMC3     O 7997   0.051   3.278   0.968 -0.2427 -0.3445  0.2527
  535TMC3     H 7998   4.553   3.331   1.027 -1.2564  0.2353  0.0705
  535TMC3    H1 7999   4.673   3.402   0.636 -1.5684  2.3310 -2.3621
  535TMC3    H2 8000   4.300   3.552   0.774  0.0839 -1.7860 -2.5960
  535TMC3    C7 8001   4.444   3.541   0.564 -1.0594 -0.2366 -0.0354
  535TMC3    C8 8002   4.316   3.399   0.991  0.0174  0.7766 -0.1618
  535TMC3    O1 8003   4.509   3.491   0.473  1.0052 -0.4764  0.4328
  535TMC3    O2 8004   4.217   3.377   0.925  0.0585 -0.0048  0.0468
  536MPD2     C 8005   3.882   1.769  15.893  0.1447 -0.0379 -0.9543
  536MPD2    C1 8006   3.752   1.763  15.942 -0.0012  0.6862  0.1768
  536MPD2    C2 8007   3.642   1.801  15.871  0.4076 -0.6089  0.0504
  536MPD2    C3 8008   3.657   1.827  15.734  0.1333  0.9921 -0.2955
  536MPD2    C4 8009   3.790   1.840  15.688 -0.1799 -0.1812  0.0272
  536MPD2    C5 8010   3.902   1.810  15.765  0.3337 -0.6427  0.4038
  536MPD2     H 8011   3.544   1.785  15.915  0.1256 -0.9441 -0.7009
  536MPD2    H1 8012   3.815   1.871  15.587  1.6067 -0.5624  0.3574
  536MPD2    H2 8013   3.964   1.744  15.960 -0.7949  1.1916  0.6555
  536MPD2    H3 8014   4.004   1.827  15.731  0.2177 -2.6248 -0.8967
  536MPD2     N 8015   3.545   1.845  15.650 -0.2549 -0.0874 -0.4188
  536MPD2    H5 8016   3.460   1.834  15.703  2.1217 -3.6715  2.6367
  536MPD2    N1 8017   3.745   1.711  16.073  0.9710  0.4668 -0.0967
  536MPD2    H7 8018   3.834   1.698  16.120  0.5486  0.7380  0.7953
  537TMC3    C1 8019   3.655   1.597  16.255  0.3759  0.0079  0.2913
  537TMC3    C2 8020   3.765   1.628  16.330 -0.0588  0.5961  0.9945
  537TMC3    C3 8021   3.802   1.529  16.425  0.3744  0.4391 -0.3964
  537TMC3    C4 8022   3.576   1.489  16.290 -0.4861 -0.1454  0.7655
  537TMC3    C5 8023   3.610   1.399  16.387  0.0434 -0.4280  0.5495
  537TMC3    C6 8024   3.726   1.419  16.455  0.2346 -0.2359  0.4624
  537TMC3     C 8025   3.626   1.670  16.134 -0.4115 -0.3174 -0.0339
  537TMC3     O 8026   3.515   1.650  16.084  0.1988 -0.3828  0.0466
  537TMC3     H 8027   3.812   1.726  16.323 -0.3483  0.7338  0.9719
  537TMC3    H1 8028   3.484   1.470  16.236 -0.4981 -0.3650  0.8638
  537TMC3    H2 8029   3.751   1.354  16.538 -0.6238 -2.3262 -0.9337
  537TMC3    C7 8030   3.531   1.275  16.407  0.1335  0.3254 -0.0978
  537TMC3    C8 8031   3.895   1.567  16.532 -0.0607 -0.0543  0.4895
  537TMC3    O1 8032   3.469   1.229  16.312 -0.2381  0.3790  0.1178
  537TMC3    O2 8033   3.899   1.684  16.555  0.9757 -0.7714  0.3752
  538TMC3    C1 8034   0.366   0.596  11.265  0.6330 -0.8519  0.1536
  538TMC3    C2 8035   0.484   0.665  11.277  0.2558 -0.3306 -0.3671
  538TMC3    C3 8036   0.505   0.769  11.186  0.1422 -0.1543  0.3642
  538TMC3    C4 8037   0.271   0.622  11.169  0.0966  0.3825  0.5589
  538TMC3    C5 8038   0.296   0.729  11.094  0.6146  0.5651 -0.1447
  538TMC3    C6 8039   0.410   0.799  11.101 -0.5011 -0.0255  0.5621
  538TMC3     C 8040   0.355   0.471  11.336  0.5592  0.0230 -0.2681
  538TMC3     O 8041   0.287   0.384  11.283 -0.3807 -0.3589 -0.1976
  538TMC3     H 8042   0.570   0.632  11.334 -0.8790  0.4390  1.7842
  538TMC3    H1 8043   0.185   0.560  11.147 -1.2004  3.0703 -1.9287
  538TMC3    H2 8044   0.421   0.871  11.021 -2.2279  0.1913  0.5051
  538TMC3    C7 8045   0.204   0.764  10.987  0.8451  0.4768  0.0215
  538TMC3    C8 8046   0.644   0.823  11.170  0.3061 -0.1049 -0.6043
  538TMC3    O1 8047   0.242   0.844  10.898  0.4092  0.3564 -0.5339
  538TMC3    O2 8048   0.716   0.832  11.268  0.1959  0.0085  0.1018
  539MPD2     C 8049   4.726   4.460  11.702 -0.4888 -0.0369 -0.3950
  539MPD2    C1 8050   4.633   4.486  11.601  0.1192 -0.2863 -0.4256
  539MPD2    C2 8051   4.551   4.605  11.610 -0.0217  0.0542 -0.5448
  539MPD2    C3 8052   4.577   4.694  11.716  0.2311  0.0014 -0.3781
  539MPD2    C4 8053   4.670   4.661  11.811  0.0892 -0.0326  0.1151
  539MPD2    C5 8054   0.012   4.550  11.803 -0.0463 -0.0781 -0.6908
  539MPD2     H 8055   4.476   4.623  11.535 -0.7128  2.2531  0.6687
  539MPD2    H1 8056   4.688   4.724  11.897 -0.5306 -1.3543  1.2305
  539MPD2    H2 8057   0.035   4.362  11.704 -0.0085  0.1696 -1.8950
  539MPD2    H3 8058   0.091   4.527  11.873  2.0405 -0.0656 -3.0514
  539MPD2     N 8059   4.495   0.067  11.729 -0.3226  0.0609  0.2253
  539MPD2    H5 8060   4.439   0.095  11.648 -1.2303  0.2910  0.9399
  539MPD2    N1 8061   4.620   4.398  11.489  0.1923 -0.3515 -0.2447
  539MPD2    H7 8062   4.683   4.319  11.495  1.8859  0.8806 -1.8335
  540TMC3    C1 8063   4.395   0.252  11.829  0.2354  0.0134 -0.0198
  540TMC3    C2 8064   4.423   0.332  11.724  0.3049  0.3481 -0.2401
  540TMC3    C3 8065   4.333   0.424  11.691  0.4684 -0.2806 -0.0661
  540TMC3    C4 8066   4.275   0.262  11.903  0.6473  0.4887  0.4610
  540TMC3    C5 8067   4.200   0.370  11.866  0.6181  0.2382  0.5505
  540TMC3    C6 8068   4.220   0.442  11.753 -0.0078 -0.7583  0.5509
  540TMC3     C 8069   4.472   0.136  11.846 -0.1608 -0.6020 -0.1811
  540TMC3     O 8070   4.484   0.081  11.956  0.6924 -0.2932 -0.5326
  540TMC3     H 8071   4.514   0.308  11.671  1.2015  1.0561  0.9717
  540TMC3    H1 8072   4.256   0.190  11.982  1.4869  0.2238  0.4174
  540TMC3    H2 8073   4.153   0.521  11.719  0.2505 -1.6681 -2.0873
  540TMC3    C7 8074   4.073   0.382  11.944  0.6549  0.0551 -0.3861
  540TMC3    C8 8075   4.352   0.467  11.554 -0.2153  0.1003 -0.5471
  540TMC3    O1 8076   4.027   0.495  11.964  0.0648  0.1540  0.6799
  540TMC3    O2 8077   4.468   0.472  11.520  0.5016 -0.2626  0.6053
  541MPD2     C 8078   2.341   1.686  13.557 -0.2912  0.0967  0.2681
  541MPD2    C1 8079   2.461   1.615  13.570 -0.3553  0.5823 -0.2905
  541MPD2    C2 8080   2.573   1.679  13.521  0.0380 -0.2286  0.9164
  541MPD2    C3 8081   2.574   1.805  13.469 -0.4217  0.1086 -0.6030
  541MPD2    C4 8082   2.454   1.880  13.469  0.1426  0.4305  0.0659
  541MPD2    C5 8083   2.344   1.813  13.503 -0.6750 -0.0450 -0.0350
  541MPD2     H 8084   2.669   1.630  13.527  0.3468  0.1725 -0.8734
  541MPD2    H1 8085   2.454   1.977  13.420 -0.6318  0.2085 -0.3656
  541MPD2    H2 8086   2.242   1.644  13.574 -0.1620 -0.9254 -1.5281
  541MPD2    H3 8087   2.245   1.855  13.492  0.1446  1.9616  0.3384
  541MPD2     N 8088   2.689   1.873  13.414  0.2578 -0.0746 -0.0770
  541MPD2    H5 8089   2.673   1.963  13.368  0.7782 -0.0977 -0.2979
  541MPD2    N1 8090   2.461   1.489  13.629  0.1642 -0.0921  0.0776
  541MPD2    H7 8091   2.368   1.453  13.645  0.3300  0.0605  1.3217
  542TMC3    C1 8092   2.886   1.905  13.292 -0.2546 -0.2874 -0.4270
  542TMC3    C2 8093   2.873   1.844  13.169 -0.2974  0.1773 -0.4786
  542TMC3    C3 8094   2.885   1.921  13.061  0.3927  0.8858 -0.0131
  542TMC3    C4 8095   2.893   2.037  13.305  0.2027  0.5166  0.0567
  542TMC3    C5 8096   2.914   2.115  13.193  0.8138 -0.3969  0.3335
  542TMC3    C6 8097   2.912   2.057  13.071  0.6242 -0.0776  0.0927
  542TMC3     C 8098   2.819   1.823  13.391 -0.6922  0.0408 -0.4077
  542TMC3     O 8099   2.871   1.719  13.420 -0.0740 -0.6933  0.3818
  542TMC3     H 8100   2.872   1.736  13.161  0.6263  0.1277  0.0727
  542TMC3    H1 8101   2.898   2.086  13.401 -3.3371 -1.2315  1.1408
  542TMC3    H2 8102   2.939   2.114  12.983  1.8923  0.2490  0.6787
  542TMC3    C7 8103   2.912   2.259  13.212  0.4790  0.4161 -0.4343
  542TMC3    C8 8104   2.891   1.865  12.930 -0.1284  0.2064  0.3981
  542TMC3    O1 8105   2.953   2.307  13.317 -0.3539 -0.2538 -0.6315
  542TMC3    O2 8106   2.932   1.930  12.838 -0.1279  0.0318  0.0122
  543TMC3    C1 8107   2.236   2.417  16.716  1.0919 -0.9133  0.1113
  543TMC3    C2 8108   2.245   2.285  16.751  0.2132  0.3594 -0.0532
  543TMC3    C3 8109   2.215   2.250  16.879  0.4333  0.8408  0.3156
  543TMC3    C4 8110   2.196   2.518  16.794 -0.0098  0.1462 -0.0264
  543TMC3    C5 8111   2.165   2.477  16.921 -0.2959  0.0011 -0.6804
  543TMC3    C6 8112   2.176   2.346  16.968 -0.1330  0.4766  0.3750
  543TMC3     C 8113   2.333   2.445  16.607  0.2364  0.2012 -0.2825
  543TMC3     O 8114   2.406   2.358  16.564 -0.5687  0.2467 -0.0282
  543TMC3     H 8115   2.264   2.207  16.679 -0.2773  0.3664 -0.1907
  543TMC3    H1 8116   2.218   2.622  16.773 -1.5532  0.8091  1.6344
  543TMC3    H2 8117   2.138   2.323  17.067  0.1376 -0.4888  0.2568
  543TMC3    C7 8118   2.094   2.571  17.009 -0.2743  0.2040 -0.9321
  543TMC3    C8 8119   2.284   2.134  16.923 -0.3937 -0.5539 -0.1443
  543TMC3    O1 8120   2.095   2.553  17.128  0.0007  0.2456  0.3862
  543TMC3    O2 8121   2.327   2.057  16.839  0.2922 -0.3954 -0.8948
  544MPD2     C 8122   2.305   1.753  17.264  0.0679 -0.0723  0.6678
  544MPD2    C1 8123   2.291   1.757  17.127 -0.8322  0.0318  0.0341
  544MPD2    C2 8124   2.294   1.874  17.054  0.3430  0.3363 -0.3538
  544MPD2    C3 8125   2.292   1.997  17.121  0.3008  0.6696 -0.2376
  544MPD2    C4 8126   2.301   1.993  17.259 -0.0983 -0.4449  0.0552
  544MPD2    C5 8127   2.303   1.874  17.329  0.5557 -0.1404 -0.3087
  544MPD2     H 8128   2.278   1.863  16.947  0.4891 -0.2461 -0.3136
  544MPD2    H1 8129   2.299   2.084  17.317 -0.4650  0.0518 -0.7407
  544MPD2    H2 8130   2.301   1.661  17.322  1.8201  0.5640  1.7909
  544MPD2    H3 8131   2.297   1.881  17.437 -0.4248 -1.1745 -0.2909
  544MPD2     N 8132   2.278   2.119  17.060 -0.1747  0.0517  0.1756
  544MPD2    H5 8133   2.255   2.197  17.121  1.1864 -0.8162  1.8281
  544MPD2    N1 8134   2.246   1.636  17.064  0.0786  0.2599  0.0451
  544MPD2    H7 8135   2.222   1.557  17.123 -2.7422  0.9749 -0.1425
  545TMC3    C1 8136   2.148   1.506  16.892  0.1238  0.6607  0.0208
  545TMC3    C2 8137   2.070   1.538  16.779  0.2856 -0.3933  0.1138
  545TMC3    C3 8138   1.941   1.490  16.780 -0.3043 -0.2966  0.4136
  545TMC3    C4 8139   2.110   1.420  16.985  0.2798 -0.4564 -0.0921
  545TMC3    C5 8140   1.984   1.364  16.978  0.2064  0.2752  0.7411
  545TMC3    C6 8141   1.893   1.410  16.888  0.0662 -0.0803  0.9238
  545TMC3     C 8142   2.238   1.607  16.929 -0.3379 -0.2248  0.5415
  545TMC3     O 8143   2.284   1.663  16.832 -0.0777 -0.1898  0.0251
  545TMC3     H 8144   2.092   1.628  16.723 -0.6440  0.7309  1.5556
  545TMC3    H1 8145   2.174   1.390  17.067 -1.1871 -0.2889  1.1287
  545TMC3    H2 8146   1.791   1.373  16.885  0.5771 -1.6121  2.2041
  545TMC3    C7 8147   1.950   1.238  17.047  0.2629  0.5283 -0.2554
  545TMC3    C8 8148   1.835   1.563  16.713 -0.6816 -0.0458 -0.4406
  545TMC3    O1 8149   1.834   1.223  17.081 -0.3428 -0.1487 -0.4399
  545TMC3    O2 8150   1.724   1.562  16.759 -0.2510  0.2914 -0.2662
  546MPD2     C 8151   3.694   2.238  17.420  0.1532  0.5653 -0.2144
  546MPD2    C1 8152   3.670   2.265  17.285  0.4180  0.3396  0.3357
  546MPD2    C2 8153   3.689   2.400  17.248 -0.3739 -0.4963  0.3633
  546MPD2    C3 8154   3.714   2.502  17.340 -0.7159  0.4346 -0.3244
  546MPD2    C4 8155   3.733   2.464  17.473  1.0898 -0.4489 -0.3720
  546MPD2    C5 8156   3.720   2.335  17.514 -0.4441 -0.0372  0.0089
  546MPD2     H 8157   3.671   2.426  17.145 -0.4579 -1.7484  0.0596
  546MPD2    H1 8158   3.745   2.526  17.561 -0.2810  3.0121 -2.6405
  546MPD2    H2 8159   3.685   2.137  17.458  2.5951 -0.1894 -1.6377
  546MPD2    H3 8160   3.729   2.314  17.620  1.2470  2.7016  0.3860
  546MPD2     N 8161   3.702   2.643  17.313 -0.1650  0.0880 -0.4356
  546MPD2    H5 8162   3.722   2.707  17.390 -0.9847  0.4007 -0.4863
  546MPD2    N1 8163   3.635   2.158  17.201  0.4639 -0.6038  0.0488
  546MPD2    H7 8164   3.608   2.068  17.239  1.0265 -1.6800 -2.0590
  547TMC3    C1 8165   3.557   2.036  17.019 -0.2786  1.0728 -0.3126
  547TMC3    C2 8166   3.495   2.041  16.897 -0.8246 -0.1576 -0.2773
  547TMC3    C3 8167   3.404   1.945  16.863  0.2350 -0.1703 -0.3402
  547TMC3    C4 8168   3.531   1.928  17.103 -0.7374  0.3233  0.2288
  547TMC3    C5 8169   3.451   1.827  17.059 -0.5155  0.6090  0.3244
  547TMC3    C6 8170   3.379   1.843  16.944 -0.0824 -0.0265 -0.5488
  547TMC3     C 8171   3.621   2.161  17.064  0.3437  0.0307  0.2693
  547TMC3     O 8172   3.644   2.246  16.976 -0.1528  0.0579 -0.7351
  547TMC3     H 8173   3.523   2.121  16.829 -0.5851  0.8018  0.9423
  547TMC3    H1 8174   3.587   1.904  17.193 -0.9789  0.2284  0.3512
  547TMC3    H2 8175   3.311   1.761  16.922  0.8406 -0.8225 -0.4402
  547TMC3    C7 8176   3.419   1.727  17.147 -0.2557  0.0538  0.3678
  547TMC3    C8 8177   3.310   1.980  16.759  0.6568  0.4226  0.3916
  547TMC3    O1 8178   3.408   1.760  17.265  0.2508 -0.4118  0.1640
  547TMC3    O2 8179   3.331   2.085  16.697 -0.9609 -0.5637  0.3455
  548MPD2     C 8180   3.251   3.102  12.065 -0.1479 -0.1515 -0.5197
  548MPD2    C1 8181   3.299   3.190  12.161  1.1751  0.2423 -0.3906
  548MPD2    C2 8182   3.435   3.205  12.179  1.0357 -0.3647 -0.0316
  548MPD2    C3 8183   3.527   3.116  12.127  0.3847 -0.1732  0.5992
  548MPD2    C4 8184   3.476   3.025  12.038  0.0374 -0.2303  0.0759
  548MPD2    C5 8185   3.340   3.019  12.008 -0.0197 -0.0294  0.5609
  548MPD2     H 8186   3.473   3.288  12.238 -0.1569 -0.6816  1.1799
  548MPD2    H1 8187   3.546   2.955  11.993 -1.0297 -0.5587 -1.0708
  548MPD2    H2 8188   3.146   3.098  12.039 -0.8902 -0.9813  2.5191
  548MPD2    H3 8189   3.290   2.955  11.936  1.0363  1.5539 -1.5792
  548MPD2     N 8190   3.652   3.111  12.190 -0.2089  0.0372  0.1866
  548MPD2    H5 8191   3.673   3.192  12.246 -2.6095  2.7120 -2.7862
  548MPD2    N1 8192   3.211   3.271  12.236  0.0719 -0.3233  0.5766
  548MPD2    H7 8193   3.114   3.249  12.215  0.4011 -0.6341 -0.6112
  549TMC3    C1 8194   3.125   3.376  12.426 -0.1870  0.0492 -0.1262
  549TMC3    C2 8195   3.007   3.409  12.362 -0.1116 -0.0355  0.6936
  549TMC3    C3 8196   2.909   3.453  12.446 -0.1846  0.0498  0.1333
  549TMC3    C4 8197   3.126   3.353  12.562  0.0952 -0.2214  0.3248
  549TMC3    C5 8198   3.017   3.372  12.635 -0.2117  0.0108  0.9805
  549TMC3    C6 8199   2.903   3.420  12.580  1.2625 -0.0595 -0.0658
  549TMC3     C 8200   3.241   3.348  12.347 -0.0835  0.1879  0.3725
  549TMC3     O 8201   3.347   3.357  12.409 -0.2082  0.6362 -0.7494
  549TMC3     H 8202   3.004   3.421  12.254 -0.9572 -2.1626  0.4708
  549TMC3    H1 8203   3.222   3.351  12.612 -0.0020 -0.3088  0.5057
  549TMC3    H2 8204   2.819   3.441  12.645  0.8870 -0.8307 -0.3016
  549TMC3    C7 8205   3.007   3.301  12.762 -0.6662  0.0795 -0.5416
  549TMC3    C8 8206   2.788   3.494  12.394 -0.3254 -0.7328  0.2587
  549TMC3    O1 8207   2.944   3.349  12.855 -0.0258 -0.1099  0.1691
  549TMC3    O2 8208   2.684   3.467  12.450 -0.2999 -0.3073  0.2316
  550TMC3    C1 8209   2.454   1.324  12.557  0.0720  0.1549  0.3831
  550TMC3    C2 8210   2.389   1.287  12.667  0.0571 -0.0988  0.2136
  550TMC3    C3 8211   2.373   1.384  12.762 -0.9091  0.5799 -0.0470
  550TMC3    C4 8212   2.490   1.450  12.525 -0.0157  0.4805  1.0506
  550TMC3    C5 8213   2.462   1.546  12.613 -0.1132 -0.7287  0.3382
  550TMC3    C6 8214   2.415   1.514  12.738 -0.0117 -0.0091 -0.7034
  550TMC3     C 8215   2.486   1.221  12.461 -0.3608 -0.0692 -0.3665
  550TMC3     O 8216   2.608   1.200  12.439 -0.2107 -0.1312 -0.3641
  550TMC3     H 8217   2.351   1.189  12.692  1.0666 -0.3350  0.7982
  550TMC3    H1 8218   2.523   1.477  12.425 -1.9209  2.4018  0.9621
  550TMC3    H2 8219   2.394   1.592  12.810  0.4228  0.2021 -0.8040
  550TMC3    C7 8220   2.370   1.636  12.542 -0.0162 -0.5252 -0.5137
  550TMC3    C8 8221   2.244   1.400  12.823 -0.6317  0.6129 -0.7822
  550TMC3    O1 8222   2.341   1.614  12.424  0.2313 -0.2761 -0.5688
  550TMC3    O2 8223   2.233   1.449  12.936 -0.2428 -0.1620  0.6862
  551TMC3    C1 8224   4.502   3.566  13.320  0.1785 -0.4107 -0.0766
  551TMC3    C2 8225   4.598   3.476  13.274  0.1896 -0.1923 -0.0321
  551TMC3    C3 8226   4.683   3.438  13.366  0.1532  0.0563 -0.9659
  551TMC3    C4 8227   4.500   3.610  13.453  1.4355 -0.2510 -0.1916
  551TMC3    C5 8228   4.577   3.545  13.540 -0.1245  0.0123 -0.8126
  551TMC3    C6 8229   4.669   3.454  13.500  0.1106  0.5710  0.0096
  551TMC3     C 8230   4.390   3.574  13.229 -0.0021 -0.0099 -0.2161
  551TMC3     O 8231   4.388   3.489  13.136 -0.1017  0.4248 -0.0128
  551TMC3     H 8232   4.594   3.441  13.172  0.2857  1.0828 -0.4737
  551TMC3    H1 8233   4.424   3.681  13.483  1.7986 -0.7216  1.8416
  551TMC3    H2 8234   0.001   3.423  13.575  0.1757  3.3694  1.0881
  551TMC3    C7 8235   4.607   3.617  13.662 -0.3758  0.3272  0.2234
  551TMC3    C8 8236   0.065   3.360  13.321 -0.1053  0.8016 -0.0569
  551TMC3    O1 8237   4.613   3.565  13.770  0.2441 -0.1205  0.3033
  551TMC3    O2 8238   0.132   3.298  13.401  0.1866 -0.8399  0.0349
  552MPD2     C 8239   1.162   0.839  14.593 -0.1785 -0.2369  0.1794
  552MPD2    C1 8240   1.263   0.790  14.512 -0.0051 -0.0990 -0.0644
  552MPD2    C2 8241   1.386   0.765  14.562  0.0283  0.0191  0.8934
  552MPD2    C3 8242   1.411   0.791  14.694 -0.1370  0.8692 -0.6742
  552MPD2    C4 8243   1.311   0.846  14.772 -0.0742 -0.3153  0.3710
  552MPD2    C5 8244   1.193   0.884  14.720  0.5556 -0.1529 -0.4394
  552MPD2     H 8245   1.455   0.712  14.498 -1.3817 -0.9716  0.1905
  552MPD2    H1 8246   1.327   0.872  14.876  4.4724 -1.2169 -0.1067
  552MPD2    H2 8247   1.066   0.862  14.549  0.1283 -0.6688 -0.7066
  552MPD2    H3 8248   1.120   0.933  14.783 -0.8078 -1.6337 -0.8520
  552MPD2     N 8249   1.536   0.780  14.760  0.4684 -0.7575  0.0015
  552MPD2    H5 8250   1.548   0.814  14.855  0.7416  0.3240 -0.4228
  552MPD2    N1 8251   1.250   0.743  14.382 -0.6448 -0.1931  0.0356
  552MPD2    H7 8252   1.327   0.699  14.333 -2.1499 -1.3485 -1.2998
  553TMC3    C1 8253   1.135   0.638  14.224  0.2383 -0.1677  0.2389
  553TMC3    C2 8254   1.147   0.658  14.090  0.1395  0.1390 -0.3859
  553TMC3    C3 8255   1.214   0.564  14.016  0.6583 -0.1661 -0.2739
  553TMC3    C4 8256   1.197   0.524  14.275  0.7069  0.5212 -0.6060
  553TMC3    C5 8257   1.273   0.446  14.202 -0.5120  0.2052  0.0925
  553TMC3    C6 8258   1.287   0.462  14.070  0.0896 -0.1876 -0.4953
  553TMC3     C 8259   1.137   0.749  14.307  0.8777 -0.1131 -0.7613
  553TMC3     O 8260   1.033   0.823  14.310  0.0742 -0.1429  0.0901
  553TMC3     H 8261   1.116   0.755  14.053  0.6354 -0.5255 -2.5353
  553TMC3    H1 8262   1.188   0.516  14.383 -1.8885  1.1365 -0.7769
  553TMC3    H2 8263   1.357   0.407  14.009  0.5508 -1.0554  0.8118
  553TMC3    C7 8264   1.395   0.400  14.259  0.2324  0.8135  0.2736
  553TMC3    C8 8265   1.287   0.622  13.906 -0.5046 -0.6078 -0.2183
  553TMC3    O1 8266   1.484   0.365  14.183 -0.2502 -0.2968 -0.2361
  553TMC3    O2 8267   1.410   0.615  13.913 -0.0464  0.2710 -0.3695
  554TMC3    C1 8268   3.263   0.379  11.924  0.6076  0.6722 -1.0074
  554TMC3    C2 8269   3.189   0.377  11.802  0.5733 -0.0372  0.5841
  554TMC3    C3 8270   3.256   0.420  11.691  0.3576 -0.3113 -0.8541
  554TMC3    C4 8271   3.390   0.430  11.934  0.4101 -0.2677 -0.0183
  554TMC3    C5 8272   3.443   0.478  11.823 -0.0827  0.9341  0.8348
  554TMC3    C6 8273   3.376   0.485  11.703  0.1751 -0.0805 -0.1071
  554TMC3     C 8274   3.214   0.290  12.031  0.1568  0.2175  0.0810
  554TMC3     O 8275   3.109   0.315  12.087 -0.1980 -0.7633  0.6585
  554TMC3     H 8276   3.091   0.332  11.810  1.0740 -1.1293  0.6291
  554TMC3    H1 8277   3.446   0.426  12.026  2.1193 -2.7513 -1.1968
  554TMC3    H2 8278   3.421   0.534  11.617  0.6166  0.7912  0.6262
  554TMC3    C7 8279   3.572   0.545  11.835  0.0998  0.0433  0.4518
  554TMC3    C8 8280   3.184   0.464  11.574 -0.1603  0.0717  0.2555
  554TMC3    O1 8281   3.626   0.536  11.946 -0.1407  0.2807  0.6269
  554TMC3    O2 8282   3.246   0.518  11.489 -0.3499  0.1530 -0.4021
  555TMC3    C1 8283   2.466   4.266  15.497 -0.1620  0.6347  0.5506
  555TMC3    C2 8284   2.469   4.324  15.619 -0.5614  0.1711 -0.0790
  555TMC3    C3 8285   2.525   4.270  15.731  0.2051  0.4502 -0.4560
  555TMC3    C4 8286   2.518   4.137  15.479 -0.5185  0.1006  0.3164
  555TMC3    C5 8287   2.575   4.085  15.596  0.2461 -0.4631  0.0113
  555TMC3    C6 8288   2.579   4.152  15.722  0.3082 -0.1394  0.1177
  555TMC3     C 8289   2.392   4.329  15.386  0.4679 -0.3296  0.5686
  555TMC3     O 8290   2.364   4.257  15.293  1.0704 -0.0554  0.2478
  555TMC3     H 8291   2.434   4.425  15.637  0.9555  0.9487 -1.4991
  555TMC3    H1 8292   2.508   4.088  15.384  1.0618 -1.6292  1.0428
  555TMC3    H2 8293   2.605   4.095  15.810  0.2335 -1.1239 -0.5051
  555TMC3    C7 8294   2.610   3.945  15.590  0.3767 -0.7248  0.0239
  555TMC3    C8 8295   2.525   4.344  15.855  0.4988 -0.1443 -0.2847
  555TMC3    O1 8296   2.600   3.883  15.693  0.2520 -0.0236 -0.8729
  555TMC3    O2 8297   2.443   4.429  15.878 -0.0581 -0.6940 -0.3163
  556MPD2     C 8298   0.672   1.919  10.615 -0.9910  0.1929 -0.1858
  556MPD2    C1 8299   0.672   1.818  10.707 -0.2774 -0.0892  0.0075
  556MPD2    C2 8300   0.706   1.692  10.656 -0.0758  0.3692 -0.9067
  556MPD2    C3 8301   0.743   1.657  10.525  0.3482 -0.3471  0.6283
  556MPD2    C4 8302   0.735   1.763  10.440 -0.7020 -0.6596 -0.0755
  556MPD2    C5 8303   0.695   1.887  10.487 -0.1986 -0.6147  0.4156
  556MPD2     H 8304   0.707   1.618  10.734  0.7056 -0.6252 -1.8692
  556MPD2    H1 8305   0.772   1.763  10.339  3.1944 -1.2917  1.3521
  556MPD2    H2 8306   0.654   2.023  10.639 -0.4291  0.8170 -2.4164
  556MPD2    H3 8307   0.693   1.972  10.420 -1.3443  0.5869  1.9708
  556MPD2     N 8308   0.769   1.523  10.483  0.7251  0.3807  0.1043
  556MPD2    H5 8309   0.759   1.457  10.559  0.8097 -0.8190 -0.9296
  556MPD2    N1 8310   0.639   1.829  10.841  0.3587 -0.1153 -0.0058
  556MPD2    H7 8311   0.636   1.744  10.897  0.5698 -1.3654 -1.9015
  557TMC3    C1 8312   0.762   1.331  10.351  0.6248 -0.0963 -0.0948
  557TMC3    C2 8313   0.691   1.277  10.245 -0.6546 -0.1687  0.3802
  557TMC3    C3 8314   0.652   1.145  10.252  0.1857  0.2770  0.7184
  557TMC3    C4 8315   0.798   1.251  10.456 -0.3982 -0.5653 -0.1808
  557TMC3    C5 8316   0.749   1.120  10.461  0.1641  0.5589  0.0278
  557TMC3    C6 8317   0.672   1.066  10.364 -0.4620 -0.3168 -0.4330
  557TMC3     C 8318   0.786   1.474  10.354 -0.0836 -0.3009  0.3474
  557TMC3     O 8319   0.775   1.540  10.251 -0.0873  0.0264  0.3813
  557TMC3     H 8320   0.657   1.346  10.168 -0.9204  1.1892  1.7173
  557TMC3    H1 8321   0.855   1.306  10.529  0.3245 -2.7687  0.9174
  557TMC3    H2 8322   0.647   0.960  10.366  0.8298 -0.6323 -0.8222
  557TMC3    C7 8323   0.771   1.047  10.581  0.1146 -0.2698 -0.2808
  557TMC3    C8 8324   0.604   1.093  10.130 -0.0618  0.3996 -0.1937
  557TMC3    O1 8325   0.706   0.947  10.585 -0.0805  0.3278 -0.4715
  557TMC3    O2 8326   0.601   1.178  10.042  0.0217  0.0497  0.2102
  558TMC3    C1 8327   2.444   4.155  10.287  0.2492  1.1706 -0.4550
  558TMC3    C2 8328   2.408   4.143  10.416  0.3496  1.1472 -0.3573
  558TMC3    C3 8329   2.273   4.148  10.448 -0.4297  0.4504  0.5708
  558TMC3    C4 8330   2.347   4.151  10.192  0.5441 -0.0627  0.1696
  558TMC3    C5 8331   2.212   4.161  10.228 -0.5982  0.0411  1.0640
  558TMC3    C6 8332   2.175   4.168  10.355  0.2172  0.7562 -0.3081
  558TMC3     C 8333   2.584   4.163  10.247 -0.3410  0.5640 -0.3165
  558TMC3     O 8334   2.667   4.176  10.338 -0.2292  0.2548 -0.0432
  558TMC3     H 8335   2.488   4.126  10.487 -0.3471  0.9349  0.3763
  558TMC3    H1 8336   2.377   4.143  10.088  0.1705 -0.9949  0.1384
  558TMC3    H2 8337   2.073   4.182  10.390  0.5572  0.4649  0.7887
  558TMC3    C7 8338   2.127   4.220  10.131 -0.7198 -0.0557 -0.9047
  558TMC3    C8 8339   2.228   4.115  10.578  0.2714 -0.4887  0.0463
  558TMC3    O1 8340   2.186   4.297  10.054 -0.4664 -0.3527 -0.0590
  558TMC3    O2 8341   2.108   4.103  10.600 -0.3682 -0.7752 -0.3380
  559MPD2     C 8342   2.796   0.406  10.853 -0.1795 -0.5944  0.0332
  559MPD2    C1 8343   2.774   0.321  10.958  0.0608  0.0533  0.5128
  559MPD2    C2 8344   2.871   0.290  11.050 -0.3778  0.2948 -0.3755
  559MPD2    C3 8345   3.009   0.326  11.028  0.7111  0.4014  0.1716
  559MPD2    C4 8346   3.029   0.416  10.927  0.4342  0.0144  0.8433
  559MPD2    C5 8347   2.926   0.451  10.843 -0.4702  0.3375 -0.9943
  559MPD2     H 8348   2.855   0.211  11.123 -2.0140 -0.0563 -1.1315
  559MPD2    H1 8349   3.130   0.450  10.910  0.0281  0.5482 -0.5263
  559MPD2    H2 8350   2.717   0.413  10.780  0.4245  2.1334 -0.3531
  559MPD2    H3 8351   2.938   0.516  10.758 -2.3932  1.1963 -0.6175
  559MPD2     N 8352   3.095   0.286  11.122  0.1301 -0.0044 -1.3211
  559MPD2    H5 8353   3.066   0.213  11.186 -0.6794  1.4802  0.0072
  559MPD2    N1 8354   2.649   0.257  10.977 -0.4356  0.1252 -0.5777
  559MPD2    H7 8355   2.575   0.283  10.913  2.6230  3.1770 -2.9416
  560TMC3    C1 8356   3.305   0.243  11.223 -0.1764 -0.5432  0.6910
  560TMC3    C2 8357   3.272   0.111  11.236  0.0067  0.5571 -0.9885
  560TMC3    C3 8358   3.349   0.028  11.316 -0.5276 -0.4261  0.2388
  560TMC3    C4 8359   3.411   0.299  11.294 -0.3837  0.1928  0.3142
  560TMC3    C5 8360   3.473   0.222  11.385  0.0538 -0.1498  0.5250
  560TMC3    C6 8361   3.435   0.085  11.402  0.2968 -0.6258 -0.9857
  560TMC3     C 8362   3.225   0.327  11.132 -0.1219  0.7950 -0.2306
  560TMC3     O 8363   3.285   0.425  11.091 -0.8826  0.5453  0.0328
  560TMC3     H 8364   3.197   0.067  11.172  1.1454 -2.4404 -0.2424
  560TMC3    H1 8365   3.436   0.405  11.287 -1.4681  0.5348  1.5624
  560TMC3    H2 8366   3.482   0.030  11.483  1.2011  0.4808 -0.7537
  560TMC3    C7 8367   3.578   0.272  11.459  0.5292 -0.0547 -0.1368
  560TMC3    C8 8368   3.292   4.637  11.337  0.4870 -1.2058  0.0064
  560TMC3    O1 8369   3.565   0.383  11.505  0.0276 -0.4740 -0.7925
  560TMC3    O2 8370   3.192   4.608  11.275  0.7164  0.3794  0.0558
  561TMC3    C1 8371   0.833   3.587  11.073  0.4652  0.0745 -0.1025
  561TMC3    C2 8372   0.739   3.491  11.087 -0.3074  0.0416  0.1262
  561TMC3    C3 8373   0.619   3.517  11.150  0.0374  0.4642 -0.1412
  561TMC3    C4 8374   0.808   3.713  11.114  0.1731 -0.4770 -0.0834
  561TMC3    C5 8375   0.683   3.741  11.161  0.1328  0.5519 -0.2440
  561TMC3    C6 8376   0.590   3.641  11.190 -0.0915 -0.1455 -0.3044
  561TMC3     C 8377   0.976   3.540  11.059  0.5163  0.4193  1.0114
  561TMC3     O 8378   0.998   3.449  10.983  0.8074 -0.6477  1.0605
  561TMC3     H 8379   0.758   3.387  11.061  1.5449  0.4578 -0.1992
  561TMC3    H1 8380   0.886   3.787  11.105 -1.6674  1.4728 -0.0791
  561TMC3    H2 8381   0.489   3.666  11.223 -0.0507  0.0986 -0.3608
  561TMC3    C7 8382   0.659   3.872  11.222 -0.2994 -0.4031 -0.1184
  561TMC3    C8 8383   0.556   3.391  11.214 -0.1199 -0.7576 -0.1414
  561TMC3    O1 8384   0.543   3.906  11.232  0.2911 -0.0138  0.0879
  561TMC3    O2 8385   0.601   3.286  11.182 -0.4051  0.3476  0.4862
  562TMC3    C1 8386   2.325   4.722  16.797  0.8391  0.0050  0.6706
  562TMC3    C2 8387   2.315   0.104  16.749 -0.0473 -1.2589  0.3136
  562TMC3    C3 8388   2.349   0.126  16.617  0.0929 -0.3635 -0.0976
  562TMC3    C4 8389   2.374   4.620  16.721  0.0730  0.1348  0.2420
  562TMC3    C5 8390   2.403   4.637  16.590 -0.4420  0.7785  0.1203
  562TMC3    C6 8391   2.386   0.023  16.532 -0.0088 -0.6240  0.1857
  562TMC3     C 8392   2.328   4.717  16.941  0.4478  0.1546  0.1520
  562TMC3     O 8393   2.409   4.638  16.984 -0.7015 -0.3227  0.0223
  562TMC3     H 8394   2.276   0.187  16.808  0.7530  1.2567 -2.7133
  562TMC3    H1 8395   2.386   4.527  16.776  0.0274  0.5065  0.8837
  562TMC3    H2 8396   2.417   0.041  16.430 -0.1063  0.3787  0.3348
  562TMC3    C7 8397   2.368   4.524  16.508  1.1061  0.3797 -0.3121
  562TMC3    C8 8398   2.344   0.261  16.571  0.0110 -0.2030 -0.0302
  562TMC3    O1 8399   2.314   4.549  16.398  0.0905 -0.3313  0.3969
  562TMC3    O2 8400   2.359   0.354  16.653 -0.2635  0.0034  0.2710
  563MPD2     C 8401   0.039   0.997  15.762  0.4449 -0.3440  0.3481
  563MPD2    C1 8402   0.080   0.969  15.890  0.0160 -0.3595 -0.7306
  563MPD2    C2 8403   0.176   0.869  15.898 -0.2247 -0.8774  0.2087
  563MPD2    C3 8404   0.213   0.790  15.794  0.0795  0.3572  0.3409
  563MPD2    C4 8405   0.173   0.819  15.664 -0.3596 -0.1936 -0.0150
  563MPD2    C5 8406   0.088   0.930  15.648 -0.4168 -0.4013  0.1023
  563MPD2     H 8407   0.227   0.847  15.991  0.3875  1.2990  0.3859
  563MPD2    H1 8408   0.178   0.751  15.580 -3.0670 -1.8691  1.1674
  563MPD2    H2 8409   4.691   1.058  15.741  0.4416  0.2229  1.9971
  563MPD2    H3 8410   0.042   0.951  15.552  0.2719 -1.5584 -0.4890
  563MPD2     N 8411   0.307   0.688  15.827 -0.0847  0.9335  1.2366
  563MPD2    H5 8412   0.305   0.664  15.926 -1.2791 -0.0359  0.9762
  563MPD2    N1 8413   0.025   1.038  16.003 -0.6998  0.8638  0.2024
  563MPD2    H7 8414   4.696   1.112  15.986 -2.3659 -0.9705 -1.2443
  564TMC3    C1 8415   4.685   1.056  16.222  0.7232  0.8828  0.6211
  564TMC3    C2 8416   4.563   1.009  16.186 -0.0180  0.4834  0.1811
  564TMC3    C3 8417   4.485   0.940  16.281  0.4872  0.1530  0.5624
  564TMC3    C4 8418   4.728   1.041  16.353  0.0747  0.3525  0.3822
  564TMC3    C5 8419   4.648   0.984  16.444  0.0446 -0.4302  0.0929
  564TMC3    C6 8420   4.524   0.937  16.411 -0.0937  0.3537 -0.6039
  564TMC3     C 8421   0.042   1.008  16.134  0.3937 -0.1959 -0.3324
  564TMC3     O 8422   0.103   0.909  16.181  0.1132  0.4855  0.0677
  564TMC3     H 8423   4.531   1.020  16.083  0.2019  2.6990  0.3485
  564TMC3    H1 8424   0.095   1.047  16.376  0.3194  0.3397 -0.7578
  564TMC3    H2 8425   4.460   0.884  16.481 -1.2315  2.1832 -0.2524
  564TMC3    C7 8426   4.718   0.900  16.539  0.0324  0.1999  0.4940
  564TMC3    C8 8427   4.477   0.804  16.239 -0.3014  0.0825  0.2811
  564TMC3    O1 8428   0.075   0.952  16.595  0.2367 -0.3314  0.4558
  564TMC3    O2 8429   4.478   0.719  16.325  0.0609 -0.2364  0.7247
  565TMC3    C1 8430   0.479   2.812   9.947 -0.8846  0.2028  0.0315
  565TMC3    C2 8431   0.526   2.687   9.926  0.0647 -0.2593 -0.3989
  565TMC3    C3 8432   0.445   2.589   9.979 -0.8800  1.1161  0.1012
  565TMC3    C4 8433   0.361   2.842  10.006  0.1880 -0.3925  0.4000
  565TMC3    C5 8434   0.286   2.741  10.058 -0.2005 -0.2699 -0.0109
  565TMC3    C6 8435   0.331   2.609  10.049 -0.6835  0.2934 -0.1256
  565TMC3     C 8436   0.550   2.920   9.898 -1.0254 -0.0453 -0.1739
  565TMC3     O 8437   0.539   3.027   9.957 -0.2212  0.8776 -0.0482
  565TMC3     H 8438   0.624   2.666   9.884  1.3614  2.5734  1.2435
  565TMC3    H1 8439   0.324   2.944   9.999 -1.1309 -0.9257 -0.3310
  565TMC3    H2 8440   0.271   2.525  10.082  0.4231 -0.6743 -0.5858
  565TMC3    C7 8441   0.184   2.782  10.152 -0.0901 -0.0769 -0.7949
  565TMC3    C8 8442   0.508   2.464   9.969 -0.4646 -0.3767  0.3695
  565TMC3    O1 8443   0.125   2.885  10.123 -0.7461 -0.0377  0.8212
  565TMC3    O2 8444   0.593   2.442   9.885 -0.5870  0.6893 -0.1177
  566MPD2     C 8445   2.011   3.967  14.350 -0.3828  0.3586  0.0123
  566MPD2    C1 8446   1.977   4.058  14.249  0.2184  0.0190 -1.4274
  566MPD2    C2 8447   1.844   4.054  14.200 -0.1027  0.0760  1.3322
  566MPD2    C3 8448   1.748   3.962  14.248  0.0327  0.9846  0.0549
  566MPD2    C4 8449   1.781   3.868  14.355  0.3588  0.4898  0.3337
  566MPD2    C5 8450   1.917   3.868  14.391 -0.5440 -0.6842  0.4750
  566MPD2     H 8451   1.820   4.124  14.122 -0.0310 -1.7858 -0.3722
  566MPD2    H1 8452   1.707   3.800  14.397 -0.6470  1.6234  0.3832
  566MPD2    H2 8453   2.110   3.968  14.394 -0.0636  0.3344 -0.6953
  566MPD2    H3 8454   1.950   3.800  14.469  1.3147 -0.2110  0.0967
  566MPD2     N 8455   1.623   3.931  14.178 -0.3965 -0.0074  0.9990
  566MPD2    H5 8456   1.554   3.874  14.226 -0.7492  0.9815  1.6580
  566MPD2    N1 8457   2.077   4.150  14.202 -0.3260 -0.6892 -0.2372
  566MPD2    H7 8458   2.155   4.159  14.267 -0.2889  0.0735 -0.3864
  567TMC3    C1 8459   2.158   4.333  14.070  0.0843 -0.0181  0.2732
  567TMC3    C2 8460   2.126   4.421  13.973  0.4441 -0.5740 -0.3786
  567TMC3    C3 8461   2.186   4.542  13.972 -0.0941  0.1880 -0.2318
  567TMC3    C4 8462   2.248   4.358  14.174 -1.0198  0.6949  0.1293
  567TMC3    C5 8463   2.299   4.484  14.171  0.0228  0.1670  0.2286
  567TMC3    C6 8464   2.265   4.578  14.078 -0.4363  0.2469 -0.5142
  567TMC3     C 8465   2.061   4.233  14.087 -0.5960  0.7166  0.5775
  567TMC3     O 8466   1.981   4.221  13.995  0.6787  0.4301 -0.2141
  567TMC3     H 8467   2.064   4.395  13.888  1.2715  1.1554 -1.5162
  567TMC3    H1 8468   2.291   4.275  14.229 -0.9011  0.3776 -0.4320
  567TMC3    H2 8469   2.304   4.679  14.082 -2.8085  1.0232  2.5034
  567TMC3    C7 8470   2.387   4.519  14.280  0.4397  0.2331 -0.7429
  567TMC3    C8 8471   2.135   4.642  13.879 -0.1185  0.5353 -0.2072
  567TMC3    O1 8472   2.454   4.623  14.277 -0.1949  0.0613  0.0818
  567TMC3    O2 8473   2.049   4.597  13.805 -0.2358  0.1211  0.2796
  568MPD2     C 8474   4.258   4.056  16.256 -0.1993  0.0104 -0.6143
  568MPD2    C1 8475   4.313   4.103  16.372  0.1859  0.0280 -0.3809
  568MPD2    C2 8476   4.372   4.229  16.375  1.0184 -0.2180 -0.5494
  568MPD2    C3 8477   4.346   4.314  16.269 -0.5256 -0.1461  0.7114
  568MPD2    C4 8478   4.293   4.275  16.149 -0.3435  0.4813  0.2742
  568MPD2    C5 8479   4.253   4.145  16.145  0.1208  0.2782  0.3534
  568MPD2     H 8480   4.433   4.265  16.458  0.4490 -0.1762 -0.1539
  568MPD2    H1 8481   4.269   4.337  16.064  2.8425  1.2361 -0.0627
  568MPD2    H2 8482   4.229   3.952  16.248  0.3234 -0.2874  1.2830
  568MPD2    H3 8483   4.204   4.115  16.053  0.5261 -0.7436  0.4762
  568MPD2     N 8484   4.404   4.450  16.279 -0.6266  0.1076  0.4781
  568MPD2    H5 8485   4.428   4.483  16.372 -1.2043  2.5619 -0.2394
  568MPD2    N1 8486   4.335   4.002  16.473 -0.3056 -0.1247  0.0798
  568MPD2    H7 8487   4.317   3.905  16.448  2.4528 -1.0624  1.7766
  569TMC3    C1 8488   4.465   4.662  16.225  0.6353 -0.9111 -0.6467
  569TMC3    C2 8489   4.413   4.704  16.341 -0.1236  0.2109 -0.0739
  569TMC3    C3 8490   4.468   0.076  16.392 -0.0259  0.1693  0.2507
  569TMC3    C4 8491   4.570   4.720  16.161  0.1628 -0.2049 -0.6902
  569TMC3    C5 8492   4.608   0.106  16.205  1.4116 -1.1048 -0.6799
  569TMC3    C6 8493   4.562   0.152  16.324 -0.4550 -0.5499  0.1478
  569TMC3     C 8494   4.417   4.539  16.180 -0.8553  0.2564 -0.3957
  569TMC3     O 8495   4.397   4.528  16.058 -0.6209  0.0343  0.2378
  569TMC3     H 8496   4.324   4.667  16.391  1.7080 -3.0904  0.7778
  569TMC3    H1 8497   4.607   4.683  16.066  3.2070  1.4523 -0.1444
  569TMC3    H2 8498   4.580   0.250  16.365 -0.1022 -0.2724 -0.6679
  569TMC3    C7 8499   4.665   0.186  16.104  0.2791  0.1490 -0.7409
  569TMC3    C8 8500   4.396   0.141  16.497 -0.1347 -0.2729 -0.3114
  569TMC3    O1 8501   4.702   0.145  15.996  0.6989 -0.0708 -0.0295
  569TMC3    O2 8502   4.278   0.146  16.480  0.2993  0.5222 -0.7842
  570TMC3    C1 8503   3.807   3.116  16.078  0.5369 -0.1919  0.9059
  570TMC3    C2 8504   3.871   3.130  15.956  0.0830  0.2000  0.2728
  570TMC3    C3 8505   3.928   3.255  15.933  0.2210  0.1869  0.0902
  570TMC3    C4 8506   3.783   3.221  16.166 -0.1397  0.2024  0.3968
  570TMC3    C5 8507   3.846   3.337  16.142 -0.5837  0.5819  0.2854
  570TMC3    C6 8508   3.927   3.357  16.029  0.0717  0.2825  0.5077
  570TMC3     C 8509   3.751   2.983  16.100  0.0882  0.7437  0.3843
  570TMC3     O 8510   3.761   2.899  16.014  0.3849 -0.0151  0.1947
  570TMC3     H 8511   3.865   3.053  15.880 -0.3437  1.5743 -1.0986
  570TMC3    H1 8512   3.730   3.208  16.259 -1.5050  1.2543 -0.2408
  570TMC3    H2 8513   3.995   3.440  16.018 -0.2691  0.4878 -0.0372
  570TMC3    C7 8514   3.819   3.458  16.225 -0.1719  0.0893  0.3021
  570TMC3    C8 8515   4.012   3.279  15.817  0.0684 -0.0931  0.4415
  570TMC3    O1 8516   3.770   3.438  16.335  0.2973 -0.2828 -0.6625
  570TMC3    O2 8517   4.101   3.361  15.845  0.1241  0.2505  0.2490
  571MPD2     C 8518   1.144   1.131   1.239 -0.1204 -0.3285 -1.0661
  571MPD2    C1 8519   1.121   1.005   1.181  0.4400 -0.0197  0.4502
  571MPD2    C2 8520   1.234   0.947   1.119 -0.1608 -0.1868  0.1209
  571MPD2    C3 8521   1.357   1.014   1.102 -0.2983 -0.1087 -0.2499
  571MPD2    C4 8522   1.371   1.143   1.159 -0.6369  0.0657  0.2996
  571MPD2    C5 8523   1.266   1.192   1.235  0.1010 -0.1047 -0.8470
  571MPD2     H 8524   1.232   0.844   1.086  1.4739 -0.2460  0.2091
  571MPD2    H1 8525   1.460   1.204   1.159  0.4351 -1.5035 -0.6243
  571MPD2    H2 8526   1.061   1.175   1.292 -0.8147 -1.4262 -1.2466
  571MPD2    H3 8527   1.273   1.287   1.286 -1.5155 -0.7602  0.5923
  571MPD2     N 8528   1.465   0.977   1.022 -0.3336 -0.0665 -0.1184
  571MPD2    H5 8529   1.536   1.047   1.006 -0.6800  0.8989  2.6170
  571MPD2    N1 8530   0.996   0.938   1.206  0.4044  0.3078 -0.1614
  571MPD2    H7 8531   0.917   0.991   1.243  0.1412  1.7178 -2.7930
  572TMC3    C1 8532   1.594   0.839   0.875  0.0541  0.4581 -0.3777
  572TMC3    C2 8533   1.626   0.706   0.858 -0.5638 -0.1586 -0.4876
  572TMC3    C3 8534   1.710   0.687   0.754 -0.3304 -0.2368 -0.9366
  572TMC3    C4 8535   1.621   0.938   0.790 -0.3327  0.0764 -0.4693
  572TMC3    C5 8536   1.710   0.908   0.693  0.0157 -0.3124 -0.8438
  572TMC3    C6 8537   1.753   0.781   0.664  0.0327 -0.1208  0.1520
  572TMC3     C 8538   1.479   0.856   0.966  0.6248  0.8841 -0.2490
  572TMC3     O 8539   1.418   0.754   0.987  0.2812  0.3396  0.1315
  572TMC3     H 8540   1.629   0.638   0.943 -1.7491  2.0919  1.3442
  572TMC3    H1 8541   1.596   1.041   0.812  0.0999  0.2956 -0.9699
  572TMC3    H2 8542   1.803   0.753   0.571  0.7837 -0.8081  0.7641
  572TMC3    C7 8543   1.737   1.017   0.604  0.3070  0.1024  0.0796
  572TMC3    C8 8544   1.751   0.548   0.727 -0.8954  0.0340  0.3248
  572TMC3    O1 8545   1.664   1.114   0.614  0.1164  0.4766 -0.5690
  572TMC3    O2 8546   1.822   0.526   0.630 -0.0883 -0.5846  0.9397
  573MPD2     C 8547   2.612   0.793   0.566  0.4494  0.0191  0.2345
  573MPD2    C1 8548   2.665   0.894   0.489  0.7396 -0.2428  0.0030
  573MPD2    C2 8549   2.649   0.886   0.350 -0.3254 -0.1357 -0.0311
  573MPD2    C3 8550   2.590   0.781   0.290 -0.2104  0.5289  0.4518
  573MPD2    C4 8551   2.547   0.673   0.370 -1.2961 -0.0057 -0.4550
  573MPD2    C5 8552   2.556   0.683   0.508 -0.3483 -0.1449  0.1662
  573MPD2     H 8553   2.686   0.971   0.293  1.9968 -0.2320  1.3140
  573MPD2    H1 8554   2.504   0.582   0.330 -0.5273 -0.2004 -0.8299
  573MPD2    H2 8555   2.631   0.793   0.673  3.1236 -1.0036 -0.2471
  573MPD2    H3 8556   2.519   0.605   0.574  2.5654 -1.9796 -0.3526
  573MPD2     N 8557   2.588   0.765   0.146  0.0721  0.0634 -0.3737
  573MPD2    H5 8558   2.529   0.687   0.119  0.7432 -0.5823  0.0213
  573MPD2    N1 8559   2.731   0.991   0.564 -0.3538  0.2114 -0.0886
  573MPD2    H7 8560   2.733   0.989   0.666 -0.5471 -0.0816 -0.0941
  574TMC3    C1 8561   2.629   0.792  17.661  0.0368  0.2766 -0.1534
  574TMC3    C2 8562   2.506   0.752  17.627 -0.0171 -0.3806  0.3617
  574TMC3    C3 8563   2.478   0.744  17.491 -0.2223  0.4930  0.7860
  574TMC3    C4 8564   2.721   0.818  17.576 -0.3716 -0.8567 -0.5397
  574TMC3    C5 8565   2.692   0.799  17.443  0.6839  0.3834 -0.3260
  574TMC3    C6 8566   2.573   0.761  17.398 -0.5974  0.2763  0.2093
  574TMC3     C 8567   2.656   0.831   0.051 -0.0684  0.8656  0.0277
  574TMC3     O 8568   2.745   0.916   0.057 -0.1989  0.2583 -0.2725
  574TMC3     H 8569   2.424   0.754  17.698  0.2364  2.5966  0.5405
  574TMC3    H1 8570   2.812   0.867  17.609  0.0790 -1.6952 -0.5454
  574TMC3    H2 8571   2.546   0.753  17.294  0.6627  0.3324 -0.1140
  574TMC3    C7 8572   2.773   0.884  17.349 -0.3634  0.9690  0.4191
  574TMC3    C8 8573   2.338   0.773  17.453  0.6690 -0.0915  0.1593
  574TMC3    O1 8574   2.846   0.960  17.415  0.2251 -0.3712 -0.2177
  574TMC3    O2 8575   2.242   0.748  17.527 -0.2259 -0.1063 -0.1832
  575TMC3    C1 8576   0.226   1.838  10.719  0.1579  0.3199 -0.8298
  575TMC3    C2 8577   0.190   1.715  10.671 -0.5652 -0.2783  0.1879
  575TMC3    C3 8578   0.201   1.697  10.531 -0.5818  0.4998 -0.0363
  575TMC3    C4 8579   0.295   1.922  10.637  0.7925  0.4081 -0.6974
  575TMC3    C5 8580   0.313   1.891  10.502  0.3702 -0.1840  0.6328
  575TMC3    C6 8581   0.258   1.787  10.441  0.7927  0.2358 -0.0381
  575TMC3     C 8582   0.223   1.849  10.866 -0.1995  0.0254 -0.5593
  575TMC3     O 8583   0.235   1.748  10.933  0.5774  0.1011  0.4615
  575TMC3     H 8584   0.136   1.652  10.740 -0.7256  1.4839  1.6779
  575TMC3    H1 8585   0.332   2.016  10.677 -1.9557  1.9328 -1.6781
  575TMC3    H2 8586   0.289   1.754  10.342  0.5008 -0.1043 -0.0151
  575TMC3    C7 8587   0.363   1.995  10.419 -0.1122  0.0275  0.0230
  575TMC3    C8 8588   0.144   1.581  10.470  0.3892 -0.1180  0.1250
  575TMC3    O1 8589   0.325   2.108  10.453 -0.4885  0.2256  0.6632
  575TMC3    O2 8590   0.144   1.579  10.349 -0.4969 -0.0356  0.2682
  576MPD2     C 8591   0.590   3.879  12.303 -0.1100 -0.0546  0.6876
  576MPD2    C1 8592   0.468   3.855  12.357 -0.1664 -0.7928  0.0469
  576MPD2    C2 8593   0.421   3.929  12.465  0.4462  0.5661  0.5426
  576MPD2    C3 8594   0.499   4.035  12.502 -0.5996  0.1632 -0.1448
  576MPD2    C4 8595   0.626   4.058  12.455 -0.5870  0.8845 -0.0358
  576MPD2    C5 8596   0.675   3.974  12.357  0.3221  0.0116  0.4099
  576MPD2     H 8597   0.321   3.907  12.501  0.2461 -0.8030 -0.8257
  576MPD2    H1 8598   0.673   4.146  12.497 -0.7289  0.2918  1.3614
  576MPD2    H2 8599   0.634   3.813  12.229  0.2511  0.7242  0.2069
  576MPD2    H3 8600   0.775   3.992  12.318  0.4665 -1.2813  0.1985
  576MPD2     N 8601   0.436   4.118  12.603  0.4297  0.3147  0.5852
  576MPD2    H5 8602   0.354   4.071  12.641 -0.1709  0.2489 -0.7838
  576MPD2    N1 8603   0.391   3.743  12.313  0.4633  0.1597  0.1368
  576MPD2    H7 8604   0.295   3.730  12.343 -0.2215  0.4018 -1.9222
  577TMC3    C1 8605   0.314   3.567  12.191 -0.3169  0.7103 -0.2535
  577TMC3    C2 8606   0.350   3.468  12.100  0.2993  0.5523 -0.1117
  577TMC3    C3 8607   0.279   3.438  11.985 -0.2614  0.7379  0.2426
  577TMC3    C4 8608   0.198   3.638  12.159 -0.9642  0.1954 -0.8341
  577TMC3    C5 8609   0.126   3.602  12.053  0.5326  0.5017 -0.4795
  577TMC3    C6 8610   0.158   3.505  11.957  0.3254 -0.2030 -0.1868
  577TMC3     C 8611   0.426   3.656  12.215 -0.6062 -0.1812 -0.5807
  577TMC3     O 8612   0.519   3.642  12.137  0.1603  0.5411 -0.2385
  577TMC3     H 8613   0.448   3.423  12.107  0.3050  0.6907  0.7800
  577TMC3    H1 8614   0.163   3.721  12.219 -0.5617 -0.4483  0.3107
  577TMC3    H2 8615   0.085   3.470  11.885  0.5329 -0.1894 -0.4013
  577TMC3    C7 8616   4.736   3.669  12.052 -0.5271  0.0520 -0.1599
  577TMC3    C8 8617   0.338   3.350  11.885 -0.5757  0.6747 -0.4392
  577TMC3    O1 8618   4.676   3.674  12.157  0.7164 -0.5831 -0.0419
  577TMC3    O2 8619   0.409   3.253  11.916  0.3571 -0.3564 -0.4494
  578MPD2     C 8620   2.902   3.267   1.316  0.1536  0.1007 -0.2575
  578MPD2    C1 8621   2.949   3.231   1.192  0.1480 -0.3722 -0.2532
  578MPD2    C2 8622   3.071   3.169   1.183  0.2193 -0.5845  0.6170
  578MPD2    C3 8623   3.136   3.127   1.299  0.2402  0.1846 -0.4361
  578MPD2    C4 8624   3.088   3.164   1.421  0.1840  0.8774 -0.1967
  578MPD2    C5 8625   2.970   3.233   1.431 -0.4229 -0.3537 -0.1204
  578MPD2     H 8626   3.111   3.152   1.084 -0.9956 -1.4762  0.2810
  578MPD2    H1 8627   3.145   3.144   1.511  1.9623  0.2447 -1.4753
  578MPD2    H2 8628   2.813   3.326   1.332 -0.2789 -0.6359  0.0164
  578MPD2    H3 8629   2.948   3.269   1.531 -1.8463 -3.0661  0.5213
  578MPD2     N 8630   3.270   3.080   1.276 -0.0691  0.1037 -0.4381
  578MPD2    H5 8631   3.311   3.060   1.185 -0.5281 -2.2466 -0.1198
  578MPD2    N1 8632   2.873   3.266   1.079 -0.1900  0.2171 -0.3278
  578MPD2    H7 8633   2.790   3.316   1.109  0.7222  0.0175  2.5541
  579TMC3    C1 8634   3.485   3.018   1.331 -0.5620 -0.3015 -0.0657
  579TMC3    C2 8635   3.594   3.081   1.380 -0.0609  0.5792 -0.5415
  579TMC3    C3 8636   3.716   3.071   1.311  0.1225 -0.6407 -0.1316
  579TMC3    C4 8637   3.486   2.939   1.222  0.3278 -0.0419  0.4952
  579TMC3    C5 8638   3.614   2.924   1.161  0.2314  0.7149 -0.3759
  579TMC3    C6 8639   3.725   2.985   1.206 -0.7616 -0.4776  0.3023
  579TMC3     C 8640   3.358   3.059   1.382  0.1393  0.0763 -0.0066
  579TMC3     O 8641   3.348   3.086   1.499  0.1685  0.5387 -0.2993
  579TMC3     H 8642   3.589   3.139   1.471 -1.7037 -0.5335  0.0810
  579TMC3    H1 8643   3.402   2.874   1.201  1.9044 -2.1503  0.6713
  579TMC3    H2 8644   3.818   2.972   1.152  0.7014 -1.5612  3.0923
  579TMC3    C7 8645   3.627   2.834   1.055  0.0068 -0.3656 -1.1005
  579TMC3    C8 8646   3.828   3.137   1.364  0.0096  0.6522 -0.2183
  579TMC3    O1 8647   3.744   2.797   1.031 -0.0574 -0.2353 -0.8014
  579TMC3    O2 8648   3.832   3.184   1.476  0.0493  0.4514 -0.1895
  580TMC3    C1 8649   2.525   3.216  12.281  0.4891  0.2332  0.1738
  580TMC3    C2 8650   2.608   3.278  12.186 -0.2562 -0.1276  0.2479
  580TMC3    C3 8651   2.734   3.223  12.182  0.0338 -0.1927 -1.5671
  580TMC3    C4 8652   2.564   3.120  12.369  0.2421  0.1174  0.1710
  580TMC3    C5 8653   2.692   3.073  12.364  0.2027  0.5065  0.4455
  580TMC3    C6 8654   2.778   3.119  12.262  0.3924 -0.4577  0.5822
  580TMC3     C 8655   2.386   3.238  12.276  0.5269 -0.1806 -0.0023
  580TMC3     O 8656   2.314   3.204  12.369  0.0016  0.1475 -0.5951
  580TMC3     H 8657   2.588   3.369  12.131 -0.3227  0.1980  0.8173
  580TMC3    H1 8658   2.502   3.081  12.450 -1.2009  1.5326 -0.2548
  580TMC3    H2 8659   2.880   3.085  12.250  0.2790 -1.1764  1.7028
  580TMC3    C7 8660   2.728   2.953  12.428 -0.3954 -1.3170  0.6051
  580TMC3    C8 8661   2.839   3.270  12.090 -0.2325 -0.3915 -0.2996
  580TMC3    O1 8662   2.848   2.930  12.421  0.4500 -0.1319 -0.3622
  580TMC3    O2 8663   2.950   3.246  12.130  0.3334 -0.6106  0.1358
  581MPD2     C 8664   0.670   2.028  14.821  0.0814  0.7530 -0.0666
  581MPD2    C1 8665   0.557   1.978  14.891 -0.0698 -0.8476 -0.4274
  581MPD2    C2 8666   0.430   2.037  14.862  0.2671 -0.0938 -0.3744
  581MPD2    C3 8667   0.419   2.134  14.768 -0.1232 -0.3914  0.6703
  581MPD2    C4 8668   0.528   2.182  14.699 -0.1466  0.4645 -0.1061
  581MPD2    C5 8669   0.653   2.126  14.725  0.1395  0.4382  0.3063
  581MPD2     H 8670   0.342   2.010  14.919  0.1414 -1.0643 -1.0230
  581MPD2    H1 8671   0.517   2.269  14.634  0.9417  0.0852 -0.7979
  581MPD2    H2 8672   0.769   2.000  14.855 -0.2092  0.0311  0.1873
  581MPD2    H3 8673   0.739   2.165  14.672 -0.2265 -1.0085 -1.3463
  581MPD2     N 8674   0.284   2.189  14.758  0.4504 -0.0454  0.9520
  581MPD2    H5 8675   0.205   2.162  14.816 -0.2269  2.4572  1.1529
  581MPD2    N1 8676   0.571   1.888  14.993  0.8438 -0.6577  0.4918
  581MPD2    H7 8677   0.483   1.851  15.028 -0.3630  1.3189 -0.4344
  582TMC3    C1 8678   0.664   1.750  15.158  0.2137 -0.1177  0.7028
  582TMC3    C2 8679   0.738   1.768  15.265 -0.9359 -0.1579 -0.0594
  582TMC3    C3 8680   0.671   1.755  15.384 -0.0731 -0.7382  0.1031
  582TMC3    C4 8681   0.543   1.688  15.160 -0.7634 -0.1986  0.1785
  582TMC3    C5 8682   0.484   1.662  15.283  0.6288  0.5703  0.1893
  582TMC3    C6 8683   0.545   1.699  15.402 -0.0518  0.7400 -0.4832
  582TMC3     C 8684   0.692   1.842  15.048  0.2873  0.2736 -0.0125
  582TMC3     O 8685   0.800   1.901  15.046  0.3382  0.3506  0.0151
  582TMC3     H 8686   0.840   1.804  15.254 -0.2637 -2.1191 -0.3164
  582TMC3    H1 8687   0.490   1.655  15.071  0.5071 -3.0720  0.4873
  582TMC3    H2 8688   0.501   1.706  15.500  1.1029 -1.8932  0.2066
  582TMC3    C7 8689   0.355   1.727  15.290 -0.3091 -0.1986 -0.1392
  582TMC3    C8 8690   0.709   1.855  15.486 -0.4295 -0.1656  0.3571
  582TMC3    O1 8691   0.265   1.676  15.222 -0.1569  0.3029 -0.0864
  582TMC3    O2 8692   0.607   1.914  15.526  0.6648 -0.0572 -0.3148
  583MPD2     C 8693   0.919   3.777  16.786  0.9672 -0.4935  0.2475
  583MPD2    C1 8694   1.019   3.869  16.797  0.2394  0.8494 -0.5646
  583MPD2    C2 8695   1.009   3.969  16.897 -0.3544  0.3909  0.2800
  583MPD2    C3 8696   0.904   3.973  16.988 -0.2881 -0.2906  0.2431
  583MPD2    C4 8697   0.796   3.880  16.968  0.6659  0.2804  0.6874
  583MPD2    C5 8698   0.805   3.788  16.867  1.3007  0.4321  0.5735
  583MPD2     H 8699   1.092   4.039  16.905 -0.0554  0.1161 -0.4000
  583MPD2    H1 8700   0.704   3.884  17.025  1.0798  0.4036  1.3406
  583MPD2    H2 8701   0.917   3.699  16.711 -2.4623 -0.2013  0.0124
  583MPD2    H3 8702   0.719   3.726  16.848  1.0279  0.1509  2.7315
  583MPD2     N 8703   0.906   4.071  17.086  0.4681 -0.1994 -0.2748
  583MPD2    H5 8704   0.989   4.128  17.094  1.1235 -1.0534 -0.9373
  583MPD2    N1 8705   1.120   3.873  16.703  0.3564 -0.2162  0.2641
  583MPD2    H7 8706   1.171   3.960  16.701 -0.0151 -0.0336 -2.1587
  584TMC3    C1 8707   0.856   4.179  17.283  0.4668 -0.0392 -0.0144
  584TMC3    C2 8708   0.854   4.307  17.234 -0.0622 -0.1762 -0.4385
  584TMC3    C3 8709   0.788   4.398  17.305  0.6541 -0.1949 -0.2717
  584TMC3    C4 8710   0.809   4.154  17.408 -0.2738  0.6111 -0.0790
  584TMC3    C5 8711   0.752   4.259  17.480  0.3201 -0.4308 -0.7402
  584TMC3    C6 8712   0.728   4.383  17.424  0.6805  0.6322  0.1228
  584TMC3     C 8713   0.819   4.075  17.189  1.2054 -0.0882  0.2246
  584TMC3     O 8714   0.753   3.984  17.233 -0.5292  0.0853  0.1828
  584TMC3     H 8715   0.895   4.340  17.139  1.5429 -1.2230 -0.1103
  584TMC3    H1 8716   0.813   4.053  17.446  1.1186  1.4922  2.1379
  584TMC3    H2 8717   0.660   4.454  17.469 -1.5531 -0.3269 -1.7247
  584TMC3    C7 8718   0.687   4.228  17.604  0.5548 -0.7195 -0.4121
  584TMC3    C8 8719   0.787   4.528  17.244  0.2995 -0.6944  0.6656
  584TMC3    O1 8720   0.686   4.110  17.637 -0.1531 -0.0969  0.2511
  584TMC3    O2 8721   0.776   4.532  17.125 -0.2864 -0.1003  0.0857
  585MPD2     C 8722   4.330   3.202  17.645  0.1187  0.0567 -0.2103
  585MPD2    C1 8723   4.438   3.250  17.570  0.2463 -0.2371 -0.2516
  585MPD2    C2 8724   4.498   3.160  17.482  0.0728 -0.3022  0.7040
  585MPD2    C3 8725   4.464   3.020  17.482 -0.2568 -0.0111  0.4565
  585MPD2    C4 8726   4.358   2.983  17.558 -0.3660  0.3006 -0.0418
  585MPD2    C5 8727   4.288   3.072  17.633 -0.0437  0.1973 -0.1217
  585MPD2     H 8728   4.575   3.197  17.414  1.0981 -2.1710  0.8426
  585MPD2    H1 8729   4.328   2.878  17.562  0.1348  0.1057 -1.3699
  585MPD2    H2 8730   4.266   3.267  17.703  0.1869 -2.2038  2.3742
  585MPD2    H3 8731   4.206   3.038  17.695 -0.2457 -0.4010 -0.7097
  585MPD2     N 8732   4.525   2.915  17.407 -0.5528  0.4290  0.2075
  585MPD2    H5 8733   4.474   2.827  17.407 -3.2765  2.0117 -2.1906
  585MPD2    N1 8734   4.469   3.385  17.583 -0.7080  0.7399  0.3580
  585MPD2    H7 8735   4.417   3.449  17.642 -1.3402  0.6210 -0.0670
  586TMC3    C1 8736   4.657   2.811  17.262 -0.1575 -0.3057  0.0871
  586TMC3    C2 8737   0.047   2.758  17.250  0.3078 -0.3098 -0.1010
  586TMC3    C3 8738   0.054   2.654  17.168 -0.0118  0.4120 -0.7251
  586TMC3    C4 8739   4.549   2.771  17.186  0.2654  0.3460  1.0081
  586TMC3    C5 8740   4.570   2.671  17.094  0.0013  0.4300  0.1623
  586TMC3    C6 8741   4.694   2.602  17.092  1.1334 -0.0421  0.0947
  586TMC3     C 8742   4.634   2.937  17.323  0.4375 -0.2173  0.0164
  586TMC3     O 8743   4.710   3.032  17.304 -0.4176 -0.3376  0.1999
  586TMC3     H 8744   0.132   2.800  17.302 -0.1171  1.0980 -0.5232
  586TMC3    H1 8745   4.456   2.825  17.193  1.6388  2.9252 -0.7814
  586TMC3    H2 8746   4.719   2.523  17.022  0.4080 -1.8058  1.8015
  586TMC3    C7 8747   4.451   2.605  17.048  0.3061  0.2493 -0.4953
  586TMC3    C8 8748   0.178   2.585  17.137  0.2595  0.5091  0.7037
  586TMC3    O1 8749   4.346   2.631  17.104  0.1775  0.3486  0.2152
  586TMC3    O2 8750   0.206   2.518  17.237  0.0636  0.5730  0.5025
  587TMC3    C1 8751   2.397   1.302  16.620  0.2776 -0.6242 -0.7074
  587TMC3    C2 8752   2.365   1.426  16.571  0.3029 -1.2345 -0.2768
  587TMC3    C3 8753   2.472   1.511  16.548  0.2866  0.5017  0.1654
  587TMC3    C4 8754   2.527   1.270  16.655 -0.4247  0.1458 -0.5220
  587TMC3    C5 8755   2.631   1.361  16.632  0.4595 -0.0294 -0.2082
  587TMC3    C6 8756   2.606   1.479  16.571  0.5758 -0.1216  0.6141
  587TMC3     C 8757   2.290   1.235  16.692 -0.2020  0.3345  0.0727
  587TMC3     O 8758   2.313   1.189  16.805 -0.5319  0.1724 -0.1980
  587TMC3     H 8759   2.269   1.473  16.554  2.2337  2.1295 -1.8922
  587TMC3    H1 8760   2.540   1.172  16.699 -0.4696 -0.4716 -1.8966
  587TMC3    H2 8761   2.675   1.556  16.537  1.4573 -1.6454 -1.0197
  587TMC3    C7 8762   2.765   1.332  16.669  0.4843  0.7470 -0.1890
  587TMC3    C8 8763   2.447   1.639  16.493  0.8101  0.9961  0.2927
  587TMC3    O1 8764   2.772   1.227  16.728 -0.0406  0.3253  0.2435
  587TMC3    O2 8765   2.511   1.673  16.394 -0.1269  0.0474 -0.2421
  588TMC3    C1 8766   4.618   4.597  10.299  0.0225 -0.4576 -0.7239
  588TMC3    C2 8767   4.524   4.500  10.315  0.0490 -0.4593  0.2619
  588TMC3    C3 8768   4.542   4.408  10.415  0.2920 -0.1462  0.1251
  588TMC3    C4 8769   4.711   4.623  10.396  0.3189 -0.4206  0.5912
  588TMC3    C5 8770   4.721   4.534  10.498  0.1808 -0.2264  0.1061
  588TMC3    C6 8771   4.639   4.425  10.511  0.2950 -0.1000  0.6859
  588TMC3     C 8772   4.600   4.687  10.190  0.0050 -0.5627  0.6151
  588TMC3     O 8773   4.577   4.636  10.083  0.2561  0.3849  0.3477
  588TMC3     H 8774   4.441   4.504  10.245 -0.3829  1.2367  0.8787
  588TMC3    H1 8775   0.041   4.706  10.381 -0.1714 -0.2384 -0.6612
  588TMC3    H2 8776   4.653   4.360  10.596  1.0331 -0.5199  0.2482
  588TMC3    C7 8777   0.032   4.589  10.621  0.3418  0.7214 -0.4967
  588TMC3    C8 8778   4.457   4.293  10.416 -0.0368 -0.4312 -0.2016
  588TMC3    O1 8779   4.690   4.578  10.713  0.0204 -0.1893  0.1749
  588TMC3    O2 8780   4.357   4.298  10.349  0.0721  0.1235 -0.5594
  589TMC3    C1 8781   4.079   1.551   1.111  0.0162  0.6413  0.0391
  589TMC3    C2 8782   4.206   1.514   1.149  0.2982  0.4650  0.1812
  589TMC3    C3 8783   4.246   1.386   1.127  0.2191 -0.7837  0.3491
  589TMC3    C4 8784   3.993   1.451   1.059 -0.2767  0.1191  1.2118
  589TMC3    C5 8785   4.037   1.322   1.039  0.1836 -0.3711  0.3376
  589TMC3    C6 8786   4.166   1.289   1.072 -0.2035 -0.1945 -0.2921
  589TMC3     C 8787   4.023   1.678   1.156  0.6126  0.6068 -0.0971
  589TMC3     O 8788   3.902   1.672   1.157  0.0426  0.4112  0.4179
  589TMC3     H 8789   4.256   1.585   1.214  0.3187  0.7253 -0.1204
  589TMC3    H1 8790   3.890   1.481   1.044 -0.1064  0.7870  1.3672
  589TMC3    H2 8791   4.218   1.198   1.043  2.1713  1.6698 -1.9046
  589TMC3    C7 8792   3.949   1.224   0.981  0.0642  0.1554 -0.5700
  589TMC3    C8 8793   4.378   1.340   1.175 -0.1878 -0.3947  0.5687
  589TMC3    O1 8794   3.851   1.268   0.923 -0.0877  0.1034  0.4371
  589TMC3    O2 8795   4.393   1.217   1.173 -0.5986 -0.4686 -0.0895
  590MPD2     C 8796   3.348   4.555  16.904  0.2696 -0.0658  0.3972
  590MPD2    C1 8797   3.323   4.649  16.803 -0.0475  0.0098 -0.0353
  590MPD2    C2 8798   3.439   4.703  16.737 -0.0425  0.0646 -0.0720
  590MPD2    C3 8799   3.566   4.671  16.773 -0.4367  0.2323 -0.2832
  590MPD2    C4 8800   3.584   4.581  16.874  0.7989  0.3843 -0.2307
  590MPD2    C5 8801   3.474   4.525  16.939 -0.6481 -0.2062 -0.4163
  590MPD2     H 8802   3.437   0.034  16.654  0.5853  1.0697  0.7729
  590MPD2    H1 8803   3.683   4.556  16.912  0.9244  1.4814  0.1599
  590MPD2    H2 8804   3.275   4.514  16.973  0.9696 -0.1359  1.1017
  590MPD2    H3 8805   3.477   4.471  17.033  2.1369  0.7294  0.0564
  590MPD2     N 8806   3.665   0.003  16.713 -0.1351 -0.2063 -0.8776
  590MPD2    H5 8807   3.633   0.077  16.652  2.3027  0.9092 -0.7844
  590MPD2    N1 8808   3.190   4.682  16.766  0.8290  0.4740  0.2584
  590MPD2    H7 8809   3.116   4.647  16.826  0.0285 -1.2873 -1.7369
  591TMC3    C1 8810   3.867   0.043  16.609  0.4264  0.3211 -0.1663
  591TMC3    C2 8811   3.930   4.722  16.506  0.0039 -0.4567  0.0957
  591TMC3    C3 8812   3.943   0.058  16.392 -0.2590 -0.1251  0.2735
  591TMC3    C4 8813   3.830   0.172  16.605  0.1677 -0.4502  0.1536
  591TMC3    C5 8814   3.850   0.244  16.486  0.1883  0.2032  0.0082
  591TMC3    C6 8815   3.918   0.192  16.383  0.8657  0.0049  0.4926
  591TMC3     C 8816   3.796   4.701  16.709 -0.4105  0.2976 -0.3083
  591TMC3     O 8817   3.845   4.593  16.736 -0.1129 -0.6595  0.2690
  591TMC3     H 8818   3.949   4.616  16.504 -3.9979 -1.1451 -0.8636
  591TMC3    H1 8819   3.798   0.229  16.692 -0.5813 -1.2466  0.3887
  591TMC3    H2 8820   3.932   0.245  16.290  0.5064 -1.2023 -0.2498
  591TMC3    C7 8821   3.877   0.383  16.508  0.1328 -0.3654 -0.7475
  591TMC3    C8 8822   4.004   4.728  16.278 -0.2063 -0.3506 -0.4663
  591TMC3    O1 8823   3.924   0.407  16.620 -0.6260 -0.9377  0.0320
  591TMC3    O2 8824   4.099   4.651  16.297 -0.4328  0.0420 -0.6117
  592MPD2     C 8825   3.722   2.575  11.742 -0.1944 -0.7189 -0.4296
  592MPD2    C1 8826   3.696   2.663  11.844 -0.2966  0.0792  0.0208
  592MPD2    C2 8827   3.653   2.605  11.963  0.5430  0.1852 -0.1440
  592MPD2    C3 8828   3.610   2.477  11.971  0.1807 -0.7737 -0.6968
  592MPD2    C4 8829   3.629   2.393  11.864 -0.2027 -0.1073  0.0190
  592MPD2    C5 8830   3.681   2.446  11.752 -0.5777 -0.3022  0.6219
  592MPD2     H 8831   3.642   2.673  12.047 -1.7439 -0.0558 -0.2465
  592MPD2    H1 8832   3.607   2.288  11.868 -1.7684  0.1711 -1.6361
  592MPD2    H2 8833   3.760   2.609  11.646  0.5882 -0.6173 -0.0859
  592MPD2    H3 8834   3.683   2.383  11.664 -0.8099  0.8658 -0.2221
  592MPD2     N 8835   3.541   2.427  12.090  0.1583 -0.6808  0.0967
  592MPD2    H5 8836   3.534   2.489  12.170  0.2005 -0.8015  0.1935
  592MPD2    N1 8837   3.717   2.804  11.838  0.8099  0.1198  0.3482
  592MPD2    H7 8838   3.717   2.851  11.928 -0.2801 -1.3663  1.1385
  593TMC3    C1 8839   3.739   3.024  11.733  0.1812  0.2371  0.0890
  593TMC3    C2 8840   3.812   3.075  11.840 -0.0864  0.1278  0.3386
  593TMC3    C3 8841   3.822   3.211  11.853  0.3150  0.2928  0.6675
  593TMC3    C4 8842   3.694   3.109  11.635  0.0162 -0.2603  0.0951
  593TMC3    C5 8843   3.706   3.243  11.650  0.7224 -0.6516 -0.0317
  593TMC3    C6 8844   3.772   3.296  11.757  0.2342 -0.2237 -0.3971
  593TMC3     C 8845   3.728   2.879  11.719  0.4343  0.3869  0.0498
  593TMC3     O 8846   3.729   2.831  11.607  0.6112  0.0681 -0.9958
  593TMC3     H 8847   3.864   3.009  11.908  1.5500  3.0902  1.9804
  593TMC3    H1 8848   3.641   3.050  11.561 -0.7263 -0.2023  0.5837
  593TMC3    H2 8849   3.783   3.402  11.774  0.8051 -0.2365 -0.7090
  593TMC3    C7 8850   3.663   3.341  11.547 -0.6429  0.7843  0.9129
  593TMC3    C8 8851   3.921   3.260  11.947 -0.7003  0.6231  0.5957
  593TMC3    O1 8852   3.664   3.458  11.581  0.5426 -0.6716 -0.3043
  593TMC3    O2 8853   3.970   3.179  12.025  0.0466 -0.0337 -0.1465
  594MPD2     C 8854   2.079   0.891  14.281  0.4439  0.1890  0.3918
  594MPD2    C1 8855   2.153   0.897  14.398  0.3641 -0.6249  0.3273
  594MPD2    C2 8856   2.279   0.953  14.408 -0.0629 -0.2336  0.0576
  594MPD2    C3 8857   2.332   1.021  14.296  0.4376 -0.3746 -0.5413
  594MPD2    C4 8858   2.256   1.009  14.177  0.1785  1.1006  0.3219
  594MPD2    C5 8859   2.132   0.953  14.170  0.7096  0.1418  0.1278
  594MPD2     H 8860   2.328   0.971  14.503  1.1692 -0.5571 -0.5295
  594MPD2    H1 8861   2.302   1.049  14.087 -0.7722 -0.4061 -0.8398
  594MPD2    H2 8862   1.975   0.861  14.277 -0.1658  2.6013 -1.5987
  594MPD2    H3 8863   2.069   0.950  14.082  0.4903  2.2373  0.2074
  594MPD2     N 8864   2.457   1.088  14.299 -0.3631 -0.0971  0.3421
  594MPD2    H5 8865   2.514   1.088  14.383  0.3757  4.0416 -0.1663
  594MPD2    N1 8866   2.093   0.834  14.507  0.7480 -1.1085 -0.0983
  594MPD2    H7 8867   2.004   0.790  14.487  1.0861 -1.6956 -0.3422
  595TMC3    C1 8868   2.821   1.273  14.323  0.1742 -0.1278  0.4898
  595TMC3    C2 8869   2.713   1.204  14.277 -0.8052  0.7793 -0.3290
  595TMC3    C3 8870   2.599   1.271  14.260  0.2843 -0.2138  0.4470
  595TMC3    C4 8871   2.817   1.397  14.374 -0.3820  0.0794  0.6045
  595TMC3    C5 8872   2.694   1.460  14.353  0.2899 -0.0866  0.4649
  595TMC3    C6 8873   2.583   1.404  14.293 -0.0360  0.7192  0.2163
  595TMC3     C 8874   2.945   1.218  14.289  0.1459  0.2069 -0.1935
  595TMC3     O 8875   2.941   1.137  14.195  0.4231  0.6670  0.4920
  595TMC3     H 8876   2.712   1.101  14.244  1.5142  0.6416  0.0660
  595TMC3    H1 8877   2.905   1.455  14.400  0.8118 -0.5566 -2.0013
  595TMC3    H2 8878   2.488   1.454  14.281  0.8229  2.2871  0.0383
  595TMC3    C7 8879   2.664   1.558  14.451  0.1988 -0.0762 -0.1338
  595TMC3    C8 8880   2.487   1.193  14.213  0.2786 -0.0454  0.2516
  595TMC3    O1 8881   2.555   1.615  14.437 -0.4758  0.0832  0.2112
  595TMC3    O2 8882   2.412   1.241  14.131  0.4061 -0.5797 -0.6509
  596MPD2     C 8883   1.830   3.738  16.970  0.1557 -1.3044  0.4836
  596MPD2    C1 8884   1.826   3.862  16.913  0.2995 -0.6186  0.1733
  596MPD2    C2 8885   1.829   3.865  16.772 -0.4218  0.1260 -0.1584
  596MPD2    C3 8886   1.830   3.747  16.698 -0.0111  0.1739 -0.0778
  596MPD2    C4 8887   1.833   3.629  16.762  0.0449  0.8100  0.5941
  596MPD2    C5 8888   1.834   3.624  16.895  0.4903  0.2674  0.4402
  596MPD2     H 8889   1.826   3.957  16.715 -0.1790  0.1099 -0.1991
  596MPD2    H1 8890   1.847   3.540  16.702  1.6313  0.0924  2.0192
  596MPD2    H2 8891   1.817   3.728  17.077  1.2061  1.0930  0.8430
  596MPD2    H3 8892   1.835   3.532  16.953 -0.2080 -0.9362 -1.4855
  596MPD2     N 8893   1.844   3.743  16.558  0.2247  0.0129 -0.1791
  596MPD2    H5 8894   1.838   3.654  16.509  0.6113 -0.3485  0.4385
  596MPD2    N1 8895   1.822   3.991  16.977  0.0203 -0.1963 -0.0973
  596MPD2    H7 8896   1.839   4.073  16.919  0.4150  1.4218  2.3190
  597TMC3    C1 8897   1.733   4.144  17.134 -0.3512 -0.5283  0.2196
  597TMC3    C2 8898   1.781   4.246  17.063 -0.0208 -0.5297 -0.6824
  597TMC3    C3 8899   1.740   4.368  17.111  0.1666 -0.3603 -0.0628
  597TMC3    C4 8900   1.637   4.151  17.230 -0.3356  0.5396  0.1077
  597TMC3    C5 8901   1.589   4.275  17.255 -1.5603 -0.3298 -0.7255
  597TMC3    C6 8902   1.641   4.388  17.201  0.3444  0.1307 -0.1429
  597TMC3     C 8903   1.779   4.010  17.107 -0.8051 -0.2051 -0.2822
  597TMC3     O 8904   1.771   3.931  17.202  0.0247 -0.5265 -0.1105
  597TMC3     H 8905   1.864   4.226  16.997  1.6372 -1.6837  1.7780
  597TMC3    H1 8906   1.614   4.063  17.288 -0.0976  2.0613  2.4811
  597TMC3    H2 8907   1.616   4.488  17.232 -0.9972  0.0434 -0.9323
  597TMC3    C7 8908   1.466   4.273  17.314 -0.5362  0.2654  0.1275
  597TMC3    C8 8909   1.809   4.490  17.071  0.5757 -0.2123 -0.9908
  597TMC3    O1 8910   1.416   4.171  17.356  0.1190  0.1722  0.4712
  597TMC3    O2 8911   1.831   4.576  17.152  0.6098  0.3260  0.2645
  598TMC3    C1 8912   4.289   0.384  15.477  0.3343 -0.3084 -0.2393
  598TMC3    C2 8913   4.219   0.269  15.466  0.8020 -0.0870 -0.5864
  598TMC3    C3 8914   4.234   0.199  15.346 -0.1715 -0.3881  0.2775
  598TMC3    C4 8915   4.349   0.449  15.367  0.2468  0.2681 -0.3054
  598TMC3    C5 8916   4.363   0.371  15.258 -0.2032 -0.1941 -0.2088
  598TMC3    C6 8917   4.303   0.245  15.240 -0.7601 -0.5726  0.3735
  598TMC3     C 8918   4.291   0.452  15.612 -0.0519  0.3543 -0.2032
  598TMC3     O 8919   4.326   0.569  15.622 -0.3507 -0.0618 -0.4153
  598TMC3     H 8920   4.148   0.241  15.543  2.5753 -1.0066  0.7249
  598TMC3    H1 8921   4.397   0.543  15.391  2.7566 -1.3090  0.7999
  598TMC3    H2 8922   4.329   0.177  15.160 -0.8811  0.8806 -0.9128
  598TMC3    C7 8923   4.404   0.434  15.131 -0.0112  0.2425 -0.0419
  598TMC3    C8 8924   4.154   0.078  15.322  0.0985 -0.0915  0.5768
  598TMC3    O1 8925   4.375   0.358  15.035  0.1236  0.1725  0.5428
  598TMC3    O2 8926   4.128   0.007  15.422 -0.9511 -0.5313  0.0973
  599MPD2     C 8927   0.048   2.727  15.636  0.2619  1.1950  0.4665
  599MPD2    C1 8928   4.731   2.606  15.650 -0.2256  0.0615  0.3123
  599MPD2    C2 8929   4.610   2.591  15.718  0.4788 -0.0671 -0.1680
  599MPD2    C3 8930   4.550   2.699  15.778 -0.3714 -0.0261  0.3328
  599MPD2    C4 8931   4.595   2.827  15.755  0.2175 -0.4413  0.4136
  599MPD2    C5 8932   4.709   2.833  15.680  0.3021 -0.2689  0.1459
  599MPD2     H 8933   4.578   2.488  15.729  2.6032 -0.7813 -0.7082
  599MPD2    H1 8934   4.545   2.919  15.781  0.4665 -0.9136  2.5646
  599MPD2    H2 8935   0.140   2.745  15.583 -0.0021  0.1632 -0.3391
  599MPD2    H3 8936   0.015   2.929  15.654  0.2674  0.2616  2.0515
  599MPD2     N 8937   4.443   2.680  15.868  0.0247 -0.2997  0.1012
  599MPD2    H5 8938   4.399   2.760  15.912 -1.9581  0.2011 -2.8366
  599MPD2    N1 8939   0.063   2.507  15.577 -0.2523 -0.7285 -0.5681
  599MPD2    H7 8940   0.133   2.531  15.509 -1.0508  0.9673 -0.8117
  600TMC3    C1 8941   4.303   2.580  16.015 -0.4225 -0.4413 -0.3327
  600TMC3    C2 8942   4.236   2.467  16.059 -0.4395 -0.4260 -0.2332
  600TMC3    C3 8943   4.117   2.486  16.121 -0.2957 -0.0832  0.2517
  600TMC3    C4 8944   4.251   2.704  16.052 -0.7270 -0.0242  0.3177
  600TMC3    C5 8945   4.132   2.713  16.125  0.3057  0.2368 -0.6768
  600TMC3    C6 8946   4.052   2.603  16.149 -0.4720  0.1229 -0.1014
  600TMC3     C 8947   4.400   2.563  15.912  0.4137  0.5377  0.2233
  600TMC3     O 8948   4.440   2.453  15.898 -0.0494  0.0755 -0.7392
  600TMC3     H 8949   4.280   2.369  16.045 -0.8884 -0.4567 -1.4460
  600TMC3    H1 8950   4.318   2.789  16.052 -3.6634  2.2712  0.0227
  600TMC3    H2 8951   3.964   2.615  16.211  1.2130  0.2216  2.2777
  600TMC3    C7 8952   4.119   2.832  16.205  0.5360 -0.0837  0.3482
  600TMC3    C8 8953   4.035   2.369  16.106 -0.5559 -0.0332 -0.3427
  600TMC3    O1 8954   4.059   2.822  16.312  0.4464  0.1868 -0.6865
  600TMC3    O2 8955   4.081   2.261  16.073 -0.5177 -0.3032  0.0151
  601MPD2     C 8956   2.059   1.244   0.279  0.2246  0.0059 -0.4549
  601MPD2    C1 8957   1.927   1.263   0.295  0.2300 -0.5859 -0.3126
  601MPD2    C2 8958   1.860   1.185   0.389 -0.4473 -0.3151  0.8305
  601MPD2    C3 8959   1.923   1.082   0.452 -0.3464 -0.5221  0.3841
  601MPD2    C4 8960   2.058   1.061   0.428  0.4339  0.6861  0.3596
  601MPD2    C5 8961   2.122   1.149   0.351 -0.4243 -0.4961  0.1021
  601MPD2     H 8962   1.755   1.193   0.416 -0.5239 -0.7557  0.6629
  601MPD2    H1 8963   2.120   0.978   0.462 -0.6113  0.9026  2.7611
  601MPD2    H2 8964   2.114   1.303   0.206  1.9384  0.2136  1.0232
  601MPD2    H3 8965   2.230   1.140   0.343 -0.5916 -0.7399 -1.8104
  601MPD2     N 8966   1.862   0.997   0.550  0.2559  0.1498 -0.5002
  601MPD2    H5 8967   1.905   0.914   0.588 -0.3213 -0.0335 -0.2454
  601MPD2    N1 8968   1.852   1.360   0.223 -0.1671  0.2734 -0.1424
  601MPD2    H7 8969   1.759   1.376   0.260  0.0776  1.7994 -0.2022
  602TMC3    C1 8970   1.793   1.536   0.073 -0.2047 -0.7123 -0.3235
  602TMC3    C2 8971   1.827   1.610  17.714 -0.3534 -0.8570  0.2610
  602TMC3    C3 8972   1.738   1.703  17.665  1.1147 -0.1836 -0.1856
  602TMC3    C4 8973   1.664   1.533   0.125 -0.0307  0.0447  0.0775
  602TMC3    C5 8974   1.577   1.626   0.076 -0.3933  0.1322  0.0971
  602TMC3    C6 8975   1.612   1.706  17.725  0.0813 -0.0880  0.4660
  602TMC3     C 8976   1.898   1.442   0.124 -0.0968 -0.7544 -1.0407
  602TMC3     O 8977   2.012   1.444   0.076 -0.4890  0.6570 -0.1185
  602TMC3     H 8978   1.924   1.597  17.668 -0.2208 -0.4665  0.4282
  602TMC3    H1 8979   1.624   1.461   0.195 -0.5818  1.5086  1.2602
  602TMC3    H2 8980   1.543   1.777  17.679  0.7849  0.2134 -0.1356
  602TMC3    C7 8981   1.443   1.564   0.049  0.2815 -0.2905 -0.1780
  602TMC3    C8 8982   1.717   1.697  17.523  0.2393  0.3843 -0.1971
  602TMC3    O1 8983   1.411   1.485   0.139 -0.0476  0.1771  0.0544
  602TMC3    O2 8984   1.610   1.646  17.489 -0.0792  0.2005 -0.2449
  603TMC3    C1 8985   4.597   1.971  10.932 -0.3239 -0.5298 -0.0773
  603TMC3    C2 8986   4.602   1.929  11.065  0.5022 -0.2840  0.1400
  603TMC3    C3 8987   4.593   2.025  11.156 -0.2278  0.0472 -0.5737
  603TMC3    C4 8988   4.584   2.109  10.897  0.4194  0.5182  0.9169
  603TMC3    C5 8989   4.568   2.193  11.001 -0.8364  0.5014  0.3726
  603TMC3    C6 8990   4.565   2.159  11.132  0.9959 -0.1310  0.0568
  603TMC3     C 8991   4.592   1.873  10.824  0.9069  0.7390 -0.3223
  603TMC3     O 8992   4.560   1.760  10.862 -0.0384  0.3271  0.5833
  603TMC3     H 8993   4.633   1.827  11.087 -1.3203 -1.0705 -0.8744
  603TMC3    H1 8994   4.587   2.141  10.793 -1.6511  0.6503  0.8877
  603TMC3    H2 8995   4.586   2.236  11.205 -1.0885  0.5194 -0.0254
  603TMC3    C7 8996   4.528   2.332  10.966 -0.3789  0.4548 -0.3820
  603TMC3    C8 8997   4.572   1.966  11.288  0.3028  0.3647 -0.3140
  603TMC3    O1 8998   4.533   2.414  11.057 -0.1501 -0.4195 -0.1444
  603TMC3    O2 8999   4.640   1.874  11.320 -0.1439  0.2106  0.0652
  604MPD2     C 9000   1.155   0.447  16.819 -0.2561 -0.1054 -0.7355
  604MPD2    C1 9001   1.031   0.433  16.762 -0.2702 -0.4017 -0.7433
  604MPD2    C2 9002   1.024   0.391  16.627  0.1623  0.3587  0.1741
  604MPD2    C3 9003   1.139   0.375  16.552 -0.5058  0.0758  0.8887
  604MPD2    C4 9004   1.263   0.407  16.603 -0.5675  1.0229  0.3865
  604MPD2    C5 9005   1.265   0.445  16.736  0.6398 -0.4685 -0.1546
  604MPD2     H 9006   0.934   0.367  16.572  0.4033 -1.1169  0.4113
  604MPD2    H1 9007   1.351   0.416  16.541 -1.7578 -0.0278 -1.4700
  604MPD2    H2 9008   1.165   0.491  16.917 -0.5754  1.3486 -1.3545
  604MPD2    H3 9009   1.363   0.472  16.772 -0.8559  2.7002  1.4803
  604MPD2     N 9010   1.115   0.350  16.417  0.0922  0.0991 -0.1050
  604MPD2    H5 9011   1.016   0.350  16.394  0.2424  2.1715 -0.8080
  604MPD2    N1 9012   0.916   0.458  16.839 -0.7484  0.5779 -0.2442
  604MPD2    H7 9013   0.930   0.467  16.939  0.3397  0.4229 -0.3895
  605TMC3    C1 9014   0.691   0.474  16.907 -0.4419 -0.6964  0.4125
  605TMC3    C2 9015   0.739   0.568  16.992 -0.2725  0.5166 -0.6629
  605TMC3    C3 9016   0.650   0.670  17.037 -0.2440  0.4546  0.1548
  605TMC3    C4 9017   0.557   0.471  16.871  0.8176  0.3165 -0.3538
  605TMC3    C5 9018   0.473   0.572  16.906  0.2553 -0.0600 -0.2966
  605TMC3    C6 9019   0.522   0.672  16.988 -0.1041  0.7741  0.4607
  605TMC3     C 9020   0.784   0.449  16.801  0.6248  0.2829  0.3442
  605TMC3     O 9021   0.737   0.454  16.686 -0.4625 -0.4179  0.4001
  605TMC3     H 9022   0.840   0.571  17.033 -1.5813  1.2710  2.5267
  605TMC3    H1 9023   0.532   0.410  16.785 -3.2440  0.3747  0.7746
  605TMC3    H2 9024   0.449   0.737  17.035 -0.1026 -1.0721  2.9825
  605TMC3    C7 9025   0.367   0.622  16.823  0.1336 -0.3699  0.2805
  605TMC3    C8 9026   0.709   0.807  17.052  0.1494 -0.0469 -0.2031
  605TMC3    O1 9027   0.330   0.735  16.845  0.3306  0.3455 -0.5193
  605TMC3    O2 9028   0.826   0.805  17.090  0.7247 -0.9008 -0.3299
  606TMC3    C1 9029   1.616   3.778  17.601  0.0409 -0.0763 -0.4286
  606TMC3    C2 9030   1.564   3.692  17.702  0.3152  0.1995  0.0870
  606TMC3    C3 9031   1.569   3.555  17.677 -0.4637 -0.0851  0.0007
  606TMC3    C4 9032   1.653   3.733  17.475 -0.4975 -0.1036  0.1627
  606TMC3    C5 9033   1.659   3.601  17.462  0.1603  0.7196 -0.0354
  606TMC3    C6 9034   1.618   3.509  17.559  0.1089  0.0907 -0.9859
  606TMC3     C 9035   1.586   3.914  17.619 -0.1165  0.5933 -0.0866
  606TMC3     O 9036   1.490   3.936  17.695 -0.6089 -0.3714 -0.0997
  606TMC3     H 9037   1.538   3.731   0.047 -0.6763  0.9041 -0.4608
  606TMC3    H1 9038   1.651   3.795  17.387  3.4341 -1.7467 -1.0559
  606TMC3    H2 9039   1.632   3.404  17.538 -2.3459 -0.1603 -1.4423
  606TMC3    C7 9040   1.638   3.560  17.329 -0.2227  0.4614 -0.2199
  606TMC3    C8 9041   1.600   3.466   0.034  0.4757 -0.2712 -0.4209
  606TMC3    O1 9042   1.701   3.616  17.241  0.3660 -0.2525  0.5381
  606TMC3    O2 9043   1.665   3.366   0.015  0.0008 -0.5455 -0.0225
  607MPD2     C 9044   3.736   1.548  11.968 -0.0521 -0.6559 -0.5672
  607MPD2    C1 9045   3.691   1.627  12.069  0.4760 -0.6439  0.0911
  607MPD2    C2 9046   3.675   1.578  12.195  0.6687  0.2467 -0.0823
  607MPD2    C3 9047   3.704   1.440  12.212 -0.5330  0.5430  1.1586
  607MPD2    C4 9048   3.744   1.361  12.112  0.2719  0.2446 -0.1728
  607MPD2    C5 9049   3.759   1.413  11.986  0.6038 -0.5472 -0.2571
  607MPD2     H 9050   3.650   1.643  12.278  1.5388  0.4414  0.0216
  607MPD2    H1 9051   3.759   1.253  12.111  1.9331  0.4930 -2.2451
  607MPD2    H2 9052   3.739   1.594  11.870  1.6121 -0.1564 -0.2746
  607MPD2    H3 9053   3.792   1.348  11.905 -0.5899 -0.6252 -0.6927
  607MPD2     N 9054   3.709   1.384  12.343  0.3424  0.4807 -0.1076
  607MPD2    H5 9055   3.674   1.453  12.409  1.3280  0.2702  0.6421
  607MPD2    N1 9056   3.680   1.772  12.057  0.7102 -0.2181  0.9937
  607MPD2    H7 9057   3.634   1.833  12.124  0.0405  0.3227  0.0448
  608TMC3    C1 9058   3.711   1.991  11.977  0.7449 -0.3989  1.0561
  608TMC3    C2 9059   3.713   2.020  12.115 -0.6571  0.4015 -0.9013
  608TMC3    C3 9060   3.771   2.143  12.142 -0.1602 -0.5934  0.0427
  608TMC3    C4 9061   3.770   2.067  11.886  0.8430  0.5863 -0.0152
  608TMC3    C5 9062   3.850   2.173  11.930  0.4680 -0.1021 -0.1375
  608TMC3    C6 9063   3.838   2.216  12.056  0.1366  0.1770  0.4505
  608TMC3     C 9064   3.719   1.843  11.944 -1.0710  0.2176  0.2702
  608TMC3     O 9065   3.783   1.820  11.844  0.0582  0.3411  0.2345
  608TMC3     H 9066   3.632   1.992  12.181  0.2747 -1.1812 -0.4308
  608TMC3    H1 9067   3.767   2.038  11.782 -1.0801 -0.3646  0.3125
  608TMC3    H2 9068   3.894   2.302  12.089 -2.3824  1.9820 -0.0035
  608TMC3    C7 9069   3.952   2.224  11.836 -0.3992 -0.1260  0.2522
  608TMC3    C8 9070   3.812   2.157  12.284 -0.1357 -0.4729 -0.0736
  608TMC3    O1 9071   3.933   2.204  11.717 -0.1637 -0.3508  0.2810
  608TMC3    O2 9072   3.810   2.272  12.331 -0.3049 -0.1727 -0.2798
  609TMC3    C1 9073   2.490   0.597   9.612 -0.2343  0.6713  0.7502
  609TMC3    C2 9074   2.394   0.510   9.575 -0.2745 -0.2446 -0.5051
  609TMC3    C3 9075   2.379   0.397   9.651 -0.0119 -0.6466  0.3727
  609TMC3    C4 9076   2.578   0.576   9.716  0.0624  0.1451 -0.3906
  609TMC3    C5 9077   2.564   0.456   9.783 -0.3478  0.1851 -0.1887
  609TMC3    C6 9078   2.476   0.361   9.747 -0.1838 -0.0970  0.0782
  609TMC3     C 9079   2.520   0.713   9.529  0.2406 -0.2946 -0.2185
  609TMC3     O 9080   2.598   0.790   9.581 -0.2516  0.2235  0.5923
  609TMC3     H 9081   2.319   0.543   9.504 -1.7975 -0.7520  0.8926
  609TMC3    H1 9082   2.665   0.639   9.732  0.4349 -0.3515 -0.4654
  609TMC3    H2 9083   2.471   0.273   9.810 -0.8817  0.4531  0.7907
  609TMC3    C7 9084   2.682   0.436   9.881  0.5661 -0.2381  0.3558
  609TMC3    C8 9085   2.274   0.296   9.616  0.2317  0.5855 -1.0170
  609TMC3    O1 9086   2.760   0.522   9.895  0.3149 -0.2974 -0.1303
  609TMC3    O2 9087   2.279   0.202   9.691  0.4644 -0.1231 -1.0243
  610TMC3    C1 9088   4.433   2.050  13.237 -0.1796  0.2329 -0.2001
  610TMC3    C2 9089   4.409   2.120  13.121 -0.1216 -0.7721 -0.9064
  610TMC3    C3 9090   4.467   2.063  13.013  0.4767  0.9811  0.3509
  610TMC3    C4 9091   4.510   1.935  13.243  0.0288 -0.0579 -0.0164
  610TMC3    C5 9092   4.556   1.878  13.132 -0.4183  0.7347 -0.1846
  610TMC3    C6 9093   4.539   1.946  13.010 -0.3422 -0.3264 -0.6554
  610TMC3     C 9094   4.335   2.062  13.336  0.5455  0.0364  0.4294
  610TMC3     O 9095   4.302   1.961  13.396  0.5988  0.0237  0.1793
  610TMC3     H 9096   4.357   2.215  13.117  1.6228  0.3137  2.4814
  610TMC3    H1 9097   4.496   1.872  13.330  0.8475 -0.7795 -0.3989
  610TMC3    H2 9098   4.586   1.913  12.918 -0.0351  2.1063 -1.3632
  610TMC3    C7 9099   4.584   1.734  13.130 -0.0487  0.7102 -0.8729
  610TMC3    C8 9100   4.464   2.144  12.893 -0.0688 -0.2384  0.1401
  610TMC3    O1 9101   4.652   1.691  13.224 -0.1568  0.8367  0.0002
  610TMC3    O2 9102   4.479   2.269  12.909  0.4858 -0.1487  0.7750
  611MPD2     C 9103   3.636   1.798  10.654 -0.4494 -0.9641 -0.4005
  611MPD2    C1 9104   3.548   1.871  10.591 -0.1837 -0.0522 -0.1756
  611MPD2    C2 9105   3.585   1.996  10.545 -0.6057 -0.2667  0.2042
  611MPD2    C3 9106   3.717   2.049  10.568 -0.0711  0.1015  0.3933
  611MPD2    C4 9107   3.801   1.975  10.646  0.1293 -0.2176  0.0768
  611MPD2    C5 9108   3.764   1.845  10.682  0.0030 -0.4962  0.6615
  611MPD2     H 9109   3.519   2.051  10.478  1.3519 -1.8238 -3.0121
  611MPD2    H1 9110   3.897   2.015  10.675 -0.7228  1.2372  0.8539
  611MPD2    H2 9111   3.611   1.696  10.680 -0.5853 -0.5967  0.9025
  611MPD2    H3 9112   3.832   1.786  10.742  2.8494  2.4656  0.3522
  611MPD2     N 9113   3.770   2.176  10.529  0.2659 -0.3695 -0.4110
  611MPD2    H5 9114   3.860   2.201  10.570 -0.0049 -0.6836  0.3828
  611MPD2    N1 9115   3.419   1.822  10.560  0.1137 -0.2725 -0.5779
  611MPD2    H7 9116   3.410   1.722  10.578  2.5913 -0.8115 -2.2682
  612TMC3    C1 9117   3.778   2.393  10.418 -0.0682 -0.7357  0.3153
  612TMC3    C2 9118   3.861   2.445  10.511 -0.0169 -0.1597 -0.6922
  612TMC3    C3 9119   3.897   2.575  10.495  0.1843 -0.4527 -0.3084
  612TMC3    C4 9120   3.719   2.465  10.317 -0.7713  1.0695 -0.5191
  612TMC3    C5 9121   3.747   2.600  10.310  0.5079 -0.4008 -0.7963
  612TMC3    C6 9122   3.842   2.649  10.396 -0.2843  0.3741 -1.0856
  612TMC3     C 9123   3.714   2.258  10.437 -0.5670 -0.5157 -0.1764
  612TMC3     O 9124   3.612   2.232  10.368  0.3629 -0.0260  0.0460
  612TMC3     H 9125   3.902   2.378  10.585  1.2285  1.6361  0.2632
  612TMC3    H1 9126   3.651   2.427  10.242 -2.2808 -0.6633  1.7177
  612TMC3    H2 9127   3.876   2.749  10.369  0.4799  0.7342  1.2234
  612TMC3    C7 9128   3.652   2.694  10.245 -0.2851  0.2506  0.0147
  612TMC3    C8 9129   4.010   2.626  10.565  0.0478 -0.1133 -0.0107
  612TMC3    O1 9130   3.710   2.803  10.222 -0.2143  0.0778  0.2208
  612TMC3    O2 9131   4.030   2.747  10.561 -0.1465  0.2083  0.2753
  613MPD2     C 9132   3.439   3.886  16.852 -0.1772  0.7530 -0.1762
  613MPD2    C1 9133   3.343   3.983  16.821  0.9132  0.4596 -0.1537
  613MPD2    C2 9134   3.210   3.948  16.838  0.3857 -0.2074 -0.5001
  613MPD2    C3 9135   3.176   3.823  16.896  0.2016 -0.4484 -0.5858
  613MPD2    C4 9136   3.275   3.739  16.937  0.0096  0.0264  0.4361
  613MPD2    C5 9137   3.405   3.769  16.908 -0.4805 -0.0529  0.5430
  613MPD2     H 9138   3.128   4.013  16.808  1.4301  1.4054  0.0890
  613MPD2    H1 9139   3.258   3.640  16.979  1.3106  0.1942  1.3657
  613MPD2    H2 9140   3.543   3.901  16.826  0.2579 -2.8031 -0.5041
  613MPD2    H3 9141   3.483   3.702  16.942 -2.9503 -4.5842 -2.6602
  613MPD2     N 9142   3.047   3.770  16.897  0.2533  0.4973  0.0764
  613MPD2    H5 9143   3.042   3.673  16.926 -0.5428  0.5400  0.0764
  613MPD2    N1 9144   3.379   4.099  16.749  0.4320  0.5695  0.0242
  613MPD2    H7 9145   3.477   4.100  16.720 -0.7160  0.8686 -3.8002
  614TMC3    C1 9146   3.312   4.227  16.572 -0.0302 -0.0323 -1.0266
  614TMC3    C2 9147   3.362   4.123  16.497  0.1479 -0.6000  0.5828
  614TMC3    C3 9148   3.308   4.091  16.373 -0.5907 -0.4846 -0.0153
  614TMC3    C4 9149   3.213   4.302  16.518 -0.6960  0.0326 -0.1761
  614TMC3    C5 9150   3.160   4.263  16.395 -0.7378  0.2733  0.3308
  614TMC3    C6 9151   3.204   4.159  16.321 -0.0900 -0.1029  0.2341
  614TMC3     C 9152   3.294   4.201  16.709  0.0051  0.0409  0.0204
  614TMC3     O 9153   3.189   4.246  16.762 -0.4645 -0.3635  0.3269
  614TMC3     H 9154   3.434   4.056  16.542  2.3135  1.7333  0.5976
  614TMC3    H1 9155   3.174   4.390  16.567  0.9506  0.0093  1.1623
  614TMC3    H2 9156   3.152   4.121  16.234 -0.0311  2.2015 -0.8144
  614TMC3    C7 9157   3.030   4.332  16.379 -0.3558  0.4765  0.0872
  614TMC3    C8 9158   3.287   3.949  16.364 -0.3195  0.0056  0.2362
  614TMC3    O1 9159   3.006   4.431  16.448 -0.0034 -0.3293  0.9547
  614TMC3    O2 9160   3.174   3.912  16.330 -0.1485 -0.1797  0.0719
  615MPD2     C 9161   2.451   0.590  15.978 -0.1600 -0.2345  0.2986
  615MPD2    C1 9162   2.508   0.681  16.066 -0.2631 -0.1144 -0.3060
  615MPD2    C2 9163   2.506   0.817  16.031 -0.5464  0.2998  0.3924
  615MPD2    C3 9164   2.456   0.852  15.903  0.2204 -0.3861  0.1719
  615MPD2    C4 9165   2.391   0.755  15.827  0.2926 -0.0319  0.3526
  615MPD2    C5 9166   2.401   0.624  15.858  0.3259 -0.0729  0.9117
  615MPD2     H 9167   2.529   0.885  16.112 -0.4316  1.5591 -0.6980
  615MPD2    H1 9168   2.337   0.781  15.736 -0.9692 -1.1361  0.7837
  615MPD2    H2 9169   2.431   0.488  16.011  2.2681 -1.2415 -1.4069
  615MPD2    H3 9170   2.337   0.563  15.796 -0.3451 -1.2116  2.7137
  615MPD2     N 9171   2.449   0.982  15.857 -0.0498  0.6436  0.5368
  615MPD2    H5 9172   2.382   0.993  15.782  1.0386  0.8114 -0.4162
  615MPD2    N1 9173   2.568   0.637  16.182 -0.7431 -0.1925  0.2169
  615MPD2    H7 9174   2.589   0.708  16.253  3.6462  0.3845 -1.6124
  616TMC3    C1 9175   2.714   0.504  16.316  0.0842 -0.0878  0.3116
  616TMC3    C2 9176   2.852   0.499  16.298 -0.6568 -0.2229  0.9664
  616TMC3    C3 9177   2.928   0.525  16.405  0.0177 -0.2025 -0.6497
  616TMC3    C4 9178   2.661   0.546  16.436  0.4078 -0.3027 -0.2135
  616TMC3    C5 9179   2.748   0.554  16.546 -0.0385 -0.0730 -0.4492
  616TMC3    C6 9180   2.880   0.544  16.530  0.3121  0.1465  0.2701
  616TMC3     C 9181   2.636   0.515  16.196  0.8085  0.2078  0.1816
  616TMC3     O 9182   2.658   0.431  16.111  0.1863  0.0854  0.2046
  616TMC3     H 9183   2.882   0.463  16.200 -1.8054  1.8838 -0.1606
  616TMC3    H1 9184   2.553   0.536  16.435  0.6156 -2.5442  1.8932
  616TMC3    H2 9185   2.941   0.577  16.614 -1.5177  0.8490  1.3321
  616TMC3    C7 9186   2.701   0.623  16.666 -0.2049  0.1045  0.0252
  616TMC3    C8 9187   3.072   0.556  16.376  0.0542  0.4175 -0.0999
  616TMC3    O1 9188   2.764   0.634  16.770 -0.2545 -0.0759  0.2224
  616TMC3    O2 9189   3.150   0.554  16.473 -0.1102  0.0188  0.1548
  617MPD2     C 9190   0.424   3.700  13.782  0.3895 -0.1168  0.3783
  617MPD2    C1 9191   0.444   3.628  13.898 -0.1654 -0.4837  0.0457
  617MPD2    C2 9192   0.342   3.554  13.951 -0.5892  1.0639  0.1857
  617MPD2    C3 9193   0.227   3.531  13.881 -0.1921  0.3567 -0.3101
  617MPD2    C4 9194   0.210   3.589  13.758 -0.3834 -0.4072  0.0928
  617MPD2    C5 9195   0.312   3.672  13.707 -0.2454  0.1441  0.6165
  617MPD2     H 9196   0.360   3.522  14.053  0.1960  0.6425 -0.0796
  617MPD2    H1 9197   0.126   3.572  13.691 -0.4199  1.1642 -0.2675
  617MPD2    H2 9198   0.493   3.771  13.737 -2.0278  2.5217  0.8537
  617MPD2    H3 9199   0.307   3.715  13.608  0.3706  3.4610  2.0077
  617MPD2     N 9200   0.121   3.451  13.935  0.3037 -0.4216  0.6284
  617MPD2    H5 9201   0.043   3.437  13.873  0.1630 -0.4839  0.8186
  617MPD2    N1 9202   0.567   3.632  13.971  0.0483  0.1630 -0.0117
  617MPD2    H7 9203   0.577   3.568  14.050 -2.0621 -1.1561 -0.8328
  618TMC3    C1 9204   0.781   3.693  14.041  0.9162 -0.5264  0.1745
  618TMC3    C2 9205   0.806   3.564  14.082 -0.7330  0.3961 -0.3865
  618TMC3    C3 9206   0.919   3.531  14.143  0.5731  0.0660  0.6446
  618TMC3    C4 9207   0.883   3.780  14.048 -0.0960  0.0125 -0.0523
  618TMC3    C5 9208   0.996   3.752  14.123 -0.8376 -0.5018 -0.0045
  618TMC3    C6 9209   1.022   3.621  14.167 -0.3287  0.2647 -0.3064
  618TMC3     C 9210   0.668   3.719  13.952  0.0876  0.0062  0.6182
  618TMC3     O 9211   0.679   3.814  13.875 -0.1941 -0.4652 -0.1164
  618TMC3     H 9212   0.739   3.486  14.048  2.1320 -1.8230 -0.9878
  618TMC3    H1 9213   0.877   3.884  14.017 -2.1160 -0.2285 -0.4748
  618TMC3    H2 9214   1.113   3.598  14.221 -0.5721 -0.4437 -0.1900
  618TMC3    C7 9215   1.101   3.843  14.093 -0.3768 -0.2228 -0.0457
  618TMC3    C8 9216   0.946   3.386  14.155  0.6971 -0.1372 -0.4921
  618TMC3    O1 9217   1.075   3.954  14.135  0.5481 -0.2566  0.2361
  618TMC3    O2 9218   0.862   3.300  14.135  0.2471  0.6013  0.3661
  619MPD2     C 9219   1.855   0.302  13.888 -0.2791  0.5159  0.0339
  619MPD2    C1 9220   1.770   0.394  13.835 -0.1950  0.2304 -0.3322
  619MPD2    C2 9221   1.641   0.362  13.809 -0.4091  0.3806  0.5180
  619MPD2    C3 9222   1.595   0.235  13.834  0.5208  0.1614  0.0814
  619MPD2    C4 9223   1.677   0.142  13.891 -0.5771  0.2398 -0.5655
  619MPD2    C5 9224   1.807   0.174  13.914 -0.0173 -0.5453 -0.1472
  619MPD2     H 9225   1.579   0.435  13.759  0.4541  0.1748 -0.8581
  619MPD2    H1 9226   1.635   0.048  13.922 -1.0332  1.1221  1.4462
  619MPD2    H2 9227   1.962   0.321  13.889 -0.3980  1.1754  1.1630
  619MPD2    H3 9228   1.874   0.090  13.922 -0.5744 -1.1474 -2.0050
  619MPD2     N 9229   1.462   0.192  13.810 -0.4798 -0.0231  0.1151
  619MPD2    H5 9230   1.434   0.100  13.843  2.1544 -0.4237  1.1667
  619MPD2    N1 9231   1.817   0.517  13.786 -0.0254 -0.1133  0.7957
  619MPD2    H7 9232   1.762   0.574  13.722  0.5732 -0.2799  0.1231
  620TMC3    C1 9233   1.933   0.718  13.782  0.1425  0.0294  0.7327
  620TMC3    C2 9234   1.880   0.722  13.657  0.1749 -0.0152  0.0343
  620TMC3    C3 9235   1.788   0.817  13.623  0.5164  0.2744 -0.2971
  620TMC3    C4 9236   1.902   0.817  13.876  0.3065  0.2632 -0.5495
  620TMC3    C5 9237   1.823   0.921  13.840  0.3386  0.4095  0.6604
  620TMC3    C6 9238   1.771   0.929  13.710  0.5673 -0.4080  0.1135
  620TMC3     C 9239   1.923   0.586  13.838 -0.0438 -0.2281 -0.8055
  620TMC3     O 9240   1.980   0.563  13.945  0.0718  0.1990 -0.2607
  620TMC3     H 9241   1.894   0.638  13.590 -1.1555  0.3212 -0.6746
  620TMC3    H1 9242   1.928   0.804  13.980  0.2306  0.4351 -0.5085
  620TMC3    H2 9243   1.706   1.007  13.672 -0.0151 -1.3408 -0.8310
  620TMC3    C7 9244   1.724   0.957  13.947  0.2863 -0.7893  0.1482
  620TMC3    C8 9245   1.662   0.759  13.581 -0.1968 -0.3362  0.2463
  620TMC3    O1 9246   1.751   0.946  14.065  0.5709  0.5974 -0.0480
  620TMC3    O2 9247   1.649   0.635  13.584  1.1228  0.5403 -0.2415
  621MPD2     C 9248   1.384   1.269  10.932 -0.5155 -0.2256 -0.1437
  621MPD2    C1 9249   1.380   1.219  10.804  0.2162  0.0248 -0.3020
  621MPD2    C2 9250   1.406   1.301  10.693 -0.3496  0.9176 -0.6519
  621MPD2    C3 9251   1.440   1.431  10.714  0.4520 -0.3316  0.2799
  621MPD2    C4 9252   1.461   1.478  10.845  0.6712 -0.1902 -0.0704
  621MPD2    C5 9253   1.430   1.397  10.950 -0.0460 -0.5351  0.8848
  621MPD2     H 9254   1.400   1.259  10.594 -0.4587  0.3094 -0.3906
  621MPD2    H1 9255   1.489   1.576  10.882 -0.3716 -0.6933  2.0729
  621MPD2    H2 9256   1.375   1.207  11.020  1.1208 -1.4176 -0.8199
  621MPD2    H3 9257   1.438   1.442  11.049 -1.1673  1.2067  0.1884
  621MPD2     N 9258   1.453   1.518  10.605 -0.0963  0.2719  0.1875
  621MPD2    H5 9259   1.429   1.470  10.519  1.3843  0.8235 -0.5342
  621MPD2    N1 9260   1.339   1.089  10.769  0.6459 -1.0366  0.0518
  621MPD2    H7 9261   1.326   1.067  10.671  2.2135 -1.3513 -0.0885
  622TMC3    C1 9262   1.229   0.888  10.785 -0.0608 -0.1229  0.2713
  622TMC3    C2 9263   1.182   0.914  10.667  0.3035  0.6305 -0.2050
  622TMC3    C3 9264   1.140   0.804  10.596  0.4814  0.3560 -0.0868
  622TMC3    C4 9265   1.236   0.766  10.846  0.1742 -0.6371 -0.5914
  622TMC3    C5 9266   1.201   0.661  10.774  0.3379  0.1036 -0.8585
  622TMC3    C6 9267   1.153   0.672  10.648 -0.6991 -0.4053  0.2668
  622TMC3     C 9268   1.303   0.992  10.851  0.2048  0.3433  0.0148
  622TMC3     O 9269   1.347   0.973  10.963  0.0936 -0.2852  0.3751
  622TMC3     H 9270   1.142   1.014  10.653 -1.4696 -0.1812 -0.8842
  622TMC3    H1 9271   1.277   0.751  10.945 -2.5369  0.4495  0.6866
  622TMC3    H2 9272   1.124   0.585  10.590 -1.5712  0.5156 -0.6796
  622TMC3    C7 9273   1.235   0.532  10.824 -0.0164 -0.0616 -0.1953
  622TMC3    C8 9274   1.073   0.816  10.467 -0.5597  0.2001 -0.1499
  622TMC3    O1 9275   1.220   0.515  10.946  0.1895 -0.3305 -0.1990
  622TMC3    O2 9276   1.047   0.707  10.421 -0.2772  0.5253  0.1615
  623MPD2     C 9277   1.131   0.576  15.902  0.5620  0.4668 -0.3378
  623MPD2    C1 9278   1.030   0.587  16.001  0.6292 -0.2741 -0.0335
  623MPD2    C2 9279   1.067   0.626  16.129 -0.4169  0.0334 -0.0814
  623MPD2    C3 9280   1.200   0.643  16.165 -0.0732  0.3155 -0.4636
  623MPD2    C4 9281   1.299   0.617  16.072 -0.6707  0.1907  0.2492
  623MPD2    C5 9282   1.262   0.593  15.938  0.1680  0.3913  0.2850
  623MPD2     H 9283   0.991   0.631  16.206 -1.3499  1.7732 -1.1133
  623MPD2    H1 9284   1.404   0.620  16.098 -0.4521 -3.1489 -0.3647
  623MPD2    H2 9285   1.106   0.556  15.798 -2.8076 -0.5783  0.6769
  623MPD2    H3 9286   1.331   0.579  15.855  0.7496 -0.4235  0.9126
  623MPD2     N 9287   1.226   0.685  16.294 -0.0730 -0.4022 -0.0964
  623MPD2    H5 9288   1.140   0.712  16.341  0.4139  1.0356 -0.0292
  623MPD2    N1 9289   0.894   0.568  15.974  0.6463 -0.2042 -0.1992
  623MPD2    H7 9290   0.835   0.590  16.054  0.7356  0.7993 -0.4009
  624TMC3    C1 9291   1.465   0.720  16.689  0.1229 -0.6902  0.5491
  624TMC3    C2 9292   1.355   0.760  16.761 -0.5516  0.1370 -0.4012
  624TMC3    C3 9293   1.243   0.776  16.688  0.7838 -0.5282  0.1349
  624TMC3    C4 9294   1.462   0.705  16.555 -0.5834  0.3923 -0.4938
  624TMC3    C5 9295   1.343   0.716  16.490 -0.0190 -0.9171  0.1568
  624TMC3    C6 9296   1.229   0.750  16.554 -0.3606 -0.4024 -0.0682
  624TMC3     C 9297   1.584   0.686  16.764 -0.1796 -0.0652 -0.0887
  624TMC3     O 9298   1.555   0.631  16.871 -0.3328 -0.4372  0.6708
  624TMC3     H 9299   1.359   0.762  16.869  1.3803 -1.1216 -0.4427
  624TMC3    H1 9300   1.548   0.668  16.500 -0.0038  1.3418 -0.2243
  624TMC3    H2 9301   1.124   0.748  16.526 -0.5436  1.5892  0.4714
  624TMC3    C7 9302   1.351   0.694  16.351  0.1233  0.0472  0.2148
  624TMC3    C8 9303   1.121   0.818  16.760  0.0242  0.1027  0.1071
  624TMC3    O1 9304   1.455   0.677  16.298  0.4175  0.4184 -0.2546
  624TMC3    O2 9305   1.115   0.788  16.879 -0.3296 -0.6717 -0.4457
  625MPD2     C 9306   1.736   1.931   0.579 -0.0390  0.3083 -0.2272
  625MPD2    C1 9307   1.784   2.053   0.530 -0.6817 -0.5812 -0.4046
  625MPD2    C2 9308   1.918   2.078   0.497  0.0023  0.8364 -0.2564
  625MPD2    C3 9309   2.006   1.967   0.497  0.5344  0.3360 -0.3253
  625MPD2    C4 9310   1.960   1.843   0.530 -0.0433 -0.5220  0.6029
  625MPD2    C5 9311   1.828   1.825   0.572  0.1180 -0.7673 -0.0209
  625MPD2     H 9312   1.958   2.177   0.480 -0.2173  1.0148  0.2883
  625MPD2    H1 9313   2.026   1.758   0.533  1.0100  0.2072 -1.8476
  625MPD2    H2 9314   1.643   1.908   0.629  0.1041 -0.9119 -0.5201
  625MPD2    H3 9315   1.783   1.734   0.610 -0.5919 -0.6861 -0.6637
  625MPD2     N 9316   2.146   1.990   0.465  0.5030  0.1629 -0.2401
  625MPD2    H5 9317   2.176   2.084   0.440 -1.2399  0.9403  0.5278
  625MPD2    N1 9318   1.702   2.169   0.517  0.0119 -0.0036 -0.3710
  625MPD2    H7 9319   1.741   2.256   0.481  0.0484  0.6313  1.2307
  626TMC3    C1 9320   1.504   2.306   0.516 -0.8761  0.9696  0.1141
  626TMC3    C2 9321   1.405   2.308   0.420  0.0171  0.2187  0.0304
  626TMC3    C3 9322   1.310   2.406   0.436 -0.2457 -0.4075 -0.2384
  626TMC3    C4 9323   1.490   2.358   0.640  0.6970 -0.1915 -0.1553
  626TMC3    C5 9324   1.386   2.444   0.655  0.4193  0.2689 -0.2528
  626TMC3    C6 9325   1.303   2.474   0.550  0.5800 -0.2517  0.2588
  626TMC3     C 9326   1.567   2.171   0.519 -0.6958  0.7846 -0.1852
  626TMC3     O 9327   1.481   2.083   0.523  0.2337  0.2777  0.2749
  626TMC3     H 9328   1.420   2.242   0.335  1.4518  0.0641  0.4044
  626TMC3    H1 9329   1.550   2.326   0.724  0.9191 -1.9465 -0.9908
  626TMC3    H2 9330   1.235   2.558   0.558  1.1467  0.3216 -0.8877
  626TMC3    C7 9331   1.329   2.444   0.786 -0.0111  0.7809 -0.1408
  626TMC3    C8 9332   1.200   2.412   0.331 -0.2851 -0.4057 -0.2785
  626TMC3    O1 9333   1.401   2.389   0.869  0.2063 -0.0416 -0.2765
  626TMC3    O2 9334   1.238   2.372   0.221 -0.3963  0.1677 -0.1104
  627MPD2     C 9335   4.496   2.172  14.151 -0.1648 -0.5710  0.5109
  627MPD2    C1 9336   4.490   2.134  14.283 -0.0170 -0.2295  0.3559
  627MPD2    C2 9337   4.427   2.012  14.315  1.1986  0.1214 -0.6416
  627MPD2    C3 9338   4.378   1.922  14.221 -0.5274  0.0443 -0.4800
  627MPD2    C4 9339   4.388   1.965  14.087 -0.5635  0.8593 -0.2504
  627MPD2    C5 9340   4.446   2.081  14.057  0.2094 -0.9750 -0.4304
  627MPD2     H 9341   4.427   1.984  14.420  1.3639  0.6370 -0.5026
  627MPD2    H1 9342   4.342   1.903  14.011 -0.8870  2.5777 -1.4392
  627MPD2    H2 9343   4.531   2.269  14.117 -2.6524  0.2455  0.3211
  627MPD2    H3 9344   4.444   2.116  13.954 -2.0266  0.8102  0.2112
  627MPD2     N 9345   4.327   1.794  14.252  0.1121 -0.7164 -0.1937
  627MPD2    H5 9346   4.322   1.766  14.350  0.9880  1.4323  0.4659
  627MPD2    N1 9347   4.549   2.203  14.388  0.3663 -0.0928  0.3956
  627MPD2    H7 9348   4.543   2.161  14.481 -1.9313 -0.5830  0.0062
  628TMC3    C1 9349   4.672   2.368  14.497  0.7500 -0.1368 -0.0982
  628TMC3    C2 9350   0.018   2.270  14.538 -0.1004  0.1087 -0.6040
  628TMC3    C3 9351   0.103   2.293  14.640  0.2540  0.2968  0.7593
  628TMC3    C4 9352   4.663   2.489  14.558  0.8214 -0.4200 -0.1196
  628TMC3    C5 9353   0.010   2.506  14.670  0.1721  0.7504  0.1253
  628TMC3    C6 9354   0.092   2.406  14.723  0.6806  0.4770 -0.6139
  628TMC3     C 9355   4.589   2.337  14.378  0.0689  0.0849  0.2134
  628TMC3     O 9356   4.556   2.425  14.306 -0.2237  0.2066 -0.3730
  628TMC3     H 9357   0.043   2.198  14.461 -1.0219 -1.8985  0.9808
  628TMC3    H1 9358   4.624   2.576  14.507  1.9442  0.0132 -0.2265
  628TMC3    H2 9359   0.173   2.428  14.792 -0.3129 -0.3896  0.8361
  628TMC3    C7 9360   0.048   2.646  14.702 -0.2862 -0.0830 -0.3986
  628TMC3    C8 9361   0.240   2.239  14.636 -0.5408  0.3022  0.2438
  628TMC3    O1 9362   0.148   2.659  14.768  0.0828 -0.3003  0.1411
  628TMC3    O2 9363   0.294   2.248  14.526  0.0617  0.1012  0.4791
  629MPD2     C 9364   3.424   0.736  16.049 -0.0566  0.2038  0.0614
  629MPD2    C1 9365   3.428   0.718  16.185 -0.0499  0.7939  0.0067
  629MPD2    C2 9366   3.325   0.658  16.250 -0.1110 -0.0302 -0.2117
  629MPD2    C3 9367   3.206   0.639  16.181 -0.1898 -0.3786  0.4128
  629MPD2    C4 9368   3.196   0.662  16.049 -0.3905  0.0664  0.0823
  629MPD2    C5 9369   3.308   0.707  15.979  0.0816  0.2124 -0.3060
  629MPD2     H 9370   3.323   0.661  16.359  1.3621 -0.6149 -0.1742
  629MPD2    H1 9371   3.105   0.648  15.993  0.0322 -1.9417 -0.1259
  629MPD2    H2 9372   3.504   0.783  15.993  0.0014 -2.7334 -2.3123
  629MPD2    H3 9373   3.316   0.702  15.871 -2.7906 -0.9964 -0.4691
  629MPD2     N 9374   3.088   0.592  16.249 -0.1536  0.0196 -0.4798
  629MPD2    H5 9375   3.000   0.607  16.201  0.2549  1.1428 -0.8844
  629MPD2    N1 9376   3.536   0.770  16.251  0.0179 -0.1651  0.4846
  629MPD2    H7 9377   3.597   0.825  16.192  1.9498 -1.9812  0.7761
  630TMC3    C1 9378   3.677   0.807  16.442  0.4609  0.1805 -0.4527
  630TMC3    C2 9379   3.730   0.916  16.375 -0.3059 -0.0899 -0.5545
  630TMC3    C3 9380   3.780   1.004  16.461 -0.8841 -0.3785 -0.2824
  630TMC3    C4 9381   3.684   0.784  16.579 -0.1074  0.2618  0.5616
  630TMC3    C5 9382   3.727   0.883  16.655 -0.5161 -0.0394  1.0701
  630TMC3    C6 9383   3.784   0.984  16.596 -0.5764 -0.5832  0.2366
  630TMC3     C 9384   3.572   0.726  16.376 -0.1850 -0.0264  0.5582
  630TMC3     O 9385   3.526   0.636  16.448 -0.0750  0.8703  0.1329
  630TMC3     H 9386   3.723   0.936  16.269  0.9624 -1.1566 -0.8388
  630TMC3    H1 9387   3.614   0.716  16.625 -0.7562 -0.6286 -1.7514
  630TMC3    H2 9388   3.800   1.070  16.659  2.3493 -1.8989  1.2648
  630TMC3    C7 9389   3.733   0.872  16.798 -0.4351  0.0585  0.1408
  630TMC3    C8 9390   3.862   1.118  16.423  0.5702 -0.2737 -0.0786
  630TMC3    O1 9391   3.661   0.788  16.849 -0.0471 -0.5717 -0.6322
  630TMC3    O2 9392   3.921   1.164  16.517  0.4670  0.2324  0.0162
  631MPD2     C 9393   1.809   1.662  15.593 -0.0599 -0.0160  0.5563
  631MPD2    C1 9394   1.858   1.544  15.534  0.0378  0.3862 -0.1054
  631MPD2    C2 9395   1.978   1.497  15.577 -0.2523 -0.7883  0.0635
  631MPD2    C3 9396   2.053   1.561  15.674  0.2715 -0.0420 -0.6608
  631MPD2    C4 9397   2.003   1.677  15.726  0.5950 -0.1064 -0.7103
  631MPD2    C5 9398   1.882   1.726  15.688 -0.3760  0.5056 -0.0445
  631MPD2     H 9399   2.023   1.404  15.546 -0.0140 -1.1209  1.4229
  631MPD2    H1 9400   2.060   1.729  15.803 -0.8197  1.3815 -0.6792
  631MPD2    H2 9401   1.721   1.712  15.556 -1.6772 -3.9485 -0.9125
  631MPD2    H3 9402   1.845   1.823  15.718  2.0038  1.8459 -1.3873
  631MPD2     N 9403   2.180   1.519  15.720 -0.7179  0.4496 -0.4837
  631MPD2    H5 9404   2.219   1.580  15.791 -0.3837 -0.5837  0.2369
  631MPD2    N1 9405   1.779   1.485  15.433  0.1297  0.8273 -0.0402
  631MPD2    H7 9406   1.692   1.533  15.413  0.6198  1.4891 -0.5922
  632TMC3    C1 9407   1.722   1.320  15.274  0.4463 -0.1024  0.3061
  632TMC3    C2 9408   1.591   1.323  15.321 -0.4461  0.5050 -0.8253
  632TMC3    C3 9409   1.493   1.274  15.244  0.2407  0.4530  1.3812
  632TMC3    C4 9410   1.752   1.255  15.160  0.5540  0.5290 -0.5587
  632TMC3    C5 9411   1.649   1.223  15.075  0.5081  0.0579  0.1347
  632TMC3    C6 9412   1.522   1.230  15.116  0.4687  0.8852  0.0776
  632TMC3     C 9413   1.819   1.383  15.355 -0.0341  0.7813 -0.1451
  632TMC3     O 9414   1.927   1.330  15.354 -0.0724  0.0261 -0.1216
  632TMC3     H 9415   1.578   1.357  15.423 -0.0699 -1.4012 -0.1437
  632TMC3    H1 9416   1.856   1.269  15.131  0.7584  1.0223  0.4218
  632TMC3    H2 9417   1.437   1.212  15.050 -0.3113  1.1152  1.0114
  632TMC3    C7 9418   1.667   1.198  14.929  0.2100  0.3894  0.4131
  632TMC3    C8 9419   1.348   1.289  15.277  0.4536 -0.1223 -0.3429
  632TMC3    O1 9420   1.567   1.194  14.856 -0.1624 -0.2614  0.7340
  632TMC3    O2 9421   1.263   1.239  15.208  0.0059  0.4021  0.2670
  633MPD2     C 9422   1.274   3.558  17.486  0.5029 -0.5339 -0.1569
  633MPD2    C1 9423   1.205   3.556  17.363  0.3188  0.1778  0.2064
  633MPD2    C2 9424   1.129   3.447  17.326 -0.8967  0.0383  0.2267
  633MPD2    C3 9425   1.123   3.338  17.407 -0.1780 -0.3906  0.2224
  633MPD2    C4 9426   1.180   3.337  17.536  0.3213 -0.1743  0.1579
  633MPD2    C5 9427   1.258   3.453  17.571 -0.1207  0.4189  0.3709
  633MPD2     H 9428   1.091   3.437  17.225  0.8881  0.6161 -0.5097
  633MPD2    H1 9429   1.162   3.262  17.611 -0.2672  1.5716  1.7681
  633MPD2    H2 9430   1.329   3.642  17.526  0.3215 -0.9637  0.9968
  633MPD2    H3 9431   1.299   3.459  17.671 -1.8452 -1.4189  1.2019
  633MPD2     N 9432   1.059   3.216  17.363  0.0285 -0.4761 -0.1942
  633MPD2    H5 9433   1.063   3.136  17.426 -0.3251  0.1182  0.5673
  633MPD2    N1 9434   1.231   3.651  17.260  0.1428  0.4540 -0.8167
  633MPD2    H7 9435   1.194   3.636  17.167 -0.2004  1.3777 -0.8318
  634TMC3    C1 9436   1.383   3.781  17.154  0.2114 -0.5059 -0.2223
  634TMC3    C2 9437   1.388   3.680  17.070  0.1971 -0.4456 -0.5339
  634TMC3    C3 9438   1.437   3.699  16.941  0.5951 -0.5996  0.2476
  634TMC3    C4 9439   1.416   3.903  17.115  0.3533 -0.4859  0.0141
  634TMC3    C5 9440   1.454   3.920  16.985 -0.0132  0.5722 -0.0485
  634TMC3    C6 9441   1.472   3.820  16.902 -0.3525  0.5448 -0.0460
  634TMC3     C 9442   1.318   3.752  17.276  0.3213  0.4136  0.6091
  634TMC3     O 9443   1.367   3.805  17.375  0.3359  0.0781 -0.2774
  634TMC3     H 9444   1.382   3.579  17.108  0.6421 -0.9513 -1.8319
  634TMC3    H1 9445   1.413   3.985  17.186 -2.0620 -0.3772 -0.2389
  634TMC3    H2 9446   1.498   3.837  16.798 -3.2434  0.8885 -0.6985
  634TMC3    C7 9447   1.411   4.051  16.927  1.0127  0.1201  0.3573
  634TMC3    C8 9448   1.392   3.609  16.836 -0.0367  0.2344  0.1653
  634TMC3    O1 9449   1.417   4.060  16.803  0.0839 -0.1292 -0.3992
  634TMC3    O2 9450   1.448   3.614  16.733 -0.0589  0.1695 -0.4269
  635TMC3    C1 9451   0.840   0.752   1.221  0.0307  0.6958 -0.8002
  635TMC3    C2 9452   0.818   0.617   1.226  0.2908 -0.4932  0.3691
  635TMC3    C3 9453   0.702   0.567   1.176 -0.7851 -0.5852 -0.3088
  635TMC3    C4 9454   0.742   0.839   1.176  0.6805 -0.3434  0.3744
  635TMC3    C5 9455   0.625   0.785   1.128  0.2376 -0.0327  0.3793
  635TMC3    C6 9456   0.601   0.646   1.131  0.1985  0.4822 -0.2995
  635TMC3     C 9457   0.978   0.796   1.201  0.1760 -0.2914 -0.4528
  635TMC3     O 9458   1.074   0.719   1.205 -0.0547 -0.4577 -0.0267
  635TMC3     H 9459   0.906   0.558   1.250 -0.4091 -1.3477  0.8543
  635TMC3    H1 9460   0.771   0.940   1.148  1.8447 -1.5813 -2.9104
  635TMC3    H2 9461   0.525   0.613   1.060  0.4200  0.9589 -0.7559
  635TMC3    C7 9462   0.509   0.873   1.084  0.1080  0.7822  0.3776
  635TMC3    C8 9463   0.717   0.442   1.105  0.0517  0.4908 -0.3379
  635TMC3    O1 9464   0.405   0.833   1.037  0.1137 -0.3464  0.0592
  635TMC3    O2 9465   0.831   0.424   1.064 -0.0410  0.5626  0.2618
  636MPD2     C 9466   2.337   4.244  16.384 -0.2834 -0.9186 -0.5754
  636MPD2    C1 9467   2.401   4.274  16.508 -0.6212 -0.9511  0.2095
  636MPD2    C2 9468   2.479   4.170  16.568 -0.2694  0.0846 -0.5883
  636MPD2    C3 9469   2.485   4.046  16.506 -0.2619 -0.7495  0.2496
  636MPD2    C4 9470   2.422   4.025  16.389 -0.3946  0.0753 -0.6366
  636MPD2    C5 9471   2.345   4.119  16.335 -0.7920  0.4161 -0.1339
  636MPD2     H 9472   2.537   4.190  16.657 -2.0901  1.0373  0.3725
  636MPD2    H1 9473   2.432   3.933  16.332  1.5487  1.2196 -2.1040
  636MPD2    H2 9474   2.274   4.318  16.336 -0.7059  1.4018  3.4798
  636MPD2    H3 9475   2.302   4.095  16.238 -0.1285 -0.4105 -0.2167
  636MPD2     N 9476   2.571   3.954  16.569 -0.2722 -0.7829 -0.4908
  636MPD2    H5 9477   2.622   3.986  16.651  0.3691 -0.3342 -1.0700
  636MPD2    N1 9478   2.416   4.403  16.557 -0.4821 -0.3087  0.6324
  636MPD2    H7 9479   2.458   4.408  16.650 -2.1041  0.3440  1.3267
  637TMC3    C1 9480   2.691   3.754  16.611  0.0860 -0.4640 -0.7037
  637TMC3    C2 9481   2.727   3.799  16.737  0.1569  0.2173  0.3154
  637TMC3    C3 9482   2.835   3.736  16.798 -1.2013  0.4490 -0.9795
  637TMC3    C4 9483   2.759   3.654  16.552  0.0399 -0.7633 -0.0155
  637TMC3    C5 9484   2.863   3.585  16.615 -0.1746 -0.3180 -0.0831
  637TMC3    C6 9485   2.898   3.625  16.744 -0.1555 -1.0722  0.1342
  637TMC3     C 9486   2.605   3.833  16.516  0.5653  0.0163  0.9013
  637TMC3     O 9487   2.581   3.773  16.410 -0.1034  0.2601  0.1607
  637TMC3     H 9488   2.675   3.884  16.781 -0.8155 -0.2670  0.0863
  637TMC3    H1 9489   2.741   3.638  16.446  2.7872 -1.0580 -0.4178
  637TMC3    H2 9490   2.983   3.582  16.795 -0.8070 -0.0144  2.1078
  637TMC3    C7 9491   2.982   3.565  16.533  0.2774  0.0284 -0.6226
  637TMC3    C8 9492   2.934   3.830  16.848  1.0164 -0.1690  0.1312
  637TMC3    O1 9493   2.976   3.598  16.416 -0.2653 -0.6695  0.6559
  637TMC3    O2 9494   2.911   3.944  16.810  0.4445 -1.0504 -0.2633
  638MPD2     C 9495   2.274   2.996  15.174 -0.9774  0.2977 -0.5647
  638MPD2    C1 9496   2.196   2.923  15.089 -0.0343  0.9352 -0.1832
  638MPD2    C2 9497   2.153   2.795  15.124  0.3682 -0.8331  0.6695
  638MPD2    C3 9498   2.188   2.743  15.244  0.3515  0.3226  0.4990
  638MPD2    C4 9499   2.269   2.815  15.326  0.5367 -0.3756 -0.1633
  638MPD2    C5 9500   2.310   2.942  15.291  0.1741 -0.1846  0.0615
  638MPD2     H 9501   2.091   2.739  15.056  0.4519 -2.1513  1.6816
  638MPD2    H1 9502   2.311   2.772  15.416  1.2850  1.2413  0.2556
  638MPD2    H2 9503   2.321   3.091  15.151  0.1202 -0.5551 -1.8433
  638MPD2    H3 9504   2.389   2.981  15.354  0.4618 -2.3711  1.0594
  638MPD2     N 9505   2.144   2.609  15.272 -0.1228  0.3368 -0.3514
  638MPD2    H5 9506   2.090   2.560  15.201  2.0843 -0.5242 -1.4250
  638MPD2    N1 9507   2.162   2.985  14.967 -0.0089  0.0249 -0.3104
  638MPD2    H7 9508   2.218   3.066  14.940 -0.2055  1.4145  3.4371
  639TMC3    C1 9509   2.125   2.397  15.384 -0.3279  0.5896  0.0332
  639TMC3    C2 9510   2.019   2.365  15.302  0.5284  0.7255  0.3507
  639TMC3    C3 9511   2.045   2.257  15.220 -0.4661 -0.0658 -0.2958
  639TMC3    C4 9512   2.241   2.330  15.395 -0.2905 -0.4265  0.6998
  639TMC3    C5 9513   2.264   2.234  15.299  0.0056  0.0344 -0.8130
  639TMC3    C6 9514   2.171   2.202  15.211 -0.1093 -0.2798  0.5867
  639TMC3     C 9515   2.151   2.537  15.392  0.6509 -0.5757 -0.3842
  639TMC3     O 9516   2.197   2.575  15.499  0.7426  0.2766 -0.2692
  639TMC3     H 9517   1.929   2.425  15.309  1.4972  2.0171  1.5785
  639TMC3    H1 9518   2.314   2.379  15.459  0.3665 -0.3443 -0.1119
  639TMC3    H2 9519   2.206   2.121  15.148 -0.1367  1.3000 -1.4473
  639TMC3    C7 9520   2.401   2.194  15.285  0.0704  0.5098  1.0375
  639TMC3    C8 9521   1.955   2.226  15.108  0.1368  0.6307 -0.0056
  639TMC3    O1 9522   2.456   2.173  15.393 -0.0019 -0.0752  0.1953
  639TMC3    O2 9523   2.013   2.188  15.005  0.1403  0.0364  0.5633
  640MPD2     C 9524   3.192   1.760  10.013  0.0786 -0.0909  0.2476
  640MPD2    C1 9525   3.099   1.747   9.916 -0.0447 -0.0727 -0.0831
  640MPD2    C2 9526   2.997   1.834   9.916  0.0191 -0.5670  0.2168
  640MPD2    C3 9527   2.974   1.934  10.010  0.1773 -0.2672  0.3149
  640MPD2    C4 9528   3.053   1.924  10.115  0.0408  0.2360 -0.0387
  640MPD2    C5 9529   3.170   1.855  10.112  0.3673  0.8514 -0.3618
  640MPD2     H 9530   2.920   1.823   9.840 -0.0759  0.1366  0.2080
  640MPD2    H1 9531   3.029   1.985  10.201  2.1078  1.0890 -0.0649
  640MPD2    H2 9532   3.284   1.701  10.017  0.3266 -0.0120 -4.3642
  640MPD2    H3 9533   3.247   1.884  10.183  1.2382  0.0825 -0.9843
  640MPD2     N 9534   2.870   2.028  10.021  0.2346 -0.4812  0.1490
  640MPD2    H5 9535   2.885   2.098  10.093 -1.5616 -0.5222  0.5528
  640MPD2    N1 9536   3.127   1.645   9.826  0.1633  0.2201 -0.5896
  640MPD2    H7 9537   3.201   1.581   9.852  0.2385  0.4407 -0.2647
  641TMC3    C1 9538   3.109   1.483   9.665  0.3228  0.0854  0.1385
  641TMC3    C2 9539   3.181   1.385   9.735 -0.0370 -0.5174 -0.0201
  641TMC3    C3 9540   3.228   1.276   9.662  0.4117  0.3550  0.7326
  641TMC3    C4 9541   3.090   1.470   9.532  1.1188 -0.4082  0.2007
  641TMC3    C5 9542   3.146   1.357   9.468 -0.7427  0.0699 -0.8157
  641TMC3    C6 9543   3.215   1.254   9.532  0.2765 -0.0107 -0.7665
  641TMC3     C 9544   3.054   1.608   9.716 -0.0460  0.3859 -0.2669
  641TMC3     O 9545   2.962   1.665   9.660 -0.0152 -0.3924  0.3072
  641TMC3     H 9546   3.194   1.400   9.841 -2.5123  2.3585 -0.1310
  641TMC3    H1 9547   3.019   1.541   9.493  0.3027 -2.0189 -1.2407
  641TMC3    H2 9548   3.254   1.163   9.489  0.8532  0.6985 -1.7374
  641TMC3    C7 9549   3.125   1.341   9.326 -0.2516  0.4837  0.4413
  641TMC3    C8 9550   3.307   1.177   9.736 -0.2557  0.7288 -0.3321
  641TMC3    O1 9551   3.157   1.238   9.269 -0.1591 -0.0151  0.2018
  641TMC3    O2 9552   3.299   1.060   9.698 -1.0237 -0.0408 -0.4825
  642TMC3    C1 9553   3.859   3.010  12.264  0.4047 -0.7467  0.6407
  642TMC3    C2 9554   3.922   3.123  12.315  0.4064 -0.0158 -0.5022
  642TMC3    C3 9555   4.011   3.104  12.420  0.0386  0.2628 -0.4233
  642TMC3    C4 9556   3.887   2.880  12.307 -0.3614 -0.0938  0.0930
  642TMC3    C5 9557   3.971   2.874  12.414 -0.6156  0.2146 -0.3533
  642TMC3    C6 9558   4.022   2.979  12.476 -0.1324 -0.3346 -0.2682
  642TMC3     C 9559   3.748   3.016  12.176 -0.4529  0.5073 -0.0385
  642TMC3     O 9560   3.749   2.914  12.108  0.4321  0.3763 -0.4021
  642TMC3     H 9561   3.892   3.219  12.273  0.3325 -0.2153 -0.9036
  642TMC3    H1 9562   3.844   2.788  12.268  1.7813 -0.7451 -0.7109
  642TMC3    H2 9563   4.096   2.973  12.555 -0.2690  0.9224 -0.0485
  642TMC3    C7 9564   3.967   2.751  12.487 -0.7903 -0.2510 -0.2259
  642TMC3    C8 9565   4.070   3.209  12.497  0.0801 -0.7224 -0.2681
  642TMC3    O1 9566   3.978   2.647  12.426 -0.2841  1.2921  0.3229
  642TMC3    O2 9567   4.141   3.185  12.593  0.4747  0.3777 -0.1662
  643TMC3    C1 9568   3.127   1.717  17.728 -0.6279  0.4572  0.0333
  643TMC3    C2 9569   3.028   1.763  17.644 -0.4683 -0.2895  0.0684
  643TMC3    C3 9570   2.981   1.675  17.555  0.0485 -0.8278  0.4574
  643TMC3    C4 9571   3.175   1.592  17.714 -0.3416  0.2366  0.2179
  643TMC3    C5 9572   3.128   1.504  17.621  0.3730  0.8559 -0.0608
  643TMC3    C6 9573   3.021   1.543  17.546  0.0158 -0.0016 -0.1648
  643TMC3     C 9574   3.150   1.787   0.101 -0.4126 -0.3713  0.1393
  643TMC3     O 9575   3.079   1.883   0.126 -0.2863 -0.0930  0.1662
  643TMC3     H 9576   2.998   1.867  17.651 -1.0951 -0.3737 -1.2612
  643TMC3    H1 9577   3.258   1.558   0.022 -1.7644 -0.0408  2.0018
  643TMC3    H2 9578   2.986   1.481  17.465  1.5551  1.2139 -1.7488
  643TMC3    C7 9579   3.235   1.453  17.545  0.8175 -0.3884  0.1431
  643TMC3    C8 9580   2.957   1.732  17.421 -0.2997 -0.5368  0.2670
  643TMC3    O1 9581   3.350   1.502  17.559  0.4182  0.1546  0.0400
  643TMC3    O2 9582   2.954   1.648  17.332  0.3315 -0.2168 -0.2088
  644MPD2     C 9583   2.672   1.527   9.196 -0.4931 -0.0339  0.0384
  644MPD2    C1 9584   2.688   1.414   9.281 -0.4045 -0.3196 -0.2517
  644MPD2    C2 9585   2.670   1.437   9.413  0.1484 -1.2645  0.6237
  644MPD2    C3 9586   2.644   1.566   9.460 -0.3314 -0.5887 -0.1884
  644MPD2    C4 9587   2.647   1.674   9.376 -0.0856  0.7035 -0.0808
  644MPD2    C5 9588   2.656   1.655   9.240  0.1631 -0.0611  0.9127
  644MPD2     H 9589   2.675   1.364   9.492 -2.4706  0.3214  2.2484
  644MPD2    H1 9590   2.643   1.778   9.406 -0.7165  0.5019  0.5305
  644MPD2    H2 9591   2.686   1.518   9.089  3.0669 -0.0556  0.5088
  644MPD2    H3 9592   2.669   1.737   9.171 -2.1267 -1.6233 -1.3798
  644MPD2     N 9593   2.616   1.588   9.590  0.1073 -0.2640  0.3957
  644MPD2    H5 9594   2.629   1.503   9.644 -1.1484 -0.7275 -0.0392
  644MPD2    N1 9595   2.716   1.290   9.218  0.3389 -0.2139 -0.2675
  644MPD2    H7 9596   2.714   1.295   9.117  2.0749  4.1467 -0.1070
  645TMC3    C1 9597   2.568   1.732   9.782 -0.6162  0.5099  0.1830
  645TMC3    C2 9598   2.486   1.827   9.850 -0.2930  0.5868  0.2812
  645TMC3    C3 9599   2.504   1.832   9.982 -0.2280  0.2887  0.2648
  645TMC3    C4 9600   2.660   1.655   9.847 -0.2527 -0.0974  0.6148
  645TMC3    C5 9601   2.679   1.680   9.981  0.3919  0.2047  0.5310
  645TMC3    C6 9602   2.597   1.762  10.055 -0.1596  0.3667 -0.4192
  645TMC3     C 9603   2.549   1.704   9.642  0.0220  0.0184  0.1991
  645TMC3     O 9604   2.476   1.779   9.581 -0.0901  0.2596  0.1517
  645TMC3     H 9605   2.407   1.876   9.794  0.4446 -0.9947 -2.1759
  645TMC3    H1 9606   2.739   1.601   9.796  0.6535  1.2478  0.6192
  645TMC3    H2 9607   2.611   1.775  10.161  0.1915 -0.8055 -0.3209
  645TMC3    C7 9608   2.777   1.602  10.051  0.2891 -0.3821 -0.5417
  645TMC3    C8 9609   2.429   1.933  10.062  0.0761 -0.0576  0.2537
  645TMC3    O1 9610   2.809   1.645  10.160 -0.5762  0.0280 -0.4453
  645TMC3    O2 9611   2.432   1.922  10.186 -0.0854  0.7028 -0.2528
  646MPD2     C 9612   2.330   1.366  14.573 -0.1179 -0.1226 -0.3058
  646MPD2    C1 9613   2.296   1.424  14.691  0.9284 -0.4125  0.2259
  646MPD2    C2 9614   2.171   1.497  14.692 -0.1725 -0.3384 -0.0930
  646MPD2    C3 9615   2.092   1.516  14.580 -0.5578 -0.1427 -0.3390
  646MPD2    C4 9616   2.144   1.462  14.462  0.1779  0.7558 -0.0034
  646MPD2    C5 9617   2.256   1.382  14.464 -0.2491 -0.2319  0.1873
  646MPD2     H 9618   2.136   1.543  14.784 -0.1277  0.8387 -0.6625
  646MPD2    H1 9619   2.088   1.449  14.370  3.5960 -0.3590 -1.9291
  646MPD2    H2 9620   2.414   1.299  14.564 -2.2356 -2.7668 -0.5325
  646MPD2    H3 9621   2.283   1.333  14.372  1.4078  0.1693  0.4428
  646MPD2     N 9622   1.964   1.582  14.583  0.2096  0.6628 -0.2328
  646MPD2    H5 9623   1.910   1.604  14.666  1.3822  0.1892  0.6560
  646MPD2    N1 9624   2.387   1.412  14.800  0.5278 -0.0504  0.1631
  646MPD2    H7 9625   2.471   1.365  14.770 -0.3301 -1.7097  0.3135
  647TMC3    C1 9626   2.487   1.443  15.016  0.6262 -0.4284 -0.2385
  647TMC3    C2 9627   2.462   1.446  15.153 -0.5510 -0.7503 -0.2171
  647TMC3    C3 9628   2.564   1.439  15.237  0.7170 -0.3058  0.7758
  647TMC3    C4 9629   2.616   1.433  14.965  0.3426  0.3810 -0.0435
  647TMC3    C5 9630   2.720   1.433  15.055  0.1217 -0.0767  0.4630
  647TMC3    C6 9631   2.697   1.439  15.188  0.7034  0.5225  0.2485
  647TMC3     C 9632   2.368   1.458  14.929  0.5349  0.2232  0.2139
  647TMC3     O 9633   2.258   1.476  14.977 -0.0294 -0.1033  0.1457
  647TMC3     H 9634   2.359   1.439  15.188 -0.1238 -2.4996  0.6767
  647TMC3    H1 9635   2.641   1.442  14.860  1.0481 -0.5673  0.0415
  647TMC3    H2 9636   2.775   1.446  15.263  0.4071  0.1985  0.5862
  647TMC3    C7 9637   2.859   1.394  15.025  0.1118  0.8915 -0.3861
  647TMC3    C8 9638   2.560   1.341  15.340 -0.4042  0.1725  0.1784
  647TMC3    O1 9639   2.945   1.421  15.107 -0.1447  0.0527 -0.2508
  647TMC3    O2 9640   2.666   1.294  15.379  0.3592 -0.0129 -0.1398
  648TMC3    C1 9641   1.895   3.817  16.332  0.3031  0.2060  0.0772
  648TMC3    C2 9642   1.919   3.689  16.295 -0.3021  0.5084 -0.0528
  648TMC3    C3 9643   1.910   3.659  16.160  0.2778  1.2414  0.8417
  648TMC3    C4 9644   1.867   3.919  16.247  0.2339 -0.3084 -0.5731
  648TMC3    C5 9645   1.864   3.892  16.114  0.1685 -0.3303  0.1622
  648TMC3    C6 9646   1.885   3.764  16.069 -0.3817  0.0328  0.6175
  648TMC3     C 9647   1.880   3.853  16.475 -0.3251 -0.7092  0.4133
  648TMC3     O 9648   1.891   3.968  16.503  0.0022  1.0760  0.0874
  648TMC3     H 9649   1.958   3.609  16.357  2.3796  0.3348 -1.9542
  648TMC3    H1 9650   1.853   4.016  16.292 -1.2727 -0.8872  0.2062
  648TMC3    H2 9651   1.870   3.747  15.963  1.1274 -0.3367  0.4638
  648TMC3    C7 9652   1.819   3.992  16.025 -0.8692 -0.0423 -0.5337
  648TMC3    C8 9653   1.932   3.523  16.102  0.5453 -0.1971  0.6017
  648TMC3    O1 9654   1.857   3.999  15.903 -0.4245  0.9009 -0.2788
  648TMC3    O2 9655   1.945   3.519  15.980  0.2527  0.0721 -0.4534
  649TMC3    C1 9656   0.881   0.226  12.807  0.0800 -0.5485 -0.5365
  649TMC3    C2 9657   1.003   0.161  12.830 -0.1044 -1.2468  0.6382
  649TMC3    C3 9658   0.993   0.030  12.876  0.1663  0.9330  1.2578
  649TMC3    C4 9659   0.767   0.178  12.864 -0.1358 -0.3766 -0.2259
  649TMC3    C5 9660   0.760   0.050  12.907 -0.0550 -0.6672 -0.5096
  649TMC3    C6 9661   0.872   4.712  12.910 -0.3779 -0.3890  0.1772
  649TMC3     C 9662   0.861   0.342  12.723 -0.3447 -0.2151 -0.0115
  649TMC3     O 9663   0.756   0.407  12.729  0.9864  0.3487 -0.1256
  649TMC3     H 9664   1.098   0.212  12.819 -1.5210  1.1915 -0.1257
  649TMC3    H1 9665   0.682   0.244  12.875  1.5850  1.7185  0.5484
  649TMC3    H2 9666   0.881   4.613  12.953 -1.0628  0.6426  2.7177
  649TMC3    C7 9667   0.646   0.011  12.985  0.2674 -0.2886 -0.3163
  649TMC3    C8 9668   1.112   4.701  12.914  0.1232 -0.6185 -0.2417
  649TMC3    O1 9669   0.594   0.098  13.052  1.0331 -0.2811 -0.1639
  649TMC3    O2 9670   1.103   4.611  12.997  0.0472 -0.3580 -0.0831
  650TMC3    C1 9671   3.221   2.396  12.897  0.2552 -0.0859 -0.2597
  650TMC3    C2 9672   3.288   2.518  12.867 -0.0004  0.7533 -0.6201
  650TMC3    C3 9673   3.262   2.563  12.740 -0.2215 -0.1302 -0.1880
  650TMC3    C4 9674   3.110   2.349  12.823  0.0642  0.0389  0.5398
  650TMC3    C5 9675   3.095   2.402  12.699  0.2791  0.3195 -0.7731
  650TMC3    C6 9676   3.171   2.509  12.656 -0.5783 -0.8265  0.2697
  650TMC3     C 9677   3.265   2.312  13.007 -0.2695  0.3249  0.6263
  650TMC3     O 9678   3.341   2.372  13.084 -0.9962  0.1803  0.5328
  650TMC3     H 9679   3.373   2.552  12.925 -1.0440 -0.9930  1.9155
  650TMC3    H1 9680   3.044   2.273  12.864 -1.6868  0.5564 -1.3219
  650TMC3    H2 9681   3.145   2.549  12.559 -1.9626  1.3025  1.4971
  650TMC3    C7 9682   2.954   2.398  12.651 -0.1381  0.1910  0.0614
  650TMC3    C8 9683   3.253   2.706  12.737 -0.1958 -0.0303  0.2150
  650TMC3    O1 9684   2.893   2.299  12.684 -0.1674 -0.4574 -1.2488
  650TMC3    O2 9685   3.238   2.753  12.627  0.3431 -0.7688  0.3322
  651MPD2     C 9686   1.930   4.267  11.295  0.5321  0.0943  0.0285
  651MPD2    C1 9687   1.865   4.375  11.237 -0.9897 -0.3606 -0.2304
  651MPD2    C2 9688   1.942   4.464  11.166 -0.5916 -0.2671  0.0240
  651MPD2    C3 9689   2.079   4.448  11.153 -0.4704 -0.0279  0.3568
  651MPD2    C4 9690   2.142   4.337  11.208 -0.2132 -0.5958  0.0573
  651MPD2    C5 9691   2.067   4.249  11.274 -0.0433  0.1733  0.1950
  651MPD2     H 9692   1.890   4.547  11.119  2.4672  0.1341 -2.6693
  651MPD2    H1 9693   2.250   4.322  11.210  0.2004  2.6210  0.9692
  651MPD2    H2 9694   1.873   4.192  11.349 -0.6247  0.6010 -0.4825
  651MPD2    H3 9695   2.122   4.160  11.300 -0.4401 -0.6011 -1.6381
  651MPD2     N 9696   2.142   4.546  11.079 -0.4072 -0.1218  0.4780
  651MPD2    H5 9697   2.080   4.617  11.042 -0.3814  0.4564  1.5625
  651MPD2    N1 9698   1.727   4.394  11.248 -0.4014  0.3520  0.5258
  651MPD2    H7 9699   1.680   4.477  11.214  2.1320  2.3146  1.7923
  652TMC3    C1 9700   2.482   0.122  11.051 -0.0913  0.4560  0.0256
  652TMC3    C2 9701   2.449   4.732  11.067 -0.3200 -0.2794 -0.0821
  652TMC3    C3 9702   2.314   4.698  11.042 -0.1609  0.4790 -0.5154
  652TMC3    C4 9703   2.395   0.218  11.007 -0.8043  0.6505  0.1270
  652TMC3    C5 9704   2.264   0.179  10.986  1.0181 -0.2821  0.2713
  652TMC3    C6 9705   2.218   0.052  11.002  0.0101 -0.2448 -0.7906
  652TMC3     C 9706   2.622   0.152  11.056  1.1265  0.1718 -0.7074
  652TMC3     O 9707   2.693   0.067  11.110 -0.4099 -0.3017  0.2075
  652TMC3     H 9708   2.522   4.662  11.106 -0.2738 -0.0703  0.2091
  652TMC3    H1 9709   2.425   0.323  11.005 -0.0700  0.4336 -0.2532
  652TMC3    H2 9710   2.115   0.024  10.982  0.6402 -3.9727  1.1832
  652TMC3    C7 9711   2.168   0.280  10.945  0.6545  0.1309  0.2063
  652TMC3    C8 9712   2.278   4.556  11.062  0.2142  1.0351  0.0670
  652TMC3    O1 9713   2.050   0.250  10.927  0.5827 -0.4159 -0.1179
  652TMC3    O2 9714   2.376   4.487  11.087  0.0883 -0.8182 -0.4093
  653MPD2     C 9715   0.940   3.658   0.017 -0.3937  0.2359 -0.0471
  653MPD2    C1 9716   0.860   3.747  17.699 -0.2782 -0.3844 -0.6070
  653MPD2    C2 9717   0.796   3.711  17.584  0.3502  0.5392  0.1104
  653MPD2    C3 9718   0.806   3.578  17.544 -0.0912  0.8243 -1.0863
  653MPD2    C4 9719   0.878   3.487  17.624  0.2414  0.8286 -0.1029
  653MPD2    C5 9720   0.953   3.528  17.725 -0.0561  0.1274  0.3309
  653MPD2     H 9721   0.745   3.788  17.526 -0.6812 -2.0913 -2.4854
  653MPD2    H1 9722   0.888   3.381  17.609  2.4060  0.6879  2.4015
  653MPD2    H2 9723   0.986   3.677   0.113 -0.7676 -0.5661  0.2881
  653MPD2    H3 9724   1.007   3.449   0.021 -1.0426 -1.3988 -1.0628
  653MPD2     N 9725   0.726   3.524  17.436 -0.5619  0.1415 -0.1242
  653MPD2    H5 9726   0.680   3.598  17.384  0.2441  0.1732 -0.8015
  653MPD2    N1 9727   0.841   3.878   0.004  0.1922  0.1352  0.3182
  653MPD2    H7 9728   0.789   3.944  17.700 -0.6040  0.6372  1.6176
  654TMC3    C1 9729   0.605   3.368  17.305  0.2681 -0.2448  0.0556
  654TMC3    C2 9730   0.507   3.457  17.283 -0.2618  0.4343 -0.1593
  654TMC3    C3 9731   0.396   3.434  17.200  0.7090 -0.3164  0.7072
  654TMC3    C4 9732   0.598   3.248  17.247  0.3125  0.0489  0.0180
  654TMC3    C5 9733   0.482   3.221  17.171  0.7122  0.2862 -0.0661
  654TMC3    C6 9734   0.383   3.308  17.149 -0.0840  0.0653  0.4442
  654TMC3     C 9735   0.706   3.391  17.403 -0.1741  0.6824 -0.3619
  654TMC3     O 9736   0.747   3.293  17.460  0.0651 -0.1626 -0.8676
  654TMC3     H 9737   0.512   3.538  17.354 -1.6391  0.8153 -0.5046
  654TMC3    H1 9738   0.681   3.178  17.252 -0.0265 -0.3360  0.3315
  654TMC3    H2 9739   0.302   3.285  17.079 -0.0835  1.1215  0.0992
  654TMC3    C7 9740   0.495   3.114  17.071 -0.3106 -1.0176  0.0027
  654TMC3    C8 9741   0.290   3.523  17.177 -0.9308  0.1350 -0.3867
  654TMC3    O1 9742   0.482   3.151  16.955 -0.4263  0.6858 -0.1419
  654TMC3    O2 9743   0.196   3.467  17.121  0.4382 -0.0211 -1.0876
  655MPD2     C 9744   2.250   3.956  15.740 -0.0220 -0.9089  0.3998
  655MPD2    C1 9745   2.181   4.070  15.701 -0.4723  1.1504 -0.8145
  655MPD2    C2 9746   2.140   4.082  15.574 -0.6071  0.4751 -0.3673
  655MPD2    C3 9747   2.188   4.002  15.469 -0.4107  0.1715 -0.2814
  655MPD2    C4 9748   2.259   3.893  15.512 -0.4675 -0.1015  0.1768
  655MPD2    C5 9749   2.283   3.868  15.643 -0.0618  0.0856  0.3155
  655MPD2     H 9750   2.084   4.165  15.533  1.3138  1.5281 -0.8398
  655MPD2    H1 9751   2.289   3.821  15.437  0.6863  1.9482 -1.3096
  655MPD2    H2 9752   2.285   3.927  15.838  2.3699  0.9916  0.0956
  655MPD2    H3 9753   2.315   3.767  15.666  0.3465 -0.3836 -2.2532
  655MPD2     N 9754   2.136   4.026  15.343  0.4507  0.7363  0.0835
  655MPD2    H5 9755   2.055   4.085  15.327  0.0558  0.0400 -0.4924
  655MPD2    N1 9756   2.145   4.170  15.789 -0.4611  0.2719 -0.0245
  655MPD2    H7 9757   2.079   4.237  15.752 -0.1093  0.2420 -0.7242
  656TMC3    C1 9758   2.133   4.293  15.986 -0.0396 -0.0835  0.7870
  656TMC3    C2 9759   2.089   4.279  16.117 -0.7239 -0.2037 -0.2164
  656TMC3    C3 9760   1.997   4.372  16.154  0.1507  0.2387  0.6938
  656TMC3    C4 9761   2.087   4.397  15.908  0.4563 -0.0623 -0.0334
  656TMC3    C5 9762   1.996   4.492  15.947  0.4365 -0.1381  0.1824
  656TMC3    C6 9763   1.958   4.481  16.081  0.1538 -0.1565  0.4693
  656TMC3     C 9764   2.175   4.175  15.924  0.1827 -0.2502 -0.6897
  656TMC3     O 9765   2.235   4.086  15.985 -0.0426 -0.0830 -0.3586
  656TMC3     H 9766   2.111   4.192  16.177  1.4966  0.6210  0.1366
  656TMC3    H1 9767   2.138   4.426  15.817 -2.6760 -2.1124 -2.4202
  656TMC3    H2 9768   1.875   4.544  16.113 -0.4512 -0.5838 -0.2797
  656TMC3    C7 9769   1.967   4.600  15.853  0.1852  0.8027 -0.2021
  656TMC3    C8 9770   1.931   4.338  16.281  0.4872 -0.0052 -0.4943
  656TMC3    O1 9771   2.016   4.617  15.746  0.3198  0.3864 -0.4334
  656TMC3    O2 9772   1.971   4.243  16.343  0.1770 -0.6824 -0.2374
  657TMC3    C1 9773   1.058   3.383  15.161 -0.5982  0.3680 -0.0750
  657TMC3    C2 9774   1.138   3.457  15.257  0.1679 -0.1178  0.0262
  657TMC3    C3 9775   1.128   3.588  15.239 -1.0500 -0.5266  0.9487
  657TMC3    C4 9776   0.963   3.448  15.088 -0.2466 -0.0320 -0.0460
  657TMC3    C5 9777   0.970   3.582  15.074  0.7179  0.1933 -0.1881
  657TMC3    C6 9778   1.061   3.656  15.139  0.3754  0.2443  0.5395
  657TMC3     C 9779   1.068   3.246  15.171 -0.1086  0.7339  0.2605
  657TMC3     O 9780   0.969   3.182  15.134 -0.2593  0.4454 -0.4709
  657TMC3     H 9781   1.199   3.400  15.326 -0.5349 -1.7815 -0.7021
  657TMC3    H1 9782   0.899   3.400  15.015 -0.8846 -1.3947  1.4187
  657TMC3    H2 9783   1.051   3.763  15.145  0.4778  0.2832  0.0396
  657TMC3    C7 9784   0.889   3.646  14.973 -0.6281 -0.7056  0.2551
  657TMC3    C8 9785   1.206   3.679  15.325 -0.3229 -0.4204 -0.2262
  657TMC3    O1 9786   0.789   3.587  14.935  0.1857  0.2018  0.0112
  657TMC3    O2 9787   1.179   3.799  15.338 -0.3387  0.1096  0.0128
  658MPD2     C 9788   2.536   4.383  14.750  0.8170 -0.4180 -0.3725
  658MPD2    C1 9789   2.427   4.311  14.714 -0.3982  0.9446  0.1424
  658MPD2    C2 9790   2.365   4.343  14.592  0.0299 -0.1619 -0.1525
  658MPD2    C3 9791   2.415   4.437  14.510 -0.6101 -0.0120  0.6583
  658MPD2    C4 9792   2.511   4.523  14.552  0.2689 -0.2602 -0.5184
  658MPD2    C5 9793   2.568   4.491  14.676 -0.4568  0.1506  0.2122
  658MPD2     H 9794   2.284   4.284  14.550 -0.0681  0.8008 -1.3582
  658MPD2    H1 9795   2.550   4.606  14.495 -0.4871 -0.2426 -1.0107
  658MPD2    H2 9796   2.592   4.357  14.840  0.8112  1.7442  0.2528
  658MPD2    H3 9797   2.640   4.557  14.722  1.2163 -1.2348 -0.4155
  658MPD2     N 9798   2.351   4.439  14.382  0.4029 -0.0854  0.0089
  658MPD2    H5 9799   2.277   4.371  14.366 -0.4593  0.8960 -0.1904
  658MPD2    N1 9800   2.373   4.207  14.801 -0.1912  0.2581  0.1379
  658MPD2    H7 9801   2.409   4.200  14.896  1.1544 -0.3579 -0.4150
  659TMC3    C1 9802   2.204   4.039  14.861 -0.6495 -0.0332 -0.1705
  659TMC3    C2 9803   2.248   4.043  14.989 -0.2319 -0.4007 -0.6179
  659TMC3    C3 9804   2.161   4.013  15.095  0.4790 -0.1393  0.6187
  659TMC3    C4 9805   2.079   4.000  14.831 -0.5420 -0.2061  0.8293
  659TMC3    C5 9806   1.987   3.980  14.939 -0.1212 -0.2850 -0.2267
  659TMC3    C6 9807   2.032   3.991  15.069  0.1644  0.2133  0.5848
  659TMC3     C 9808   2.273   4.122  14.761  0.1928  0.1487  0.9207
  659TMC3     O 9809   2.239   4.098  14.646  0.1988  0.0494  0.2076
  659TMC3     H 9810   2.349   4.078  15.009 -0.3166  0.2587 -1.3048
  659TMC3    H1 9811   2.037   3.976  14.733  1.2509 -1.3082  0.3338
  659TMC3    H2 9812   1.953   3.974  15.141 -0.7866  1.8385 -0.0807
  659TMC3    C7 9813   1.854   3.934  14.918  0.2637 -0.3269  0.0950
  659TMC3    C8 9814   2.218   3.996  15.233  0.1898  0.0013 -0.0065
  659TMC3    O1 9815   1.766   3.973  14.996 -0.0706  0.7542  0.2447
  659TMC3    O2 9816   2.330   3.945  15.226  0.0761  0.3892  0.0303
  660MPD2     C 9817   0.231   3.025  12.705 -0.2854 -0.0584  0.1636
  660MPD2    C1 9818   0.099   3.048  12.681  0.3355 -0.4276 -0.2376
  660MPD2    C2 9819   0.002   2.981  12.758 -0.6186 -0.2522  0.3968
  660MPD2    C3 9820   0.036   2.898  12.866 -0.3894  0.7015  0.0250
  660MPD2    C4 9821   0.169   2.882  12.888  0.0120  0.3584  0.2554
  660MPD2    C5 9822   0.268   2.945  12.807 -0.2239  0.2292 -0.3611
  660MPD2     H 9823   4.638   3.009  12.739 -0.4218  0.6769  0.6899
  660MPD2    H1 9824   0.194   2.822  12.975  0.6010 -0.2054 -0.3006
  660MPD2    H2 9825   0.314   3.062  12.645  1.5926 -1.9610  1.5760
  660MPD2    H3 9826   0.373   2.934  12.828  0.5409  1.6074 -3.5291
  660MPD2     N 9827   4.682   2.823  12.943 -0.6436  0.0303  0.1489
  660MPD2    H5 9828   4.718   2.739  12.986  0.7784 -0.1921 -1.4642
  660MPD2    N1 9829   0.070   3.127  12.567 -0.0903 -0.1678  0.4519
  660MPD2    H7 9830   0.143   3.167  12.509 -0.1107 -0.4490  0.2331
  661TMC3    C1 9831   4.692   3.263  12.420 -0.1317 -0.3860  0.3858
  661TMC3    C2 9832   0.007   3.220  12.298  0.3719 -0.8823  0.1239
  661TMC3    C3 9833   4.669   3.277  12.193 -0.2992  0.5594 -0.3721
  661TMC3    C4 9834   4.596   3.358  12.437 -0.6118  0.0462 -0.1736
  661TMC3    C5 9835   4.545   3.416  12.326  0.3866  0.3100  0.4329
  661TMC3    C6 9836   4.586   3.385  12.205  0.5007  0.1922 -0.0454
  661TMC3     C 9837   4.686   3.168  12.529 -0.1632  0.3603  0.6975
  661TMC3     O 9838   4.584   3.158  12.588 -0.0800  0.0229  0.2586
  661TMC3     H 9839   0.073   3.135  12.306 -0.5147 -1.5749  0.1366
  661TMC3    H1 9840   4.548   3.384  12.530  0.3971  1.6297 -0.0972
  661TMC3    H2 9841   4.542   3.432  12.117 -0.3888 -1.5008 -0.5105
  661TMC3    C7 9842   4.417   3.471  12.329  0.0150  0.4482 -0.4531
  661TMC3    C8 9843   4.671   3.225  12.063  1.1435 -0.3345 -0.3652
  661TMC3    O1 9844   4.396   3.556  12.418 -0.0217 -0.1632 -0.2414
  661TMC3    O2 9845   4.584   3.260  11.986 -0.3531 -0.4304  0.0339
  662MPD2     C 9846   0.418   2.344  16.745 -0.4078 -0.0067 -0.5717
  662MPD2    C1 9847   0.378   2.302  16.871 -0.3064 -0.3940 -0.0251
  662MPD2    C2 9848   0.315   2.380  16.963  0.1228 -0.9074  0.0620
  662MPD2    C3 9849   0.283   2.510  16.920  0.3935 -0.1227 -1.0440
  662MPD2    C4 9850   0.303   2.549  16.787  0.2148 -0.2068  0.1854
  662MPD2    C5 9851   0.389   2.470  16.708 -0.0503  0.2090 -0.1085
  662MPD2     H 9852   0.300   2.344  17.064  0.2881  1.2529  0.8528
  662MPD2    H1 9853   0.268   2.647  16.757 -0.4090 -0.8110 -1.0778
  662MPD2    H2 9854   0.475   2.288  16.672 -0.2148  1.7412 -1.7806
  662MPD2    H3 9855   0.423   2.500  16.610  0.6577  0.4477  0.2084
  662MPD2     N 9856   0.209   2.599  17.007  0.1823 -0.4746 -0.2416
  662MPD2    H5 9857   0.170   2.680  16.961 -0.6065 -0.8001 -0.1434
  662MPD2    N1 9858   0.391   2.167  16.908 -0.4311 -0.2754 -0.4005
  662MPD2    H7 9859   0.355   2.135  16.997 -0.9413 -0.8457 -0.8042
  663TMC3    C1 9860   0.454   1.945  16.908 -0.1683  0.5598  0.3742
  663TMC3    C2 9861   0.569   1.894  16.963  0.5868 -0.1479  0.0691
  663TMC3    C3 9862   0.554   1.801  17.060 -0.8229 -0.5282  0.8052
  663TMC3    C4 9863   0.329   1.914  16.942  0.1857 -0.2528 -0.4851
  663TMC3    C5 9864   0.313   1.812  17.029 -0.2372  0.1357 -0.1094
  663TMC3    C6 9865   0.425   1.762  17.089 -0.3236 -0.6636  1.0098
  663TMC3     C 9866   0.465   2.075  16.842 -0.4276 -0.6566  0.3420
  663TMC3     O 9867   0.554   2.088  16.755  0.7334  0.0877  0.4718
  663TMC3     H 9868   0.668   1.917  16.923  0.9409 -2.4501 -0.3835
  663TMC3    H1 9869   0.243   1.970  16.906 -0.0467  0.4808  1.2080
  663TMC3    H2 9870   0.417   1.660  17.126  0.6557 -1.8468 -2.0962
  663TMC3    C7 9871   0.191   1.809  17.112  0.8691  1.0136 -0.0117
  663TMC3    C8 9872   0.627   1.840  17.177  0.8019 -0.1172 -0.0912
  663TMC3    O1 9873   0.122   1.905  17.087  0.2629  0.1839  0.3068
  663TMC3    O2 9874   0.746   1.865  17.163  0.0057 -0.2476  0.1830
  664MPD2     C 9875   2.962   0.516  17.256  0.1071  0.1818 -0.2277
  664MPD2    C1 9876   3.060   0.580  17.327 -0.5519 -0.2555 -0.5621
  664MPD2    C2 9877   3.053   0.592  17.458  0.8547 -0.1522 -0.5656
  664MPD2    C3 9878   2.945   0.547  17.534  0.6672 -0.2564 -0.9219
  664MPD2    C4 9879   2.845   0.473  17.465 -0.0751 -0.2268 -0.3395
  664MPD2    C5 9880   2.853   0.465  17.328 -0.2885 -0.5565 -0.2249
  664MPD2     H 9881   3.130   0.648  17.512  0.5699  0.0710 -0.3920
  664MPD2    H1 9882   2.759   0.427  17.513  0.4312  0.7704  1.5362
  664MPD2    H2 9883   2.964   0.506  17.148 -0.1671 -1.9031 -0.0428
  664MPD2    H3 9884   2.784   0.406  17.268 -0.4833 -0.3886 -0.1617
  664MPD2     N 9885   2.945   0.556  17.673  0.4334 -0.5427 -0.2950
  664MPD2    H5 9886   3.026   0.595  17.720 -0.8775  0.1858  1.3753
  664MPD2    N1 9887   3.169   0.632  17.253  0.0538 -0.0669  0.1683
  664MPD2    H7 9888   3.149   0.646  17.155  0.1155  0.1487  0.1872
  665TMC3    C1 9889   2.871   0.556   0.138 -0.6280 -0.0567  0.1581
  665TMC3    C2 9890   2.820   0.485   0.241 -0.7887 -0.4314  1.1617
  665TMC3    C3 9891   2.844   0.534   0.370 -0.2812 -0.4252  0.5051
  665TMC3    C4 9892   2.936   0.677   0.155  1.3287 -0.3687 -0.9805
  665TMC3    C5 9893   2.946   0.726   0.285 -0.4706  0.1848  0.3842
  665TMC3    C6 9894   2.909   0.653   0.393 -0.0748  1.3447  0.2282
  665TMC3     C 9895   2.838   0.520   0.003  0.0624 -0.1612 -0.6347
  665TMC3     O 9896   2.736   0.462  17.737  0.2809  0.1352  1.0050
  665TMC3     H 9897   2.755   0.400   0.226  0.2900 -1.2734  1.2277
  665TMC3    H1 9898   2.985   0.732   0.075 -0.5535  0.4178 -1.5901
  665TMC3    H2 9899   2.914   0.688   0.495  2.5919 -0.4782  0.7104
  665TMC3    C7 9900   3.016   0.847   0.297  0.9281  0.4492 -0.3491
  665TMC3    C8 9901   2.804   0.451   0.478  0.1148  0.5158 -0.1952
  665TMC3    O1 9902   3.044   0.910   0.198  0.2885 -0.5471 -0.4226
  665TMC3    O2 9903   2.802   0.499   0.591 -0.1788 -0.1425 -0.5840
  666TMC3    C1 9904   1.525   1.694  10.470  0.1818 -0.4731  0.0735
  666TMC3    C2 9905   1.605   1.602  10.402 -0.8628 -0.2414 -0.2717
  666TMC3    C3 9906   1.719   1.653  10.337  0.1372  0.6536  0.6253
  666TMC3    C4 9907   1.547   1.829  10.459 -0.3964 -0.2370 -0.1977
  666TMC3    C5 9908   1.655   1.872  10.389  0.1166  0.1127  0.8369
  666TMC3    C6 9909   1.745   1.786  10.331  0.3164  0.3393  0.2612
  666TMC3     C 9910   1.483   1.655  10.603 -0.0476 -0.3831 -0.4896
  666TMC3     O 9911   1.493   1.740  10.691 -0.2487  0.3821 -0.0330
  666TMC3     H 9912   1.595   1.497  10.427 -0.4801 -0.1716  0.1653
  666TMC3    H1 9913   1.484   1.901  10.509  0.7150  1.0026 -0.6090
  666TMC3    H2 9914   1.825   1.829  10.273  0.0813  1.4362  0.7531
  666TMC3    C7 9915   1.699   1.996  10.445 -0.0164 -0.2099 -0.6193
  666TMC3    C8 9916   1.831   1.567  10.314 -0.7676 -0.4210  0.0676
  666TMC3    O1 9917   1.686   2.004  10.566 -0.4469 -0.3225 -0.5320
  666TMC3    O2 9918   1.834   1.457  10.365  0.8140  0.3276  0.3054
  667MPD2     C 9919   3.900   0.491  14.536 -0.3473  0.8441  0.2345
  667MPD2    C1 9920   3.911   0.482  14.672 -0.4326  0.1922  0.5934
  667MPD2    C2 9921   3.860   0.367  14.739 -0.7469  0.2586  0.1771
  667MPD2    C3 9922   3.797   0.269  14.668 -0.0272  0.0973  0.1830
  667MPD2    C4 9923   3.781   0.281  14.533 -0.4848 -0.0863 -0.3992
  667MPD2    C5 9924   3.842   0.388  14.465  0.3474 -0.3259 -0.2088
  667MPD2     H 9925   3.877   0.355  14.845 -2.1651 -2.0060  0.1210
  667MPD2    H1 9926   3.721   0.210  14.478  0.0086  0.3572 -1.5144
  667MPD2    H2 9927   3.941   0.572  14.476  0.6326  0.4073  0.3106
  667MPD2    H3 9928   3.833   0.390  14.357 -2.7352 -3.0901  0.0137
  667MPD2     N 9929   3.738   0.156  14.732 -0.0797 -0.1335 -0.0868
  667MPD2    H5 9930   3.682   0.094  14.675 -0.6393 -1.2144  1.6459
  667MPD2    N1 9931   3.992   0.571  14.744 -0.2228  0.2048 -0.8259
  667MPD2    H7 9932   4.004   0.557  14.844 -2.7479  0.0833 -0.5583
  668TMC3    C1 9933   4.093   0.785  14.806  0.3642 -0.1892 -0.5277
  668TMC3    C2 9934   4.141   0.909  14.764  0.2692 -0.2283 -0.5412
  668TMC3    C3 9935   4.201   0.987  14.851 -0.4247 -0.3557  1.0314
  668TMC3    C4 9936   4.116   0.735  14.932 -0.6386  0.1312 -0.2590
  668TMC3    C5 9937   4.171   0.823  15.023 -0.3063  0.1595  0.1183
  668TMC3    C6 9938   4.216   0.950  14.983  0.0905  0.4040  0.0329
  668TMC3     C 9939   4.034   0.699  14.699 -0.1453 -0.0243 -0.8020
  668TMC3     O 9940   4.004   0.759  14.595  0.3586  0.9094 -0.7732
  668TMC3     H 9941   4.108   0.947  14.668 -2.1548  1.4314  0.9459
  668TMC3    H1 9942   4.105   0.631  14.959  1.4866  0.0533  0.2724
  668TMC3    H2 9943   4.259   1.021  15.053  1.1683  0.3336 -0.5601
  668TMC3    C7 9944   4.163   0.800  15.162 -0.2060 -0.2908 -0.4777
  668TMC3    C8 9945   4.219   1.129  14.831  0.4378 -0.4644 -0.2638
  668TMC3    O1 9946   4.223   0.879  15.237 -0.0471  0.0331 -0.2879
  668TMC3    O2 9947   4.192   1.203  14.921 -0.1331 -0.2101  0.5668
  669TMC3    C1 9948   1.924   0.657  14.899 -0.1543  0.3637  0.6403
  669TMC3    C2 9949   1.798   0.705  14.874 -0.0719  0.5710  0.5516
  669TMC3    C3 9950   1.780   0.794  14.768  0.5297  0.0907  0.0228
  669TMC3    C4 9951   2.034   0.692  14.820  0.1424  0.1136 -0.1559
  669TMC3    C5 9952   2.011   0.773  14.714 -0.5785  0.3224  0.1098
  669TMC3    C6 9953   1.886   0.827  14.687 -0.4526 -0.3805 -0.4294
  669TMC3     C 9954   1.943   0.607  15.032 -0.2268 -0.2033  0.0351
  669TMC3     O 9955   1.846   0.607  15.107  0.1555 -0.0159  0.4864
  669TMC3     H 9956   1.708   0.663  14.917  1.0118  0.0473  2.3328
  669TMC3    H1 9957   2.132   0.657  14.851  0.6022  0.6034 -1.0493
  669TMC3    H2 9958   1.883   0.907  14.614  0.1053 -1.2381 -1.3867
  669TMC3    C7 9959   2.129   0.823  14.640 -0.1095 -0.1487 -0.2566
  669TMC3    C8 9960   1.654   0.774  14.689  0.9925  0.6733 -0.2665
  669TMC3    O1 9961   2.242   0.818  14.687 -0.5314 -0.0997  0.3441
  669TMC3    O2 9962   1.664   0.775  14.565  0.5864 -0.0070 -0.5728
  670MPD2     C 9963   0.212   3.183  13.714  0.5153 -0.1657 -0.2447
  670MPD2    C1 9964   0.293   3.176  13.826  0.3709  0.0532  0.2107
  670MPD2    C2 9965   0.248   3.122  13.943  0.0181  0.5878  0.0859
  670MPD2    C3 9966   0.126   3.067  13.949  0.2690  0.5694  0.6352
  670MPD2    C4 9967   0.050   3.068  13.833  0.4379  0.0003 -0.1697
  670MPD2    C5 9968   0.091   3.126  13.718 -0.7769  0.3681  0.0246
  670MPD2     H 9969   0.318   3.108  14.025 -0.5638 -1.5228  0.2280
  670MPD2    H1 9970   4.689   3.024  13.832  0.5779 -0.2436 -2.7805
  670MPD2    H2 9971   0.245   3.236  13.625 -3.0338  0.5502 -1.1298
  670MPD2    H3 9972   0.028   3.137  13.631 -0.2902 -1.4456 -0.5711
  670MPD2     N 9973   0.067   3.005  14.059 -0.7027  0.2611  0.7535
  670MPD2    H5 9974   4.724   2.950  14.033 -0.4205 -0.5172  1.5117
  670MPD2    N1 9975   0.436   3.210  13.822  0.8440 -0.3019 -0.4597
  670MPD2    H7 9976   0.491   3.189  13.904  2.0727  1.0421 -0.9545
  671TMC3    C1 9977   0.049   2.902  14.264 -0.1030 -0.1393 -0.6311
  671TMC3    C2 9978   0.124   2.836  14.345 -0.8601  0.4087 -0.0482
  671TMC3    C3 9979   0.119   2.704  14.320  0.3773  0.1347 -0.2638
  671TMC3    C4 9980   4.677   2.849  14.199 -0.0157 -0.7530 -0.7225
  671TMC3    C5 9981   4.669   2.713  14.188  0.0854  0.3625 -0.1656
  671TMC3    C6 9982   0.023   2.634  14.249 -0.3450 -0.9488 -0.0671
  671TMC3     C 9983   0.124   2.993  14.186  0.8799  0.1035  0.0123
  671TMC3     O 9984   0.220   3.053  14.237 -0.1128  0.5952  0.2802
  671TMC3     H 9985   0.213   2.885  14.383 -1.1743 -0.2642  1.5245
  671TMC3    H1 9986   4.599   2.915  14.162  0.7087  0.7908  0.5068
  671TMC3    H2 9987   0.037   2.527  14.234  1.1152 -0.8061  0.3531
  671TMC3    C7 9988   4.625   2.672  14.059 -0.2372  0.1419 -0.2083
  671TMC3    C8 9989   0.236   2.638  14.359 -0.0693 -0.2087  0.0921
  671TMC3    O1 9990   4.656   2.753  13.970 -0.2687  0.0701  0.1781
  671TMC3    O2 9991   0.268   2.565  14.268  0.2974 -0.6140 -0.0760
  672MPD2     C 9992   0.897   3.548   0.668 -0.4569  0.2348  0.2865
  672MPD2    C1 9993   0.996   3.461   0.701  0.1644 -0.8406 -0.6414
  672MPD2    C2 9994   1.091   3.495   0.795  0.0535 -0.3083 -0.2739
  672MPD2    C3 9995   1.096   3.623   0.844 -0.1578  0.2544 -0.6946
  672MPD2    C4 9996   1.013   3.717   0.791  0.3435 -0.6588 -0.0865
  672MPD2    C5 9997   0.909   3.671   0.710  0.6023  0.6739 -0.6995
  672MPD2     H 9998   1.160   3.418   0.828 -2.7124 -1.2895  3.2746
  672MPD2    H1 9999   1.013   3.818   0.830 -2.6036  0.1393 -2.1419
  672MPD2    H210000   0.805   3.525   0.616  0.0301  1.4239 -1.1035
  672MPD2    H310001   0.838   3.745   0.675  1.8725  0.9877 -2.6794
  672MPD2     N10002   1.189   3.663   0.953  0.4254 -0.1413  0.8984
  672MPD2    H510003   1.182   3.759   0.986 -1.9644  0.6250 -1.8713
  672MPD2    N110004   0.990   3.329   0.654 -0.0479 -0.1853  0.5224
  672MPD2    H710005   1.073   3.271   0.663 -1.4513 -2.5479 -1.6863
  673TMC3    C110006   0.885   3.131   0.576  0.8494  0.5170 -0.4797
  673TMC3    C210007   1.000   3.087   0.519  0.2429  0.0542  0.2964
  673TMC3    C310008   0.990   2.971   0.438 -0.2632 -0.0134 -0.3803
  673TMC3    C410009   0.763   3.072   0.554  0.3319 -0.3416 -0.5848
  673TMC3    C510010   0.762   2.963   0.469 -0.2382 -0.5870 -0.1781
  673TMC3    C610011   0.871   2.905   0.407  0.0529 -0.7915  0.0015
  673TMC3     C10012   0.876   3.276   0.604  0.4551 -0.5415 -0.4893
  673TMC3     O10013   0.762   3.317   0.596  0.5827  0.3155 -0.5557
  673TMC3     H10014   1.097   3.136   0.518 -0.3338  1.1487 -2.6709
  673TMC3    H110015   0.676   3.088   0.616  1.6053 -1.3431  1.4425
  673TMC3    H210016   0.869   2.817   0.343 -1.5713 -0.6461 -0.1483
  673TMC3    C710017   0.636   2.952   0.397 -0.0586  0.4820 -0.2530
  673TMC3    C810018   1.113   2.900   0.393 -0.4389  0.5977  0.0248
  673TMC3    O110019   0.605   2.842   0.346 -0.6692 -0.4918 -0.4957
  673TMC3    O210020   1.109   2.837   0.288 -0.0939 -0.0251  0.3703
  674MPD2     C10021   0.520   3.674  17.747  0.0847  0.1649  0.6254
  674MPD2    C110022   0.460   3.563  17.692  0.3065 -0.0107 -0.2243
  674MPD2    C210023   0.347   3.591  17.611  0.2168 -0.3002  0.4705
  674MPD2    C310024   0.300   3.715  17.588  0.2731 -0.3160 -0.7682
  674MPD2    C410025   0.368   3.824  17.643  0.1196  0.2293 -0.3368
  674MPD2    C510026   0.476   3.805  17.722  0.1895 -0.2144 -0.2744
  674MPD2     H10027   0.295   3.513  17.557  1.3436  0.0364 -1.0925
  674MPD2    H110028   0.339   3.926  17.623  1.6179  0.4362 -1.4871
  674MPD2    H210029   0.611   3.662   0.052 -0.0205 -0.9285  0.5503
  674MPD2    H310030   0.528   3.889   0.013  1.4989 -1.3430  0.3358
  674MPD2     N10031   0.173   3.722  17.526  0.2208 -0.3896  0.6591
  674MPD2    H510032   0.130   3.632  17.504  0.2050  0.0593 -1.1856
  674MPD2    N110033   0.515   3.436  17.708 -0.3740  0.4892  0.5275
  674MPD2    H710034   0.594   3.434   0.020  0.0814 -0.1820 -0.0499
  675TMC3    C110035   0.538   3.206  17.693 -0.1691 -0.7547  0.2821
  675TMC3    C210036   0.469   3.092  17.680 -0.1904  0.6054 -0.2392
  675TMC3    C310037   0.524   2.977  17.729 -0.4494  0.9469 -1.0186
  675TMC3    C410038   0.660   3.213   0.006  0.3645 -0.4045 -0.0601
  675TMC3    C510039   0.711   3.092   0.055 -0.4188  0.2133  0.5353
  675TMC3    C610040   0.646   2.975   0.038  0.2150  0.5826  0.2904
  675TMC3     C10041   0.465   3.321  17.656  0.6365  0.0944 -0.4292
  675TMC3     O10042   0.355   3.306  17.601  0.1612  0.2663 -0.1742
  675TMC3     H10043   0.364   3.081  17.656 -0.1334 -1.3050  0.4166
  675TMC3    H110044   0.722   3.301  17.752  0.3753 -0.3617  0.6600
  675TMC3    H210045   0.696   2.888   0.080  1.2099  2.1615  2.4380
  675TMC3    C710046   0.849   3.095   0.102 -0.5315  0.1902  0.4146
  675TMC3    C810047   0.453   2.854  17.712  0.6864 -0.0921  0.5014
  675TMC3    O110048   0.920   2.989   0.108  0.1428  0.3476 -0.5380
  675TMC3    O210049   0.380   2.852  17.615 -0.6040  0.1893  0.4588
  676MPD2     C10050   2.940   2.159  11.090 -0.2556 -0.8627  0.6942
  676MPD2    C110051   2.994   2.174  11.213 -0.1668  0.4069 -0.3133
  676MPD2    C210052   3.117   2.110  11.238 -0.1986  0.1131  0.0982
  676MPD2    C310053   3.181   2.032  11.147  0.2788  0.0807  0.4742
  676MPD2    C410054   3.127   2.029  11.015  0.7009 -0.1156 -0.0951
  676MPD2    C510055   3.008   2.096  10.989  0.5489  0.1753 -0.8377
  676MPD2     H10056   3.154   2.116  11.340 -0.3178  0.3383  0.1282
  676MPD2    H110057   3.180   1.974  10.938  0.9568  1.1174 -0.7944
  676MPD2    H210058   2.844   2.198  11.059 -0.5520 -0.0929  2.5870
  676MPD2    H310059   2.967   2.079  10.890 -0.7135  1.2391 -0.4891
  676MPD2     N10060   3.288   1.944  11.174  0.6073 -0.2782 -0.0183
  676MPD2    H510061   3.319   1.887  11.096  0.5317  1.5539 -1.3835
  676MPD2    N110062   2.927   2.244  11.319 -0.0995 -0.4695  0.4230
  676MPD2    H710063   2.976   2.246  11.407 -0.0370  0.8848  0.3628
  677TMC3    C110064   2.747   2.341  11.445 -0.8375 -0.7110  0.3246
  677TMC3    C210065   2.780   2.278  11.561 -0.1174  0.1135  0.6735
  677TMC3    C310066   2.717   2.324  11.678  0.0345  0.3228 -0.2648
  677TMC3    C410067   2.658   2.447  11.439  0.3642 -0.2253  1.0398
  677TMC3    C510068   2.601   2.484  11.557  0.1931 -0.1722 -0.1815
  677TMC3    C610069   2.616   2.414  11.675 -0.5363 -1.0093 -0.1867
  677TMC3     C10070   2.797   2.299  11.314  0.5632 -0.2420  0.0168
  677TMC3     O10071   2.743   2.348  11.214  0.5121 -0.0736 -0.1356
  677TMC3     H10072   2.867   2.214  11.574  0.1230  0.3514  0.2204
  677TMC3    H110073   2.622   2.497  11.350 -1.9777 -0.3442  1.9260
  677TMC3    H210074   2.572   2.449  11.767  0.3316 -0.8272  0.1638
  677TMC3    C710075   2.508   2.592  11.559  0.3209  0.3251  0.1012
  677TMC3    C810076   2.788   2.305  11.806 -0.2464 -0.0970  0.5773
  677TMC3    O110077   2.423   2.581  11.650 -0.0189 -0.4077 -0.2919
  677TMC3    O210078   2.911   2.284  11.797  0.0862  0.9589 -0.0553
  678MPD2     C10079   0.091   1.437   1.404  0.0152  0.2233 -0.8319
  678MPD2    C110080   0.062   1.540   1.313 -0.1483  0.0448 -0.1569
  678MPD2    C210081   4.678   1.537   1.249  0.7225  0.0125 -0.6355
  678MPD2    C310082   4.591   1.432   1.269 -0.0545 -0.2516 -1.2156
  678MPD2    C410083   4.626   1.329   1.345 -0.3883  0.1740 -0.3531
  678MPD2    C510084   0.007   1.332   1.406  0.1538 -0.6255  0.3107
  678MPD2     H10085   4.640   1.619   1.189 -0.0406 -0.1407 -0.3701
  678MPD2    H110086   4.560   1.245   1.361 -2.3993  1.1679 -3.4969
  678MPD2    H210087   0.187   1.429   1.453 -0.0278  1.5255 -0.5306
  678MPD2    H310088   0.037   1.250   1.469 -1.2815 -0.8189  0.7267
  678MPD2     N10089   4.462   1.446   1.198 -0.2898 -0.1985  0.2993
  678MPD2    H510090   4.433   1.535   1.158  2.3548 -0.8114 -2.9318
  678MPD2    N110091   0.135   1.661   1.294 -0.8108 -0.4245  0.1060
  678MPD2    H710092   0.099   1.721   1.221 -0.3835 -0.4914 -0.1544
  679TMC3    C110093   0.531   1.923   1.341 -0.3215 -0.9080 -0.7782
  679TMC3    C210094   0.437   1.840   1.398  0.1036 -0.7021  0.1826
  679TMC3    C310095   0.310   1.820   1.336  0.5055  0.4474 -0.4229
  679TMC3    C410096   0.507   1.980   1.221  0.3528  0.4728 -0.1548
  679TMC3    C510097   0.402   1.930   1.150  0.2130  1.1814 -0.4313
  679TMC3    C610098   0.305   1.859   1.209 -0.2600  0.0917 -0.6938
  679TMC3     C10099   0.659   1.854   1.354 -0.5133 -0.3328 -0.2758
  679TMC3     O10100   0.659   1.734   1.352  0.2620  0.4631  0.5990
  679TMC3     H10101   0.456   1.783   1.489  3.1679  1.4101  0.8456
  679TMC3    H110102   0.571   2.057   1.179  2.6260 -0.1904  2.0519
  679TMC3    H210103   0.214   1.832   1.156 -0.8045  0.2889  0.1370
  679TMC3    C710104   0.435   1.874   1.019 -0.1899  0.8660 -0.0997
  679TMC3    C810105   0.238   1.701   1.379 -0.8908  0.0794 -0.1606
  679TMC3    O110106   0.362   1.787   0.973  0.2734 -0.0215  0.0375
  679TMC3    O210107   0.287   1.636   1.470  0.4640 -0.0940 -0.0809
  680MPD2     C10108   0.049   0.497  13.653 -0.1461  0.1339 -0.1124
  680MPD2    C110109   0.133   0.434  13.749 -0.6553 -0.2809  0.4368
  680MPD2    C210110   0.190   0.513  13.848  0.3797 -0.1658 -0.3960
  680MPD2    C310111   0.175   0.650  13.855  0.0904 -0.0110 -0.2399
  680MPD2    C410112   0.095   0.709  13.758 -0.4072  0.4577 -0.2836
  680MPD2    C510113   0.039   0.636  13.655 -0.0499  0.2484  0.2829
  680MPD2     H10114   0.252   0.467  13.924 -1.3632 -0.8315  0.6329
  680MPD2    H110115   0.086   0.817  13.759 -0.7781  0.4149  0.6178
  680MPD2    H210116   0.004   0.452  13.565 -1.4513 -2.6824  2.0032
  680MPD2    H310117   4.709   0.683  13.586  0.2264  0.1290 -0.0763
  680MPD2     N10118   0.226   0.737  13.955 -0.4828 -0.6156 -0.7991
  680MPD2    H510119   0.180   0.828  13.956 -0.0519 -0.4184  0.8607
  680MPD2    N110120   0.162   0.297  13.749 -0.4112 -0.2477 -0.1933
  680MPD2    H710121   0.206   0.267  13.836  2.5994  0.8446 -1.3365
  681TMC3    C110122   0.179   0.076  13.662 -0.3056  0.2075 -0.1894
  681TMC3    C210123   0.153   0.024  13.787  0.1539 -0.1723  0.0145
  681TMC3    C310124   0.174   4.632  13.810 -0.0720  0.0126  0.3277
  681TMC3    C410125   0.225   4.737  13.560 -0.8763  0.4791 -0.0775
  681TMC3    C510126   0.242   4.604  13.584  0.0402 -0.7654 -0.1820
  681TMC3    C610127   0.212   4.550  13.705  0.7817 -0.8255  0.2981
  681TMC3     C10128   0.144   0.215  13.638 -0.3295  0.0106 -0.4374
  681TMC3     O10129   0.097   0.247  13.526 -0.2128 -0.7883  0.3271
  681TMC3     H10130   0.113   0.086  13.866  1.5608  0.4822  0.2167
  681TMC3    H110131   0.221   0.032  13.457 -1.9433 -2.0175 -0.8493
  681TMC3    H210132   0.243   4.448  13.725 -0.7084 -1.2502  0.4521
  681TMC3    C710133   0.272   4.511  13.483 -0.5116  0.1790  0.2724
  681TMC3    C810134   0.187   4.577  13.947  0.4703 -0.3424 -0.0556
  681TMC3    O110135   0.248   4.392  13.498  0.0648  0.0207 -0.4152
  681TMC3    O210136   0.188   4.456  13.963 -0.0042 -0.4194 -0.3682
  682MPD2     C10137   1.756   2.878  11.407 -0.2149  0.0450  0.1217
  682MPD2    C110138   1.739   2.742  11.386  0.3715  1.0556  0.2632
  682MPD2    C210139   1.703   2.663  11.492  0.3007 -0.0482 -0.0129
  682MPD2    C310140   1.675   2.718  11.617  0.3861  0.3633  0.3003
  682MPD2    C410141   1.693   2.851  11.642  0.2776  0.4847 -1.2796
  682MPD2    C510142   1.730   2.931  11.535  0.8505  0.1490 -0.0678
  682MPD2     H10143   1.702   2.558  11.464 -2.0908 -0.0376 -0.0022
  682MPD2    H110144   1.652   2.899  11.730  2.1458  0.2978 -0.3102
  682MPD2    H210145   1.766   2.956  11.332 -1.0455 -1.1131 -1.1994
  682MPD2    H310146   1.732   3.038  11.553 -0.9790 -0.1219  1.7671
  682MPD2     N10147   1.622   2.633  11.723  0.1220 -0.2035  0.2548
  682MPD2    H510148   1.620   2.668  11.818 -0.0677 -2.3900  1.0627
  682MPD2    N110149   1.786   2.675  11.273 -0.0261  0.2120 -0.0438
  682MPD2    H710150   1.774   2.575  11.266  1.7510 -0.0416  0.5965
  683TMC3    C110151   1.607   2.309  12.010 -0.4590 -0.4299 -0.2298
  683TMC3    C210152   1.522   2.208  11.985 -0.2462  0.3554  0.1396
  683TMC3    C310153   1.449   2.223  11.878 -0.2353  0.3378  0.1638
  683TMC3    C410154   1.624   2.425  11.930 -0.0452  0.4350 -1.0987
  683TMC3    C510155   1.535   2.432  11.822 -0.3312  0.1403 -0.1704
  683TMC3    C610156   1.448   2.333  11.797  0.8169  0.6511  0.3050
  683TMC3     C10157   1.675   2.322  12.139  0.6252 -0.1980 -1.2013
  683TMC3     O10158   1.778   2.385  12.138  0.3202  0.1963  0.2483
  683TMC3     H10159   1.523   2.117  12.044  1.5383  1.1994  1.4123
  683TMC3    H110160   1.707   2.493  11.946  0.0233  0.5335 -1.8702
  683TMC3    H210161   1.391   2.333  11.705 -0.3230  1.4366  1.0093
  683TMC3    C710162   1.575   2.509  11.700  0.3210  0.2629  0.0715
  683TMC3    C810163   1.353   2.127  11.832 -0.0552 -0.3957 -0.5834
  683TMC3    O110164   1.543   2.460  11.593 -0.0528 -0.1824 -0.1766
  683TMC3    O210165   1.251   2.155  11.773  0.0561  0.6142 -0.0971
  684MPD2     C10166   0.447   0.686  16.430  0.0634  0.5894 -0.3185
  684MPD2    C110167   0.418   0.727  16.306  0.2420 -0.7619  0.4019
  684MPD2    C210168   0.390   0.860  16.281  0.1694 -0.3255 -1.2633
  684MPD2    C310169   0.401   0.959  16.379 -0.2103  0.3459  0.1833
  684MPD2    C410170   0.417   0.909  16.501  0.7609  0.2560  0.8691
  684MPD2    C510171   0.439   0.780  16.528  0.2782 -0.6894 -0.9105
  684MPD2     H10172   0.385   0.891  16.177 -1.0532 -0.5790 -1.2875
  684MPD2    H110173   0.421   0.972  16.589 -1.2701  0.1392  1.0417
  684MPD2    H210174   0.460   0.581  16.452  1.4073  0.7114 -0.5583
  684MPD2    H310175   0.455   0.747  16.630 -1.2855  0.4141 -0.3058
  684MPD2     N10176   0.401   1.097  16.357 -0.0546 -0.2133  0.1655
  684MPD2    H510177   0.398   1.160  16.436 -0.0890 -0.7183  0.5675
  684MPD2    N110178   0.419   0.636  16.194 -0.1804  0.1334  0.2576
  684MPD2    H710179   0.399   0.680  16.104 -0.9955  0.5764  0.6564
  685TMC3    C110180   0.515   0.479  16.055 -0.5182 -0.1606  0.4028
  685TMC3    C210181   0.417   0.514  15.963  0.0771  0.3809 -0.2237
  685TMC3    C310182   0.456   0.518  15.832  0.4903 -0.0105  0.3509
  685TMC3    C410183   0.655   0.468  16.026  0.4410 -0.4695  0.5742
  685TMC3    C510184   0.691   0.481  15.899  0.3465  0.3456  0.4200
  685TMC3    C610185   0.595   0.505  15.803 -0.3787 -0.5578 -0.1241
  685TMC3     C10186   0.490   0.514  16.189  0.2350 -0.8606  0.4692
  685TMC3     O10187   0.550   0.455  16.273 -0.0496  0.1738 -0.1594
  685TMC3     H10188   0.313   0.519  15.992  0.4836  0.8430  1.1611
  685TMC3    H110189   0.720   0.435  16.106  0.5695  0.3046  0.7828
  685TMC3    H210190   0.623   0.538  15.704  0.9101 -0.1190  0.3969
  685TMC3    C710191   0.825   0.523  15.864  0.4287  0.3251 -0.4951
  685TMC3    C810192   0.382   0.606  15.743  0.4818 -0.3786 -0.2959
  685TMC3    O110193   0.872   0.494  15.755 -0.6159  0.5624 -0.5909
  685TMC3    O210194   0.416   0.632  15.628 -0.5932 -0.3055  0.0355
  686MPD2     C10195   1.859   1.505  16.070 -0.5737  0.4038  0.1244
  686MPD2    C110196   1.931   1.389  16.065 -0.1024  0.3470  0.0122
  686MPD2    C210197   2.072   1.396  16.051 -0.6491  0.3490  0.0271
  686MPD2    C310198   2.131   1.517  16.069  0.1666  0.0519  0.3953
  686MPD2    C410199   2.058   1.638  16.080  0.5879  0.2324  0.1116
  686MPD2    C510200   1.918   1.631  16.074 -0.0260  0.2921  0.0456
  686MPD2     H10201   2.139   1.312  16.038 -0.5415  0.2523  1.2217
  686MPD2    H110202   2.108   1.733  16.087  1.5979 -0.2689 -0.3189
  686MPD2    H210203   1.751   1.501  16.064 -0.5840  0.3476  0.3462
  686MPD2    H310204   1.858   1.718  16.093  1.1032  0.7340  1.5414
  686MPD2     N10205   2.275   1.532  16.055  0.1446  0.1516  0.7774
  686MPD2    H510206   2.305   1.624  16.025 -0.1202  0.2627  0.8539
  686MPD2    N110207   1.864   1.262  16.052 -0.2889  0.1364  0.3700
  686MPD2    H710208   1.764   1.271  16.033  0.3355  0.5433 -2.8032
  687TMC3    C110209   2.455   1.423  15.956 -0.0984  0.5377 -0.3830
  687TMC3    C210210   2.403   1.469  15.838  0.1297  0.4264 -0.1706
  687TMC3    C310211   2.369   1.374  15.748 -0.0880  0.5036  0.3521
  687TMC3    C410212   2.515   1.300  15.968 -0.1398 -0.2592  0.0650
  687TMC3    C510213   2.490   1.212  15.875 -0.6287 -0.8158  0.3870
  687TMC3    C610214   2.416   1.241  15.765  0.2851 -0.2327  0.2482
  687TMC3     C10215   2.362   1.428  16.063  0.2124  0.2298 -0.2379
  687TMC3     O10216   2.350   1.325  16.130  0.5205  0.3547  0.0147
  687TMC3     H10217   2.375   1.574  15.833  0.0441  0.2995 -2.1504
  687TMC3    H110218   2.557   1.265  16.061 -0.1764 -1.3267 -0.3170
  687TMC3    H210219   2.379   1.166  15.696  2.0461 -1.1790  0.3281
  687TMC3    C710220   2.523   1.079  15.914 -0.3541 -0.1454 -0.6233
  687TMC3    C810221   2.243   1.400  15.676  0.4834 -0.3136 -0.3760
  687TMC3    O110222   2.627   1.061  15.972  0.1459 -0.2039  0.9724
  687TMC3    O210223   2.210   1.317  15.597  0.6387 -0.2206  0.1092
  688MPD2     C10224   1.103   4.551  17.556 -0.7225  0.1401  0.8945
  688MPD2    C110225   1.154   4.422  17.589  0.1091 -0.9734 -0.4740
  688MPD2    C210226   1.249   4.368  17.507 -0.1745  0.1349  0.6973
  688MPD2    C310227   1.302   4.438  17.397  0.2738 -0.7604 -0.0481
  688MPD2    C410228   1.242   4.554  17.363 -0.2838 -0.0577 -0.2103
  688MPD2    C510229   1.147   4.616  17.442 -0.8174  0.0728 -0.6833
  688MPD2     H10230   1.291   4.270  17.529 -2.4078 -0.6966  1.1997
  688MPD2    H110231   1.282   4.609  17.278  1.6157  0.4214  0.9879
  688MPD2    H210232   1.037   4.611  17.616 -0.2398  0.9769  0.5823
  688MPD2    H310233   1.114   4.718  17.425 -3.0818 -0.6204 -0.4093
  688MPD2     N10234   1.407   4.399  17.315 -0.7280 -0.1022  0.7857
  688MPD2    H510235   1.447   4.472  17.256 -1.1608 -0.7013 -0.2464
  688MPD2    N110236   1.103   4.339  17.692 -0.3120  0.5565  0.4741
  688MPD2    H710237   1.135   4.242  17.692  0.5665  0.8465 -1.2933
  689TMC3    C110238   0.966   4.271   0.121  0.6691 -0.3933 -0.0822
  689TMC3    C210239   0.896   4.320   0.229 -0.0541 -0.8964  0.0450
  689TMC3    C310240   0.828   4.226   0.305  0.3764 -0.8119  1.0209
  689TMC3    C410241   0.945   4.145   0.069 -0.4727 -0.0734 -0.3967
  689TMC3    C510242   0.869   4.060   0.141 -0.3467 -1.1244  0.5038
  689TMC3    C610243   0.820   4.096   0.263 -0.2081 -0.0729  0.1237
  689TMC3     C10244   1.008   4.378   0.032 -0.1957 -0.1986 -0.7561
  689TMC3     O10245   0.985   4.489   0.072  0.1860 -0.1346 -0.6375
  689TMC3     H10246   0.915   4.418   0.273 -2.2719  0.2605 -1.5920
  689TMC3    H110247   0.991   4.115  17.728  0.5481 -0.6688  0.2979
  689TMC3    H210248   0.760   4.023   0.316 -0.1937 -1.2436 -1.4840
  689TMC3    C710249   0.877   3.917   0.129  0.5137 -0.2609 -0.2464
  689TMC3    C810250   0.753   4.276   0.422 -0.2464 -0.0215 -0.1039
  689TMC3    O110251   0.903   3.849   0.227  0.7355 -0.1231  0.1557
  689TMC3    O210252   0.766   4.397   0.447 -0.5583  0.0432 -0.0701
  690MPD2     C10253   4.007   1.474  15.610  0.8808  0.6515 -0.0021
  690MPD2    C110254   3.904   1.553  15.555  0.6523  0.2380  0.1507
  690MPD2    C210255   3.939   1.650  15.462 -0.1233  0.1631 -0.4042
  690MPD2    C310256   4.075   1.679  15.432  0.1620 -0.1214  0.0579
  690MPD2    C410257   4.171   1.595  15.485  0.0594 -0.4865  0.3278
  690MPD2    C510258   4.142   1.493  15.568  0.0423 -0.4968  0.0554
  690MPD2     H10259   3.860   1.713  15.422 -0.9366  0.0232  0.9766
  690MPD2    H110260   4.271   1.603  15.444  0.0228 -3.1500 -0.2376
  690MPD2    H210261   3.985   1.398  15.684 -0.4600  0.3668 -0.6933
  690MPD2    H310262   4.220   1.431  15.612  1.4556 -1.0453 -3.2464
  690MPD2     N10263   4.105   1.778  15.340  0.3698  0.1225  0.0593
  690MPD2    H510264   4.032   1.824  15.287 -0.3187 -2.1553 -0.9976
  690MPD2    N110265   3.768   1.538  15.591 -0.4820  0.0154  0.1766
  690MPD2    H710266   3.706   1.582  15.524  0.4969  0.3439 -0.5045
  691TMC3    C110267   3.581   1.489  15.727 -0.3054 -0.1480  0.7513
  691TMC3    C210268   3.502   1.537  15.624 -0.0005  0.0832  0.0120
  691TMC3    C310269   3.367   1.528  15.647  0.3059  1.2628  0.1314
  691TMC3    C410270   3.534   1.454  15.846  0.2584 -0.2124  0.4329
  691TMC3    C510271   3.403   1.435  15.853 -0.6339 -0.1584 -0.5551
  691TMC3    C610272   3.313   1.484  15.767 -0.1205  0.1316 -0.2791
  691TMC3     C10273   3.721   1.483  15.705 -0.5723 -0.2259  0.3264
  691TMC3     O10274   3.787   1.414  15.785 -0.2259  0.1357  0.0047
  691TMC3     H10275   3.527   1.562  15.522 -0.6649 -0.3545 -0.2597
  691TMC3    H110276   3.603   1.400  15.909 -0.4189 -1.4783  0.1008
  691TMC3    H210277   3.208   1.457  15.776 -0.0634  0.2864  0.8438
  691TMC3    C710278   3.375   1.311  15.931  0.6860 -0.0874 -0.3551
  691TMC3    C810279   3.271   1.579  15.550 -0.0446 -0.9833 -0.4483
  691TMC3    O110280   3.459   1.279  16.016  0.3901 -0.0642  0.1473
  691TMC3    O210281   3.308   1.566  15.434 -0.0340 -0.4430 -0.2207
  692TMC3    C110282   0.128   2.302  15.531  0.4174 -0.2805 -0.5106
  692TMC3    C210283   0.243   2.369  15.503  0.1461 -0.1139  0.2951
  692TMC3    C310284   0.358   2.302  15.519 -0.3851  0.1453 -0.1894
  692TMC3    C410285   0.131   2.176  15.589  0.2136 -0.2024 -0.0747
  692TMC3    C510286   0.246   2.109  15.605 -0.0125 -0.0227  0.3992
  692TMC3    C610287   0.363   2.179  15.587  0.5554  0.7530  0.0209
  692TMC3     C10288   0.016   2.382  15.564  0.4608  0.1614  0.3436
  692TMC3     O10289   4.653   2.322  15.599  0.1774 -0.3327 -0.0905
  692TMC3     H10290   0.247   2.449  15.431  0.9265 -0.0697  0.3788
  692TMC3    H110291   0.039   2.133  15.628  0.2718  0.6803  1.0487
  692TMC3    H210292   0.458   2.130  15.603  0.5698  0.7793  0.0143
  692TMC3    C710293   0.247   1.989  15.695 -0.8775 -0.5816 -0.0485
  692TMC3    C810294   0.460   2.395  15.563 -0.1714  0.0839 -0.3513
  692TMC3    O110295   0.320   2.000  15.794 -0.3743 -0.2623  0.4487
  692TMC3    O210296   0.578   2.368  15.569 -0.0380  0.2278  0.1625
  693MPD2     C10297   4.484   0.804  10.773 -0.1495  0.2491  1.1377
  693MPD2    C110298   4.464   0.807  10.908 -0.7478  0.5139  0.6877
  693MPD2    C210299   4.567   0.784  10.989  0.0286 -0.0539  0.6348
  693MPD2    C310300   4.700   0.767  10.940  0.1679  0.3630 -0.1588
  693MPD2    C410301   4.715   0.767  10.801  0.2932 -0.6870  0.3058
  693MPD2    C510302   4.611   0.788  10.719  0.0329  0.1125 -0.1016
  693MPD2     H10303   4.560   0.787  11.097  1.1608  2.2468  0.6346
  693MPD2    H110304   0.068   0.728  10.757  1.5141  1.5334  0.8942
  693MPD2    H210305   4.403   0.835  10.707  1.3294  3.2057  0.7447
  693MPD2    H310306   4.616   0.775  10.611 -3.0114  1.7423 -0.4263
  693MPD2     N10307   0.074   0.743  11.032  0.1419  0.2641  0.5867
  693MPD2    H510308   0.052   0.699  11.121 -1.8069 -1.4511 -0.7314
  693MPD2    N110309   4.342   0.833  10.964  0.1991 -0.0886 -0.7298
  693MPD2    H710310   4.331   0.830  11.065  0.5909 -0.6823 -0.7063
  694TMC3    C110311   4.113   0.843  10.996 -0.5236 -0.1887 -0.2162
  694TMC3    C210312   3.987   0.871  10.949  0.1345 -0.5076  0.2861
  694TMC3    C310313   3.898   0.926  11.041  0.0933 -0.3758 -0.1618
  694TMC3    C410314   4.140   0.838  11.130 -0.2577 -0.1350 -0.8741
  694TMC3    C510315   4.045   0.867  11.219 -0.2333 -0.3462 -0.6788
  694TMC3    C610316   3.923   0.921  11.176 -0.0738 -0.5811 -0.4623
  694TMC3     C10317   4.219   0.828  10.897 -0.5173 -0.8050 -0.1645
  694TMC3     O10318   4.185   0.821  10.778  0.8686 -0.1699  0.2241
  694TMC3     H10319   3.962   0.877  10.844  1.3245 -0.2191  0.0249
  694TMC3    H110320   4.232   0.798  11.172 -0.2068  1.3029  0.3953
  694TMC3    H210321   3.854   0.966  11.246  0.4191 -0.6249  0.0471
  694TMC3    C710322   4.055   0.804  11.350  0.2990 -0.3579 -0.5672
  694TMC3    C810323   3.766   0.953  10.997  1.1841 -0.8463  0.2172
  694TMC3    O110324   4.169   0.799  11.394  0.3975 -0.5912  0.5046
  694TMC3    O210325   3.675   0.959  11.083  0.4018  0.7555 -0.5354
  695MPD2     C10326   0.826   2.773  13.566  0.1480  0.9875 -0.2854
  695MPD2    C110327   0.742   2.714  13.656  0.4249 -0.0767 -0.0735
  695MPD2    C210328   0.605   2.712  13.632  0.5333 -0.2615 -0.5641
  695MPD2    C310329   0.550   2.765  13.516 -0.6424 -0.2055 -0.4295
  695MPD2    C410330   0.639   2.825  13.427  0.9796  0.4468 -0.3904
  695MPD2    C510331   0.771   2.823  13.447  0.0687 -0.1103 -0.3264
  695MPD2     H10332   0.542   2.664  13.707 -1.6670  1.3450 -1.3961
  695MPD2    H110333   0.597   2.864  13.335 -0.3244  1.1782  0.5186
  695MPD2    H210334   0.935   2.771  13.562  0.0249  0.5827 -3.5419
  695MPD2    H310335   0.832   2.867  13.369 -0.2486  1.4508  0.3192
  695MPD2     N10336   0.414   2.744  13.487  0.7284  0.6861 -0.1453
  695MPD2    H510337   0.358   2.707  13.563  0.9377 -0.6093 -0.6347
  695MPD2    N110338   0.785   2.655  13.774  0.4811  0.0979 -0.3437
  695MPD2    H710339   0.715   2.630  13.844  0.2005  1.0263 -0.2976
  696TMC3    C110340   0.208   2.749  13.373  0.5711  0.2302 -0.1013
  696TMC3    C210341   0.174   2.629  13.435 -0.0687 -0.3730 -0.1324
  696TMC3    C310342   0.039   2.608  13.460 -0.2255  1.0140 -0.0611
  696TMC3    C410343   0.112   2.828  13.312 -0.0297  0.2899 -0.0473
  696TMC3    C510344   4.722   2.806  13.350 -0.1889 -0.0907 -0.0442
  696TMC3    C610345   4.682   2.705  13.436 -0.5723  0.5505 -0.1800
  696TMC3     C10346   0.340   2.800  13.384 -1.3622 -0.1707  0.1935
  696TMC3     O10347   0.376   2.880  13.298  0.1945  0.1679 -0.1965
  696TMC3     H10348   0.253   2.573  13.484  0.9113  1.6199  0.5924
  696TMC3    H110349   0.152   2.921  13.273 -2.4154  1.3647  0.1013
  696TMC3    H210350   4.577   2.701  13.464  0.2696  2.4800  3.2177
  696TMC3    C710351   4.645   2.933  13.343  0.4222  0.6947 -0.2612
  696TMC3    C810352   0.017   2.529  13.580  0.5305  0.6945  0.5514
  696TMC3    O110353   4.667   3.005  13.245 -0.7298 -0.0961  0.4585
  696TMC3    O210354   0.104   2.512  13.661  0.5873  0.9560 -0.5883
  697MPD2     C10355   4.721   4.157  15.471 -0.4062  0.2272  0.3502
  697MPD2    C110356   4.658   4.124  15.352 -0.7833 -0.3453 -0.0077
  697MPD2    C210357   4.650   4.217  15.253 -0.1945  0.5707 -0.4287
  697MPD2    C310358   4.714   4.340  15.257  0.2129  0.0015  0.8824
  697MPD2    C410359   0.034   4.376  15.380  0.5060  0.9114  0.6482
  697MPD2    C510360   0.034   4.285  15.483 -0.1412  0.0570 -0.0163
  697MPD2     H10361   4.613   4.196  15.153 -0.8512 -1.0954  0.1660
  697MPD2    H110362   0.075   4.476  15.392 -0.4830  1.5916 -1.6508
  697MPD2    H210363   0.004   4.083  15.547 -0.8506 -0.6592 -0.3744
  697MPD2    H310364   0.075   4.299  15.582 -1.6085 -0.8024  0.7079
  697MPD2     N10365   4.723   4.419  15.143  0.7240  0.1316  0.0175
  697MPD2    H510366   4.666   4.389  15.064  0.1034 -0.3317  0.6406
  697MPD2    N110367   4.622   3.993  15.323  0.0525  0.3666 -0.4731
  697MPD2    H710368   4.602   3.966  15.227 -0.0057 -0.6410 -0.1681
  698TMC3    C110369   0.058   4.585  14.990  0.0416  0.1159 -0.2053
  698TMC3    C210370   0.064   4.724  14.975  0.6318  0.0355 -0.3593
  698TMC3    C310371   0.019   0.038  14.856 -0.2871  0.0669 -1.0130
  698TMC3    C410372   0.027   4.500  14.884  0.4337  0.3812 -0.0235
  698TMC3    C510373   4.722   4.559  14.767  0.3534  0.5254  0.0797
  698TMC3    C610374   4.722   4.699  14.747 -0.4499  0.0022 -0.5881
  698TMC3     C10375   0.068   4.528  15.123  0.1498 -0.0782 -0.1605
  698TMC3     O10376   0.142   4.591  15.202  0.1748  0.0529 -0.2523
  698TMC3     H10377   0.077   0.047  15.063 -0.5554  0.6148 -0.5819
  698TMC3    H110378   0.047   4.396  14.907  0.1771  0.1318 -0.9694
  698TMC3    H210379   4.695   4.737  14.649  4.0831  1.2727 -1.3569
  698TMC3    C710380   4.671   4.477  14.655  0.3772  0.4081 -0.1717
  698TMC3    C810381   0.031   0.176  14.831 -0.4761  0.8447 -0.2440
  698TMC3    O110382   4.632   4.535  14.550 -0.2618 -0.9848 -0.0232
  698TMC3    O210383   4.710   0.227  14.738 -0.8473 -0.3223 -0.3325
  699TMC3    C110384   4.478   2.759  13.025 -0.1306 -0.0802  0.3133
  699TMC3    C210385   4.547   2.647  13.068  0.5054  0.3436  0.0968
  699TMC3    C310386   4.486   2.584  13.173 -0.6680  0.1396  0.4614
  699TMC3    C410387   4.382   2.825  13.096  0.3230 -0.6706  0.3269
  699TMC3    C510388   4.339   2.761  13.209 -0.6327 -0.1658  0.1139
  699TMC3    C610389   4.378   2.634  13.238 -0.8150  0.3258  0.1021
  699TMC3     C10390   4.546   2.845  12.935  0.8635  0.1916 -0.0627
  699TMC3     O10391   4.488   2.946  12.901  0.1512 -0.5271  0.6695
  699TMC3     H10392   4.613   2.600  12.995 -1.5899  1.5005 -2.5106
  699TMC3    H110393   4.353   2.927  13.073  0.7423 -0.7321 -0.4929
  699TMC3    H210394   4.335   2.598  13.331  3.7352  1.1287  2.5259
  699TMC3    C710395   4.275   2.835  13.317  0.1741 -0.0323  0.3267
  699TMC3    C810396   4.545   2.465  13.233 -0.0027 -0.4650  0.2157
  699TMC3    O110397   4.301   2.807  13.433  0.2194  0.6394  0.3428
  699TMC3    O210398   4.488   2.416  13.326 -0.3039  0.1006  0.0778
  700TMC3    C110399   3.996   4.335  17.240  0.0142  0.1658  0.6023
  700TMC3    C210400   3.937   4.208  17.218 -0.0858 -0.3160  0.8468
  700TMC3    C310401   3.876   4.143  17.325 -0.1885  0.1241 -0.1311
  700TMC3    C410402   3.977   4.395  17.362  0.0236  0.1900 -0.5296
  700TMC3    C510403   3.935   4.322  17.469 -0.2482 -0.0165 -0.9344
  700TMC3    C610404   3.869   4.201  17.452  0.2431 -0.4582  0.0265
  700TMC3     C10405   4.021   4.412  17.121 -0.1985  0.5155 -0.0440
  700TMC3     O10406   3.997   4.359  17.015  0.3820 -0.6005 -0.0914
  700TMC3     H10407   3.938   4.166  17.118 -1.1247 -1.5671  1.3663
  700TMC3    H110408   3.993   4.501  17.377  0.3094 -0.0292  0.7263
  700TMC3    H210409   3.843   4.147  17.542 -0.2857 -0.8742 -0.3698
  700TMC3    C710410   3.905   4.407  17.573 -0.5164 -0.3915 -0.8416
  700TMC3    C810411   3.877   3.999  17.317 -0.2589  0.5162 -0.3443
  700TMC3    O110412   3.982   4.412  17.667 -0.3434  0.6842  0.8283
  700TMC3    O210413   3.852   3.948  17.427  0.0276 -0.9794  0.6086
  701TMC3    C110414   3.845   3.662  15.586  0.6238  0.1445  1.0267
  701TMC3    C210415   3.848   3.636  15.447 -0.5631 -0.2476  0.4273
  701TMC3    C310416   3.940   3.697  15.372 -0.1698  0.7360 -0.1629
  701TMC3    C410417   3.942   3.739  15.641  0.3275 -0.4098 -0.5701
  701TMC3    C510418   4.027   3.806  15.556 -0.8430  0.0874 -0.7939
  701TMC3    C610419   4.028   3.782  15.425  0.0741 -0.0578  0.2421
  701TMC3     C10420   3.755   3.586  15.662  0.4199  0.2791  1.1164
  701TMC3     O10421   3.722   3.485  15.601  0.3695  0.1414 -0.3873
  701TMC3     H10422   3.773   3.571  15.405  1.2562 -1.1529 -1.4572
  701TMC3    H110423   3.936   3.756  15.748 -2.1805 -1.9919 -0.4489
  701TMC3    H210424   4.099   3.836  15.363  0.2444 -1.8847 -1.1741
  701TMC3    C710425   4.114   3.912  15.603  0.5093  0.0932 -0.1231
  701TMC3    C810426   3.903   3.726  15.229  0.0796 -0.1242  0.1806
  701TMC3    O110427   4.139   4.014  15.534  0.0929 -0.1575  0.0970
  701TMC3    O210428   3.945   3.833  15.181 -0.0253  0.3927  0.4349
  702MPD2     C10429   3.632   1.471  10.781  0.1463 -0.2901  0.2507
  702MPD2    C110430   3.499   1.481  10.812  0.7081 -0.1435  0.3840
  702MPD2    C210431   3.404   1.468  10.711  0.0666 -0.0835 -0.4491
  702MPD2    C310432   3.442   1.471  10.584 -0.4879  0.2647 -0.3588
  702MPD2    C410433   3.577   1.467  10.555  0.5271  0.1430 -0.2587
  702MPD2    C510434   3.673   1.461  10.654  0.1228 -0.5008 -0.5216
  702MPD2     H10435   3.299   1.464  10.736 -0.5867 -1.2886 -3.4315
  702MPD2    H110436   3.606   1.465  10.451 -0.9014 -0.5863 -0.6457
  702MPD2    H210437   3.715   1.467  10.851 -0.2714  4.3179  0.9935
  702MPD2    H310438   3.778   1.442  10.631  0.3616 -0.9542  0.9088
  702MPD2     N10439   3.345   1.478  10.481 -0.0674 -0.1469 -0.4317
  702MPD2    H510440   3.372   1.492  10.384  2.6773  0.9867  0.5152
  702MPD2    N110441   3.450   1.505  10.941 -0.3423  0.5319 -0.4079
  702MPD2    H710442   3.348   1.502  10.941 -0.3374  0.3205 -0.7132
  703TMC3    C110443   3.141   1.581  10.469  0.4367  0.5290  0.1141
  703TMC3    C210444   3.033   1.612  10.551 -0.3113 -0.0690  0.3387
  703TMC3    C310445   3.017   1.734  10.609 -0.6588 -0.4258  0.2155
  703TMC3    C410446   3.216   1.688  10.428 -0.0999  0.1318  0.3005
  703TMC3    C510447   3.189   1.815  10.486 -0.1398  0.2086 -0.2378
  703TMC3    C610448   3.097   1.840  10.579  0.0379  0.6899 -0.0978
  703TMC3     C10449   3.214   1.452  10.488 -0.7415  0.2990 -0.6940
  703TMC3     O10450   3.161   1.379  10.571 -0.2670  0.1135 -0.2538
  703TMC3     H10451   2.980   1.538  10.609 -0.7118  0.0416  0.1141
  703TMC3    H110452   3.305   1.680  10.367 -0.2544 -0.6725  0.1900
  703TMC3    H210453   3.095   1.932  10.637  0.0047  0.8659 -0.3791
  703TMC3    C710454   3.313   1.889  10.502  0.5486 -0.1852  0.3099
  703TMC3    C810455   3.033   1.716  10.754 -0.5129 -0.5662 -0.5673
  703TMC3    O110456   3.303   2.007  10.480  0.5542  0.1753 -0.3803
  703TMC3    O210457   3.143   1.673  10.789  0.3380  0.0112  0.1618
  704TMC3    C110458   1.320   3.887  12.182  0.6831  0.0672  0.0162
  704TMC3    C210459   1.297   3.770  12.116 -0.1420 -0.2137  0.5538
  704TMC3    C310460   1.384   3.667  12.133 -0.1671  0.1046  0.0074
  704TMC3    C410461   1.408   3.902  12.280 -0.2795  1.1236 -0.0236
  704TMC3    C510462   1.490   3.795  12.312  0.4455  0.2698 -0.0546
  704TMC3    C610463   1.469   3.680  12.243  0.1478  0.0817  0.5969
  704TMC3     C10464   1.197   3.973  12.178 -0.1281  0.5930  0.0062
  704TMC3     O10465   1.088   3.917  12.169 -0.5189 -0.2072 -0.2058
  704TMC3     H10466   1.221   3.760  12.039 -1.2904 -1.3553  1.8282
  704TMC3    H110467   1.404   3.979  12.356  0.6820  1.8778 -0.7400
  704TMC3    H210468   1.531   3.600  12.281 -1.7155 -1.1711  1.0014
  704TMC3    C710469   1.509   3.777  12.452  0.4673  0.4220 -0.7686
  704TMC3    C810470   1.315   3.541  12.119 -0.4370 -0.1809 -0.2284
  704TMC3    O110471   1.474   3.667  12.499 -0.2903 -0.0066 -0.2489
  704TMC3    O210472   1.196   3.531  12.113 -0.4374 -0.2441  0.5739
  705MPD2     C10473   0.292   2.205  16.473  0.1582 -0.1874 -0.4891
  705MPD2    C110474   0.294   2.318  16.393 -0.6845 -0.2756 -0.2066
  705MPD2    C210475   0.177   2.392  16.380  0.1187 -0.1099  0.4710
  705MPD2    C310476   0.056   2.344  16.444 -0.5209  0.0163  0.0075
  705MPD2    C410477   0.063   2.225  16.519 -0.0706  1.2323  0.0591
  705MPD2    C510478   0.181   2.159  16.538  0.1727  0.3710 -0.0943
  705MPD2     H10479   0.180   2.481  16.318 -0.0079 -0.0389  0.5680
  705MPD2    H110480   4.713   2.182  16.562  0.4633  1.1042  1.0373
  705MPD2    H210481   0.384   2.148  16.481  0.7109  0.6351 -1.0046
  705MPD2    H310482   0.169   2.060  16.581 -0.5875  0.5521  0.1015
  705MPD2     N10483   4.669   2.414  16.433 -0.0821  0.3661 -0.7255
  705MPD2    H510484   4.584   2.358  16.434  0.3879 -0.2980  2.4428
  705MPD2    N110485   0.403   2.364  16.314  0.0877 -0.0389 -0.2096
  705MPD2    H710486   0.392   2.453  16.266  1.0397  0.1887 -0.0067
  706TMC3    C110487   0.778   2.347  16.046 -0.0772  1.0193  0.2646
  706TMC3    C210488   0.788   2.485  16.040  0.2808 -0.7347  0.2024
  706TMC3    C310489   0.710   2.554  16.125  0.3467  0.3785  0.0155
  706TMC3    C410490   0.712   2.280  16.141  0.4496  0.5201 -0.1483
  706TMC3    C510491   0.632   2.358  16.226  0.2601 -0.1412 -1.2674
  706TMC3    C610492   0.623   2.493  16.209  0.6308 -0.1683  0.1932
  706TMC3     C10493   0.883   2.273  15.978  0.2354 -0.4644  0.7354
  706TMC3     O10494   0.991   2.268  16.040 -0.4415  0.1362 -0.0235
  706TMC3     H10495   0.842   2.533  15.959 -0.9983  0.2243 -0.0808
  706TMC3    H110496   0.706   2.172  16.132 -0.0637  0.6205 -0.9104
  706TMC3    H210497   0.574   2.561  16.277 -2.3966 -2.1404 -0.0291
  706TMC3    C710498   0.519   2.290  16.292 -0.5704 -0.5229 -0.0223
  706TMC3    C810499   0.716   2.695  16.117  0.4867 -0.2745  0.5308
  706TMC3    O110500   0.544   2.177  16.336  0.0115 -0.5293  0.0815
  706TMC3    O210501   0.619   2.760  16.151 -0.1526  0.0677  0.0730
  707TMC3    C110502   2.021   1.464   0.877 -0.4005  0.3026  0.2806
  707TMC3    C210503   1.973   1.341   0.915 -0.4761  0.4333  0.6053
  707TMC3    C310504   1.840   1.336   0.950  0.0459 -0.0416 -0.4330
  707TMC3    C410505   1.936   1.580   0.863 -0.4204 -0.1458 -0.0998
  707TMC3    C510506   1.798   1.563   0.893  0.5879 -0.3314  0.4522
  707TMC3    C610507   1.756   1.441   0.940  0.3934 -0.5446 -0.2300
  707TMC3     C10508   2.159   1.464   0.837  0.2021  0.1615  0.4964
  707TMC3     O10509   2.215   1.357   0.824  0.5671 -0.1768 -0.0417
  707TMC3     H10510   2.044   1.266   0.945 -0.2036  0.5154  0.1670
  707TMC3    H110511   1.974   1.675   0.827 -0.7161  0.5290  1.3816
  707TMC3    H210512   1.651   1.425   0.965  0.7257 -0.7384  1.0242
  707TMC3    C710513   1.711   1.680   0.916  0.5839  0.1806 -0.0217
  707TMC3    C810514   1.781   1.220   0.996 -0.0968 -0.2308  0.1641
  707TMC3    O110515   1.592   1.660   0.913  0.2451  0.1471 -0.1738
  707TMC3    O210516   1.662   1.218   1.031 -0.1701 -0.6218 -0.1855
  708MPD2     C10517   3.915   0.306  13.946 -0.2568  0.0292  0.5813
  708MPD2    C110518   3.852   0.427  13.973  0.5772 -0.2904  0.2002
  708MPD2    C210519   3.750   0.423  14.064  0.6458 -0.5187 -0.3339
  708MPD2    C310520   3.703   0.309  14.122  0.3651 -0.0428 -0.1531
  708MPD2    C410521   3.765   0.187  14.083  0.2523  0.4795  0.6820
  708MPD2    C510522   3.866   0.191  13.996 -0.3855  0.3701  0.1233
  708MPD2     H10523   3.705   0.520  14.081  1.9216 -0.2406  1.5181
  708MPD2    H110524   3.735   0.091  14.124 -1.3209  0.6035 -0.1943
  708MPD2    H210525   3.976   0.303  13.856  1.4220 -4.0168  1.8555
  708MPD2    H310526   3.906   0.100  13.952  0.2010  0.1004  1.2147
  708MPD2     N10527   3.592   0.304  14.210  0.4179  0.1494 -0.5783
  708MPD2    H510528   3.562   0.215  14.249  0.0426 -0.6330 -2.6846
  708MPD2    N110529   3.881   0.548  13.910  0.1378 -0.4096 -0.7593
  708MPD2    H710530   3.814   0.622  13.930  2.3231  1.7933 -1.5923
  709TMC3    C110531   3.930   0.694  13.731 -0.0367  0.0087  0.5742
  709TMC3    C210532   3.907   0.684  13.600 -0.8538 -0.2124  0.3050
  709TMC3    C310533   3.808   0.765  13.561 -0.2911 -0.3088 -0.5464
  709TMC3    C410534   3.878   0.790  13.813 -0.4878  0.5402  0.2080
  709TMC3    C510535   3.762   0.854  13.781  0.6734 -0.0656  0.7088
  709TMC3    C610536   3.730   0.844  13.644 -0.6241 -0.3111  0.7567
  709TMC3     C10537   3.962   0.566  13.796 -0.4454 -0.4083  0.4139
  709TMC3     O10538   4.024   0.486  13.737  0.1554  0.1210  0.6487
  709TMC3     H10539   3.957   0.607  13.543 -1.5231  1.2732 -2.3298
  709TMC3    H110540   3.907   0.789  13.917 -2.7786 -0.0107  0.8479
  709TMC3    H210541   3.632   0.877  13.611 -1.1836 -1.0371  1.7058
  709TMC3    C710542   3.653   0.819  13.876 -0.1738  0.5428 -0.0373
  709TMC3    C810543   3.762   0.753  13.425  0.4048  0.0014  0.0497
  709TMC3    O110544   3.689   0.753  13.975 -0.0925  0.7260  0.8645
  709TMC3    O210545   3.796   0.648  13.369 -0.5340 -0.7901  0.4660
  710TMC3    C110546   0.122   1.696   0.271 -0.3743  0.7239 -0.5613
  710TMC3    C210547   0.180   1.731   0.153  0.7884  0.4340 -0.4369
  710TMC3    C310548   0.312   1.731   0.145 -0.2255  0.5912  0.1918
  710TMC3    C410549   0.190   1.684   0.392 -0.8194 -0.6413  0.6983
  710TMC3    C510550   0.327   1.700   0.381 -0.6172  0.6002  0.0230
  710TMC3    C610551   0.392   1.715   0.257  0.3692 -0.7280  0.5619
  710TMC3     C10552   4.722   1.725   0.301 -0.0546  0.3691 -0.5638
  710TMC3     O10553   4.675   1.658   0.387  0.3119  0.7651 -0.0083
  710TMC3     H10554   0.131   1.732   0.057  0.6254  2.4323 -0.3294
  710TMC3    H110555   0.142   1.665   0.487 -0.1003 -0.6152  1.0640
  710TMC3    H210556   0.499   1.724   0.241 -0.1078 -2.0547 -3.5021
  710TMC3    C710557   0.402   1.714   0.505 -0.0495  0.8478 -0.1275
  710TMC3    C810558   0.374   1.742   0.013  0.4230  0.5873  0.2641
  710TMC3    O110559   0.352   1.667   0.606 -0.5279 -0.1498  0.0142
  710TMC3    O210560   0.307   1.702  17.668 -0.2914 -0.4267  0.2841
  711TMC3    C110561   4.275   3.085  15.288 -0.5733  0.0982 -0.5375
  711TMC3    C210562   4.287   3.117  15.425 -0.9340  0.1323 -0.3096
  711TMC3    C310563   4.401   3.175  15.466  0.2324 -0.0856 -0.3788
  711TMC3    C410564   4.375   3.120  15.200  0.5955  0.2516  0.0872
  711TMC3    C510565   4.491   3.176  15.249  0.4286  0.0985  0.0144
  711TMC3    C610566   4.502   3.214  15.378  0.3901 -0.0978 -0.6426
  711TMC3     C10567   4.164   3.009  15.232  0.6300 -0.0807  0.2691
  711TMC3     O10568   4.140   3.029  15.114  0.0266  0.3413 -0.7526
  711TMC3     H10569   4.211   3.087  15.497 -1.2672  1.8601  0.0613
  711TMC3    H110570   4.376   3.077  15.100  1.9561  2.6339 -0.9454
  711TMC3    H210571   4.606   3.209  15.409  0.4393  0.9825 -0.6189
  711TMC3    C710572   4.607   3.147  15.169  0.6153  0.1049  0.0232
  711TMC3    C810573   4.421   3.182  15.606 -0.2413 -0.1954  0.6795
  711TMC3    O110574   4.600   3.051  15.099 -0.5721 -0.0341  0.2535
  711TMC3    O210575   4.333   3.129  15.677 -0.2608  0.3258  0.2208
  712MPD2     C10576   1.244   4.151  13.860 -0.0756  0.5204  0.0768
  712MPD2    C110577   1.143   4.190  13.779 -0.3421 -0.9248 -0.4904
  712MPD2    C210578   1.095   4.319  13.774 -0.2955  0.2584  0.4294
  712MPD2    C310579   1.180   4.417  13.828 -0.5253  0.2076 -0.0405
  712MPD2    C410580   1.286   4.385  13.901  0.3836 -0.1191  0.0810
  712MPD2    C510581   1.315   4.255  13.923 -0.1206 -1.0319 -0.2727
  712MPD2     H10582   1.007   4.350  13.718 -0.9653 -1.9279  0.2730
  712MPD2    H110583   1.346   4.460  13.952 -1.3495  1.0405  0.4151
  712MPD2    H210584   1.268   4.049  13.888  0.2898  0.7190  0.4938
  712MPD2    H310585   1.385   4.228  14.002  1.6538  1.7583 -0.8799
  712MPD2     N10586   1.158   4.553  13.808  0.4306  0.7293 -0.0100
  712MPD2    H510587   1.233   4.611  13.845  0.3055  0.8312  0.0837
  712MPD2    N110588   1.074   4.092  13.699 -0.6162  0.4261  0.0049
  712MPD2    H710589   0.993   4.123  13.646  0.4510 -0.5490 -2.1841
  713TMC3    C110590   1.095   0.004  13.696  0.8175 -0.9891 -0.0097
  713TMC3    C210591   1.218   0.064  13.717  0.5291 -0.0573  0.0048
  713TMC3    C310592   1.239   0.198  13.732  0.4825  0.2650 -0.3006
  713TMC3    C410593   0.986   0.089  13.684  0.2747 -0.6038 -0.0273
  713TMC3    C510594   1.008   0.225  13.700 -0.5598 -0.0686  0.0380
  713TMC3    C610595   1.126   0.281  13.729 -0.0322  0.8582 -0.2505
  713TMC3     C10596   1.067   4.599  13.722 -0.4321  0.7787 -0.5781
  713TMC3     O10597   0.961   4.561  13.683 -0.0715  0.0641 -0.5167
  713TMC3     H10598   1.303   4.736  13.713  1.6633  1.3861  0.2947
  713TMC3    H110599   0.887   0.044  13.685 -0.2940  0.6171 -1.3145
  713TMC3    H210600   1.127   0.389  13.717 -2.8139  0.8003 -1.0071
  713TMC3    C710601   0.889   0.316  13.705  0.0561  0.9605 -0.4493
  713TMC3    C810602   1.365   0.268  13.750  0.1631 -0.3761  0.3210
  713TMC3    O110603   0.893   0.413  13.777  0.1243  0.2512  0.3936
  713TMC3    O210604   1.369   0.383  13.705 -0.1832 -0.2047 -0.2637
  714MPD2     C10605   3.455   2.650   1.499 -0.3733 -0.7744 -0.3656
  714MPD2    C110606   3.451   2.596   1.374 -0.4914  0.0866  0.1713
  714MPD2    C210607   3.328   2.597   1.309 -0.6768 -0.3235 -0.3214
  714MPD2    C310608   3.215   2.659   1.361 -0.0143 -0.1482 -0.7381
  714MPD2    C410609   3.220   2.702   1.488  0.1709 -0.2415  0.9042
  714MPD2    C510610   3.337   2.698   1.557  0.4723 -0.0217 -0.4284
  714MPD2     H10611   3.323   2.563   1.206  0.6871 -2.1395  0.1926
  714MPD2    H110612   3.139   2.751   1.540 -0.4936 -0.8608  0.4549
  714MPD2    H210613   3.551   2.656   1.550 -1.4479 -0.1924  1.5892
  714MPD2    H310614   3.342   2.740   1.657 -1.7810 -1.2720  0.2083
  714MPD2     N10615   3.100   2.672   1.284 -0.0953  0.7524  0.2222
  714MPD2    H510616   3.111   2.643   1.188  1.6416 -2.6635  1.4363
  714MPD2    N110617   3.569   2.553   1.306  0.0739  0.4612  0.0611
  714MPD2    H710618   3.652   2.591   1.351 -1.0905  0.5991  2.0473
  715TMC3    C110619   3.707   2.428   1.153 -0.0226 -0.2056  0.2359
  715TMC3    C210620   3.724   2.317   1.081  0.0863  1.0267  0.2826
  715TMC3    C310621   3.842   2.314   1.018  0.1799 -0.3222 -0.2428
  715TMC3    C410622   3.802   2.525   1.170 -0.8113  0.1549 -0.0148
  715TMC3    C510623   3.927   2.498   1.124  0.0738  1.1248  0.1093
  715TMC3    C610624   3.947   2.398   1.039  0.5181  0.2442  0.1626
  715TMC3     C10625   3.572   2.454   1.211 -0.4649  0.1565 -0.0484
  715TMC3     O10626   3.478   2.378   1.175  0.0123 -0.7484  0.1927
  715TMC3     H10627   3.644   2.250   1.052  1.4391 -0.1263 -0.7859
  715TMC3    H110628   3.781   2.624   1.207 -2.0167 -0.4019  0.7945
  715TMC3    H210629   4.045   2.375   0.998  0.5692 -2.3811  1.7834
  715TMC3    C710630   4.022   2.601   1.120 -0.0749 -0.0936 -0.4451
  715TMC3    C810631   3.869   2.176   0.971  0.3180 -0.0788  0.5439
  715TMC3    O110632   4.099   2.597   1.028 -0.4516  0.1516 -0.3400
  715TMC3    O210633   3.779   2.097   0.963 -0.4559 -0.3069 -0.2036
  716MPD2     C10634   3.547   1.227  10.017  0.7150 -0.1782 -0.6460
  716MPD2    C110635   3.452   1.163   9.938 -0.0853 -0.0272  0.3839
  716MPD2    C210636   3.430   1.026   9.959 -0.0515  0.7855 -0.3502
  716MPD2    C310637   3.501   0.955  10.057  0.2080 -0.4290 -0.7499
  716MPD2    C410638   3.588   1.027  10.138 -0.5928 -0.1608  0.3794
  716MPD2    C510639   3.608   1.161  10.114 -0.2109 -0.4011 -0.0535
  716MPD2     H10640   3.362   0.968   9.897  2.1651 -1.2007 -0.9281
  716MPD2    H110641   3.651   0.973  10.208 -0.2090  1.0629  0.9603
  716MPD2    H210642   3.564   1.333  10.000 -0.4115 -0.0436 -0.9340
  716MPD2    H310643   3.687   1.217  10.162 -2.1809  2.6187 -0.3547
  716MPD2     N10644   3.476   0.820  10.080 -0.2855 -0.2312  0.2175
  716MPD2    H510645   3.403   0.775  10.025 -0.3163 -2.9573  2.4840
  716MPD2    N110646   3.381   1.238   9.839 -0.3868  0.2047  1.1268
  716MPD2    H710647   3.381   1.340   9.840 -3.2217  0.2012  1.1212
  717TMC3    C110648   3.477   0.607  10.200 -0.0214  0.6554  0.7577
  717TMC3    C210649   3.351   0.579  10.155  0.3035  0.3363  0.4289
  717TMC3    C310650   3.296   0.467  10.197 -0.3025  0.4925 -0.2232
  717TMC3    C410651   3.550   0.535  10.295 -0.1447  0.6848  0.2278
  717TMC3    C510652   3.478   0.430  10.345  0.1950  0.0751  0.0404
  717TMC3    C610653   3.362   0.388  10.286  0.1398  0.1045  0.1083
  717TMC3     C10654   3.539   0.733  10.170 -0.6228 -0.3379  0.0895
  717TMC3     O10655   3.643   0.758  10.230  0.7476 -0.1008  0.8251
  717TMC3     H10656   3.294   0.646  10.092  1.5704  1.3108  0.3004
  717TMC3    H110657   3.642   0.565  10.343  0.0191  0.9969 -0.2748
  717TMC3    H210658   3.305   0.310  10.336 -0.9289  1.8991  1.6881
  717TMC3    C710659   3.514   0.370  10.476 -0.3498 -0.4919  0.2021
  717TMC3    C810660   3.162   0.438  10.145  0.3024 -0.8836 -0.4583
  717TMC3    O110661   3.498   0.248  10.477 -0.3555  0.1183  0.1928
  717TMC3    O210662   3.107   0.525  10.085  0.0880 -0.4534 -0.0070
  718MPD2     C10663   1.896   0.333  12.934 -0.0467  0.7663  1.1683
  718MPD2    C110664   2.027   0.360  12.905  0.6386  0.0923 -0.1244
  718MPD2    C210665   2.119   0.338  13.007  0.4934 -1.0555 -0.2929
  718MPD2    C310666   2.087   0.276  13.122  0.2913  0.3216 -0.1040
  718MPD2    C410667   1.953   0.252  13.153 -1.0194  0.1350 -0.7333
  718MPD2    C510668   1.860   0.274  13.053 -0.1951 -0.0568 -0.1226
  718MPD2     H10669   2.221   0.344  12.970 -0.4770  1.7730 -2.5112
  718MPD2    H110670   1.928   0.203  13.246 -0.6819  0.9102 -0.2401
  718MPD2    H210671   1.813   0.345  12.865  0.9785  2.3008  0.2162
  718MPD2    H310672   1.753   0.261  13.070  0.0451 -1.1335  0.5469
  718MPD2     N10673   2.187   0.237  13.219 -0.0322  0.5948  0.2597
  718MPD2    H510674   2.154   0.177  13.293 -1.1919 -0.2708 -0.9700
  718MPD2    N110675   2.054   0.415  12.782  1.0848 -0.4496 -0.0740
  718MPD2    H710676   1.972   0.410  12.722  1.8861 -2.0202 -1.0532
  719TMC3    C110677   2.171   0.440  12.587  0.6453  0.3085 -0.4256
  719TMC3    C210678   2.133   0.318  12.544  0.3438 -0.9004  0.1651
  719TMC3    C310679   2.230   0.258  12.469 -0.2742  0.0882  0.1820
  719TMC3    C410680   2.282   0.508  12.542 -0.1830  0.4723 -0.6560
  719TMC3    C510681   2.368   0.447  12.455 -0.0348  0.0084 -0.3168
  719TMC3    C610682   2.341   0.318  12.417 -0.5334  0.3853 -0.6246
  719TMC3     C10683   2.173   0.450  12.727 -0.3522 -0.0043  0.4056
  719TMC3     O10684   2.284   0.459  12.777  0.2126 -0.5575  0.0546
  719TMC3     H10685   2.049   0.264  12.586  0.0699 -1.5311 -1.1843
  719TMC3    H110686   2.311   0.605  12.579  1.1736  0.7000 -2.3386
  719TMC3    H210687   2.408   0.262  12.353 -3.1387  0.9464 -3.8124
  719TMC3    C710688   2.513   0.471  12.466 -0.3195  0.1865  0.7530
  719TMC3    C810689   2.262   0.127  12.520  0.2472  1.2816 -0.1805
  719TMC3    O110690   2.581   0.455  12.364  0.1528  0.1995 -0.0767
  719TMC3    O210691   2.308   0.045  12.443  0.2234 -0.2495  0.2136
  720MPD2     C10692   0.879   1.432  14.067 -0.8194 -0.0944  1.0343
  720MPD2    C110693   0.956   1.455  13.953 -0.3772 -0.3472  0.5772
  720MPD2    C210694   1.095   1.430  13.948  0.0940 -0.1057 -0.2532
  720MPD2    C310695   1.157   1.395  14.070  0.3587  0.0261  0.0422
  720MPD2    C410696   1.080   1.373  14.179 -0.3276 -0.1665  0.0557
  720MPD2    C510697   0.946   1.383  14.175 -0.3553  0.8443  0.2653
  720MPD2     H10698   1.148   1.457  13.857  0.5456  3.1652  0.9909
  720MPD2    H110699   1.125   1.324  14.265  0.4813 -2.0868 -1.4699
  720MPD2    H210700   0.773   1.451  14.078 -1.0938 -0.7812 -0.3387
  720MPD2    H310701   0.884   1.360  14.261 -1.1856  0.1874 -0.5164
  720MPD2     N10702   1.299   1.400  14.068 -0.3111 -0.7552 -0.3234
  720MPD2    H510703   1.336   1.416  13.975 -1.2461 -0.0601 -0.5725
  720MPD2    N110704   0.886   1.521  13.846 -1.0488 -0.2318  0.0490
  720MPD2    H710705   0.787   1.538  13.860 -0.5147  2.0403  1.0656
  721TMC3    C110706   1.524   1.350  14.136 -0.5122 -0.1881  0.2895
  721TMC3    C210707   1.615   1.281  14.204 -0.0884 -0.0113 -0.2296
  721TMC3    C310708   1.744   1.306  14.203  0.4185  0.0212  0.8476
  721TMC3    C410709   1.569   1.448  14.051 -0.2860  0.0400 -0.0107
  721TMC3    C510710   1.705   1.474  14.047  0.1176 -0.6596 -0.4088
  721TMC3    C610711   1.797   1.401  14.124 -0.1821 -0.2245 -0.5377
  721TMC3     C10712   1.382   1.352  14.169  0.0121 -0.4427  0.5738
  721TMC3     O10713   1.352   1.321  14.285 -0.6729 -0.1572 -0.4190
  721TMC3     H10714   1.588   1.201  14.271 -1.5616 -0.6434 -1.5787
  721TMC3    H110715   1.506   1.507  13.985  0.0548  0.3287 -0.0791
  721TMC3    H210716   1.896   1.438  14.148 -0.9534  2.2312 -1.1152
  721TMC3    C710717   1.747   1.571  13.945 -0.3795  0.2785  0.1842
  721TMC3    C810718   1.828   1.234  14.292  1.0476 -0.2695  0.3995
  721TMC3    O110719   1.661   1.612  13.870  0.1601 -0.2329  0.6560
  721TMC3    O210720   1.944   1.216  14.253 -0.7802  0.2796 -0.0965
  722MPD2     C10721   4.523   4.522  13.043  0.3335 -0.0086  0.3197
  722MPD2    C110722   4.504   4.657  13.055  1.2715 -0.1795 -1.0424
  722MPD2    C210723   4.378   4.712  13.046 -0.2558 -0.2185 -0.2967
  722MPD2    C310724   4.265   4.635  13.059 -0.7597 -1.4565  0.7127
  722MPD2    C410725   4.283   4.499  13.049  0.9531 -0.5953  0.7711
  722MPD2    C510726   4.411   4.445  13.048 -0.9056 -0.0416  0.2277
  722MPD2     H10727   4.365   0.079  13.028  0.2528 -0.2102 -0.6052
  722MPD2    H110728   4.201   4.429  13.059  0.3777  0.0149  0.3812
  722MPD2    H210729   4.617   4.469  13.051 -0.6264 -1.6214  0.8706
  722MPD2    H310730   4.420   4.337  13.047 -1.7120 -0.1021 -0.1647
  722MPD2     N10731   4.137   4.696  13.056 -0.5476 -0.1812 -0.1878
  722MPD2    H510732   4.128   0.057  13.069 -0.3322 -0.0855 -0.7469
  722MPD2    N110733   4.614   0.012  13.051 -0.3684 -0.1737 -0.2123
  722MPD2    H710734   4.589   0.110  13.035 -1.3838 -0.3323  0.3617
  723TMC3    C110735   3.917   4.726  13.069 -0.0621  0.1471  0.9267
  723TMC3    C210736   3.829   4.716  13.173 -0.1713 -0.4851 -0.9450
  723TMC3    C310737   3.717   0.054  13.169 -0.5810 -0.3623 -0.6129
  723TMC3    C410738   3.902   0.068  12.965  0.8098  0.1572 -0.1165
  723TMC3    C510739   3.797   0.159  12.966 -0.0854  0.2549 -0.3913
  723TMC3    C610740   3.700   0.155  13.065  0.3280 -0.2544 -0.0926
  723TMC3     C10741   4.020   4.627  13.064 -0.4498  0.0073 -1.4598
  723TMC3     O10742   3.987   4.521  13.116 -0.1957 -0.2502 -0.1071
  723TMC3     H10743   3.858   4.639  13.243  0.7161  0.8006  0.1010
  723TMC3    H110744   3.972   0.059  12.883  2.4507  0.8572  1.2123
  723TMC3    H210745   3.613   0.220  13.060  1.6157  1.3948 -0.8551
  723TMC3    C710746   3.782   0.240  12.851  0.7283  0.0132 -0.4274
  723TMC3    C810747   3.599   4.721  13.198 -0.0115  0.0103 -0.1903
  723TMC3    O110748   3.828   0.200  12.743 -0.2353 -0.5213 -0.2994
  723TMC3    O210749   3.496   0.046  13.210 -0.1977 -0.6051  0.3363
  724TMC3    C110750   0.922   3.040  10.025 -0.3455 -0.3338  0.4841
  724TMC3    C210751   0.825   3.127  10.068 -0.6980 -0.6102 -0.5152
  724TMC3    C310752   0.858   3.253  10.083  0.0147 -0.0936  0.3342
  724TMC3    C410753   1.042   3.082   9.970 -0.0566 -0.1561  0.0918
  724TMC3    C510754   1.065   3.215   9.977 -0.3906  0.4514  0.5110
  724TMC3    C610755   0.976   3.305  10.031  0.1018 -0.2733 -0.0728
  724TMC3     C10756   0.883   2.901  10.012  1.2008 -0.4709 -0.1422
  724TMC3     O10757   0.958   2.827   9.943 -0.1231  0.5283 -0.0246
  724TMC3     H10758   0.726   3.095  10.098 -0.3539 -0.0260  1.2903
  724TMC3    H110759   1.113   3.011   9.930 -1.2777 -2.2747  1.6462
  724TMC3    H210760   1.005   3.409  10.028  0.4437 -0.4061 -1.3785
  724TMC3    C710761   1.195   3.269   9.945 -0.2406  0.3969  0.4988
  724TMC3    C810762   0.744   3.345  10.111 -0.5527 -0.4059  0.4422
  724TMC3    O110763   1.188   3.383   9.900 -0.6329 -0.3602  0.1190
  724TMC3    O210764   0.648   3.297  10.166  0.0055  0.1196  0.1587
  725TMC3    C110765   1.972   2.116  13.125  0.4932 -0.6360  0.2793
  725TMC3    C210766   1.849   2.170  13.125 -0.2121 -0.1132  0.5493
  725TMC3    C310767   1.753   2.087  13.072 -0.6271  0.1251  0.3231
  725TMC3    C410768   2.005   1.990  13.079  0.2766 -0.2799  0.5385
  725TMC3    C510769   1.901   1.910  13.035 -0.3984 -0.0040  0.1426
  725TMC3    C610770   1.770   1.957  13.039 -0.0754 -0.1290  0.3448
  725TMC3     C10771   2.083   2.190  13.172  0.7570 -0.3111  0.3550
  725TMC3     O10772   2.067   2.283  13.251  0.0055  0.7540  0.2054
  725TMC3     H10773   1.824   2.268  13.162 -1.1547 -0.0890 -0.1329
  725TMC3    H110774   2.105   1.950  13.075  0.1543 -0.5222 -0.1634
  725TMC3    H210775   1.694   1.904  12.983  1.0580  0.6769 -1.9652
  725TMC3    C710776   1.930   1.777  12.986 -0.0910 -0.3071 -0.2757
  725TMC3    C810777   1.629   2.149  13.028  0.1526  0.2483 -0.5100
  725TMC3    O110778   2.032   1.734  13.043  0.0348  0.1407  0.4066
  725TMC3    O210779   1.536   2.072  13.031 -0.2435 -0.0694 -0.0059
  726MPD2     C10780   4.262   3.811  11.028  0.3104  0.8966 -0.1162
  726MPD2    C110781   4.236   3.893  10.911 -0.5668 -0.1364  0.0363
  726MPD2    C210782   4.130   3.864  10.823 -0.2636 -0.1949  0.2186
  726MPD2    C310783   4.055   3.751  10.846  0.0491 -0.4105  0.2574
  726MPD2    C410784   4.088   3.669  10.950  0.1820  0.0630 -0.5900
  726MPD2    C510785   4.185   3.698  11.042  0.4767 -0.0754  0.1635
  726MPD2     H10786   4.116   3.935  10.742  1.4869 -1.5654 -1.2763
  726MPD2    H110787   4.031   3.577  10.950  0.5917 -0.1957 -1.2947
  726MPD2    H210788   4.338   3.839  11.101  1.6956  1.1394 -1.6479
  726MPD2    H310789   4.203   3.642  11.133 -0.0622  0.2366  0.4627
  726MPD2     N10790   3.948   3.711  10.765 -0.1901 -0.1579  0.1685
  726MPD2    H510791   3.907   3.624  10.798  1.3228 -1.5090 -1.5482
  726MPD2    N110792   4.317   4.003  10.891 -0.0150 -0.1148  0.3967
  726MPD2    H710793   4.279   4.084  10.842  2.4408  1.1734  0.6332
  727TMC3    C110794   4.502   4.144  10.936  0.4528 -0.3405 -0.0644
  727TMC3    C210795   4.637   4.155  10.929 -0.4436  0.2474 -0.1264
  727TMC3    C310796   4.698   4.277  10.930 -0.1109  0.1917  0.6723
  727TMC3    C410797   4.426   4.254  10.941 -0.1513 -0.3102 -0.8556
  727TMC3    C510798   4.489   4.377  10.953  0.1162 -0.2994 -0.8688
  727TMC3    C610799   4.619   4.392  10.943  0.4039  0.2552  0.0526
  727TMC3     C10800   4.444   4.007  10.938  0.3618  0.2596  0.6109
  727TMC3     O10801   4.526   3.917  10.960  0.0959 -0.3995 -0.5210
  727TMC3     H10802   4.703   4.069  10.925  0.7024  1.1064  0.4284
  727TMC3    H110803   4.318   4.246  10.934 -0.1057  0.4653 -2.5332
  727TMC3    H210804   4.655   4.494  10.929 -0.2481  0.5246  0.3034
  727TMC3    C710805   4.398   4.485  10.929  0.6362  0.4173  0.1292
  727TMC3    C810806   0.101   4.284  10.879 -0.2421 -0.1552  0.5135
  727TMC3    O110807   4.294   4.475  10.990 -0.0505 -0.0117 -0.0752
  727TMC3    O210808   0.147   4.177  10.835  0.0179 -0.2643 -0.3269
  728TMC3    C110809   4.222   1.898  15.172  0.9310  0.2608 -0.0733
  728TMC3    C210810   4.324   1.988  15.148 -0.5972 -0.4929 -0.1734
  728TMC3    C310811   4.317   2.078  15.045  0.5611  0.2556 -0.1614
  728TMC3    C410812   4.106   1.897  15.097  0.8233 -0.5681 -0.6686
  728TMC3    C510813   4.100   1.996  15.008 -0.5854  0.2765 -0.3044
  728TMC3    C610814   4.200   2.082  14.970 -0.5728  0.1116  0.5795
  728TMC3     C10815   4.231   1.808  15.290  0.5534 -0.3060 -0.3544
  728TMC3     O10816   4.342   1.793  15.346 -0.0038  0.4177 -0.7104
  728TMC3     H10817   4.406   1.988  15.218 -0.1206 -2.6581 -0.7355
  728TMC3    H110818   4.035   1.815  15.095 -0.6177  0.6539  0.7377
  728TMC3    H210819   4.190   2.142  14.880  1.9004  0.6400  0.6604
  728TMC3    C710820   4.004   1.973  14.898  0.0680 -0.0868 -0.0332
  728TMC3    C810821   4.425   2.171  15.014 -0.0831 -0.3313 -0.3307
  728TMC3    O110822   3.983   1.858  14.868 -0.2245 -0.0604 -1.0534
  728TMC3    O210823   4.535   2.133  15.059  0.5143  0.4494 -0.0962
  729MPD2     C10824   0.911   2.599  16.467  0.0468  0.1099 -0.2171
  729MPD2    C110825   0.934   2.731  16.482  0.4644 -0.6010 -0.0249
  729MPD2    C210826   0.929   2.791  16.608  0.3092  0.0825 -0.5633
  729MPD2    C310827   0.894   2.711  16.717 -0.1491 -0.9447 -0.5363
  729MPD2    C410828   0.876   2.576  16.707  0.8404  0.0352  0.1050
  729MPD2    C510829   0.888   2.526  16.581  0.3350 -0.7549 -0.0901
  729MPD2     H10830   0.944   2.898  16.613  0.5242 -0.1008  2.5777
  729MPD2    H110831   0.864   2.511  16.793 -1.7656 -1.2277 -1.2260
  729MPD2    H210832   0.909   2.546  16.372  0.1526  0.9903 -0.7024
  729MPD2    H310833   0.874   2.420  16.560  3.1248 -1.3232  0.9691
  729MPD2     N10834   0.896   2.770  16.845  0.2382  0.4391  0.3319
  729MPD2    H510835   0.910   2.705  16.922 -0.2132  1.9803  1.7121
  729MPD2    N110836   0.997   2.806  16.381  0.2949  0.1802 -0.6270
  729MPD2    H710837   1.033   2.898  16.406  1.3766 -1.0152  2.1308
  730TMC3    C110838   0.960   2.915  17.005 -0.1933 -0.2845  0.6495
  730TMC3    C210839   1.085   2.864  17.017 -0.0071 -0.5432  0.5535
  730TMC3    C310840   1.164   2.918  17.107 -0.4559  0.1354  0.0858
  730TMC3    C410841   0.919   3.011  17.091 -0.0169 -0.1553  0.5831
  730TMC3    C510842   0.988   3.044  17.204  0.0669 -0.3484  0.1308
  730TMC3    C610843   1.109   2.983  17.219 -0.1024  0.2202  0.2148
  730TMC3     C10844   0.899   2.899  16.879 -0.3791 -0.4410  0.9482
  730TMC3     O10845   0.866   3.000  16.817  0.2413  0.2373 -0.0895
  730TMC3     H10846   1.133   2.803  16.942  0.3056  0.3874 -0.0058
  730TMC3    H110847   0.825   3.060  17.070  0.6744  0.9942  0.1477
  730TMC3    H210848   1.174   3.013  17.300 -2.4980  0.1997  2.1270
  730TMC3    C710849   0.990   3.186  17.241  0.3231  0.1153  0.0305
  730TMC3    C810850   1.288   2.977  17.053 -0.2925 -0.1722  0.0560
  730TMC3    O110851   0.947   3.268  17.165  0.4073 -0.3034 -0.8053
  730TMC3    O210852   1.305   2.963  16.933 -0.0806  0.6517 -0.2664
  731MPD2     C10853   1.209   1.232  12.259 -0.1513 -0.0385 -0.2521
  731MPD2    C110854   1.306   1.274  12.345 -0.8995  0.2713 -0.6565
  731MPD2    C210855   1.337   1.194  12.452  0.5694 -0.1105  0.8084
  731MPD2    C310856   1.260   1.081  12.484 -0.2805 -0.3713  0.5331
  731MPD2    C410857   1.151   1.051  12.403  0.4762 -0.9785  0.0024
  731MPD2    C510858   1.129   1.124  12.289 -0.3964 -0.0961  0.3161
  731MPD2     H10859   1.410   1.227  12.526 -0.4445  2.6813  0.5802
  731MPD2    H110860   1.090   0.962  12.418  1.1465 -1.2686  0.9781
  731MPD2    H210861   1.193   1.291  12.169  1.2070  0.7184 -0.0043
  731MPD2    H310862   1.049   1.101  12.220 -0.2604 -0.6204  0.3373
  731MPD2     N10863   1.272   1.008  12.606 -0.0109  0.3256 -0.3066
  731MPD2    H510864   1.210   0.931  12.627  1.7154 -1.4612 -1.6836
  731MPD2    N110865   1.366   1.402  12.316  0.7625  0.0917  0.8195
  731MPD2    H710866   1.339   1.460  12.237  1.2494 -1.2332 -0.3279
  732TMC3    C110867   1.506   1.586  12.334 -0.0200 -0.0051 -0.0073
  732TMC3    C210868   1.406   1.674  12.297  0.5176 -0.1662  0.3392
  732TMC3    C310869   1.440   1.805  12.259 -0.3819  0.2613  0.0560
  732TMC3    C410870   1.637   1.630  12.332 -0.4561 -0.6159  0.4160
  732TMC3    C510871   1.666   1.760  12.301 -0.2033  0.7585 -0.4988
  732TMC3    C610872   1.568   1.843  12.261 -0.1067 -0.2811  0.1224
  732TMC3     C10873   1.484   1.442  12.364  0.1203  0.3878 -0.6141
  732TMC3     O10874   1.570   1.375  12.423  0.2652 -0.4262  0.1669
  732TMC3     H10875   1.303   1.639  12.296  0.6194 -0.4523 -0.3000
  732TMC3    H110876   1.709   1.557  12.367  2.3551  0.7412 -2.5484
  732TMC3    H210877   1.593   1.946  12.237  3.2842 -1.3650 -1.0509
  732TMC3    C710878   1.756   1.826  12.396  0.9559  0.1122 -0.2847
  732TMC3    C810879   1.340   1.892  12.194 -0.3229 -0.3116  0.4178
  732TMC3    O110880   1.719   1.937  12.426  0.0741  0.3924 -0.6662
  732TMC3    O210881   1.355   2.017  12.190  0.2888 -0.4147  0.2867
  733TMC3    C110882   2.307   4.734  13.439 -0.1734 -1.1358  0.9123
  733TMC3    C210883   2.295   0.127  13.402 -0.8537  0.1301 -0.3599
  733TMC3    C310884   2.390   0.172  13.312  0.4402  0.1846 -0.6870
  733TMC3    C410885   2.399   4.645  13.385  0.3948 -0.5485  0.1069
  733TMC3    C510886   2.483   4.693  13.292 -0.0068  0.1744 -0.0953
  733TMC3    C610887   2.486   0.089  13.262 -0.7415 -0.1310  0.1604
  733TMC3     C10888   2.176   4.671  13.470  0.4375  0.1256  0.0147
  733TMC3     O10889   2.083   4.734  13.422  0.0708  0.5640 -0.0230
  733TMC3     H10890   2.227   0.194  13.453 -2.2041 -0.3756 -1.5123
  733TMC3    H110891   2.383   4.539  13.397 -1.0086 -0.2516  0.8761
  733TMC3    H210892   2.557   0.120  13.186  0.3227  0.3938  1.3722
  733TMC3    C710893   2.466   4.612  13.174 -0.1351 -0.2830  0.1432
  733TMC3    C810894   2.325   0.251  13.208 -0.9170 -0.3647 -0.5012
  733TMC3    O110895   2.483   4.492  13.169 -0.6393  0.4015  0.0763
  733TMC3    O210896   2.389   0.271  13.103 -0.4316  0.0833  0.1159
  734MPD2     C10897   3.859   1.932  12.750  0.2057 -0.2592  0.0453
  734MPD2    C110898   3.819   1.839  12.656  0.1339 -0.4676 -0.1893
  734MPD2    C210899   3.789   1.883  12.526 -0.9538 -0.6808  0.5993
  734MPD2    C310900   3.802   2.018  12.484  0.3202 -0.0183  0.6340
  734MPD2    C410901   3.836   2.111  12.585  0.6430  0.4311  0.1781
  734MPD2    C510902   3.863   2.064  12.716  0.7363 -0.0560 -0.0082
  734MPD2     H10903   3.783   1.805  12.451  3.2578  0.5034 -1.0009
  734MPD2    H110904   3.848   2.217  12.569  1.3500  0.7080  2.4713
  734MPD2    H210905   3.891   1.893  12.846 -2.5997 -0.6307  0.8169
  734MPD2    H310906   3.883   2.146  12.783 -1.0505  0.4907 -0.1320
  734MPD2     N10907   3.794   2.035  12.343 -0.9487  0.6162 -0.0690
  734MPD2    H510908   3.824   1.952  12.291 -1.0528  0.3695  0.2658
  734MPD2    N110909   3.830   1.709  12.693 -0.0527 -0.1021 -0.3620
  734MPD2    H710910   3.878   1.686  12.779  0.2210 -0.4820 -0.6173
  735TMC3    C110911   3.813   1.475  12.666  0.8573 -0.1462 -0.0055
  735TMC3    C210912   3.737   1.384  12.598  0.0777  0.2317  0.1584
  735TMC3    C310913   3.803   1.279  12.538 -0.5069  0.1411  0.6012
  735TMC3    C410914   3.951   1.466  12.651  0.5772 -0.2452  0.3315
  735TMC3    C510915   4.015   1.359  12.597 -0.6093  0.7022  0.0014
  735TMC3    C610916   3.940   1.254  12.550  0.4798  0.3226  0.5221
  735TMC3     C10917   3.766   1.605  12.629 -0.0700 -1.0335  0.2848
  735TMC3     O10918   3.679   1.601  12.542  0.4301  0.2228 -0.5481
  735TMC3     H10919   3.629   1.389  12.595 -0.0966 -5.2241 -2.0588
  735TMC3    H110920   4.011   1.552  12.678  0.0136  0.5317 -0.9005
  735TMC3    H210921   3.992   1.178  12.492 -0.8647  0.4388 -0.8454
  735TMC3    C710922   4.155   1.363  12.583 -0.6389  0.1556  0.5196
  735TMC3    C810923   3.765   1.269  12.391  0.1417 -0.2255  0.5136
  735TMC3    O110924   4.195   1.476  12.555 -0.2117 -0.4122  0.2653
  735TMC3    O210925   3.809   1.171  12.333  0.4020  0.4165  0.1562
  736MPD2     C10926   4.423   1.118  12.578 -0.1478  0.3343 -0.8667
  736MPD2    C110927   4.353   1.228  12.529  0.6354  0.0182  0.0499
  736MPD2    C210928   4.424   1.327  12.460  0.2854  0.2368 -0.7095
  736MPD2    C310929   4.555   1.300  12.422 -0.0646 -0.7240  0.2982
  736MPD2    C410930   4.616   1.186  12.471 -0.1981  0.2866  0.5227
  736MPD2    C510931   4.552   1.103  12.553 -0.4603  0.8990 -0.8700
  736MPD2     H10932   4.378   1.422  12.435  0.4626  0.5509  0.1935
  736MPD2    H110933   4.714   1.149  12.443  0.4650  1.4937  1.2801
  736MPD2    H210934   4.375   1.039  12.635  3.0321 -1.9290 -1.2919
  736MPD2    H310935   4.595   1.008  12.583 -0.9225  0.5181 -1.4049
  736MPD2     N10936   4.629   1.378  12.328 -0.0912  0.1762 -0.2386
  736MPD2    H510937   4.717   1.343  12.291  0.9679 -0.1216  2.5687
  736MPD2    N110938   4.217   1.242  12.569  0.3514  0.6488  0.0740
  736MPD2    H710939   4.169   1.161  12.607 -0.5378  1.5321  0.8505
  737TMC3    C110940   4.656   1.547  12.163  0.1321 -0.1166 -0.3117
  737TMC3    C210941   4.580   1.646  12.098 -0.4985  0.2297 -0.1796
  737TMC3    C310942   4.590   1.651  11.966 -0.3675 -0.1731 -0.7040
  737TMC3    C410943   0.007   1.462  12.087  0.4723  0.0660 -0.1595
  737TMC3    C510944   0.023   1.485  11.955  0.1871  0.6236 -0.1847
  737TMC3    C610945   4.675   1.574  11.893  0.1182  0.0673  0.4743
  737TMC3     C10946   4.588   1.502  12.286  0.4050  0.1184  0.3217
  737TMC3     O10947   4.492   1.569  12.320 -0.0651  0.0608 -0.0055
  737TMC3     H10948   4.519   1.715  12.155  0.4137 -0.5963  1.7961
  737TMC3    H110949   0.081   1.394  12.128 -0.8933 -1.2949  0.0224
  737TMC3    H210950   4.673   1.602  11.788  1.5539  1.5010  0.8393
  737TMC3    C710951   0.135   1.437  11.879 -0.6550 -0.1860  0.6015
  737TMC3    C810952   4.495   1.746  11.902  0.3109 -0.0564 -0.3779
  737TMC3    O110953   0.197   1.345  11.931 -0.0978 -0.3673 -0.3511
  737TMC3    O210954   4.418   1.804  11.980  0.1585 -0.9727 -0.0688
  738MPD2     C10955   0.102   0.467  14.825  0.4517  0.4610  0.4778
  738MPD2    C110956   0.160   0.370  14.904 -0.0250 -0.1991  0.2537
  738MPD2    C210957   0.285   0.409  14.952  0.0801 -0.0471  0.2021
  738MPD2    C310958   0.354   0.522  14.913 -0.7039 -1.2065 -0.4867
  738MPD2    C410959   0.289   0.605  14.828  0.3399  0.5123  0.4016
  738MPD2    C510960   0.159   0.579  14.785 -0.0829  0.2985  0.9885
  738MPD2     H10961   0.340   0.332  15.005 -0.8384 -0.6164  0.3336
  738MPD2    H110962   0.337   0.699  14.803 -0.4528  1.7011  3.3243
  738MPD2    H210963   0.001   0.453  14.788  1.1475 -0.0638 -1.2289
  738MPD2    H310964   0.101   0.650  14.727  2.7385  1.0327 -0.9396
  738MPD2     N10965   0.484   0.556  14.952  0.0695  0.1175 -0.3653
  738MPD2    H510966   0.508   0.647  14.914  0.5840  0.8801  1.7928
  738MPD2    N110967   0.125   0.233  14.913 -0.1861 -0.2010  0.1954
  738MPD2    H710968   0.186   0.176  14.972 -0.1871 -0.5990 -0.1925
  739TMC3    C110969   0.680   0.570  15.063  0.2993 -0.2343  0.0325
  739TMC3    C210970   0.738   0.610  14.944  0.3594 -0.4501  0.3288
  739TMC3    C310971   0.838   0.698  14.954 -0.4027 -0.4700 -0.9452
  739TMC3    C410972   0.729   0.607  15.186 -0.0539 -0.1596  0.8631
  739TMC3    C510973   0.841   0.693  15.187 -0.2853  0.4194  0.3133
  739TMC3    C610974   0.897   0.738  15.072  0.0910  0.0124 -1.1341
  739TMC3     C10975   0.556   0.495  15.052 -0.8847 -0.4885 -0.0047
  739TMC3     O10976   0.520   0.418  15.144 -0.3101  0.0991 -0.7028
  739TMC3     H10977   0.691   0.583  14.850 -0.1166 -1.2095  0.7770
  739TMC3    H110978   0.689   0.582  15.283 -2.4652  0.1146 -0.0680
  739TMC3    H210979   0.974   0.815  15.063 -1.1347  1.4455  0.5055
  739TMC3    C710980   0.894   0.736  15.314 -0.5227  0.6463  0.0134
  739TMC3    C810981   0.853   0.785  14.834  0.2198  0.2955 -0.3739
  739TMC3    O110982   0.837   0.699  15.417  0.3227  0.0578 -0.2724
  739TMC3    O210983   0.844   0.731  14.727  0.1164 -0.3504  0.0441
  740TMC3    C110984   0.646   1.843  14.470  0.2865 -0.0572  0.1796
  740TMC3    C210985   0.681   1.802  14.595  0.3643  0.0959  0.8000
  740TMC3    C310986   0.811   1.781  14.616  0.5644 -0.2334  0.7758
  740TMC3    C410987   0.739   1.865  14.367  0.7477  0.4245  0.6312
  740TMC3    C510988   0.864   1.831  14.393  0.2584 -0.2551  0.6323
  740TMC3    C610989   0.908   1.792  14.519  0.2104  0.1979  0.2850
  740TMC3     C10990   0.505   1.869  14.444  0.6406  0.0697 -0.9406
  740TMC3     O10991   0.478   1.940  14.349 -0.0104 -0.2553 -0.0484
  740TMC3     H10992   0.615   1.800  14.681 -0.8733  1.9423 -0.1179
  740TMC3    H110993   0.698   1.910  14.277  0.6724  1.9739  1.4341
  740TMC3    H210994   1.013   1.777  14.543  0.4148  0.4041 -0.4643
  740TMC3    C710995   0.944   1.803  14.270 -0.4198  0.6603  1.2262
  740TMC3    C810996   0.872   1.740  14.738 -0.2249  0.5388 -0.1438
  740TMC3    O110997   1.026   1.713  14.279 -0.2812 -0.3117 -0.3777
  740TMC3    O210998   0.979   1.794  14.765  0.3345  0.5317  0.4744
  741TMC3    C110999   0.313   1.223  14.463  0.4331 -0.2726  0.4867
  741TMC3    C211000   0.274   1.113  14.390 -0.5441 -0.6912  0.1399
  741TMC3    C311001   0.259   0.997  14.458  0.0168 -0.4146  0.2393
  741TMC3    C411002   0.327   1.207  14.601 -0.1129  0.6534  0.0398
  741TMC3    C511003   0.294   1.087  14.667 -0.1794  0.4484  0.1682
  741TMC3    C611004   0.261   0.980  14.597  0.6148  0.4184 -0.3960
  741TMC3     C11005   0.328   1.355  14.403 -0.1694  0.2889 -0.3340
  741TMC3     O11006   0.407   1.427  14.464  0.0298  0.5186 -0.4976
  741TMC3     H11007   0.286   1.113  14.282  2.6513  1.2015  0.4824
  741TMC3    H111008   0.360   1.290  14.662  1.0768  0.6647 -0.6106
  741TMC3    H211009   0.225   0.886  14.639 -0.0308  0.3687 -1.0617
  741TMC3    C711010   0.266   1.075  14.808  0.1640  0.2082 -0.2038
  741TMC3    C811011   0.185   0.905  14.380 -0.5371 -0.7196  0.3141
  741TMC3    O111012   0.266   0.962  14.853  0.2323 -0.7202  0.6883
  741TMC3    O211013   0.140   0.942  14.274  0.9268  0.4081  0.2021
  742TMC3    C111014   0.410   4.145  15.439  0.4835 -0.1410  0.8654
  742TMC3    C211015   0.336   4.180  15.331 -0.5370  0.4467 -0.0167
  742TMC3    C311016   0.408   4.227  15.226  0.1328 -0.7919 -0.1367
  742TMC3    C411017   0.541   4.182  15.450 -1.0880 -0.3698  0.5062
  742TMC3    C511018   0.603   4.251  15.348  0.3479 -0.5627  0.5873
  742TMC3    C611019   0.534   4.275  15.231 -0.4203 -0.0349  0.1422
  742TMC3     C11020   0.350   4.056  15.541 -0.2490 -0.6498  0.5032
  742TMC3     O11021   0.238   4.016  15.521  0.5594 -0.2649  0.1386
  742TMC3     H11022   0.235   4.141  15.328  1.0281 -3.8290  2.2218
  742TMC3    H111023   0.609   4.141  15.523 -1.1338 -0.2998  0.5876
  742TMC3    H211024   0.595   4.290  15.143 -2.1955  1.5984 -0.8195
  742TMC3    C711025   0.744   4.227  15.325 -0.4339 -0.3161 -0.0881
  742TMC3    C811026   0.338   4.215  15.099 -0.0921 -0.1269  0.0006
  742TMC3    O111027   0.772   4.177  15.215 -0.2234 -0.0609  0.0973
  742TMC3    O211028   0.248   4.137  15.091  0.1316  0.4599 -0.1669
  743MPD2     C11029   2.444   0.367   1.496 -0.1347 -0.0258 -0.3806
  743MPD2    C111030   2.483   0.340   1.372 -0.6845  0.3597  0.3669
  743MPD2    C211031   2.615   0.312   1.346 -0.0540 -0.2207  0.0366
  743MPD2    C311032   2.705   0.308   1.453  0.4735  0.3871  0.5033
  743MPD2    C411033   2.656   0.314   1.578 -0.5835  0.6505  0.5083
  743MPD2    C511034   2.527   0.357   1.604  0.6058  0.2294 -0.0311
  743MPD2     H11035   2.648   0.304   1.243 -1.2554 -0.6427 -0.3204
  743MPD2    H111036   2.723   0.305   1.662  0.8457 -2.3519 -0.9806
  743MPD2    H211037   2.345   0.407   1.515  0.0256  0.0786  0.2415
  743MPD2    H311038   2.492   0.359   1.707 -4.5426 -0.2286 -1.7453
  743MPD2     N11039   2.843   0.295   1.417 -0.1674  0.6775 -0.2447
  743MPD2    H511040   2.868   0.277   1.321 -2.7979  0.8103 -0.9425
  743MPD2    N111041   2.387   0.340   1.268  0.1929 -0.2177  0.1013
  743MPD2    H711042   2.290   0.362   1.292  0.6390  0.2342  1.4995
  744TMC3    C111043   2.290   0.330   1.062 -0.2042 -0.3749  0.2303
  744TMC3    C211044   2.229   0.454   1.065 -0.2139  0.1792  0.8866
  744TMC3    C311045   2.175   0.501   0.944 -0.2773 -0.4026  0.0228
  744TMC3    C411046   2.287   0.250   0.952 -0.1783 -0.0394  0.6611
  744TMC3    C511047   2.253   0.307   0.833  0.6807 -0.1735  0.2573
  744TMC3    C611048   2.186   0.431   0.828 -0.3643  0.0333 -0.3831
  744TMC3     C11049   2.413   0.322   1.138 -0.2632 -0.3384  0.3891
  744TMC3     O11050   2.517   0.290   1.077  0.1197  0.4017 -0.2250
  744TMC3     H11051   2.250   0.530   1.139 -1.3753 -0.5274  1.9408
  744TMC3    H111052   2.322   0.148   0.947 -0.8531 -0.1432 -2.0096
  744TMC3    H211053   2.157   0.479   0.735 -1.7371 -0.0823 -0.0071
  744TMC3    C711054   2.363   0.301   0.735 -0.9287  0.0096 -0.4735
  744TMC3    C811055   2.109   0.624   0.940  0.2681  0.9637 -0.0739
  744TMC3    O111056   2.394   0.410   0.696 -0.3174 -0.1905  0.0117
  744TMC3    O211057   2.138   0.697   0.844 -0.6679  0.0287 -0.0928
  745TMC3    C111058   1.010   3.886  13.605  0.2782  0.1273  0.1741
  745TMC3    C211059   0.881   3.897  13.647 -0.6781  0.2955  0.1306
  745TMC3    C311060   0.790   3.809  13.591  0.6799  0.0853  0.2041
  745TMC3    C411061   1.053   3.779  13.529 -0.0416 -1.0784 -0.2095
  745TMC3    C511062   0.955   3.708  13.463 -0.5483  0.8692  0.4637
  745TMC3    C611063   0.826   3.717  13.503  0.3260  0.6149  0.6383
  745TMC3     C11064   1.109   3.964  13.680 -0.7623 -0.9558 -0.5942
  745TMC3     O11065   1.215   3.904  13.701  0.2526  0.1087 -0.2942
  745TMC3     H11066   0.864   3.957  13.736 -0.3522  0.5820  0.0030
  745TMC3    H111067   1.159   3.777  13.512 -0.1504 -1.8064 -0.7715
  745TMC3    H211068   0.753   3.658  13.447  0.5919  0.9809 -0.0996
  745TMC3    C711069   0.971   3.712  13.325 -0.5182  0.4185  0.0026
  745TMC3    C811070   0.673   3.876  13.554 -0.7937  0.4045 -0.5981
  745TMC3    O111071   0.923   3.622  13.254 -0.3162 -0.8088 -0.3324
  745TMC3    O211072   0.657   3.896  13.437 -0.1887  0.4321  0.0291
  746TMC3    C111073   3.400   1.789  11.297  0.3744 -0.3647 -0.3648
  746TMC3    C211074   3.433   1.747  11.165  0.0264 -0.0929 -0.1041
  746TMC3    C311075   3.431   1.614  11.143 -0.1325  0.1765  0.1051
  746TMC3    C411076   3.361   1.693  11.384 -1.1447 -0.2803  0.0052
  746TMC3    C511077   3.335   1.561  11.345  0.5107 -0.3882 -0.5335
  746TMC3    C611078   3.370   1.521  11.222 -0.1695 -0.0957 -0.2153
  746TMC3     C11079   3.327   1.909  11.301  0.1049  1.0206  0.5984
  746TMC3     O11080   3.286   1.942  11.415  0.2972 -0.0208  0.0776
  746TMC3     H11081   3.484   1.820  11.103 -1.8211 -0.1508 -1.6998
  746TMC3    H111082   3.355   1.723  11.488  2.6347 -1.7878  0.6383
  746TMC3    H211083   3.343   1.420  11.194  0.4366  0.0489 -1.2912
  746TMC3    C711084   3.215   1.504  11.414 -0.6094 -0.4952  0.4518
  746TMC3    C811085   3.523   1.563  11.044 -0.3030 -0.0128  0.7198
  746TMC3    O111086   3.152   1.428  11.343  0.2360  0.0570  0.0036
  746TMC3    O211087   3.644   1.585  11.056 -0.5619 -0.4840 -0.0878
  747TMC3    C111088   0.595   1.950  11.055  0.6502  0.3634 -0.4655
  747TMC3    C211089   0.545   1.842  11.110  0.0023  0.2059  0.1509
  747TMC3    C311090   0.521   1.846  11.244 -0.0435 -0.0357  0.1436
  747TMC3    C411091   0.625   2.064  11.129  0.1523 -0.1348 -0.0379
  747TMC3    C511092   0.597   2.060  11.261 -0.3547 -0.4280  0.0450
  747TMC3    C611093   0.544   1.949  11.326  0.0634 -0.1525  0.1091
  747TMC3     C11094   0.636   1.951  10.911 -0.7915 -0.3079  0.0278
  747TMC3     O11095   0.663   2.059  10.864 -0.3553 -0.3095 -0.1100
  747TMC3     H11096   0.511   1.758  11.049  1.2500  0.3850 -0.7845
  747TMC3    H111097   0.682   2.144  11.084 -0.2776  0.1573 -0.0658
  747TMC3    H211098   0.543   1.939  11.434  2.3146 -3.3536 -0.1675
  747TMC3    C711099   0.653   2.162  11.351 -0.7848 -0.1810  0.5777
  747TMC3    C811100   0.517   1.716  11.309  0.1366 -0.8333  0.6153
  747TMC3    O111101   0.628   2.154  11.470  0.0886  0.0144 -0.9714
  747TMC3    O211102   0.604   1.639  11.267  0.3179  0.3506  0.2173
  748MPD2     C11103   2.284   1.264   1.129  0.3514  0.2086  0.5696
  748MPD2    C111104   2.255   1.395   1.164  0.2253 -0.3576 -0.0947
  748MPD2    C211105   2.355   1.492   1.158  0.7813 -0.3547  0.1406
  748MPD2    C311106   2.479   1.460   1.111  0.0487 -0.4249 -0.0527
  748MPD2    C411107   2.504   1.328   1.074 -0.3613 -0.7308  0.8719
  748MPD2    C511108   2.403   1.232   1.078  1.0101 -0.3431 -0.4543
  748MPD2     H11109   2.335   1.593   1.190  0.2492 -0.5291  0.3602
  748MPD2    H111110   2.604   1.311   1.039  0.1108 -0.5388  2.1207
  748MPD2    H211111   2.205   1.190   1.140  0.7967  0.0403  2.6443
  748MPD2    H311112   2.422   1.127   1.059  0.0403 -0.5038 -0.5198
  748MPD2     N11113   2.580   1.563   1.112 -0.1673 -0.6132  0.6386
  748MPD2    H511114   2.546   1.658   1.109  0.3186 -0.4223  1.1367
  748MPD2    N111115   2.122   1.424   1.220 -0.3186  0.6471 -0.3301
  748MPD2    H711116   2.067   1.346   1.253 -0.2033  0.0698 -1.5061
  749TMC3    C111117   2.773   1.666   1.154 -0.6197  0.2944  0.2087
  749TMC3    C211118   2.858   1.675   1.255  0.6838  0.8991 -0.0868
  749TMC3    C311119   2.919   1.798   1.279  1.0463 -0.1043 -0.2790
  749TMC3    C411120   2.761   1.757   1.051  0.5565  0.2899 -0.0584
  749TMC3    C511121   2.827   1.876   1.075  0.1055 -0.1865 -0.2756
  749TMC3    C611122   2.897   1.901   1.191 -1.1213 -0.4537  0.0303
  749TMC3     C11123   2.713   1.539   1.124  0.1078 -0.0526  0.1868
  749TMC3     O11124   2.776   1.435   1.132  0.0647  0.3767  0.4695
  749TMC3     H11125   2.890   1.589   1.313 -2.3701  0.8121  1.4741
  749TMC3    H111126   2.703   1.737   0.961  1.5035 -1.1449 -0.3430
  749TMC3    H211127   2.951   1.995   1.187  1.3064 -1.8634 -0.1703
  749TMC3    C711128   2.855   1.975   0.970 -0.2640 -0.3015 -0.2413
  749TMC3    C811129   3.046   1.788   1.354  0.9965 -0.1639 -0.4082
  749TMC3    O111130   2.871   2.095   0.988  0.1706  0.3969  0.3595
  749TMC3    O211131   3.083   1.887   1.414 -0.8387 -0.2035 -0.0622
  750MPD2     C11132   2.530   3.684  10.969 -0.1499 -0.0631 -0.3219
  750MPD2    C111133   2.485   3.588  11.057 -0.0255 -0.2931  0.4522
  750MPD2    C211134   2.465   3.460  11.001 -0.8699  0.1894  0.1876
  750MPD2    C311135   2.479   3.435  10.864  0.2901 -0.2993 -0.0417
  750MPD2    C411136   2.524   3.537  10.784 -0.1181  0.5078 -0.1061
  750MPD2    C511137   2.545   3.660  10.838 -0.0155  0.1829  0.2041
  750MPD2     H11138   2.430   3.378  11.063  0.4174 -0.2396  0.3467
  750MPD2    H111139   2.547   3.529  10.678 -0.1907  0.8606 -0.1470
  750MPD2    H211140   2.555   3.785  11.000  0.5972 -0.3202 -0.0849
  750MPD2    H311141   2.579   3.742  10.775  4.2274 -0.4472  1.6802
  750MPD2     N11142   2.447   3.310  10.797 -0.2910 -0.1116 -0.0053
  750MPD2    H511143   2.467   3.292  10.699 -0.0466 -1.1495  0.2322
  750MPD2    N111144   2.456   3.621  11.197  0.0715  0.0771  0.2848
  750MPD2    H711145   2.476   3.717  11.224 -2.3563  0.5762  0.2878
  751TMC3    C111146   2.359   3.082  10.789  0.2971 -0.4570 -0.1262
  751TMC3    C211147   2.271   2.998  10.845 -0.1573  0.2092  0.2062
  751TMC3    C311148   2.280   2.866  10.810 -0.3760  0.0183  0.1830
  751TMC3    C411149   2.457   3.049  10.704 -0.9806 -0.1829  1.0225
  751TMC3    C511150   2.463   2.921  10.669 -0.9352  0.0864  0.3228
  751TMC3    C611151   2.373   2.827  10.719  0.0960  0.2256 -0.0585
  751TMC3     C11152   2.371   3.212  10.863  0.7922 -0.5919 -0.0205
  751TMC3     O11153   2.295   3.235  10.956  0.2339  0.5724 -0.3638
  751TMC3     H11154   2.201   3.029  10.922 -0.6269 -0.2360 -0.0394
  751TMC3    H111155   2.540   3.115  10.681 -1.4672 -0.8724 -2.7370
  751TMC3    H211156   2.383   2.721  10.694 -1.2067  0.3900 -1.2722
  751TMC3    C711157   2.584   2.881  10.608  0.6456 -0.0951  0.4946
  751TMC3    C811158   2.256   2.771  10.916 -0.9903  0.3746  0.2901
  751TMC3    O111159   2.665   2.961  10.560  0.1112  0.4431 -0.3428
  751TMC3    O211160   2.316   2.667  10.903 -0.2385 -0.7893 -0.3925
  752TMC3    C111161   1.705   2.467  17.095 -0.4449 -0.2159 -0.5120
  752TMC3    C211162   1.805   2.450  17.191  0.4670  0.2109 -0.3576
  752TMC3    C311163   1.784   2.490  17.320 -0.2666  0.7575 -1.0938
  752TMC3    C411164   1.589   2.531  17.131 -0.4809 -0.4627  0.4365
  752TMC3    C511165   1.579   2.578  17.261 -0.1358 -0.1878  0.5580
  752TMC3    C611166   1.670   2.547  17.359 -0.6098 -0.0313  0.3014
  752TMC3     C11167   1.739   2.474  16.956  0.2450 -0.0780 -0.1911
  752TMC3     O11168   1.828   2.396  16.923  0.4391 -0.2813 -0.0144
  752TMC3     H11169   1.885   2.387  17.156 -0.2349  0.6032 -2.6964
  752TMC3    H111170   1.508   2.538  17.059 -1.8405 -2.4340  1.7996
  752TMC3    H211171   1.645   2.582  17.458 -0.1378 -1.3010  0.8817
  752TMC3    C711172   1.460   2.646  17.303 -0.0523 -0.2206 -0.4716
  752TMC3    C811173   1.866   2.430  17.420 -0.2777  0.3444 -0.2999
  752TMC3    O111174   1.466   2.727  17.394 -0.3428 -0.6957  0.3822
  752TMC3    O211175   1.812   2.396  17.523 -0.4116 -0.3720  0.3834
  753TMC3    C111176   3.581   3.959  13.358  0.2327 -0.4659  0.2724
  753TMC3    C211177   3.703   3.911  13.391  0.4158  0.2837 -0.0432
  753TMC3    C311178   3.745   3.785  13.351  0.0961  0.3131  0.2197
  753TMC3    C411179   3.492   3.887  13.290  0.1241  0.2174  0.3859
  753TMC3    C511180   3.522   3.754  13.264 -0.4762  0.1380 -0.0494
  753TMC3    C611181   3.648   3.707  13.289 -0.0274 -0.0082 -0.1068
  753TMC3     C11182   3.546   4.096  13.394 -0.2187  0.1251  0.7844
  753TMC3     O11183   3.429   4.125  13.411 -0.4051  0.1620  0.2592
  753TMC3     H11184   3.766   3.966  13.460  0.1892  1.6459 -0.9268
  753TMC3    H111185   3.415   3.942  13.237  1.9920  0.1776 -2.3265
  753TMC3    H211186   3.673   3.605  13.262 -2.1495 -1.2422  2.6099
  753TMC3    C711187   3.450   3.699  13.147  0.3349  0.6138  0.3657
  753TMC3    C811188   3.864   3.716  13.409  0.7287  0.1212 -0.2654
  753TMC3    O111189   3.382   3.771  13.074  0.3603 -0.2941  0.8085
  753TMC3    O211190   3.856   3.595  13.413  0.0147 -0.2596  0.3182
  754MPD2     C11191   3.267   3.144  13.485  0.3293  0.1972 -0.2391
  754MPD2    C111192   3.266   3.004  13.491  0.6311  0.5670 -0.1274
  754MPD2    C211193   3.148   2.934  13.456  0.0445 -0.0404 -0.3779
  754MPD2    C311194   3.038   3.001  13.405 -0.2396 -0.2370 -0.6911
  754MPD2    C411195   3.046   3.134  13.398  0.1625  0.3358  0.3298
  754MPD2    C511196   3.152   3.213  13.437  0.5417 -0.8865 -0.1939
  754MPD2     H11197   3.152   2.826  13.448 -0.7053 -0.1059  0.0693
  754MPD2    H111198   2.958   3.190  13.369  0.1917  0.2499  0.0771
  754MPD2    H211199   3.352   3.198  13.525  1.3789 -0.5901 -1.4284
  754MPD2    H311200   3.147   3.320  13.423 -2.1020 -1.0307 -0.2744
  754MPD2     N11201   2.917   2.942  13.372  0.2431 -0.2061  1.0536
  754MPD2    H511202   2.838   2.997  13.341  0.0294 -0.9351  0.3121
  754MPD2    N111203   3.388   2.950  13.534  0.4681  0.1702  0.2953
  754MPD2    H711204   3.470   3.010  13.534  1.2809 -0.9465 -1.8287
  755MPD2     C11205   2.226   3.334  13.619 -0.5341 -0.3867 -0.3207
  755MPD2    C111206   2.222   3.211  13.696 -0.9022  0.7836 -0.0429
  755MPD2    C211207   2.307   3.114  13.670  0.5343  0.7316  0.3899
  755MPD2    C311208   2.382   3.110  13.555  0.3139 -0.0950 -0.4373
  755MPD2    C411209   2.389   3.228  13.481 -0.1362 -0.1985  0.0189
  755MPD2    C511210   2.316   3.342  13.518 -1.3998 -0.5337 -0.8735
  755MPD2     H11211   2.313   3.036  13.744  0.8272  1.4307  1.1099
  755MPD2    H111212   2.449   3.236  13.392 -0.4423 -1.5988 -0.3110
  755MPD2    H211213   2.159   3.417  13.635 -0.6064 -0.8120  1.5076
  755MPD2    H311214   2.330   3.432  13.458 -0.8946 -0.6624 -0.9481
  755MPD2     N11215   2.467   3.003  13.519 -0.2192 -0.7524  0.2714
  755MPD2    H511216   2.521   3.012  13.434  1.9448  0.8390  1.8046
  755MPD2    N111217   2.121   3.192  13.790 -0.3888  0.3467 -0.4982
  755MPD2    H711218   2.112   3.094  13.814  0.7795  0.6711  1.2658
  756MPD2     C11219   1.916   4.315   9.959  0.3414  0.6685 -1.0148
  756MPD2    C111220   1.888   4.232  10.068  0.1324  0.0562 -0.4965
  756MPD2    C211221   1.767   4.198  10.102  0.2971  0.0699  0.3821
  756MPD2    C311222   1.662   4.245  10.028  0.5255  0.3021 -0.1070
  756MPD2    C411223   1.687   4.324   9.913 -0.1005  0.2394  0.2237
  756MPD2    C511224   1.813   4.364   9.885 -0.0451  0.1132  0.3819
  756MPD2     H11225   1.757   4.144  10.195 -0.7531 -0.2189  0.0969
  756MPD2    H111226   1.612   4.345   9.838 -1.5104  1.1779  1.8924
  756MPD2    H211227   2.013   4.353   9.932  0.0682  1.2446 -1.1709
  756MPD2    H311228   1.828   4.423   9.796  0.4072  0.7404  0.8770
  756MPD2     N11229   1.530   4.209  10.069  0.2169  0.1934  0.6910
  756MPD2    H511230   1.522   4.152  10.152 -0.0587 -0.2633  0.3476
  756MPD2    N111231   1.995   4.196  10.152 -0.4522  0.5087 -0.2789
  756MPD2    H711232   1.964   4.139  10.230 -0.3739  0.5159 -0.2423
  757MPD2     C11233   1.400   3.372  10.272 -0.4535 -0.1902  0.0546
  757MPD2    C111234   1.505   3.466  10.251 -0.4816  0.4851 -0.5506
  757MPD2    C211235   1.470   3.602  10.227  1.1521 -0.3198 -0.1288
  757MPD2    C311236   1.338   3.644  10.234  0.4610 -0.0122 -0.2960
  757MPD2    C411237   1.235   3.553  10.254 -0.1630  0.2408  0.2341
  757MPD2    C511238   1.273   3.420  10.276 -0.5594 -0.0973  0.0573
  757MPD2     H11239   1.549   3.676  10.214  1.3528 -0.8060 -1.6037
  757MPD2    H111240   1.134   3.591  10.269 -0.0063  0.4546  0.7300
  757MPD2    H211241   1.422   3.266  10.284 -1.0896 -0.3524 -0.1507
  757MPD2    H311242   1.192   3.352  10.298 -0.9295  0.5118  0.5668
  757MPD2     N11243   1.312   3.782  10.207  0.3040 -0.3905  0.5887
  757MPD2    H511244   1.389   3.838  10.172 -2.2571  1.6359 -1.8367
  757MPD2    N111245   1.637   3.417  10.248  0.0903 -0.0603 -0.0848
  757MPD2    H711246   1.632   3.315  10.252  2.7035 -0.1635  1.0787
  758MPD2     C11247   2.957   2.366  15.443  1.0438  0.2386  0.2745
  758MPD2    C111248   2.985   2.259  15.531 -0.7083 -0.1031  0.0033
  758MPD2    C211249   2.951   2.264  15.660  0.8136 -0.0177 -0.0716
  758MPD2    C311250   2.915   2.386  15.713  0.0158  0.1680 -0.2938
  758MPD2    C411251   2.902   2.498  15.634 -0.3524  0.1509 -0.2601
  758MPD2    C511252   2.923   2.488  15.500  0.3784 -0.9727  0.6279
  758MPD2     H11253   2.968   2.183  15.731  0.1226 -2.6441 -2.9156
  758MPD2    H111254   2.871   2.596  15.668 -1.1464 -0.5398  1.0040
  758MPD2    H211255   2.972   2.369  15.336 -1.2826  0.8387 -0.0520
  758MPD2    H311256   2.919   2.570  15.428 -0.9957 -2.8824 -1.4712
  758MPD2     N11257   2.915   2.410  15.849 -0.2804  0.5032  0.1686
  758MPD2    H511258   2.912   2.510  15.862 -2.3656  0.9310 -3.5559
  758MPD2    N111259   3.046   2.148  15.472  0.5042  0.2402 -0.1889
  758MPD2    H711260   3.058   2.155  15.371 -1.5626  0.1436 -0.4393
  759MPD2     C11261   1.832   1.358   9.998 -0.3759  0.4045 -0.1318
  759MPD2    C111262   1.776   1.415   9.883 -0.0226 -0.0739  0.2745
  759MPD2    C211263   1.859   1.469   9.782 -0.4758 -1.0763  0.0114
  759MPD2    C311264   1.998   1.461   9.789 -0.0294  0.3319 -0.3470
  759MPD2    C411265   2.048   1.405   9.905 -0.6694  0.7363  0.4642
  759MPD2    C511266   1.967   1.345   9.998 -0.3570  0.2722  1.0714
  759MPD2     H11267   1.823   1.512   9.689  1.2336  0.1988 -0.0538
  759MPD2    H111268   2.153   1.401   9.930 -0.7428 -0.6075  0.5480
  759MPD2    H211269   1.776   1.319  10.082 -2.1419 -1.7160 -2.3172
  759MPD2    H311270   2.011   1.305  10.089 -0.3453 -1.4635  0.3110
  759MPD2     N11271   2.078   1.494   9.680 -0.2573 -0.2244 -0.2248
  759MPD2    H511272   2.038   1.537   9.597  1.2147  1.4383 -0.0934
  759MPD2    N111273   1.639   1.431   9.866 -0.2143  0.6690  0.0213
  759MPD2    H711274   1.607   1.439   9.770 -0.4366  0.8295  0.1080
  760MPD2     C11275   1.110   2.917  11.909  0.4474  0.0312 -0.5901
  760MPD2    C111276   1.236   2.975  11.887  0.3393 -0.3164 -0.3664
  760MPD2    C211277   1.354   2.906  11.924 -0.2247  0.1047  0.0672
  760MPD2    C311278   1.336   2.781  11.983  0.5166 -0.4047 -0.4575
  760MPD2    C411279   1.213   2.721  11.995 -0.1967 -0.0644 -0.3241
  760MPD2    C511280   1.101   2.790  11.957 -0.1481 -0.3346 -0.3678
  760MPD2     H11281   1.453   2.948  11.910 -0.4344  1.0908  1.4857
  760MPD2    H111282   1.200   2.622  12.037 -1.3653  0.0732 -0.3881
  760MPD2    H211283   1.018   2.971  11.893  1.5177  1.0672 -3.2118
  760MPD2    H311284   1.003   2.747  11.972 -1.1073  2.6055  1.7317
  760MPD2     N11285   1.441   2.715  12.053  0.3167 -0.5779  0.3500
  760MPD2    H511286   1.416   2.634  12.109 -0.4814 -0.5154  0.0911
  760MPD2    N111287   1.249   3.108  11.832 -0.7503 -0.5489  0.4367
  760MPD2    H711288   1.345   3.139  11.820 -0.4761 -1.4842  0.2053
  761MPD2     C11289   2.153   2.642  11.407  0.3670  0.2899 -0.7136
  761MPD2    C111290   2.223   2.574  11.304  0.7831  0.0266 -0.3310
  761MPD2    C211291   2.253   2.640  11.183 -1.2272  0.0494  0.1368
  761MPD2    C311292   2.191   2.761  11.158 -0.2000 -0.5022 -0.0035
  761MPD2    C411293   2.123   2.822  11.258 -0.2195  1.1710 -0.0256
  761MPD2    C511294   2.087   2.759  11.378 -0.3775  0.1248 -0.0730
  761MPD2     H11295   2.319   2.594  11.110 -1.7539 -1.1108  0.3892
  761MPD2    H111296   2.072   2.916  11.237 -0.9757  0.7088 -0.2522
  761MPD2    H211297   2.139   2.592  11.502 -0.3868 -0.6605 -1.3241
  761MPD2    H311298   2.018   2.801  11.450  0.8142 -2.1742  2.4594
  761MPD2     N11299   2.202   2.825  11.031 -0.2978  0.0178 -0.4102
  761MPD2    H511300   2.154   2.914  11.027 -2.2450 -1.0861 -1.4980
  761MPD2    N111301   2.268   2.440  11.334  0.0823 -0.4344 -0.5489
  761MPD2    H711302   2.226   2.399  11.416 -3.0687  1.3650 -1.2503
  762MPD2     C11303   2.910   1.775  11.247 -0.7310  0.1793 -0.8424
  762MPD2    C111304   2.819   1.835  11.166  0.0505  0.8535 -0.4797
  762MPD2    C211305   2.828   1.830  11.027  0.2002  0.3535 -0.4005
  762MPD2    C311306   2.925   1.760  10.967  0.6446 -0.1817  0.1920
  762MPD2    C411307   3.020   1.701  11.052 -0.0508  1.2647  0.7774
  762MPD2    C511308   3.012   1.709  11.186  0.1102  1.2990  0.8842
  762MPD2     H11309   2.766   1.892  10.963 -1.9669  0.2549  1.6048
  762MPD2    H111310   3.107   1.651  11.013 -0.1161 -0.5130  2.9539
  762MPD2    H211311   2.913   1.794  11.354 -0.8801 -2.0926 -0.4306
  762MPD2    H311312   3.083   1.657  11.249 -0.2878  0.6067  0.7707
  762MPD2     N11313   2.928   1.757  10.828  0.5992 -0.1501 -0.3584
  762MPD2    H511314   2.854   1.800  10.774  0.1614  1.5582  1.6225
  762MPD2    N111315   2.718   1.909  11.228 -0.0727  0.0388 -0.4514
  762MPD2    H711316   2.719   1.913  11.330  0.9825  1.4575 -0.5215
  763MPD2     C11317   0.165   2.294  15.954  0.1312 -0.0305  0.2987
  763MPD2    C111318   0.034   2.348  15.951  0.6724 -0.0503 -0.0561
  763MPD2    C211319   0.017   2.479  15.980  0.0621  0.1616  0.1259
  763MPD2    C311320   0.128   2.556  16.002  0.1350  0.0010  0.2128
  763MPD2    C411321   0.259   2.512  15.993  0.4195  0.5049 -0.8285
  763MPD2    C511322   0.270   2.376  15.976 -0.6778  0.4581  0.3897
  763MPD2     H11323   4.657   2.518  16.002  1.1306  2.2002  1.4172
  763MPD2    H111324   0.345   2.578  16.001  0.1711  0.7922 -0.5482
  763MPD2    H211325   0.196   2.196  15.921 -1.2499  0.8115 -3.5395
  763MPD2    H311326   0.375   2.353  15.965 -0.7701  0.3841 -0.3701
  763MPD2     N11327   0.118   2.691  16.031  0.1518 -0.2636  0.7087
  763MPD2    H511328   0.203   2.740  16.056 -0.1647  0.1974  0.8866
  763MPD2    N111329   4.659   2.268  15.913 -0.2527 -0.4338  0.2871
  763MPD2    H711330   4.574   2.322  15.899 -0.9327 -1.6285 -0.1790
  764MPD2     C11331   2.523   3.229  17.292  0.0860  0.4091 -0.5542
  764MPD2    C111332   2.417   3.310  17.334 -0.5349 -0.0837 -0.2973
  764MPD2    C211333   2.395   3.306  17.469  0.1126  0.8378 -0.6681
  764MPD2    C311334   2.453   3.226  17.562  0.0258  0.1599  0.4773
  764MPD2    C411335   2.558   3.148  17.519 -0.6178  0.1342 -1.2050
  764MPD2    C511336   2.589   3.148  17.387 -0.6469  0.0319 -0.5118
  764MPD2     H11337   2.321   3.373  17.511 -1.9014 -1.0151 -1.2543
  764MPD2    H111338   2.612   3.075  17.578 -0.5744  1.7901  0.8076
  764MPD2    H211339   2.555   3.237  17.189  1.0002 -1.2359 -0.4002
  764MPD2    H311340   2.661   3.076  17.348 -1.5510 -1.3138  0.2946
  764MPD2     N11341   2.407   3.241  17.691  0.1253 -1.0570  0.2147
  764MPD2    H511342   2.339   3.315  17.707 -0.8034 -2.0471  0.7593
  764MPD2    N111343   2.345   3.399  17.251 -0.3576  0.2781  0.7898
  764MPD2    H711344   2.284   3.465  17.297 -1.5351 -1.1448  1.2609
  765MPD2     C11345   2.858   1.791  15.363 -0.6479  0.0696  0.6443
  765MPD2    C111346   2.856   1.808  15.503 -0.1361 -0.3027 -0.9811
  765MPD2    C211347   2.952   1.737  15.573 -0.0142 -0.0530  0.2936
  765MPD2    C311348   3.054   1.669  15.516 -0.2202  0.4266 -0.4203
  765MPD2    C411349   3.049   1.648  15.379 -0.1125 -0.9202 -0.4932
  765MPD2    C511350   2.953   1.713  15.302 -0.1255  0.8180  0.7117
  765MPD2     H11351   2.957   1.743  15.681 -0.4819  2.5485  0.1626
  765MPD2    H111352   3.116   1.587  15.319 -0.1898 -0.5715 -0.9314
  765MPD2    H211353   2.792   1.842  15.294 -1.5727 -0.8681  0.8227
  765MPD2    H311354   2.953   1.704  15.194 -0.2732  0.4326  0.7428
  765MPD2     N11355   3.146   1.616  15.601  0.5017  0.4073  0.1888
  765MPD2    H511356   3.124   1.612  15.700 -3.3973 -1.9273 -0.7756
  765MPD2    N111357   2.746   1.880  15.560  0.6209 -0.0041 -0.1629
  765MPD2    H711358   2.680   1.918  15.493  1.3015  2.0469  0.3412
  766MPD2     C11359   1.921   2.070  15.566  0.3375 -0.1991  0.8966
  766MPD2    C111360   2.038   2.008  15.530 -0.0388 -0.4765  0.3664
  766MPD2    C211361   2.039   1.926  15.414  0.6741  0.9669 -0.3795
  766MPD2    C311362   1.929   1.911  15.337 -0.6857 -0.0512 -0.1597
  766MPD2    C411363   1.817   1.983  15.368  0.4082  0.3037 -0.7717
  766MPD2    C511364   1.818   2.057  15.480 -0.0045  0.3672  0.1735
  766MPD2     H11365   2.134   1.892  15.375  0.1152 -1.2910  0.1820
  766MPD2    H111366   1.725   1.973  15.311  0.9881 -4.2295 -0.9152
  766MPD2    H211367   1.909   2.135  15.652 -2.0194 -0.8653  1.0726
  766MPD2    H311368   1.721   2.090  15.513  1.4728  1.0643  3.8692
  766MPD2     N11369   1.932   1.849  15.210 -0.3919 -0.4584 -0.4780
  766MPD2    H511370   1.852   1.864  15.149 -0.2884 -0.1994 -0.5510
  766MPD2    N111371   2.155   2.031  15.600 -0.2509  0.6805 -0.1851
  766MPD2    H711372   2.152   2.098  15.675 -0.1331  1.2099 -0.6562
  767MPD2     C11373   1.600   2.170  15.112  0.1324  0.1517  0.2705
  767MPD2    C111374   1.725   2.168  15.060  0.6746 -0.2709  0.0799
  767MPD2    C211375   1.748   2.118  14.935  0.2983  0.9695 -0.1039
  767MPD2    C311376   1.639   2.056  14.875 -0.3528  0.2759 -0.1445
  767MPD2    C411377   1.515   2.049  14.930 -0.8512 -0.3442  0.2498
  767MPD2    C511378   1.497   2.105  15.050  0.4383 -0.4022  0.3722
  767MPD2     H11379   1.849   2.120  14.894 -0.3288  0.8927 -1.6459
  767MPD2    H111380   1.427   2.006  14.884 -1.7639  1.2870  0.4645
  767MPD2    H211381   1.581   2.212  15.211 -0.8124  0.2098  0.0646
  767MPD2    H311382   1.401   2.089  15.096  0.5026  0.8752  0.9523
  767MPD2     N11383   1.665   1.976  14.758  0.1113 -0.7440  0.5588
  767MPD2    H511384   1.764   1.970  14.736 -0.0001  0.9016 -0.4143
  767MPD2    N111385   1.818   2.231  15.137 -0.5978  0.1218  0.7335
  767MPD2    H711386   1.780   2.275  15.220 -1.5259 -0.8347  0.8077
  768MPD2     C11387   2.912   1.397  10.911 -0.1573  0.4794  0.0060
  768MPD2    C111388   2.863   1.351  11.025 -1.0284  0.5793  0.7056
  768MPD2    C211389   2.922   1.257  11.100 -0.1857 -0.4947  0.2590
  768MPD2    C311390   3.051   1.224  11.064  0.1996  0.0945  0.0027
  768MPD2    C411391   3.106   1.273  10.948 -0.7789 -0.6331 -0.5001
  768MPD2    C511392   3.035   1.351  10.871  0.2213  0.4573 -0.4944
  768MPD2     H11393   2.870   1.223  11.189 -0.6450 -2.5562 -0.8029
  768MPD2    H111394   3.206   1.252  10.911 -0.0901 -0.2541  1.1248
  768MPD2    H211395   2.864   1.474  10.852 -2.7642 -1.8022 -0.8687
  768MPD2    H311396   3.085   1.404  10.790 -2.9051  3.3750 -0.5323
  768MPD2     N11397   3.137   1.147  11.146 -0.3101  0.6487 -0.4995
  768MPD2    H511398   3.236   1.150  11.128  0.0060  0.0039  1.1399
  768MPD2    N111399   2.748   1.407  11.084 -0.0614 -0.1387 -0.5033
  768MPD2    H711400   2.725   1.378  11.179  2.4711  0.5098  0.3096
  769MPD2     C11401   3.683   3.608  14.787 -0.2511  0.1251  0.2585
  769MPD2    C111402   3.661   3.499  14.870 -0.4715 -0.6742 -0.3097
  769MPD2    C211403   3.706   3.505  15.003 -0.4785  0.7855  0.4781
  769MPD2    C311404   3.773   3.620  15.047  0.4908 -0.0617 -0.8312
  769MPD2    C411405   3.791   3.727  14.960  0.1078 -0.5457  0.3174
  769MPD2    C511406   3.737   3.723  14.839 -0.2187 -0.3736 -0.8614
  769MPD2     H11407   3.692   3.424  15.073 -2.0165  0.9287  0.3362
  769MPD2    H111408   3.837   3.821  14.987 -1.6780  0.0515  1.2718
  769MPD2    H211409   3.634   3.604  14.691 -0.2615 -0.8692  0.3025
  769MPD2    H311410   3.732   3.816  14.784 -0.4433 -0.5504 -1.1424
  769MPD2     N11411   3.825   3.624  15.175  0.3172  0.1551  0.1551
  769MPD2    H511412   3.789   3.556  15.242 -0.3931  0.4388  0.0693
  769MPD2    N111413   3.575   3.403  14.826 -0.3305 -0.0894  0.3828
  769MPD2    H711414   3.505   3.431  14.758 -0.4048 -1.7259 -0.1980
  770MPD2     C11415   3.030   2.459  14.899  0.1240 -0.3806  0.1745
  770MPD2    C111416   3.055   2.491  14.769  0.2091 -0.2838 -0.0573
  770MPD2    C211417   3.117   2.603  14.738  1.0114  0.3158  0.4521
  770MPD2    C311418   3.172   2.679  14.829 -0.0766  0.9418  0.7371
  770MPD2    C411419   3.152   2.655  14.960  1.0813 -0.1412  0.3659
  770MPD2    C511420   3.083   2.540  14.994 -0.2352  0.0230  0.6763
  770MPD2     H11421   3.134   2.623  14.632  1.4067 -0.8323  0.2964
  770MPD2    H111422   3.202   2.716  15.034 -0.8302  1.2432  0.5285
  770MPD2    H211423   2.965   2.379  14.933 -0.4946 -2.2635 -5.4757
  770MPD2    H311424   3.062   2.509  15.095  0.8835  0.5234  1.0669
  770MPD2     N11425   3.244   2.786  14.785  0.9857 -0.7650 -0.3632
  770MPD2    H511426   3.243   2.814  14.688  4.7435  2.2227  0.4466
  770MPD2    N111427   3.005   2.398  14.680 -0.2303 -0.2087 -0.4954
  770MPD2    H711428   2.956   2.321  14.726  1.4951 -0.1578  1.4451
  771MPD2     C11429   4.479   1.255  13.416  0.1017  0.6253  1.0789
  771MPD2    C111430   4.399   1.372  13.402 -0.0956 -0.6619 -0.9951
  771MPD2    C211431   4.271   1.364  13.348  0.5612 -0.5585 -0.3058
  771MPD2    C311432   4.226   1.243  13.302 -0.1061  0.8274 -0.4679
  771MPD2    C411433   4.307   1.134  13.319 -0.2884  0.3154  0.7302
  771MPD2    C511434   4.432   1.140  13.378 -0.5227  0.4728 -0.4471
  771MPD2     H11435   4.219   1.456  13.323 -0.9887 -1.6773 -1.2170
  771MPD2    H111436   4.274   1.031  13.308  0.2337  0.4392 -1.9975
  771MPD2    H211437   4.575   1.253  13.467  0.3606  0.8895  0.5999
  771MPD2    H311438   4.485   1.047  13.397 -1.9883  0.0266  1.4094
  771MPD2     N11439   4.113   1.235  13.213  0.3837  0.7566 -0.4367
  771MPD2    H511440   4.057   1.318  13.198 -0.1032  0.1916 -1.8457
  771MPD2    N111441   4.444   1.502  13.448  0.3193 -0.0641  0.7797
  771MPD2    H711442   4.369   1.570  13.454 -0.9937 -1.1856 -2.7225
  772MPD2     C11443   4.135   2.017  13.872  0.4616 -0.1039 -0.2320
  772MPD2    C111444   4.159   1.885  13.836  0.3530  0.4793 -0.6848
  772MPD2    C211445   4.075   1.775  13.891 -0.2830  0.0104 -0.0091
  772MPD2    C311446   3.974   1.808  13.979 -0.7839 -0.1811  0.1305
  772MPD2    C411447   3.952   1.945  14.002  0.3291  0.2507 -0.2014
  772MPD2    C511448   4.030   2.050  13.942  0.1896 -0.4429 -0.4140
  772MPD2     H11449   4.102   1.673  13.863 -0.8523  0.5847 -2.6075
  772MPD2    H111450   3.861   1.984  14.045  0.2026 -1.7546  1.3597
  772MPD2    H211451   4.201   2.096  13.840  0.2921 -0.3206 -1.1105
  772MPD2    H311452   4.001   2.154  13.958  1.2290  0.3534 -3.7635
  772MPD2     N11453   3.880   1.715  14.027 -0.9560 -0.1242  0.3843
  772MPD2    H511454   3.816   1.752  14.097 -0.3086 -0.9511  1.4048
  772MPD2    N111455   4.273   1.836  13.767  0.1222 -0.3478 -0.2499
  772MPD2    H711456   4.280   1.735  13.766  2.4661 -0.1709 -3.0031
  773MPD2     C11457   3.172   2.737  17.716 -0.5836  0.1302  0.2587
  773MPD2    C111458   3.134   2.619  17.658 -0.2994  0.0113 -0.4475
  773MPD2    C211459   3.142   2.504  17.741 -0.2144 -0.2439  0.8303
  773MPD2    C311460   3.190   2.511   0.119  0.0528 -0.2386  0.0054
  773MPD2    C411461   3.222   2.634   0.176  0.4835  0.1342  0.2684
  773MPD2    C511462   3.206   2.746   0.095 -0.0959  0.3354 -0.7813
  773MPD2     H11463   3.127   2.410  17.689 -0.7803  0.0530  0.4585
  773MPD2    H111464   3.256   2.644   0.279  3.3862  1.6577 -0.8468
  773MPD2    H211465   3.168   2.833  17.667  2.0994 -0.4806 -1.1810
  773MPD2    H311466   3.232   2.842   0.138 -1.4755 -0.3799  1.6972
  773MPD2     N11467   3.214   2.385   0.182  0.4503 -0.1523 -0.3709
  773MPD2    H511468   3.188   2.295   0.142  1.4396  0.6130 -2.7152
  773MPD2    N111469   3.112   2.603  17.515  0.2958 -0.8312 -0.4969
  773MPD2    H711470   3.082   2.516  17.473  0.5405 -1.0719 -0.1803
  774MPD2     C11471   3.114   1.887  13.631 -0.2479  0.2633  0.0000
  774MPD2    C111472   3.014   1.961  13.685 -0.0767 -0.2315  0.0851
  774MPD2    C211473   3.023   2.096  13.689  0.1733  0.0886  0.6671
  774MPD2    C311474   3.146   2.155  13.644 -0.7464 -0.3379  0.1018
  774MPD2    C411475   3.252   2.072  13.603  0.6867 -0.0468 -0.0864
  774MPD2    C511476   3.237   1.938  13.595  0.2008 -0.2184 -0.0366
  774MPD2     H11477   2.945   2.159  13.730 -0.2985  0.6391 -1.0604
  774MPD2    H111478   3.351   2.110  13.578  0.9079 -0.4879  0.1214
  774MPD2    H211479   3.110   1.779  13.626 -0.8522  0.2180  1.7318
  774MPD2    H311480   3.319   1.871  13.571  3.2400  2.8554  1.7151
  774MPD2     N11481   3.146   2.294  13.643  0.5787 -0.3520 -0.4045
  774MPD2    H511482   3.060   2.334  13.678  0.3678  1.2253 -2.7424
  774MPD2    N111483   2.899   1.888  13.742 -0.2562  0.1218 -0.0297
  774MPD2    H711484   2.906   1.789  13.760 -1.3899  0.0884  0.1883
  775MPD2     C11485   3.886   3.251  15.473 -0.0670 -1.4979 -0.1402
  775MPD2    C111486   3.971   3.288  15.574  0.6074  0.7219 -0.2852
  775MPD2    C211487   4.078   3.367  15.539 -0.9369  0.3504  0.3352
  775MPD2    C311488   4.094   3.408  15.409  0.4130 -0.6364  0.1002
  775MPD2    C411489   4.009   3.363  15.303  0.0556  0.2680  0.4613
  775MPD2    C511490   3.907   3.280  15.344  0.0533  0.0363 -0.1813
  775MPD2     H11491   4.153   3.402  15.610  0.8838 -0.2901 -1.2614
  775MPD2    H111492   4.024   3.373  15.197 -0.5669 -1.1278  0.2458
  775MPD2    H211493   3.798   3.191  15.494 -1.4123  0.6327  0.3036
  775MPD2    H311494   3.842   3.230  15.273 -2.0963  3.5934 -0.7277
  775MPD2     N11495   4.203   3.488  15.363  0.3733  0.5037 -0.0560
  775MPD2    H511496   4.220   3.514  15.266  0.9466  1.3590  0.2742
  775MPD2    N111497   3.938   3.250  15.701 -0.9451  0.1099  0.2600
  775MPD2    H711498   3.861   3.185  15.704 -1.1235  0.2869 -0.4260
  776MPD2     C11499   2.866   3.842  11.698 -0.8085  0.3240  0.0309
  776MPD2    C111500   2.753   3.908  11.663  0.2090 -0.4248 -0.6228
  776MPD2    C211501   2.752   4.051  11.666  0.0059 -0.5793  0.4610
  776MPD2    C311502   2.869   4.115  11.696 -0.4991 -0.7577 -0.3761
  776MPD2    C411503   2.976   4.045  11.744 -0.1181 -0.5328  0.2346
  776MPD2    C511504   2.967   3.913  11.755  0.1886  1.0441 -0.0508
  776MPD2     H11505   2.664   4.104  11.632 -0.6212  1.2297  4.9160
  776MPD2    H111506   3.066   4.093  11.781  0.3856  0.4627 -2.3121
  776MPD2    H211507   2.858   3.734  11.693  0.2976  0.3150 -1.4408
  776MPD2    H311508   3.059   3.867  11.789  0.5827  0.9257 -1.2916
  776MPD2     N11509   2.886   4.258  11.683  0.0422  0.5774 -0.0886
  776MPD2    H511510   2.982   4.287  11.701  0.2128 -1.8012  2.8032
  776MPD2    N111511   2.649   3.832  11.611  0.2471  0.2731 -0.4837
  776MPD2    H711512   2.670   3.738  11.577 -0.9257 -0.8405  1.9145
  777MPD2     C11513   3.269   1.202   0.555  0.4501  0.5284 -0.1348
  777MPD2    C111514   3.259   1.093   0.639 -0.6059  0.5065  0.5877
  777MPD2    C211515   3.180   0.982   0.600 -0.6284  1.4127  0.9029
  777MPD2    C311516   3.119   0.981   0.477 -0.0531 -0.0260 -0.1710
  777MPD2    C411517   3.129   1.095   0.393  0.4998 -0.0798  0.0280
  777MPD2    C511518   3.187   1.207   0.445  0.0583  0.2343  0.5108
  777MPD2     H11519   3.161   0.895   0.661  0.3013  1.1230  0.7778
  777MPD2    H111520   3.082   1.114   0.297  1.1663  1.1203 -0.0625
  777MPD2    H211521   3.333   1.284   0.587 -0.7113  0.7017  1.7438
  777MPD2    H311522   3.196   1.294   0.381 -0.1103  1.7067  2.5030
  777MPD2     N11523   3.061   0.862   0.429  0.0077  0.2715  0.6330
  777MPD2    H511524   3.033   0.791   0.496 -0.5327  1.0521  1.2381
  777MPD2    N111525   3.350   1.091   0.750 -0.4568  0.0990  0.1857
  777MPD2    H711526   3.393   1.177   0.781  0.6276 -0.2198 -0.4246
  778MPD2     C11527   4.256   1.399  14.736 -0.2892  0.7399 -0.2137
  778MPD2    C111528   4.313   1.291  14.676 -0.2005 -0.1323 -0.2378
  778MPD2    C211529   4.409   1.313  14.578 -0.0582  0.0059  0.8809
  778MPD2    C311530   4.444   1.441  14.533  0.3400 -0.8277  0.3479
  778MPD2    C411531   4.389   1.554  14.596 -0.5533 -0.0438  0.1288
  778MPD2    C511532   4.292   1.527  14.689  0.1291 -0.1870  0.3234
  778MPD2     H11533   4.438   1.223  14.526  0.1800 -0.1202  1.2324
  778MPD2    H111534   4.397   1.658  14.567  0.8132  0.1761  1.3307
  778MPD2    H211535   4.182   1.400  14.816  0.4624 -1.7782  0.4981
  778MPD2    H311536   4.248   1.611  14.740 -2.0096 -1.1737  0.0916
  778MPD2     N11537   4.530   1.465  14.425  0.2213 -0.1607  0.1910
  778MPD2    H511538   4.552   1.382  14.371  0.9233 -0.8806  1.5783
  778MPD2    N111539   4.283   1.153  14.718  0.6726 -0.6822  0.1678
  778MPD2    H711540   4.320   1.075  14.666 -0.1929  0.5746 -2.3736
  779MPD2     C11541   4.612   4.603  13.542 -0.7493 -0.1786  0.2456
  779MPD2    C111542   4.597   4.588  13.675 -0.0869  0.5435 -0.1929
  779MPD2    C211543   4.562   4.704  13.739 -0.1639  0.1243  0.6465
  779MPD2    C311544   4.548   0.090  13.681  0.1578  0.1081  0.2530
  779MPD2    C411545   4.561   0.093  13.545 -0.3116 -0.5523 -0.7676
  779MPD2    C511546   4.591   4.716  13.483  0.1425  0.0758 -0.0873
  779MPD2     H11547   4.560   4.698  13.848 -2.7201 -0.4154  0.5532
  779MPD2    H111548   4.567   0.186  13.489 -0.8664  1.4928  2.5658
  779MPD2    H211549   4.634   4.521  13.474  0.2506 -1.1208  1.7067
  779MPD2    H311550   4.610   4.730  13.377 -0.6317  0.6899 -0.1449
  779MPD2     N11551   4.520   0.202  13.758  0.2854 -0.3890  0.3119
  779MPD2    H511552   4.512   0.190  13.858  1.6157 -2.0726  0.2167
  779MPD2    N111553   4.613   4.458  13.727 -1.0954  0.0265 -0.4987
  779MPD2    H711554   4.617   4.371  13.675 -1.1992 -0.9334  1.1178
  780MPD2     C11555   3.628   4.550   1.308  0.1987  0.2177  0.5182
  780MPD2    C111556   3.553   4.502   1.202  0.5287  0.4482 -0.3058
  780MPD2    C211557   3.581   4.550   1.076  0.4722 -0.5684 -0.6313
  780MPD2    C311558   3.684   4.634   1.055 -0.2801 -0.0643 -0.3385
  780MPD2    C411559   3.766   4.680   1.156 -0.1509  0.0433 -0.1306
  780MPD2    C511560   3.743   4.632   1.283 -0.5053  0.5151 -0.8376
  780MPD2     H11561   3.522   4.515   0.992 -5.3565  0.4037  2.9786
  780MPD2    H111562   3.861   4.731   1.146 -0.7519  1.5218  1.8682
  780MPD2    H211563   3.602   4.513   1.407 -0.8266  1.6149  0.7818
  780MPD2    H311564   3.817   4.665   1.355 -0.9545  1.1283 -0.6623
  780MPD2     N11565   3.701   4.676   0.919  0.9679 -0.1178  0.3723
  780MPD2    H511566   3.630   4.639   0.856  1.9314  0.2361 -0.9201
  780MPD2    N111567   3.437   4.423   1.235  0.2424 -0.3300  0.3250
  780MPD2    H711568   3.420   4.396   1.332 -0.2918  2.1517  0.9357
  781MPD2     C11569   0.300   2.433  12.187  0.0815 -0.3823 -0.4552
  781MPD2    C111570   0.384   2.367  12.282  0.2499  0.5670  0.0583
  781MPD2    C211571   0.518   2.369  12.259 -0.1358  0.0121  0.0873
  781MPD2    C311572   0.564   2.432  12.148  0.8237 -0.0410  0.4125
  781MPD2    C411573   0.483   2.484  12.052 -0.0327 -0.5530 -0.3214
  781MPD2    C511574   0.351   2.479  12.068  0.0988  0.7253  0.1948
  781MPD2     H11575   0.583   2.322  12.332  0.1727  1.1249  0.5280
  781MPD2    H111576   0.527   2.536  11.967 -0.9339  0.2871 -0.2762
  781MPD2    H211577   0.194   2.452  12.204  0.5634 -1.3098  3.5649
  781MPD2    H311578   0.280   2.506  11.991 -0.6145 -2.2447 -0.2041
  781MPD2     N11579   0.702   2.436  12.119  0.1801  0.6529 -0.3230
  781MPD2    H511580   0.725   2.483  12.032 -0.1764  1.8058  0.2100
  781MPD2    N111581   0.348   2.316  12.406  0.2700 -0.2889 -0.5024
  781MPD2    H711582   0.425   2.268  12.452  0.9699 -0.6706 -2.0892
  782MPD2     C11583   3.840   3.174  10.199  0.3255 -0.1797 -0.1616
  782MPD2    C111584   3.709   3.214  10.228  0.4244  0.7938  0.3743
  782MPD2    C211585   3.676   3.344  10.240 -0.1277  1.1601  0.6121
  782MPD2    C311586   3.772   3.445  10.232 -0.9367 -0.0995  0.4313
  782MPD2    C411587   3.904   3.409  10.206  0.0938  0.0926 -0.2972
  782MPD2    C511588   3.932   3.275  10.186  0.3303 -0.2754  0.0343
  782MPD2     H11589   3.575   3.376  10.262 -0.4797  2.3907 -2.8918
  782MPD2    H111590   3.973   3.493  10.202 -0.1423  0.3446  0.7749
  782MPD2    H211591   3.879   3.074  10.207 -2.0945 -1.1471 -0.5366
  782MPD2    H311592   4.036   3.252  10.164 -0.0626 -2.5651  0.5734
  782MPD2     N11593   3.746   3.579  10.260  0.1042 -0.0981  0.6253
  782MPD2    H511594   3.818   3.640  10.298 -2.3281  1.5609  2.5798
  782MPD2    N111595   3.625   3.103  10.255  0.2084  0.2272  0.1005
  782MPD2    H711596   3.677   3.017  10.261 -1.5778 -0.5390  4.3806
  783MPD2     C11597   2.737   2.546  10.655  0.6784 -0.0874 -0.3511
  783MPD2    C111598   2.734   2.682  10.619 -0.8020  0.4126  0.0320
  783MPD2    C211599   2.850   2.742  10.564  0.5553 -0.1663  0.1253
  783MPD2    C311600   2.966   2.665  10.566 -0.5622  0.6439  0.4800
  783MPD2    C411601   2.958   2.529  10.596  0.6230 -0.6440  0.2314
  783MPD2    C511602   2.847   2.472  10.645 -0.4620  0.2169 -0.2164
  783MPD2     H11603   2.858   2.839  10.516 -1.9588  0.5880  1.2157
  783MPD2    H111604   3.044   2.464  10.598  0.3133 -1.1716 -2.6925
  783MPD2    H211605   2.655   2.491  10.701  1.3212  1.3809  2.5974
  783MPD2    H311606   2.854   2.368  10.671  1.8431  0.3854 -0.1354
  783MPD2     N11607   3.090   2.711  10.519 -0.0768 -0.1010 -0.0293
  783MPD2    H511608   3.175   2.656  10.527 -1.3573 -1.7701  1.9044
  783MPD2    N111609   2.611   2.745  10.627  0.0442  0.0875  0.1534
  783MPD2    H711610   2.529   2.688  10.646 -1.6076  3.0250  1.8729
  784MPD2     C11611   1.564   2.686   0.519 -0.2909  0.9557 -0.2891
  784MPD2    C111612   1.522   2.759   0.633  0.2788 -0.0772  0.1705
  784MPD2    C211613   1.402   2.832   0.612 -0.5868 -0.9607 -0.6591
  784MPD2    C311614   1.328   2.825   0.495  0.0097 -0.6789  0.3045
  784MPD2    C411615   1.367   2.748   0.391 -0.0052 -0.0321  0.0487
  784MPD2    C511616   1.489   2.685   0.405 -0.3319  0.4559 -0.1312
  784MPD2     H11617   1.362   2.895   0.691 -2.4880  1.0700 -3.2495
  784MPD2    H111618   1.316   2.730   0.297 -1.2568 -0.5968  0.8379
  784MPD2    H211619   1.644   2.614   0.528  0.3857  2.3520  4.7396
  784MPD2    H311620   1.529   2.619   0.329 -1.9740 -2.3896  1.4794
  784MPD2     N11621   1.205   2.900   0.496  0.4164 -0.1207 -0.4119
  784MPD2    H511622   1.170   2.944   0.581 -1.9150 -1.9720 -0.4021
  784MPD2    N111623   1.593   2.768   0.750  0.2953 -0.1180  0.3128
  784MPD2    H711624   1.559   2.834   0.819 -1.8549  1.3511 -2.1405
  785MPD2     C11625   1.514   1.624  11.427  0.1483  0.7862  0.4116
  785MPD2    C111626   1.406   1.708  11.429  0.7133  0.0302 -0.2449
  785MPD2    C211627   1.284   1.654  11.392  0.5034 -0.7652 -0.1678
  785MPD2    C311628   1.275   1.524  11.350  0.4192  0.6827  0.5932
  785MPD2    C411629   1.380   1.437  11.374  0.0748  0.1016 -0.0519
  785MPD2    C511630   1.498   1.494  11.400  0.0652  0.1474 -0.4028
  785MPD2     H11631   1.198   1.720  11.387  1.7825  1.0455  1.9952
  785MPD2    H111632   1.365   1.333  11.345 -1.8815  0.2367  0.4433
  785MPD2    H211633   1.614   1.654  11.454  0.5011 -0.4378  0.4903
  785MPD2    H311634   1.590   1.438  11.417  0.6493  1.2351  0.0406
  785MPD2     N11635   1.149   1.501  11.279  0.7740  0.2369  0.7693
  785MPD2    H511636   1.085   1.579  11.265 -2.4420 -2.6430 -0.4554
  785MPD2    N111637   1.416   1.852  11.442  0.0717  0.6653  0.4260
  785MPD2    H711638   1.329   1.902  11.425 -0.2912 -0.2493 -0.4312
  786MPD2     C11639   0.327   4.322  14.591 -0.0571 -0.9622  0.7339
  786MPD2    C111640   0.291   4.206  14.658  0.2036 -0.3308 -0.5549
  786MPD2    C211641   0.303   4.204  14.796 -0.1387  0.2534  0.6181
  786MPD2    C311642   0.355   4.310  14.870  0.3102  0.1442  0.9669
  786MPD2    C411643   0.401   4.422  14.801  0.1282 -0.4530  0.1679
  786MPD2    C511644   0.387   4.420  14.668 -0.0750 -0.2809  0.5621
  786MPD2     H11645   0.294   4.111  14.852 -1.1517  1.6010  2.6723
  786MPD2    H111646   0.451   4.511  14.838  0.3910 -0.5722  0.1031
  786MPD2    H211647   0.326   4.347  14.486  1.4013  4.2867  1.9142
  786MPD2    H311648   0.412   4.509  14.611  2.1927 -0.3488  1.4512
  786MPD2     N11649   0.388   4.304  15.008 -0.3224 -0.2322  0.3101
  786MPD2    H511650   0.454   4.374  15.041  0.4642 -1.1052  0.5874
  786MPD2    N111651   0.259   4.087  14.593 -0.6433  0.3967 -0.4280
  786MPD2    H711652   0.247   4.003  14.648  1.1529 -1.1348 -2.3514
  787MPD2     C11653   0.360   3.521  14.833  0.3890 -0.3611  0.0929
  787MPD2    C111654   0.314   3.506  14.699 -0.2498 -0.2975  0.3193
  787MPD2    C211655   0.353   3.397  14.624  0.8813  0.6139 -0.0546
  787MPD2    C311656   0.423   3.297  14.693 -0.2488 -0.6526 -0.3041
  787MPD2    C411657   0.440   3.296  14.828  0.1316  0.4967  0.1990
  787MPD2    C511658   0.416   3.413  14.897  0.0351  0.6112  0.0281
  787MPD2     H11659   0.337   3.378  14.519  1.2868  0.1152 -0.0234
  787MPD2    H111660   0.486   3.211  14.876 -1.1539  0.5807  1.5753
  787MPD2    H211661   0.331   3.609  14.890 -0.8081 -0.6419 -0.0773
  787MPD2    H311662   0.429   3.425  15.004  0.8165  2.7050 -0.2995
  787MPD2     N11663   0.454   3.189  14.607  0.4567 -1.0607 -0.4277
  787MPD2    H511664   0.435   3.213  14.510 -0.3217 -0.1517 -0.0377
  787MPD2    N111665   0.243   3.607  14.640  0.0635  1.0493  0.3113
  787MPD2    H711666   0.234   3.688  14.700  1.5916  1.0494  0.5482
  788MPD2     C11667   2.498   2.591   0.442  0.0259 -0.0895  0.9652
  788MPD2    C111668   2.515   2.518   0.329 -0.6777 -0.3750  0.5316
  788MPD2    C211669   2.528   2.578   0.207  0.3992  0.2266 -0.2965
  788MPD2    C311670   2.511   2.714   0.192 -0.4662 -0.3575  0.6283
  788MPD2    C411671   2.471   2.786   0.304  0.2556  0.2518  0.7429
  788MPD2    C511672   2.479   2.726   0.423  0.5446  0.0210 -0.9070
  788MPD2     H11673   2.534   2.517   0.118 -1.3746 -0.7085  0.1998
  788MPD2    H111674   2.459   2.894   0.308  1.1791  0.3358  1.1883
  788MPD2    H211675   2.509   2.545   0.540 -2.6723  1.0418  1.8035
  788MPD2    H311676   2.468   2.790   0.509  1.7043 -0.7965 -0.1645
  788MPD2     N11677   2.500   2.783   0.064 -0.3773 -0.1897  0.2759
  788MPD2    H511678   2.457   2.875   0.070 -2.5568 -1.1746  0.0330
  788MPD2    N111679   2.518   2.376   0.345  0.0607 -0.0972 -0.6426
  788MPD2    H711680   2.545   2.319   0.265  5.0119 -0.4275  1.2859
  789MPD2     C11681   2.273   1.831  16.378  0.0769  0.0382 -0.7969
  789MPD2    C111682   2.273   1.812  16.516  0.3194 -0.0653 -0.2588
  789MPD2    C211683   2.178   1.866  16.598  0.1365  0.8533 -0.2790
  789MPD2    C311684   2.102   1.971  16.546 -0.1145  0.4573 -0.3613
  789MPD2    C411685   2.109   2.002  16.411  0.4359  0.6372  0.5759
  789MPD2    C511686   2.201   1.940  16.333 -0.2626  0.4425  0.3014
  789MPD2     H11687   2.170   1.837  16.702  3.1674 -0.8527 -0.5295
  789MPD2    H111688   2.049   2.077  16.361 -0.0371  0.7147  1.2634
  789MPD2    H211689   2.317   1.774  16.297  0.0169 -2.7319  1.1114
  789MPD2    H311690   2.202   1.969  16.228 -1.3054 -0.4979  0.0268
  789MPD2     N11691   1.993   2.040  16.611  0.2075 -0.1680  0.2179
  789MPD2    H511692   1.943   2.110  16.557  0.8666 -1.8917 -2.6527
  789MPD2    N111693   2.349   1.705  16.562  0.6339 -0.1354  0.3774
  789MPD2    H711694   2.344   1.676  16.660  2.3438 -1.7068  0.0066
  790MPD2     C11695   3.023   4.388  13.430 -0.5668  0.3530  0.3576
  790MPD2    C111696   3.014   4.252  13.472  0.0904  0.2232 -0.1483
  790MPD2    C211697   2.937   4.162  13.405 -0.2975 -0.4154 -0.3756
  790MPD2    C311698   2.868   4.201  13.291  0.1118 -0.5812 -0.0691
  790MPD2    C411699   2.885   4.334  13.247  0.1849  0.2410 -0.8178
  790MPD2    C511700   2.965   4.427  13.315  0.7678  0.4292 -0.9685
  790MPD2     H11701   2.938   4.057  13.430  0.3991 -0.7869 -1.9304
  790MPD2    H111702   2.834   4.357  13.154 -0.2405 -0.4127 -0.7528
  790MPD2    H211703   3.070   4.463  13.493 -0.0309  0.2434  0.0945
  790MPD2    H311704   2.982   4.528  13.280 -0.1581  1.6560  2.1762
  790MPD2     N11705   2.786   4.115  13.210 -0.0291 -0.1449 -0.8385
  790MPD2    H511706   2.740   4.145  13.124 -3.4168  0.8450  1.3302
  790MPD2    N111707   3.081   4.220  13.594  0.2197  0.2747 -0.0243
  790MPD2    H711708   3.143   4.289  13.636 -0.5369  1.3195 -0.6434
  791MPD2     C11709   2.230   3.545  12.807  0.1008  0.4506  0.5657
  791MPD2    C111710   2.266   3.592  12.933 -0.0239 -0.3696 -0.1087
  791MPD2    C211711   2.244   3.517  13.045 -0.0717  0.3843  0.4170
  791MPD2    C311712   2.203   3.384  13.025 -0.0800  0.5960 -0.6024
  791MPD2    C411713   2.167   3.334  12.902  0.2312 -0.3695 -0.3033
  791MPD2    C511714   2.181   3.417  12.792 -0.3762 -0.0959  0.2020
  791MPD2     H11715   2.264   3.554  13.145 -2.9473 -2.3933  2.0305
  791MPD2    H111716   2.137   3.231  12.883 -2.4635  0.2544  0.5675
  791MPD2    H211717   2.245   3.608  12.721  0.3879 -3.1117 -1.9721
  791MPD2    H311718   2.159   3.368  12.698 -1.2118  1.3585 -0.3592
  791MPD2     N11719   2.168   3.313  13.145  0.4199 -0.2870 -0.3925
  791MPD2    H511720   2.170   3.368  13.230  0.3887 -0.5072 -0.2507
  791MPD2    N111721   2.334   3.715  12.940 -0.8032  0.6602 -0.1686
  791MPD2    H711722   2.348   3.750  12.846 -0.4696 -1.5008 -0.9115
  792MPD2     C11723   3.450   4.372  11.545  0.0025  0.5064  0.5864
  792MPD2    C111724   3.355   4.429  11.463  0.6437  0.0666 -0.5302
  792MPD2    C211725   3.238   4.353  11.434 -0.2214  0.7504  0.1584
  792MPD2    C311726   3.228   4.226  11.484  0.4860  0.8561  0.2604
  792MPD2    C411727   3.328   4.171  11.566 -0.9702  0.0524 -0.1200
  792MPD2    C511728   3.436   4.247  11.596 -0.0785 -0.4885  0.6107
  792MPD2     H11729   3.158   4.402  11.380  1.4275  0.8754 -2.1713
  792MPD2    H111730   3.318   4.071  11.605  1.6779 -0.5039 -0.8667
  792MPD2    H211731   3.530   4.436  11.581  0.5757  1.3298 -2.1176
  792MPD2    H311732   3.509   4.203  11.663  0.6590  0.3729  0.3688
  792MPD2     N11733   3.124   4.141  11.440 -0.1002 -0.4222 -0.1104
  792MPD2    H511734   3.143   4.050  11.480  4.2080 -0.1461 -1.5285
  792MPD2    N111735   3.367   4.566  11.425  0.3124 -0.1745 -0.0668
  792MPD2    H711736   3.455   4.609  11.451  0.6433 -1.5714  1.1484
  793MPD2     C11737   2.218   4.030  10.866  0.5198  0.3254 -0.4333
  793MPD2    C111738   2.332   4.078  10.807  0.1312  0.4451  0.3695
  793MPD2    C211739   2.446   4.092  10.878  0.4243 -0.5724  0.2533
  793MPD2    C311740   2.446   4.058  11.014 -0.7145 -0.2798  1.1634
  793MPD2    C411741   2.332   4.003  11.071  0.3959  0.5372 -0.5094
  793MPD2    C511742   2.218   3.989  10.998  0.3362 -0.1818  0.1392
  793MPD2     H11743   2.532   4.132  10.825  0.4737 -1.2056 -0.1356
  793MPD2    H111744   2.331   3.978  11.177  0.7602 -0.5749 -0.7762
  793MPD2    H211745   2.128   4.009  10.809  0.9523  0.0350 -1.0059
  793MPD2    H311746   2.126   3.961  11.048  0.9370 -1.2079  0.6659
  793MPD2     N11747   2.576   4.045  11.073  0.2948  0.0040  0.2018
  793MPD2    H511748   2.653   4.083  11.019  0.1025 -0.5854 -0.4907
  793MPD2    N111749   2.337   4.112  10.666 -0.1411  0.0571 -0.7285
  793MPD2    H711750   2.428   4.136  10.628 -1.2353  2.2193 -2.0006
  794MPD2     C11751   2.642   2.988  16.929  0.3255 -0.0547 -0.0600
  794MPD2    C111752   2.745   2.933  16.850 -0.4765 -0.3740  0.3559
  794MPD2    C211753   2.752   2.951  16.718 -0.6896  0.2448  0.3768
  794MPD2    C311754   2.658   3.028  16.655  0.1990 -0.3173 -0.8644
  794MPD2    C411755   2.554   3.072  16.729 -0.2280  0.0870  0.0758
  794MPD2    C511756   2.548   3.047  16.861  0.2740 -0.3492  0.8085
  794MPD2     H11757   2.842   2.911  16.672  0.0532 -0.0992  2.1379
  794MPD2    H111758   2.473   3.125  16.681  0.6502  0.9650 -0.4476
  794MPD2    H211759   2.630   2.957  17.032 -0.5334 -1.0977 -0.4776
  794MPD2    H311760   2.460   3.088  16.910  0.7084  0.6471  0.7418
  794MPD2     N11761   2.653   3.062  16.520  0.3104  0.5278  0.4997
  794MPD2    H511762   2.573   3.118  16.494 -0.1469 -0.8356 -1.0323
  794MPD2    N111763   2.842   2.861  16.922 -0.4374 -0.2444  0.9408
  794MPD2    H711764   2.906   2.804  16.868  0.2522  1.2637  0.1870
  795MPD2     C11765   0.423   0.483  13.569 -0.1947 -0.7264  0.2107
  795MPD2    C111766   0.442   0.371  13.499  0.7919  0.2855  0.6570
  795MPD2    C211767   0.564   0.303  13.518 -0.5283  0.0006 -0.1360
  795MPD2    C311768   0.655   0.346  13.613 -0.5022  0.2261  0.6284
  795MPD2    C411769   0.625   0.447  13.695  0.0472  0.5719  0.4418
  795MPD2    C511770   0.502   0.512  13.675  0.4046  0.5374 -0.2704
  795MPD2     H11771   0.585   0.221  13.451  2.5954  0.5137  0.2537
  795MPD2    H111772   0.682   0.483  13.779 -0.7162 -0.4771  1.4232
  795MPD2    H211773   0.332   0.541  13.563 -1.1861 -1.9848  2.8636
  795MPD2    H311774   0.471   0.585  13.749 -0.8834  1.1064 -1.3890
  795MPD2     N11775   0.788   0.285  13.614 -0.5703 -0.9971 -0.0438
  795MPD2    H511776   0.798   0.209  13.547 -2.2325 -0.5649 -0.7832
  795MPD2    N111777   0.348   0.345  13.391  0.5398 -0.3787  0.3468
  795MPD2    H711778   0.272   0.408  13.366  1.3935  0.0601 -1.1133
  796MPD2     C11779   0.224   1.474  15.718  0.0119  0.2475  0.4557
  796MPD2    C111780   0.275   1.566  15.810 -0.3182 -0.2299  0.3115
  796MPD2    C211781   0.259   1.703  15.796  0.1352  0.3516 -0.1431
  796MPD2    C311782   0.190   1.743  15.677  0.4264 -0.6093 -0.0304
  796MPD2    C411783   0.142   1.649  15.591 -0.5633  0.5408  0.5990
  796MPD2    C511784   0.164   1.513  15.608  0.0659  0.2371 -0.1156
  796MPD2     H11785   0.300   1.783  15.856 -1.7131  0.1388  1.4037
  796MPD2    H111786   0.079   1.678  15.508 -0.0642  0.6871  0.2745
  796MPD2    H211787   0.238   1.367  15.728 -0.8244 -0.1277 -2.2335
  796MPD2    H311788   0.118   1.445  15.538 -0.9933  0.0008  0.8068
  796MPD2     N11789   0.180   1.879  15.636  0.2883 -0.7288 -0.8999
  796MPD2    H511790   0.120   1.902  15.557 -0.6140  1.2529  0.3543
  796MPD2    N111791   0.357   1.515  15.915  0.0962  0.7584  0.8622
  796MPD2    H711792   0.372   1.415  15.921 -1.7024  0.3538 -1.0287
  797MPD2     C11793   1.193   1.454  17.672  0.4191  0.3838  0.0286
  797MPD2    C111794   1.307   1.503  17.612 -0.7134  0.1980  0.0883
  797MPD2    C211795   1.318   1.497  17.480  0.0070 -0.8727  0.2999
  797MPD2    C311796   1.215   1.442  17.413 -0.2237 -0.0597 -0.1430
  797MPD2    C411797   1.100   1.395  17.470  0.2793  0.5425  0.7066
  797MPD2    C511798   1.089   1.396  17.604 -0.1753  0.4262 -1.0877
  797MPD2     H11799   1.407   1.539  17.435 -0.0005  0.4108  1.4976
  797MPD2    H111800   1.019   1.359  17.408  1.5439 -2.2787  0.6980
  797MPD2    H211801   1.200   1.460   0.028 -1.8653  0.8741  0.1468
  797MPD2    H311802   1.007   1.349  17.657  1.0726 -0.5522 -0.0207
  797MPD2     N11803   1.237   1.447  17.272  0.0899  0.0279 -0.7692
  797MPD2    H511804   1.334   1.453  17.244  0.0180 -0.4137 -1.1202
  797MPD2    N111805   1.408   1.572  17.671  0.4031 -0.3684  0.0528
  797MPD2    H711806   1.468   1.614  17.601 -2.1562 -0.4018 -2.1615
  798MPD2     C11807   1.837   1.726  17.028  0.0741 -1.0268  0.3863
  798MPD2    C111808   1.734   1.672  17.097 -0.0337 -0.3823 -0.2019
  798MPD2    C211809   1.733   1.663  17.237 -0.1292 -0.9194 -0.2599
  798MPD2    C311810   1.831   1.718  17.308  0.1402 -0.3599 -0.0954
  798MPD2    C411811   1.929   1.781  17.240 -0.0307 -0.4441 -0.1876
  798MPD2    C511812   1.932   1.782  17.105  0.2248 -0.2566  0.4585
  798MPD2     H11813   1.647   1.619  17.288 -1.2869  0.4707 -1.0112
  798MPD2    H111814   2.015   1.820  17.293  1.0431 -0.9741 -1.5428
  798MPD2    H211815   1.861   1.721  16.923 -1.0366  0.4101  0.0500
  798MPD2    H311816   2.018   1.820  17.050  0.9774 -1.8736  0.5125
  798MPD2     N11817   1.831   1.729  17.452  0.2418  0.8746  0.0425
  798MPD2    H511818   1.909   1.770  17.502 -0.6818  1.5342  0.9652
  798MPD2    N111819   1.631   1.607  17.025  0.6862  1.1266 -0.2403
  798MPD2    H711820   1.622   1.626  16.926 -0.8684 -0.1029 -0.3356
  799MPD2     C11821   0.103   2.948  14.725  0.4465 -0.0996  0.1316
  799MPD2    C111822   0.013   2.888  14.641  0.6497 -1.5133 -0.9703
  799MPD2    C211823   4.676   2.975  14.558  0.0701 -0.2753 -0.6371
  799MPD2    C311824   4.702   3.107  14.556  0.1286  0.1395  0.9047
  799MPD2    C411825   0.053   3.159  14.640  0.5664  0.0986 -0.3624
  799MPD2    C511826   0.123   3.082  14.724 -0.2687 -0.6901 -0.0870
  799MPD2     H11827   4.608   2.933  14.485 -0.2486  0.7693 -0.9414
  799MPD2    H111828   0.076   3.265  14.637  1.8047 -0.1444  0.3470
  799MPD2    H211829   0.139   2.886  14.806  0.4974  2.1482  1.8186
  799MPD2    H311830   0.197   3.126  14.790 -0.0048 -0.2892 -0.6469
  799MPD2     N11831   4.655   3.201  14.464  0.5088 -0.3157  0.5528
  799MPD2    H511832   4.708   3.287  14.455  2.0355 -1.2504  0.6456
  799MPD2    N111833   4.717   2.749  14.637 -0.3720 -0.6059 -0.4793
  799MPD2    H711834   4.627   2.722  14.597 -0.2098  2.7071 -3.0643
  800MPD2     C11835   0.631   4.359  13.678  0.0139 -0.4221 -0.1414
  800MPD2    C111836   0.688   4.281  13.774 -0.0853  0.8163  0.2656
  800MPD2    C211837   0.666   4.147  13.769 -0.6076  0.8570 -0.0021
  800MPD2    C311838   0.612   4.089  13.658  0.4938  0.5813  0.3206
  800MPD2    C411839   0.566   4.161  13.551  0.2030 -0.8973 -0.0116
  800MPD2    C511840   0.575   4.299  13.564 -0.8717  0.0471  0.2412
  800MPD2     H11841   0.704   4.076  13.842 -1.0552  0.6147 -0.0058
  800MPD2    H111842   0.522   4.117  13.463  1.6153 -0.2388 -1.0452
  800MPD2    H211843   0.640   4.467  13.672 -2.8025 -0.1445  0.4649
  800MPD2    H311844   0.555   4.361  13.477 -2.4262 -2.5320 -1.2266
  800MPD2     N11845   0.635   3.951  13.660  0.3244  0.1461  0.1309
  800MPD2    H511846   0.664   3.922  13.753  1.6475  2.7550  0.5609
  800MPD2    N111847   0.759   4.343  13.882  0.2894  0.1171  0.0637
  800MPD2    H711848   0.762   4.445  13.874  0.0445  0.2424  1.4542
  801MPD2     C11849   0.900   0.275  14.110  0.0806 -0.1717 -0.0883
  801MPD2    C111850   0.911   0.177  14.203 -0.3961  0.7513  0.3282
  801MPD2    C211851   0.853   0.201  14.329 -0.5297 -0.2728 -0.2054
  801MPD2    C311852   0.795   0.320  14.365 -0.4727  0.0002 -0.3490
  801MPD2    C411853   0.787   0.419  14.270  0.1265 -0.6253  0.1323
  801MPD2    C511854   0.843   0.390  14.144  0.2559  0.0904  0.0504
  801MPD2     H11855   0.861   0.130  14.410 -1.9867 -0.9822 -0.6783
  801MPD2    H111856   0.758   0.522  14.288 -2.2520 -1.3895  0.5648
  801MPD2    H211857   0.954   0.260  14.017  0.9248  1.1078  0.1860
  801MPD2    H311858   0.843   0.471  14.072  0.8283 -0.4418 -0.5411
  801MPD2     N11859   0.750   0.334  14.501 -0.3092 -0.5977 -0.0587
  801MPD2    H511860   0.766   0.245  14.549  0.7079 -0.2042  0.3285
  801MPD2    N111861   0.972   0.050  14.190 -0.1690  0.1526  0.7507
  801MPD2    H711862   0.995   4.738  14.274 -1.4416  0.9365  1.5802
  802MPD2     C11863   4.396   0.476  17.712  0.2323  0.0484  0.5399
  802MPD2    C111864   4.498   0.530   0.040 -0.1217  0.0419  0.1655
  802MPD2    C211865   4.611   0.451   0.059  0.2228  0.2728 -0.4035
  802MPD2    C311866   4.629   0.330  17.752 -0.0201 -0.5840  0.0409
  802MPD2    C411867   4.528   0.273  17.680 -0.3213 -0.4777  0.4625
  802MPD2    C511868   4.412   0.349  17.668  0.7900 -0.8298  0.1614
  802MPD2     H11869   4.691   0.495   0.118  0.2199  1.5603 -1.3694
  802MPD2    H111870   4.538   0.179  17.628 -1.2314 -0.2275 -0.1533
  802MPD2    H211871   4.300   0.527  17.710 -1.0135 -2.2196  2.0004
  802MPD2    H311872   4.340   0.311  17.596  0.8020  0.8164 -0.7173
  802MPD2     N11873   0.018   0.264   0.025 -0.2944 -0.1553  0.8856
  802MPD2    H511874   0.084   0.319   0.079  0.2177 -1.7732  1.8929
  802MPD2    N111875   4.489   0.651   0.112 -0.5328  0.2956  0.3953
  802MPD2    H711876   4.570   0.667   0.170 -0.6092  0.2159  0.5219
  803MPD2     C11877   0.696   3.028  12.910  0.5245  0.0653 -0.9821
  803MPD2    C111878   0.807   3.037  12.837  0.9468 -0.1525  0.1765
  803MPD2    C211879   0.916   3.110  12.892  0.4073 -0.1332  0.0958
  803MPD2    C311880   0.894   3.171  13.021 -0.8447  0.5343 -0.3098
  803MPD2    C411881   0.782   3.139  13.098 -0.1589  0.1228 -1.4516
  803MPD2    C511882   0.685   3.060  13.043  0.5648  0.4202  0.3177
  803MPD2     H11883   1.011   3.129  12.844 -0.7496 -2.4463 -3.0643
  803MPD2    H111884   0.766   3.175  13.199  1.3769  0.7280 -1.4219
  803MPD2    H211885   0.618   2.957  12.884  0.3792 -0.5066  0.9939
  803MPD2    H311886   0.598   3.021  13.095  0.0665  0.8931 -0.1676
  803MPD2     N11887   0.982   3.268  13.073 -0.5949 -0.1495  0.1422
  803MPD2    H511888   0.986   3.290  13.172  3.4479 -0.5779  0.0937
  803MPD2    N111889   0.831   2.980  12.713  0.6635  1.4199 -0.5545
  803MPD2    H711890   0.927   2.986  12.681  1.4354 -0.3815  1.3630
  804MPD2     C11891   0.716   0.075  17.181 -0.1992 -0.1833  0.8203
  804MPD2    C111892   0.773   0.035  17.301 -0.5384  0.1266  0.0782
  804MPD2    C211893   0.824   0.125  17.388 -0.5064 -0.5195  0.0144
  804MPD2    C311894   0.823   0.261  17.355  0.8403 -0.7052  0.6195
  804MPD2    C411895   0.760   0.300  17.240  0.4368  0.0800 -0.0000
  804MPD2    C511896   0.713   0.200  17.155  0.4577  0.1018 -0.1294
  804MPD2     H11897   0.871   0.098  17.482 -0.5310 -1.4033 -0.2277
  804MPD2    H111898   0.730   0.402  17.219 -0.9500 -0.1357  0.9345
  804MPD2    H211899   0.683   0.008  17.102  0.8265  1.0160 -0.6248
  804MPD2    H311900   0.657   0.220  17.064  0.3770 -0.1604 -0.1395
  804MPD2     N11901   0.868   0.349  17.454  1.3281 -0.3751  0.2278
  804MPD2    H511902   0.894   0.312  17.545  1.1257 -1.1456 -0.0274
  804MPD2    N111903   0.786   4.634  17.336 -0.3732 -0.4381 -1.0446
  804MPD2    H711904   0.814   4.617  17.432 -0.3384 -2.2488 -1.3869
  805MPD2     C11905   4.545   3.211  15.880 -0.3485 -0.1907  0.2701
  805MPD2    C111906   4.604   3.245  15.763  0.3139 -0.1430  0.0585
  805MPD2    C211907   4.723   3.320  15.775  0.1899  0.1471  0.3801
  805MPD2    C311908   0.052   3.334  15.894 -0.8430 -0.4351 -0.1418
  805MPD2    C411909   4.724   3.312  16.014 -0.0524  0.5836 -0.0962
  805MPD2    C511910   4.597   3.260  16.000 -0.0265 -0.3738  0.3151
  805MPD2     H11911   0.040   3.340  15.684 -2.4855  2.4286 -0.7642
  805MPD2    H111912   0.028   3.319  16.113  0.0451  2.2886 -0.2598
  805MPD2    H211913   4.452   3.156  15.884 -0.1995 -0.3839  1.1064
  805MPD2    H311914   4.541   3.248  16.091 -0.6990 -0.9458 -0.1752
  805MPD2     N11915   0.181   3.384  15.892  0.3056  0.1344 -0.6797
  805MPD2    H511916   0.225   3.402  15.802 -2.2326  0.3648 -1.8598
  805MPD2    N111917   4.546   3.225  15.635 -0.0501  0.0629 -0.3791
  805MPD2    H711918   4.613   3.255  15.565  0.5985  0.0172  0.2216
  806MPD2     C11919   0.218   2.471   0.187  0.6835 -0.5704  0.3403
  806MPD2    C111920   0.311   2.518   0.278  0.3407 -0.4734  0.2173
  806MPD2    C211921   0.381   2.625   0.239  0.2058 -0.1293  0.2261
  806MPD2    C311922   0.380   2.675   0.103 -0.2570 -0.1907  0.5613
  806MPD2    C411923   0.302   2.611   0.016 -1.0368  0.1016 -0.1473
  806MPD2    C511924   0.220   2.510   0.057 -0.0283  0.2473 -0.4666
  806MPD2     H11925   0.454   2.667   0.308  1.0075 -0.7903 -0.2152
  806MPD2    H111926   0.303   2.650  17.667 -0.2964  0.5145  0.0199
  806MPD2    H211927   0.151   2.390   0.214 -0.7120  1.4178  2.7834
  806MPD2    H311928   0.155   2.461  17.738  0.1768 -1.6134  0.6243
  806MPD2     N11929   0.458   2.789   0.080 -0.7242 -0.0509 -0.6391
  806MPD2    H511930   0.522   2.815   0.154 -0.4514 -1.7140 -0.2814
  806MPD2    N111931   0.308   2.456   0.407 -0.1337 -0.2879 -0.1018
  806MPD2    H711932   0.232   2.394   0.436 -1.0961  0.1845 -1.6045
  807MPD2     C11933   0.015   1.888   0.796 -0.6424 -0.1734 -0.0135
  807MPD2    C111934   0.050   1.989   0.888  0.3030  0.1701  0.8647
  807MPD2    C211935   4.732   1.988   1.019 -0.3332 -0.0229 -0.0465
  807MPD2    C311936   4.632   1.899   1.047  0.2231 -0.7049  0.3402
  807MPD2    C411937   4.598   1.798   0.957  1.0872  0.3599 -0.8025
  807MPD2    C511938   4.656   1.801   0.831 -0.0074  0.3240 -0.3163
  807MPD2     H11939   0.033   2.058   1.092  2.7013  1.0867 -2.7752
  807MPD2    H111940   4.534   1.716   0.987  0.6119  0.7426 -0.7730
  807MPD2    H211941   0.061   1.879   0.698  0.6439  2.7302  0.3220
  807MPD2    H311942   4.639   1.721   0.761 -1.6827  0.4857 -0.1003
  807MPD2     N11943   4.563   1.913   1.169  0.2415  0.1185 -0.3209
  807MPD2    H511944   4.605   1.970   1.241 -1.6179 -0.1441  0.9852
  807MPD2    N111945   0.151   2.086   0.864  0.1708 -0.3447  0.8422
  807MPD2    H711946   0.182   2.147   0.939 -0.3490  0.3349  0.4982
  808MPD2     C11947   0.770   4.644  10.382 -0.3210 -0.0945  0.6875
  808MPD2    C111948   0.742   4.667  10.245 -0.1856 -0.4064  0.0368
  808MPD2    C211949   0.764   0.056  10.192 -0.0652  0.5069 -1.3188
  808MPD2    C311950   0.818   0.156  10.276  0.2299 -0.2440 -0.6831
  808MPD2    C411951   0.844   0.128  10.406 -0.5227  0.7128 -0.3256
  808MPD2    C511952   0.820   0.008  10.451 -0.2710 -0.3169  0.3611
  808MPD2     H11953   0.728   0.073  10.092 -1.9995 -1.5453 -0.9625
  808MPD2    H111954   0.882   0.199  10.479 -1.0973 -1.1054  1.7233
  808MPD2    H211955   0.761   4.547  10.430 -1.5347 -0.8965 -1.1848
  808MPD2    H311956   0.837   4.723  10.556 -0.3449 -0.4854  0.3358
  808MPD2     N11957   0.858   0.287  10.231 -0.3415 -0.4131 -0.6139
  808MPD2    H511958   0.899   0.360  10.288  0.9886 -1.3817 -0.3276
  808MPD2    N111959   0.692   4.563  10.165  0.3899  0.1268  0.0952
  808MPD2    H711960   0.650   4.589  10.077  0.8420  1.6931  0.3330
  809MPD2     C11961   1.726   0.705   9.969 -0.1310  0.0038  0.0653
  809MPD2    C111962   1.680   0.610  10.063 -0.2191  0.1595 -0.2761
  809MPD2    C211963   1.546   0.587  10.077  0.0682  0.3307  0.1902
  809MPD2    C311964   1.465   0.653   9.994 -0.7285  0.3454  0.2873
  809MPD2    C411965   1.510   0.730   9.895  0.2987 -0.6241  0.3329
  809MPD2    C511966   1.639   0.761   9.880 -0.1295 -0.0175 -0.5055
  809MPD2     H11967   1.518   0.516  10.155 -0.2830  0.3187  0.0545
  809MPD2    H111968   1.444   0.776   9.823 -1.1468  1.0291  2.7201
  809MPD2    H211969   1.831   0.731   9.961 -0.6222  1.8032 -0.5304
  809MPD2    H311970   1.672   0.819   9.795  1.4393 -1.2858 -0.7699
  809MPD2     N11971   1.325   0.637  10.005 -0.2259 -0.3190 -0.5408
  809MPD2    H511972   1.274   0.690   9.935  0.5468  0.9935 -0.1032
  809MPD2    N111973   1.765   0.528  10.144 -0.3266  0.0778  0.5902
  809MPD2    H711974   1.710   0.472  10.208  0.5675 -0.5928  0.7873
  810MPD2     C11975   0.585   3.395  10.479 -0.4061 -0.4026 -1.0832
  810MPD2    C111976   0.501   3.503  10.488 -0.7280  1.0641 -0.3849
  810MPD2    C211977   0.549   3.629  10.457 -0.2807 -0.7215 -0.1778
  810MPD2    C311978   0.677   3.650  10.415  0.2568 -0.0097  0.8075
  810MPD2    C411979   0.759   3.537  10.408  0.1421 -0.1978 -0.2250
  810MPD2    C511980   0.714   3.414  10.438 -0.0708 -0.0968  0.1652
  810MPD2     H11981   0.469   3.702  10.465 -0.3905 -0.4170 -3.9877
  810MPD2    H111982   0.863   3.548  10.381  0.3334  0.9272  0.9610
  810MPD2    H211983   0.559   3.294  10.508  4.4126 -0.9261  1.3768
  810MPD2    H311984   0.774   3.325  10.421  1.4182  0.7131  1.2094
  810MPD2     N11985   0.732   3.782  10.411  0.1987  0.2623  0.4198
  810MPD2    H511986   0.830   3.796  10.391 -0.0437  0.4315 -0.6598
  810MPD2    N111987   0.371   3.497  10.531  0.4732  0.6724 -0.3455
  810MPD2    H711988   0.318   3.584  10.532 -0.3409  0.1761  0.8189
  811MPD2     C11989   4.322   3.817  10.538  0.6655  0.1436  0.1004
  811MPD2    C111990   4.459   3.826  10.549 -0.0356  0.6607  0.5424
  811MPD2    C211991   4.519   3.952  10.527  0.2362  0.2847  0.2569
  811MPD2    C311992   4.443   4.057  10.488 -0.2491  0.2884  0.4261
  811MPD2    C411993   4.302   4.047  10.475  0.6945 -0.0640 -0.2339
  811MPD2    C511994   4.246   3.927  10.501  0.2156 -0.4972 -0.2410
  811MPD2     H11995   4.625   3.968  10.540  0.4023  0.9472 -1.8804
  811MPD2    H111996   4.232   4.126  10.452  0.9556 -0.0096 -0.8577
  811MPD2    H211997   4.265   3.727  10.556  1.6445 -0.2320  1.3601
  811MPD2    H311998   4.138   3.920  10.486 -0.1549  2.0342  1.2968
  811MPD2     N11999   4.513   4.186  10.478  0.4992  0.4096  0.1767
  811MPD2    H512000   4.609   4.182  10.510  0.3669  1.3926  0.6963
  811MPD2    N112001   4.532   3.703  10.583  0.2720  0.0354  0.1162
  811MPD2    H712002   4.483   3.615  10.594  2.6570 -1.7246 -3.3033
  812MPD2     C12003   3.598   3.688  12.008  0.0711  0.9299 -0.4846
  812MPD2    C112004   3.585   3.767  12.120 -0.5580  0.5282  0.1418
  812MPD2    C212005   3.588   3.714  12.244 -0.2667 -0.7888 -0.5702
  812MPD2    C312006   3.622   3.582  12.260  0.0846  0.3290 -0.3382
  812MPD2    C412007   3.659   3.509  12.149  0.0117 -0.1360  0.2543
  812MPD2    C512008   3.639   3.554  12.023  1.2456 -0.3921 -0.9685
  812MPD2     H12009   3.581   3.769  12.337  1.0821 -0.3532 -0.7306
  812MPD2    H112010   3.698   3.408  12.152  2.6187  0.9072  1.0925
  812MPD2    H212011   3.587   3.731  11.910  0.1464  0.2095 -0.8086
  812MPD2    H312012   3.659   3.487  11.940 -0.8533 -0.7355 -1.1835
  812MPD2     N12013   3.628   3.544  12.398 -0.2292 -0.3482 -0.3324
  812MPD2    H512014   3.618   3.620  12.464  0.9538  0.1776 -0.7522
  812MPD2    N112015   3.569   3.914  12.101 -1.3318  0.1649 -0.0496
  812MPD2    H712016   3.555   3.952  12.008  1.6722 -0.6730 -0.8461
  813MPD2     C12017   2.744   1.124  12.916 -0.4883  0.4169 -0.6272
  813MPD2    C112018   2.816   1.184  13.017  0.5554 -0.3189  1.1730
  813MPD2    C212019   2.767   1.181  13.145 -0.1006  0.2960  0.3030
  813MPD2    C312020   2.643   1.122  13.183  0.6013  0.0789 -0.6391
  813MPD2    C412021   2.581   1.047  13.079  0.4409  0.1068 -0.1537
  813MPD2    C512022   2.625   1.051  12.952 -0.6565  0.2928 -0.0419
  813MPD2     H12023   2.825   1.234  13.220  1.7889  1.0196 -1.6764
  813MPD2    H112024   2.495   0.982  13.093 -0.9509  1.8604 -0.6580
  813MPD2    H212025   2.785   1.118  12.816  0.3769 -0.7680 -0.2025
  813MPD2    H312026   2.580   1.001  12.867 -1.8290  0.9301  0.2081
  813MPD2     N12027   2.608   1.129  13.319 -0.1769  0.3477  0.1554
  813MPD2    H512028   2.655   1.194  13.381  0.1920 -0.4865  0.7641
  813MPD2    N112029   2.937   1.250  12.995 -0.1952 -0.0544 -0.2350
  813MPD2    H712030   2.977   1.295  13.076  0.5058  2.1940 -1.8290
  814MPD2     C12031   3.623   2.526  12.793 -0.1713  0.1734  0.0196
  814MPD2    C112032   3.662   2.504  12.659 -0.6084  0.1861  0.5214
  814MPD2    C212033   3.769   2.578  12.607  0.1840  0.2888 -0.0639
  814MPD2    C312034   3.832   2.673  12.681  0.6561 -0.4138  0.0328
  814MPD2    C412035   3.788   2.706  12.800  0.0910  0.6991 -0.2686
  814MPD2    C512036   3.686   2.631  12.857  0.5603 -0.0069 -0.0661
  814MPD2     H12037   3.779   2.572  12.500  1.0821 -0.1063  0.0461
  814MPD2    H112038   3.822   2.795  12.851  1.1591  0.4022 -0.4595
  814MPD2    H212039   3.546   2.464  12.836  0.9192 -0.0267  1.6609
  814MPD2    H312040   3.650   2.668  12.953  2.6511  2.9364 -0.4477
  814MPD2     N12041   3.908   2.770  12.609 -0.2953 -0.5138 -0.6574
  814MPD2    H512042   3.913   2.862  12.650 -0.9200 -0.2083 -1.2870
  814MPD2    N112043   3.591   2.428  12.566 -0.2779 -0.8199 -0.1689
  814MPD2    H712044   3.618   2.439  12.469  0.7434 -0.1865  0.1851
  815MPD2     C12045   3.875   0.093  12.050 -0.1419 -0.2964  0.1120
  815MPD2    C112046   3.902   0.227  12.030  0.3953 -0.0873 -0.3062
  815MPD2    C212047   3.827   0.323  12.099 -0.5649  0.0979 -0.1166
  815MPD2    C312048   3.725   0.286  12.179 -0.0289 -0.1277  0.8361
  815MPD2    C412049   3.690   0.156  12.188 -0.1816 -0.5487  0.7597
  815MPD2    C512050   3.760   0.062  12.122  0.4888  0.2505  0.7000
  815MPD2     H12051   3.862   0.425  12.104  1.6693 -0.7195  1.1595
  815MPD2    H112052   3.614   0.118  12.256 -1.0423 -2.1587 -1.0806
  815MPD2    H212053   3.917   0.011  11.993 -0.0213 -1.0507  1.2926
  815MPD2    H312054   3.717   4.702  12.133  0.3654  0.1162 -0.9919
  815MPD2     N12055   3.653   0.385  12.253  0.2972 -0.4558  0.6458
  815MPD2    H512056   3.670   0.481  12.225  0.6742 -0.7407 -0.0982
  815MPD2    N112057   4.024   0.257  11.970 -0.4525 -0.1766 -0.6540
  815MPD2    H712058   4.068   0.175  11.929  1.9327  0.3459  0.8498
  816MPD2     C12059   3.959   3.703  17.229 -0.3330 -0.2066  0.7200
  816MPD2    C112060   3.965   3.821  17.161 -0.7391 -0.3993 -0.0579
  816MPD2    C212061   4.036   3.824  17.048  0.2687  0.6331 -0.0172
  816MPD2    C312062   4.106   3.712  17.002 -0.0103  0.1268  0.1334
  816MPD2    C412063   4.094   3.593  17.072 -0.0909 -0.1725 -0.0002
  816MPD2    C512064   4.019   3.587  17.183  0.0931 -0.5902  0.4533
  816MPD2     H12065   4.039   3.915  16.990  0.5931 -0.7839 -2.2399
  816MPD2    H112066   4.138   3.500  17.039 -2.5710 -1.3805  0.1031
  816MPD2    H212067   3.915   3.695  17.328 -0.3514  0.3289  0.7561
  816MPD2    H312068   3.997   3.489  17.222  0.0194 -1.0241 -0.6914
  816MPD2     N12069   4.196   3.733  16.895 -0.5557  0.4673  0.4757
  816MPD2    H512070   4.207   3.829  16.864 -1.3112 -0.3711 -2.3673
  816MPD2    N112071   3.917   3.951  17.191  0.3197 -0.1457  0.6698
  816MPD2    H712072   3.936   4.019  17.117  1.5382  1.2113  2.2140
  817MPD2     C12073   2.710   0.313   9.472  0.1435  0.2103 -0.2787
  817MPD2    C112074   2.816   0.382   9.522 -0.0168 -0.2832 -0.2270
  817MPD2    C212075   2.850   0.503   9.471 -0.5485 -0.2756  0.0486
  817MPD2    C312076   2.779   0.553   9.365  0.2829 -0.0203  0.3147
  817MPD2    C412077   2.675   0.472   9.310 -0.6372  0.1576  0.4876
  817MPD2    C512078   2.638   0.363   9.377 -0.4362 -0.9191 -0.5049
  817MPD2     H12079   2.928   0.559   9.521 -0.3068 -3.9553  3.8240
  817MPD2    H112080   2.614   0.494   9.223  2.3646  1.3682 -1.3070
  817MPD2    H212081   2.668   0.231   9.529 -0.5579  1.1098  0.5024
  817MPD2    H312082   2.544   0.311   9.361 -0.5804 -0.7131 -0.3260
  817MPD2     N12083   2.816   0.674   9.294 -0.1997  0.5032  0.4849
  817MPD2    H512084   2.882   0.744   9.325  0.6266 -0.5287  1.0608
  817MPD2    N112085   2.892   0.328   9.630  0.2780  0.0606  0.0787
  817MPD2    H712086   2.957   0.385   9.683 -0.6747  0.9046  0.3374
  818MPD2     C12087   1.901   2.470  10.421  0.0849  0.2126  0.7261
  818MPD2    C112088   1.855   2.399  10.532  0.0588 -0.0933  0.0347
  818MPD2    C212089   1.809   2.276  10.505 -0.1425 -0.3990 -0.5654
  818MPD2    C312090   1.800   2.224  10.378 -0.1152  0.4450 -0.3658
  818MPD2    C412091   1.838   2.294  10.266  0.5573 -1.4346  0.5154
  818MPD2    C512092   1.889   2.421  10.291 -0.3781 -0.1748  0.6206
  818MPD2     H12093   1.773   2.218  10.590 -0.9585  0.0153 -0.6382
  818MPD2    H112094   1.833   2.251  10.167  0.0226  2.0057 -0.9430
  818MPD2    H212095   1.924   2.574  10.442  2.1907  0.4027 -2.4534
  818MPD2    H312096   1.906   2.483  10.203 -0.1854 -0.6211  0.3473
  818MPD2     N12097   1.749   2.092  10.351 -0.6226  0.6679  0.3833
  818MPD2    H512098   1.745   2.061  10.254 -2.7730  1.5816  0.1863
  818MPD2    N112099   1.855   2.436  10.667 -0.5554 -0.1738  0.0025
  818MPD2    H712100   1.838   2.370  10.742  0.7977  0.6604  1.0548
  819MPD2     C12101   0.897   2.874  15.470 -0.4032 -0.1418  0.5016
  819MPD2    C112102   0.867   2.746  15.440  0.2115  0.5416 -0.1862
  819MPD2    C212103   0.930   2.640  15.507  0.3465  0.3327  0.4156
  819MPD2    C312104   1.026   2.667  15.600 -0.4031 -0.5880  0.3028
  819MPD2    C412105   1.045   2.797  15.641  0.2628  0.3244  0.1778
  819MPD2    C512106   0.984   2.899  15.576  0.3151 -0.2291 -0.2108
  819MPD2     H12107   0.905   2.537  15.484  0.3787  0.1691  1.1307
  819MPD2    H112108   1.115   2.817  15.721  0.5782  1.7626 -0.4729
  819MPD2    H212109   0.843   2.955  15.422 -0.8131 -1.0801 -0.6205
  819MPD2    H312110   1.005   3.001  15.606 -1.0468  0.0320 -0.1478
  819MPD2     N12111   1.088   2.556  15.659  0.0510 -0.1245  0.7271
  819MPD2    H512112   1.069   2.466  15.616 -2.3298  0.9714 -0.5744
  819MPD2    N112113   0.764   2.732  15.341 -0.4897 -0.3868 -0.1951
  819MPD2    H712114   0.717   2.819  15.321  0.0669 -0.1600 -0.5195
  820MPD2     C12115   0.193   3.331  15.204 -0.4634  0.0201 -0.1014
  820MPD2    C112116   0.112   3.224  15.165 -1.3818 -0.0168 -1.2464
  820MPD2    C212117   0.171   3.102  15.130 -0.9453  0.1113  0.2031
  820MPD2    C312118   0.309   3.091  15.130  0.0052  0.2215  0.6597
  820MPD2    C412119   0.389   3.204  15.160  0.4736 -0.3915  0.7201
  820MPD2    C512120   0.329   3.317  15.203 -0.7302 -0.1082 -0.1497
  820MPD2     H12121   0.112   3.012  15.118  1.1112 -1.2055  0.0937
  820MPD2    H112122   0.496   3.194  15.146  0.6477  1.9152  0.3397
  820MPD2    H212123   0.149   3.427  15.228 -0.7391 -0.4326  1.2019
  820MPD2    H312124   0.387   3.405  15.224  0.4155 -0.7465 -0.6154
  820MPD2     N12125   0.383   2.973  15.103  0.2094  0.2147  0.2398
  820MPD2    H512126   0.484   2.984  15.113  0.2722 -1.3772  1.2860
  820MPD2    N112127   4.711   3.234  15.199  0.2164 -0.0703 -0.1386
  820MPD2    H712128   4.678   3.324  15.232 -1.8050 -1.6375  2.1004
  821MPD2     C12129   1.039   3.778  13.038  0.0075 -0.0412 -0.6799
  821MPD2    C112130   1.085   3.843  13.151 -0.0714 -0.1435 -0.3075
  821MPD2    C212131   1.168   3.949  13.134  0.4492 -0.0179 -0.3986
  821MPD2    C312132   1.224   3.992  13.012 -0.3679  0.0333 -1.0162
  821MPD2    C412133   1.173   3.930  12.903 -0.1976  0.4407 -0.0545
  821MPD2    C512134   1.074   3.835  12.919  0.4409  0.0293 -0.3050
  821MPD2     H12135   1.199   3.996  13.226  0.0201  2.0043 -1.2980
  821MPD2    H112136   1.208   3.954  12.803  0.2960 -1.6400 -0.3843
  821MPD2    H212137   0.963   3.700  13.041 -0.8321  0.8249  0.5656
  821MPD2    H312138   1.031   3.781  12.835 -0.6140 -1.1111  0.9821
  821MPD2     N12139   1.331   4.092  13.000 -0.3368  0.1915 -0.1660
  821MPD2    H512140   1.377   4.110  12.912 -0.8675  0.9336 -0.2926
  821MPD2    N112141   1.046   3.814  13.284 -0.5191  0.7634 -0.3799
  821MPD2    H712142   1.081   3.881  13.352  0.5729 -0.2962  0.1095
  822MPD2     C12143   1.706   4.253  15.920  0.2330 -0.4508  0.3440
  822MPD2    C112144   1.674   4.202  16.042 -0.3014  0.0908 -0.3898
  822MPD2    C212145   1.584   4.272  16.122 -0.0842  2.0530  0.0038
  822MPD2    C312146   1.534   4.399  16.085  0.0600 -0.8373 -0.0016
  822MPD2    C412147   1.579   4.450  15.969  0.0883 -0.0280  0.0009
  822MPD2    C512148   1.666   4.379  15.890 -0.0902 -1.2136  0.2379
  822MPD2     H12149   1.546   4.223  16.211  3.1096  0.5866  0.5692
  822MPD2    H112150   1.532   4.539  15.927 -1.7139 -1.5581 -1.2518
  822MPD2    H212151   1.759   4.198  15.843 -1.8620 -0.0176 -1.4099
  822MPD2    H312152   1.697   4.433  15.802 -3.3992  0.9197  0.3669
  822MPD2     N12153   1.457   4.475  16.180 -0.1537 -0.5612 -0.2780
  822MPD2    H512154   1.418   4.420  16.256  1.0271 -2.2969 -0.9264
  822MPD2    N112155   1.727   4.075  16.087 -0.4849  0.2515 -0.4007
  822MPD2    H712156   1.697   4.041  16.178  0.9421 -0.3334 -0.1434
  823MPD2     C12157   1.149   4.495  16.940  0.2263 -0.1196 -0.2502
  823MPD2    C112158   1.214   4.430  16.838 -0.5621  1.0075  0.3908
  823MPD2    C212159   1.268   4.303  16.854  0.8746 -0.0299  0.3979
  823MPD2    C312160   1.260   4.241  16.979 -0.9352  0.0001  0.5127
  823MPD2    C412161   1.187   4.303  17.079 -0.2644 -0.2714 -0.0613
  823MPD2    C512162   1.143   4.433  17.063  0.2605  0.1494  0.0563
  823MPD2     H12163   1.311   4.244  16.774 -0.6839 -0.8676  0.1746
  823MPD2    H112164   1.174   4.259  17.178 -0.8717 -1.7782 -0.8031
  823MPD2    H212165   1.106   4.593  16.919 -1.3685 -0.4867  1.2798
  823MPD2    H312166   1.100   4.488  17.146  0.4766  1.0394 -0.4193
  823MPD2     N12167   1.333   4.122  17.015  0.3032  0.4523  0.8086
  823MPD2    H512168   1.330   4.093  17.112  0.3900  0.3105  0.7693
  823MPD2    N112169   1.220   4.511  16.721 -0.5430 -0.1493  0.6014
  823MPD2    H712170   1.194   4.608  16.734  0.5396  0.1499  0.4556
  824MPD2     C12171   2.019   3.198  16.254 -0.1169  0.4625  0.4454
  824MPD2    C112172   2.024   3.299  16.162  0.0416 -0.5720  0.0896
  824MPD2    C212173   2.122   3.292  16.061 -0.1967 -0.3795  0.1115
  824MPD2    C312174   2.203   3.181  16.051 -0.5077 -0.0911 -0.6080
  824MPD2    C412175   2.189   3.079  16.142  0.8352  0.6769  0.2776
  824MPD2    C512176   2.099   3.086  16.249  0.9748 -0.1572  0.0995
  824MPD2     H12177   2.132   3.375  15.992 -1.5310 -0.6992 -0.4716
  824MPD2    H112178   2.238   2.983  16.128  0.9867  1.2337 -2.8399
  824MPD2    H212179   1.948   3.202  16.335 -0.1171  0.3018  0.4530
  824MPD2    H312180   2.106   2.993  16.304  0.1804 -1.9094 -2.7686
  824MPD2     N12181   2.306   3.186  15.958 -1.0912  0.2457  0.0096
  824MPD2    H512182   2.313   3.269  15.900 -0.3932  0.2075  0.0368
  824MPD2    N112183   1.955   3.423  16.194 -0.4483  0.7813  0.2902
  824MPD2    H712184   1.926   3.442  16.289  1.4533  1.4112  0.7549
  825MPD2     C12185   2.707   3.505  15.341  0.7880 -0.2728 -0.5880
  825MPD2    C112186   2.686   3.523  15.477 -0.1561 -0.2109 -0.0124
  825MPD2    C212187   2.650   3.652  15.517  0.0238  0.1675 -0.0825
  825MPD2    C312188   2.659   3.763  15.423 -0.3307 -0.1627 -0.7696
  825MPD2    C412189   2.674   3.739  15.288  0.0557  0.0592  0.2542
  825MPD2    C512190   2.698   3.607  15.254  0.2224  0.7280 -0.5744
  825MPD2     H12191   2.634   3.678  15.621  1.4364 -0.2458  0.2375
  825MPD2    H112192   2.679   3.817  15.213  3.7292 -0.4088  0.0044
  825MPD2    H212193   2.728   3.406  15.303 -1.1714 -1.0211  0.2991
  825MPD2    H312194   2.713   3.578  15.151  2.0611  0.0231 -0.1029
  825MPD2     N12195   2.634   3.895  15.456  0.0418 -0.2656 -0.4643
  825MPD2    H512196   2.634   3.960  15.378  0.4806 -2.2488 -2.1239
  825MPD2    N112197   2.691   3.420  15.569  0.2019 -0.1632  0.1114
  825MPD2    H712198   2.694   3.329  15.524 -0.5133 -0.6472  1.0159
  826MPD2     C12199   2.387   3.755  13.976  0.0511  1.2974 -0.2395
  826MPD2    C112200   2.357   3.761  13.843 -0.6156  0.0402 -0.1311
  826MPD2    C212201   2.228   3.796  13.807  0.8538 -0.8670  0.1309
  826MPD2    C312202   2.135   3.822  13.900  0.1037  0.2879 -1.1673
  826MPD2    C412203   2.172   3.819  14.032 -0.5176 -0.4308  0.0912
  826MPD2    C512204   2.294   3.791  14.071 -0.8458  0.2114 -0.0941
  826MPD2     H12205   2.192   3.797  13.705  0.9957  0.6933  0.0851
  826MPD2    H112206   2.091   3.835  14.102 -0.5295 -1.1892  0.2568
  826MPD2    H212207   2.484   3.730  14.018  0.0754  0.9377 -0.5011
  826MPD2    H312208   2.312   3.789  14.177 -0.4006  2.2603 -0.1366
  826MPD2     N12209   2.003   3.857  13.873  0.2210 -0.0396  1.0506
  826MPD2    H512210   1.950   3.895  13.950 -3.3659  0.7804 -1.8379
  826MPD2    N112211   2.446   3.702  13.757  0.7244 -0.0168  0.2860
  826MPD2    H712212   2.540   3.681  13.790  0.0560 -0.9630  1.5835
  827MPD2     C12213   2.892   1.070  10.339  0.0377 -0.8123 -0.0280
  827MPD2    C112214   2.824   0.974  10.413  0.8994  0.3185  0.3647
  827MPD2    C212215   2.688   0.957  10.388  0.3507 -0.3236 -1.1956
  827MPD2    C312216   2.622   1.029  10.290 -0.5008 -0.0760 -0.4400
  827MPD2    C412217   2.697   1.114  10.215 -0.5383 -0.6141  0.0362
  827MPD2    C512218   2.827   1.136  10.234  0.0357 -0.6252  0.2221
  827MPD2     H12219   2.631   0.890  10.451  1.4106  0.3204  0.4641
  827MPD2    H112220   2.660   1.170  10.130  1.4094  1.2598  0.4458
  827MPD2    H212221   2.996   1.092  10.360  0.0645  0.4385 -1.4582
  827MPD2    H312222   2.892   1.195  10.171 -0.8206  0.6451  0.5209
  827MPD2     N12223   2.486   1.001  10.259 -0.3387  0.8849  0.5682
  827MPD2    H512224   2.442   0.929  10.316  2.6531 -1.6710 -0.3895
  827MPD2    N112225   2.892   0.926  10.527 -0.6561 -0.4648 -0.8857
  827MPD2    H712226   2.985   0.963  10.544 -1.4304  0.8997  0.3687
  828MPD2     C12227   1.938   4.230  12.342  0.1863 -0.5489  0.0901
  828MPD2    C112228   1.844   4.307  12.274 -0.3651 -0.7230  0.6485
  828MPD2    C212229   1.881   4.381  12.166 -0.6708 -0.9922  0.4557
  828MPD2    C312230   2.006   4.365  12.105  0.1321 -0.4777 -0.0641
  828MPD2    C412231   2.095   4.274  12.161 -0.8691  0.2071 -0.2243
  828MPD2    C512232   2.062   4.210  12.290  0.3063  0.4776 -0.0831
  828MPD2     H12233   1.803   4.445  12.126 -0.7757 -1.0638  0.5434
  828MPD2    H112234   2.187   4.243  12.113 -1.3529 -1.0221 -0.3827
  828MPD2    H212235   1.918   4.185  12.439  1.4712  1.2028  1.1701
  828MPD2    H312236   2.143   4.161  12.343  0.2494  0.0563 -0.3786
  828MPD2     N12237   2.032   4.408  11.972 -0.0134  0.0496 -0.3977
  828MPD2    H512238   2.129   4.400  11.944 -0.3139 -0.7650 -1.2277
  828MPD2    N112239   1.726   4.355  12.334  0.0424  0.5838 -0.0192
  828MPD2    H712240   1.682   4.432  12.284  2.7063  2.1681  0.0681
  829MPD2     C12241   1.234   0.279  12.098 -0.4607 -0.3119 -0.3593
  829MPD2    C112242   1.139   0.210  12.177 -0.3699 -0.4612 -0.4504
  829MPD2    C212243   1.172   0.091  12.235  0.1828 -0.0038  0.1668
  829MPD2    C312244   1.304   0.049  12.225  0.4769 -0.1060 -0.3374
  829MPD2    C412245   1.396   0.115  12.147  0.4551 -0.4616  0.0057
  829MPD2    C512246   1.361   0.234  12.087 -0.0056  0.9233 -0.5368
  829MPD2     H12247   1.098   0.028  12.283  2.0709 -0.6652  2.2540
  829MPD2    H112248   1.500   0.084  12.137  0.8004  0.9917 -0.8461
  829MPD2    H212249   1.214   0.373  12.049  2.2360 -0.0963 -1.0583
  829MPD2    H312250   1.429   0.290  12.024  0.3138 -0.1666 -1.1585
  829MPD2     N12251   1.356   4.673  12.290  0.2743 -0.6087  0.0727
  829MPD2    H512252   1.448   4.640  12.262  0.6189  0.1091  0.3784
  829MPD2    N112253   1.012   0.265  12.188  0.2538 -0.0873  0.1486
  829MPD2    H712254   0.998   0.347  12.130  1.2698  0.4822  0.7081
  830MPD2     C12255   1.835   2.451  15.897  0.6810 -1.0482  0.2385
  830MPD2    C112256   1.757   2.437  15.786  0.3614  0.2935  0.4887
  830MPD2    C212257   1.783   2.522  15.687 -0.2974  0.1782 -0.0184
  830MPD2    C312258   1.889   2.611  15.688  0.1982 -0.0609 -0.2270
  830MPD2    C412259   1.971   2.611  15.793 -0.0716 -0.1633  0.3715
  830MPD2    C512260   1.946   2.527  15.893 -0.2514 -0.0175 -0.2232
  830MPD2     H12261   1.706   2.530  15.611 -0.0470  2.5938  0.0051
  830MPD2    H112262   2.056   2.676  15.807  1.1358 -1.9898  1.5943
  830MPD2    H212263   1.823   2.399  15.992 -2.2681  1.1739  1.0794
  830MPD2    H312264   2.019   2.530  15.973  1.1626  0.7399 -1.5403
  830MPD2     N12265   1.917   2.705  15.587  0.2076 -0.3765 -0.0445
  830MPD2    H512266   1.982   2.779  15.613 -1.7061  1.2831  0.0261
  830MPD2    N112267   1.640   2.361  15.801 -0.6498 -0.4684 -0.5261
  830MPD2    H712268   1.616   2.322  15.892  0.3129 -0.4978 -0.2877
  831MPD2     C12269   1.711   4.502  16.511  0.1888  0.7404 -0.0471
  831MPD2    C112270   1.758   4.398  16.434  0.3049  0.1003 -0.1767
  831MPD2    C212271   1.707   4.274  16.458 -0.1136 -0.2655 -0.5279
  831MPD2    C312272   1.605   4.252  16.552  0.2939  0.4262  1.0316
  831MPD2    C412273   1.572   4.350  16.636 -0.0700  0.7281 -1.1282
  831MPD2    C512274   1.629   4.475  16.621  0.5909  0.3345 -0.6288
  831MPD2     H12275   1.749   4.193  16.399 -0.5778 -0.9477  0.0869
  831MPD2    H112276   1.506   4.332  16.720  2.3852 -1.7518  0.2855
  831MPD2    H212277   1.746   4.601  16.484  0.2540 -0.0039 -2.7181
  831MPD2    H312278   1.599   4.551  16.692  1.4546 -0.2832  0.4075
  831MPD2     N12279   1.534   4.129  16.553 -0.7394  0.0402 -0.4463
  831MPD2    H512280   1.483   4.109  16.638 -1.1447  1.2723 -0.4073
  831MPD2    N112281   1.830   4.428  16.320 -0.1695  0.1376 -0.5436
  831MPD2    H712282   1.824   4.521  16.281 -0.6620  0.6867  0.8409
  832MPD2     C12283   0.130   0.700  17.702  0.5937 -0.5083  0.3879
  832MPD2    C112284   0.028   0.785  17.669  0.3983 -0.1458 -0.1968
  832MPD2    C212285   4.679   0.753  17.566  0.0073 -0.5173  0.8112
  832MPD2    C312286   4.691   0.629  17.506  0.4347 -0.5966  0.2899
  832MPD2    C412287   0.057   0.550  17.530 -0.5436  0.0658 -0.4304
  832MPD2    C512288   0.148   0.585  17.635  0.6043 -0.4172  0.2488
  832MPD2     H12289   4.582   0.801  17.552  0.3745 -0.4122 -1.2865
  832MPD2    H112290   0.077   0.463  17.468 -1.7765 -0.0958 -0.5966
  832MPD2    H212291   0.198   0.721   0.031  0.6543 -2.2680  0.7970
  832MPD2    H312292   0.238   0.529  17.657  0.4824 -0.8692 -0.4153
  832MPD2     N12293   4.603   0.587  17.403 -0.1502 -0.1285  0.2301
  832MPD2    H512294   4.627   0.498  17.360  1.0700 -0.8557  2.4065
  832MPD2    N112295   0.019   0.904  17.736 -0.0019  0.1218  0.5498
  832MPD2    H712296   0.082   0.926   0.059 -1.0987 -0.3142  1.6041
  833MPD2     C12297   1.728   2.727  13.460 -0.8457 -0.2193  0.0294
  833MPD2    C112298   1.756   2.803  13.342 -0.5924  0.3184  0.3084
  833MPD2    C212299   1.849   2.755  13.247 -0.1179  0.0104  0.2249
  833MPD2    C312300   1.916   2.636  13.271  0.1882  0.2652 -0.7382
  833MPD2    C412301   1.889   2.562  13.380 -0.8087  0.9171  0.1702
  833MPD2    C512302   1.797   2.608  13.474  0.0105 -0.1471 -0.3726
  833MPD2     H12303   1.859   2.809  13.154 -0.3793  0.7348  0.6215
  833MPD2    H112304   1.942   2.469  13.400 -0.1466  0.9113 -1.6889
  833MPD2    H212305   1.658   2.765  13.534 -1.2515 -1.8176  0.4747
  833MPD2    H312306   1.787   2.560  13.570  2.3573 -2.2244 -1.1548
  833MPD2     N12307   2.010   2.583  13.183  0.5759 -0.1841  0.5464
  833MPD2    H512308   2.040   2.488  13.201  1.2726  0.0128  0.4323
  833MPD2    N112309   1.695   2.930  13.331 -0.4945 -0.7332  0.6724
  833MPD2    H712310   1.613   2.961  13.383  0.1756  2.5890 -0.2837
  834MPD2     C12311   1.563   2.201  12.462 -0.4634 -0.2172  0.1336
  834MPD2    C112312   1.647   2.274  12.377 -0.2531 -0.3508  0.3161
  834MPD2    C212313   1.753   2.338  12.433 -0.3380  0.1898 -0.6515
  834MPD2    C312314   1.784   2.315  12.568 -0.1087 -0.2335  0.2159
  834MPD2    C412315   1.708   2.230  12.647  0.1500 -0.2250  0.7727
  834MPD2    C512316   1.596   2.175  12.591 -0.7590  0.6296 -0.2159
  834MPD2     H12317   1.813   2.404  12.372  0.1710 -0.2745 -0.6523
  834MPD2    H112318   1.713   2.218  12.755  1.8670  2.8786  1.0275
  834MPD2    H212319   1.471   2.160  12.423 -1.4596  1.3151  0.8783
  834MPD2    H312320   1.528   2.107  12.641 -0.0861  1.1204  1.3806
  834MPD2     N12321   1.897   2.382  12.621  0.9684  0.1495 -0.3105
  834MPD2    H512322   1.945   2.457  12.574  0.0105 -0.1060 -1.7144
  834MPD2    N112323   1.605   2.269  12.244  0.0416  0.9145  0.1345
  834MPD2    H712324   1.515   2.229  12.220 -0.4658  0.6914  2.4376
  835MPD2     C12325   2.137   0.259  11.303 -0.1826  0.0007  0.1241
  835MPD2    C112326   2.137   0.391  11.343  0.1082 -0.3950  0.7440
  835MPD2    C212327   2.229   0.435  11.436 -0.4161  0.3402 -0.4123
  835MPD2    C312328   2.330   0.348  11.483 -0.6615  0.0837  0.1284
  835MPD2    C412329   2.324   0.217  11.448  0.1044 -0.0800 -0.4945
  835MPD2    C512330   2.234   0.175  11.348 -0.4517  0.0317 -0.0733
  835MPD2     H12331   2.221   0.538  11.469 -2.5686 -0.3380  1.1511
  835MPD2    H112332   2.398   0.147  11.486  1.1577  0.2318 -1.9805
  835MPD2    H212333   2.060   0.229  11.233  2.4296 -4.0949 -0.9806
  835MPD2    H312334   2.243   0.072  11.314 -0.0528 -0.1503  0.5852
  835MPD2     N12335   2.439   0.381  11.565 -0.2912 -0.3236 -0.1013
  835MPD2    H512336   2.500   0.305  11.591  0.0784  0.1369  0.3872
  835MPD2    N112337   2.027   0.477  11.318 -0.0471 -0.3626  0.1664
  835MPD2    H712338   2.030   0.557  11.380 -1.4515  0.9020 -1.3828
  836MPD2     C12339   2.292   0.818  12.223  0.8750 -0.1036  0.0351
  836MPD2    C112340   2.288   0.680  12.193  0.4627  0.5820 -0.3389
  836MPD2    C212341   2.171   0.606  12.212  0.1683  0.5131  0.3050
  836MPD2    C312342   2.063   0.668  12.271  0.1076  0.1195  0.0744
  836MPD2    C412343   2.074   0.801  12.312  0.1958 -0.6796  0.3038
  836MPD2    C512344   2.183   0.884  12.287  0.3094 -0.4377  0.9299
  836MPD2     H12345   2.163   0.500  12.188  2.0183  0.1402  1.3986
  836MPD2    H112346   1.996   0.848  12.371  0.0694 -0.4798 -0.0215
  836MPD2    H212347   2.378   0.881  12.208  1.1420 -0.6169 -0.6220
  836MPD2    H312348   2.187   0.987  12.319 -2.4373  1.0404 -3.4416
  836MPD2     N12349   1.944   0.599  12.292 -0.0128  0.1798 -0.3290
  836MPD2    H512350   1.868   0.652  12.334  2.2966  2.2613  1.2184
  836MPD2    N112351   2.399   0.630  12.126  0.3324 -0.7004  0.3141
  836MPD2    H712352   2.477   0.694  12.113  0.2084 -1.0009 -1.8603
  837MPD2     C12353   0.097   0.088  10.791  0.0108 -0.4195 -0.2499
  837MPD2    C112354   0.159   0.061  10.672 -0.2620 -0.2313 -0.6423
  837MPD2    C212355   0.251   0.152  10.629 -0.0322 -0.0408 -0.2154
  837MPD2    C312356   0.291   0.266  10.701  0.0752  0.0672  0.3698
  837MPD2    C412357   0.218   0.292  10.818  0.7697  0.8701 -0.0413
  837MPD2    C512358   0.128   0.201  10.865 -0.9007 -0.1164  0.5550
  837MPD2     H12359   0.299   0.128  10.534 -2.1751  2.1546 -1.8414
  837MPD2    H112360   0.217   0.380  10.881 -1.9773  0.9841 -0.2312
  837MPD2    H212361   0.026   0.012  10.823  0.3119 -1.2047 -1.4503
  837MPD2    H312362   0.079   0.217  10.961  0.0551 -0.7077  1.1369
  837MPD2     N12363   0.360   0.365  10.627  0.3820  0.5215 -0.4466
  837MPD2    H512364   0.396   0.326  10.541 -2.3771  0.4492 -1.5872
  837MPD2    N112365   0.120   4.689  10.589 -0.5408  0.0262 -0.3119
  837MPD2    H712366   0.166   4.692  10.498  0.9291  0.9075  0.4664
  838MPD2     C12367   2.988   3.482  11.643 -0.6925  0.3881  0.0497
  838MPD2    C112368   2.855   3.461  11.640 -0.0865  0.6055  0.1784
  838MPD2    C212369   2.797   3.418  11.757 -0.3632  0.5834  0.2089
  838MPD2    C312370   2.865   3.382  11.872  0.4321  0.9273  0.4656
  838MPD2    C412371   3.001   3.397  11.868  0.8105  0.0664  0.8217
  838MPD2    C512372   3.064   3.450  11.757 -0.2111  0.9703 -0.0772
  838MPD2     H12373   2.691   3.396  11.757 -0.2733  0.1228 -1.1085
  838MPD2    H112374   3.062   3.381  11.956  1.9929  1.0057  0.1786
  838MPD2    H212375   3.042   3.503  11.551 -1.3720  0.9297 -0.2214
  838MPD2    H312376   3.171   3.465  11.760 -0.1414  0.5297 -0.4595
  838MPD2     N12377   2.788   3.325  11.977  1.2066 -0.2041 -0.4953
  838MPD2    H512378   2.687   3.312  11.971  0.7976  3.2797 -1.1398
  838MPD2    N112379   2.779   3.470  11.520 -0.3052 -0.2945  0.4850
  838MPD2    H712380   2.687   3.426  11.521 -0.2590 -0.3951  0.0376
  839MPD2     C12381   2.361   2.841  11.520 -0.4506  0.0182  0.2381
  839MPD2    C112382   2.477   2.813  11.464 -0.1484  0.0030  0.0803
  839MPD2    C212383   2.543   2.913  11.390 -0.8100  0.2429  0.2367
  839MPD2    C312384   2.482   3.038  11.373 -0.3123  0.9229  0.8938
  839MPD2    C412385   2.358   3.063  11.436 -1.1370  0.1494 -0.1496
  839MPD2    C512386   2.298   2.962  11.505  0.0899 -0.2098  0.1232
  839MPD2     H12387   2.641   2.890  11.349 -0.0354  2.4266  0.8665
  839MPD2    H112388   2.317   3.164  11.431  0.1014  0.7014  0.7831
  839MPD2    H212389   2.302   2.775  11.581 -1.8005  1.3066  0.3293
  839MPD2    H312390   2.199   2.976  11.548 -0.4369  1.3603 -1.5634
  839MPD2     N12391   2.537   3.143  11.300 -0.7539  0.1861  0.5958
  839MPD2    H512392   2.500   3.236  11.317  4.0249  2.3812 -0.9778
  839MPD2    N112393   2.545   2.694  11.475 -0.1871  0.8520 -0.7130
  839MPD2    H712394   2.635   2.683  11.430  0.9054 -3.5351  2.5392
  840MPD2     C12395   3.430   1.084  10.626  0.5140 -0.1590  0.2247
  840MPD2    C112396   3.414   1.007  10.738 -0.3385 -0.4947  0.2755
  840MPD2    C212397   3.522   0.984  10.821  0.0009 -0.6037  0.3158
  840MPD2    C312398   3.648   1.021  10.786 -0.0136  0.5592  0.0471
  840MPD2    C412399   3.667   1.077  10.665  0.9660  0.3783 -0.8852
  840MPD2    C512400   3.559   1.115  10.583  0.3451 -0.0735 -0.1834
  840MPD2     H12401   3.507   0.928  10.913 -1.4111 -3.4235 -1.6300
  840MPD2    H112402   3.765   1.103  10.627  0.4594  0.7727 -1.9157
  840MPD2    H212403   3.354   1.082  10.549  0.3046  0.7150  0.4154
  840MPD2    H312404   3.579   1.161  10.488  0.0916  0.1660 -0.1216
  840MPD2     N12405   3.764   0.996  10.861 -0.0074  0.1399  0.1049
  840MPD2    H512406   3.857   1.015  10.824 -0.9574  2.6138 -0.9842
  840MPD2    N112407   3.276   0.988  10.778  0.6676  0.3766  0.6234
  840MPD2    H712408   3.204   1.013  10.710 -0.5679  0.5568  2.0151
  841MPD2     C12409   3.295   4.153  14.448  0.6163  0.5572  0.0489
  841MPD2    C112410   3.216   4.191  14.549 -0.4485 -0.1696  0.0285
  841MPD2    C212411   3.281   4.259  14.653  0.0508  0.1436 -0.5127
  841MPD2    C312412   3.416   4.294  14.648 -0.2500  0.2181  0.1794
  841MPD2    C412413   3.492   4.241  14.546 -0.0433  0.3763  0.9551
  841MPD2    C512414   3.432   4.166  14.446 -0.2172 -0.2087 -0.1036
  841MPD2     H12415   3.219   4.309  14.726 -1.0146 -0.0747 -1.2726
  841MPD2    H112416   3.598   4.262  14.537  0.0970  0.0860  1.9800
  841MPD2    H212417   3.244   4.085  14.381  0.1746 -0.5323  1.4716
  841MPD2    H312418   3.502   4.118  14.378 -1.7439  0.0247 -1.8374
  841MPD2     N12419   3.460   4.379  14.746 -0.2238 -0.4147 -0.3014
  841MPD2    H512420   3.397   4.416  14.816  0.4545 -2.5235  1.4247
  841MPD2    N112421   3.073   4.180  14.548  0.1797  0.2120  0.5971
  841MPD2    H712422   3.034   4.154  14.459  1.7586  0.8362 -0.2681
  842MPD2     C12423   3.964   1.065  17.004 -0.1095  0.4643  0.1431
  842MPD2    C112424   3.878   0.959  16.982 -0.4674  0.6294  0.0837
  842MPD2    C212425   3.823   0.893  17.093  0.4509  0.6233 -0.6503
  842MPD2    C312426   3.849   0.944  17.222  0.0677  0.2642 -0.6661
  842MPD2    C412427   3.923   1.058  17.235 -0.5778  0.0838 -0.3427
  842MPD2    C512428   3.986   1.110  17.130  0.0936 -0.0574  0.2794
  842MPD2     H12429   3.744   0.821  17.075  0.7467 -0.3644  1.9656
  842MPD2    H112430   3.951   1.095  17.333  1.7080 -0.4591 -0.7892
  842MPD2    H212431   4.009   1.123  16.925 -0.0131  0.2277  0.0247
  842MPD2    H312432   4.052   1.195  17.140  0.0011  0.0486 -0.0130
  842MPD2     N12433   3.798   0.891  17.339 -0.2801  0.5650 -0.5361
  842MPD2    H512434   3.839   0.908  17.430  3.7003 -0.0176 -2.2262
  842MPD2    N112435   3.840   0.940  16.851 -0.3650 -0.0948  0.1052
  842MPD2    H712436   3.898   0.987  16.782 -0.2349  1.6632  1.4073
  843MPD2     C12437   1.271   1.814  17.288  0.1968 -0.3158 -0.1360
  843MPD2    C112438   1.208   1.845  17.407 -0.3040 -0.4399 -0.8090
  843MPD2    C212439   1.268   1.924  17.505  0.3484 -0.5197  0.6794
  843MPD2    C312440   1.405   1.952  17.495 -0.4906  0.1973  0.0296
  843MPD2    C412441   1.466   1.909  17.379 -0.8103 -0.5152  0.4315
  843MPD2    C512442   1.405   1.847  17.274 -0.3236  0.1527  0.0763
  843MPD2     H12443   1.214   1.955  17.594  0.4357  0.1704  0.4913
  843MPD2    H112444   1.574   1.922  17.371 -1.1919  2.3118 -0.0925
  843MPD2    H212445   1.230   1.741  17.219 -1.7944  0.1603  0.5602
  843MPD2    H312446   1.463   1.815  17.189 -1.3199  1.3116 -1.0547
  843MPD2     N12447   1.486   2.005  17.601  0.5358  0.4383 -0.4299
  843MPD2    H512448   1.580   2.036  17.580  0.8106 -0.9128 -1.2092
  843MPD2    N112449   1.086   1.785  17.417  0.6129  1.1615 -0.0900
  843MPD2    H712450   1.045   1.739  17.336  0.0518 -1.3790  1.6513
  844MPD2     C12451   4.312   0.376  16.672 -1.6364  0.0967  0.3792
  844MPD2    C112452   4.443   0.331  16.659 -0.7975 -0.4208 -0.8237
  844MPD2    C212453   4.543   0.389  16.732  0.4259  0.8969 -0.9078
  844MPD2    C312454   4.523   0.511  16.789  0.3915 -0.0839  0.3876
  844MPD2    C412455   4.396   0.567  16.789 -0.7853 -0.3136  0.9686
  844MPD2    C512456   4.292   0.495  16.733  0.3017 -0.3201 -0.5685
  844MPD2     H12457   4.640   0.342  16.720 -0.0806  0.0009 -1.5246
  844MPD2    H112458   4.377   0.668  16.824 -0.8614  0.5137 -1.5049
  844MPD2    H212459   4.229   0.334  16.617 -0.8914 -0.0520 -0.6358
  844MPD2    H312460   4.192   0.535  16.728  0.7737  0.7333 -1.3531
  844MPD2     N12461   4.634   0.578  16.851  0.2337  0.1798  0.6368
  844MPD2    H512462   4.730   0.546  16.842 -0.7393 -2.7837  0.7494
  844MPD2    N112463   4.481   0.215  16.581 -0.3922  0.8027  0.6571
  844MPD2    H712464   4.580   0.194  16.573 -0.0370  2.4505  0.6967
  845MPD2     C12465   4.611   1.518  17.155 -0.5341 -1.1427 -0.4349
  845MPD2    C112466   4.587   1.419  17.249 -0.1887  0.6905  0.2019
  845MPD2    C212467   4.641   1.293  17.232 -0.1830 -0.1948 -0.1521
  845MPD2    C312468   4.708   1.259  17.116  0.1114  0.4689  0.2513
  845MPD2    C412469   4.724   1.357  17.022  0.1224 -1.0163 -0.0400
  845MPD2    C512470   4.689   1.487  17.043  0.5851 -0.0083  0.4199
  845MPD2     H12471   4.624   1.215  17.306 -1.4228 -0.8292 -1.1051
  845MPD2    H112472   0.031   1.336  16.926 -0.6013 -1.8143 -0.2067
  845MPD2    H212473   4.558   1.613  17.156  0.7900 -0.3686 -4.1298
  845MPD2    H312474   4.699   1.566  16.969  0.4301  0.8025  1.2626
  845MPD2     N12475   0.009   1.124  17.095 -0.3033  0.3492  0.0798
  845MPD2    H512476   0.026   1.092  17.000  3.2681  2.5719 -0.0339
  845MPD2    N112477   4.502   1.451  17.357 -0.4967 -0.0669  0.0303
  845MPD2    H712478   4.469   1.547  17.350 -0.1953 -0.1036 -1.8601
  846MPD2     C12479   1.068   1.904  13.778  0.0736  0.1032  0.0073
  846MPD2    C112480   0.972   1.989  13.809  0.4728  0.3062 -0.4731
  846MPD2    C212481   0.923   1.992  13.945 -0.0262 -0.4525 -0.2830
  846MPD2    C312482   0.977   1.897  14.039 -0.4127  0.1177 -0.1116
  846MPD2    C412483   1.070   1.805  14.004  0.0789 -0.3511 -0.2187
  846MPD2    C512484   1.118   1.814  13.874  0.4190 -0.3576 -0.4715
  846MPD2     H12485   0.845   2.065  13.962  1.2915  1.1665 -1.2151
  846MPD2    H112486   1.121   1.742  14.076  0.0386  0.6256  0.6619
  846MPD2    H212487   1.126   1.895  13.687  0.8422 -3.2845  0.8194
  846MPD2    H312488   1.194   1.744  13.840  0.4309 -0.7518  0.3526
  846MPD2     N12489   0.914   1.886  14.165  0.2200  0.2600  0.0730
  846MPD2    H512490   0.843   1.959  14.172  1.9234  1.9428 -0.2999
  846MPD2    N112491   0.920   2.090  13.717  0.7974 -0.1267  0.2893
  846MPD2    H712492   0.862   2.161  13.760 -1.6091 -0.8635 -1.7138
  847MPD2     C12493   1.003   2.717  14.797 -0.2477  0.0356 -0.3632
  847MPD2    C112494   1.104   2.808  14.773 -0.3532 -0.0672  1.2710
  847MPD2    C212495   1.227   2.760  14.746 -0.2406  0.4733  0.8175
  847MPD2    C312496   1.261   2.630  14.726  0.5213  0.1408  0.4670
  847MPD2    C412497   1.155   2.539  14.735 -0.0999  0.3582 -0.1057
  847MPD2    C512498   1.033   2.582  14.778 -0.1518 -1.2051  0.3818
  847MPD2     H12499   1.311   2.829  14.749  0.8944 -0.9965  2.5955
  847MPD2    H112500   1.173   2.433  14.716  1.0619  0.4776  0.3336
  847MPD2    H212501   0.903   2.754  14.816 -0.3286 -0.8451  0.9438
  847MPD2    H312502   0.954   2.509  14.793  1.0618 -2.5552  0.2099
  847MPD2     N12503   1.398   2.589  14.695 -0.0974 -1.0695 -0.1538
  847MPD2    H512504   1.463   2.666  14.686  0.1945 -1.5102 -1.8152
  847MPD2    N112505   1.099   2.947  14.790  0.3530 -0.3385 -0.8861
  847MPD2    H712506   1.183   3.001  14.772  0.5926 -0.3927  0.0848
  848MPD2     C12507   4.124   0.865  16.746  0.1251 -0.3517 -1.3014
  848MPD2    C112508   4.226   0.902  16.835 -0.6402  0.8355  0.0049
  848MPD2    C212509   4.320   1.004  16.808  0.4946 -0.1912  0.3108
  848MPD2    C312510   4.318   1.063  16.680  0.0288  0.3902  0.6788
  848MPD2    C412511   4.222   1.025  16.592  0.5565 -0.5769  0.2388
  848MPD2    C512512   4.131   0.933  16.627  0.1819 -0.3058 -0.8096
  848MPD2     H12513   4.397   1.033  16.879 -2.2809  0.5862  3.0163
  848MPD2    H112514   4.210   1.071  16.494 -2.7385  0.6546  1.2115
  848MPD2    H212515   4.053   0.785  16.756 -0.1928  0.2593  1.2897
  848MPD2    H312516   4.047   0.914  16.562 -1.0611  0.1889  0.6458
  848MPD2     N12517   4.395   1.179  16.649  0.7838  0.1054  0.1328
  848MPD2    H512518   4.377   1.223  16.560 -0.4932  0.7901  0.7332
  848MPD2    N112519   4.245   0.830  16.956 -0.1831  0.1583  0.0230
  848MPD2    H712520   4.320   0.857  17.019  1.6227  0.6619 -2.3185
  849MPD2     C12521   3.310   0.937  13.872 -0.5948 -0.8040 -0.0556
  849MPD2    C112522   3.418   0.872  13.922 -0.1878 -0.0186  0.1479
  849MPD2    C212523   3.404   0.780  14.025 -0.8169 -0.0446  0.1040
  849MPD2    C312524   3.282   0.770  14.085  0.7614 -0.0167  0.7441
  849MPD2    C412525   3.176   0.851  14.047 -0.8431 -0.2178  0.9030
  849MPD2    C512526   3.192   0.930  13.931 -0.2228  0.8451  0.3784
  849MPD2     H12527   3.472   0.698  14.047 -1.6028 -1.1283 -1.4847
  849MPD2    H112528   3.074   0.842  14.083 -1.3861 -1.1079 -0.8668
  849MPD2    H212529   3.320   1.010  13.793  0.3745  2.0630  2.7182
  849MPD2    H312530   3.114   0.996  13.895  0.3087  2.5886  2.3729
  849MPD2     N12531   3.278   0.666  14.174  0.0210  0.0893 -0.0578
  849MPD2    H512532   3.355   0.602  14.188 -1.0607 -1.6360 -1.9270
  849MPD2    N112533   3.538   0.881  13.846  0.6999 -0.0083 -0.6202
  849MPD2    H712534   3.537   0.944  13.766  1.9354 -2.2468 -2.3698
  850MPD2     C12535   1.506   3.659  14.649  0.5098 -0.1741  0.0777
  850MPD2    C112536   1.491   3.754  14.750 -0.1839 -0.4504  0.3387
  850MPD2    C212537   1.600   3.827  14.807  0.4438 -0.0524 -0.1757
  850MPD2    C312538   1.725   3.797  14.754 -0.1885 -0.5380  0.1816
  850MPD2    C412539   1.744   3.701  14.660  0.0556 -0.0228  0.4310
  850MPD2    C512540   1.637   3.639  14.601 -0.0017  0.3147 -0.4117
  850MPD2     H12541   1.584   3.903  14.882 -1.3379  2.5733 -3.2435
  850MPD2    H112542   1.841   3.666  14.627  0.8039  2.6351 -0.2278
  850MPD2    H212543   1.414   3.614  14.615 -1.3183  2.1236  1.9717
  850MPD2    H312544   1.651   3.563  14.525  4.3920  2.1144 -1.3812
  850MPD2     N12545   1.843   3.854  14.807 -0.1601  0.5353 -0.0955
  850MPD2    H512546   1.930   3.821  14.767 -0.3602  0.7289 -0.6929
  850MPD2    N112547   1.358   3.770  14.787 -1.0776 -0.1636 -0.3658
  850MPD2    H712548   1.293   3.731  14.720  0.1244 -2.8582  0.0408
  851MPD2     C12549   1.972   3.670  15.392  0.0259  0.3188  0.4469
  851MPD2    C112550   1.866   3.620  15.325  0.1631 -0.6127  0.1634
  851MPD2    C212551   1.858   3.481  15.319 -0.4559 -0.1281  0.7980
  851MPD2    C312552   1.955   3.399  15.378  0.0281 -0.1921 -0.3535
  851MPD2    C412553   2.060   3.448  15.442 -1.2632 -0.4848  0.2632
  851MPD2    C512554   2.069   3.587  15.451 -0.5294 -0.1603  0.7717
  851MPD2     H12555   1.770   3.433  15.278  0.8685 -1.7242 -0.1550
  851MPD2    H112556   2.136   3.384  15.484  0.9155  2.2065  0.4636
  851MPD2    H212557   1.982   3.776  15.414  0.0381  0.3122  0.4731
  851MPD2    H312558   2.152   3.634  15.503  0.0910  2.5266 -2.5953
  851MPD2     N12559   1.944   3.259  15.350 -0.3750 -0.5125  0.1371
  851MPD2    H512560   1.868   3.223  15.293  1.1183 -0.1705 -2.1047
  851MPD2    N112561   1.765   3.702  15.284  0.0134 -0.1018  0.1489
  851MPD2    H712562   1.773   3.800  15.311 -0.9421  0.3379 -1.1571
  852MPD2     C12563   1.104   1.616  10.489  0.9925 -0.2629  0.3580
  852MPD2    C112564   1.094   1.700  10.599 -0.5460 -0.5972 -0.5346
  852MPD2    C212565   1.139   1.833  10.581  0.3049 -0.0397 -0.5869
  852MPD2    C312566   1.193   1.873  10.459 -0.2655 -0.6453  0.0229
  852MPD2    C412567   1.186   1.794  10.350  0.0106 -0.5781 -0.6574
  852MPD2    C512568   1.137   1.668  10.365  0.1813  0.2573  0.1563
  852MPD2     H12569   1.146   1.893  10.671  3.5774  1.9302 -2.1595
  852MPD2    H112570   1.215   1.822  10.249 -0.9328 -2.7332 -1.5330
  852MPD2    H212571   1.074   1.513  10.504  0.9458 -0.3044 -0.0237
  852MPD2    H312572   1.126   1.603  10.279  4.1329  0.5617 -0.5931
  852MPD2     N12573   1.245   2.001  10.443  0.2045 -0.4888 -0.2893
  852MPD2    H512574   1.231   2.068  10.518  0.5971  1.0718 -1.6171
  852MPD2    N112575   1.062   1.659  10.729 -0.6974 -0.4114 -0.6253
  852MPD2    H712576   1.067   1.726  10.805  0.6948  1.0239 -1.9906
  853MPD2     C12577   2.750   1.538  12.829  0.3491 -0.7666  0.5388
  853MPD2    C112578   2.822   1.654  12.816  0.3998  0.7022  0.2979
  853MPD2    C212579   2.893   1.678  12.699 -0.4147  0.5821 -0.6161
  853MPD2    C312580   2.899   1.584  12.599  1.0481 -0.0055 -0.4752
  853MPD2    C412581   2.835   1.465  12.613  0.0980 -0.3608  0.0276
  853MPD2    C512582   2.763   1.440  12.729 -0.0682 -0.2103  0.3028
  853MPD2     H12583   2.953   1.768  12.694  0.9240 -0.3138 -0.8330
  853MPD2    H112584   2.847   1.389  12.537  1.4439 -0.4876  0.3703
  853MPD2    H212585   2.687   1.508  12.913  0.7323 -0.2264  1.0205
  853MPD2    H312586   2.718   1.342  12.743  0.9670 -0.9850 -1.7019
  853MPD2     N12587   2.975   1.598  12.481  0.5296 -0.0060  0.0493
  853MPD2    H512588   2.969   1.530  12.405  2.7815 -0.0291 -0.1260
  853MPD2    N112589   2.830   1.742  12.926 -0.1536 -0.5110 -0.0668
  853MPD2    H712590   2.788   1.715  13.015 -2.0366 -0.4585 -0.9421
  854MPD2     C12591   4.473   1.500  12.872  0.7287 -0.4960  0.4668
  854MPD2    C112592   4.563   1.553  12.964  0.0598  0.5144 -0.2468
  854MPD2    C212593   4.672   1.476  13.008 -0.2426  0.2901 -0.1520
  854MPD2    C312594   4.699   1.348  12.961 -0.5931 -0.0821 -0.5727
  854MPD2    C412595   4.599   1.299  12.871 -0.6606  0.1606 -0.1188
  854MPD2    C512596   4.494   1.375  12.820  0.5593 -0.0350  0.3117
  854MPD2     H12597   4.736   1.524  13.081 -1.9857  3.0171 -0.4075
  854MPD2    H112598   4.604   1.194  12.842  0.3185 -0.1432  1.1705
  854MPD2    H212599   4.384   1.552  12.839  0.8014 -0.4647  0.3221
  854MPD2    H312600   4.425   1.336  12.745  0.5468  0.6709 -0.0421
  854MPD2     N12601   0.062   1.260  13.010 -0.0220  0.3622 -0.2213
  854MPD2    H512602   0.109   1.298  13.093  1.6606 -1.2516 -0.4189
  854MPD2    N112603   4.531   1.678  13.015  0.2755  0.1676  0.3001
  854MPD2    H712604   4.457   1.732  12.972  0.6657 -1.2427 -2.1162
  855MPD2     C12605   0.443   1.354  13.739  0.3947 -0.2954  0.2157
  855MPD2    C112606   0.439   1.218  13.714  0.0430  0.3847  0.4092
  855MPD2    C212607   0.423   1.166  13.587  0.3012 -0.5422 -0.4206
  855MPD2    C312608   0.410   1.257  13.492 -0.0340  1.0657 -0.5245
  855MPD2    C412609   0.419   1.393  13.514 -0.3312 -0.4549 -0.2726
  855MPD2    C512610   0.436   1.447  13.636  0.6426 -0.3195  0.4010
  855MPD2     H12611   0.420   1.059  13.570  0.1823 -0.8040  1.2562
  855MPD2    H112612   0.409   1.460  13.429  2.1223  0.0144 -0.1969
  855MPD2    H212613   0.458   1.399  13.837  0.6016 -1.0096  0.5106
  855MPD2    H312614   0.457   1.552  13.650  1.8025 -0.6452  1.1325
  855MPD2     N12615   0.391   1.221  13.356  0.7477 -0.7688  0.3278
  855MPD2    H512616   0.365   1.293  13.289  2.7984 -0.3283  0.0115
  855MPD2    N112617   0.445   1.129  13.821 -0.3507  0.3872 -0.7053
  855MPD2    H712618   0.415   1.033  13.804  1.0648  0.1165 -1.7068
  856MPD2     C12619   2.536   1.864  14.219 -0.2963  0.6399 -0.1150
  856MPD2    C112620   2.520   1.990  14.166  0.0486 -0.6020  0.0547
  856MPD2    C212621   2.396   2.036  14.122 -0.2241  1.0088 -0.5171
  856MPD2    C312622   2.280   1.958  14.135 -0.1129 -0.4143  0.4010
  856MPD2    C412623   2.298   1.835  14.194 -0.1364 -0.3245  0.4277
  856MPD2    C512624   2.420   1.790  14.231  1.1543  0.1271  0.0882
  856MPD2     H12625   2.395   2.135  14.078 -1.2827  1.4309  0.4487
  856MPD2    H112626   2.219   1.762  14.202 -1.9803  1.4418 -1.7983
  856MPD2    H212627   2.625   1.807  14.241  0.2484  0.2329 -3.3771
  856MPD2    H312628   2.430   1.685  14.255 -2.5653 -0.4990 -0.9994
  856MPD2     N12629   2.149   1.995  14.104 -0.3578  0.0429  0.0765
  856MPD2    H512630   2.075   1.935  14.137  0.0192 -0.6833 -0.3754
  856MPD2    N112631   2.633   2.077  14.140  0.5727  0.3063 -0.0131
  856MPD2    H712632   2.609   2.159  14.085 -0.5636  1.0300  1.5624
  857MPD2     C12633   3.353   4.277  13.113 -0.3802 -0.6602 -0.0763
  857MPD2    C112634   3.490   4.259  13.087  0.2022  0.5648  0.2157
  857MPD2    C212635   3.580   4.361  13.115 -0.1303 -0.3008 -0.3413
  857MPD2    C312636   3.531   4.481  13.168 -0.5260 -1.2726 -0.4406
  857MPD2    C412637   3.406   4.495  13.207  0.0026  0.3556 -0.2731
  857MPD2    C512638   3.318   4.388  13.183  0.1993 -0.2127 -0.6294
  857MPD2     H12639   3.684   4.356  13.085  1.0662  2.6786  3.2872
  857MPD2    H112640   3.376   4.590  13.251 -2.2980 -1.1338  1.3686
  857MPD2    H212641   3.277   4.202  13.092 -1.1941  0.0883  0.1888
  857MPD2    H312642   3.215   4.397  13.215  0.4145 -1.0213  0.3049
  857MPD2     N12643   3.624   4.585  13.178  0.1542 -0.1551 -0.1963
  857MPD2    H512644   3.718   4.569  13.143  0.2403 -1.0221  0.4405
  857MPD2    N112645   3.534   4.149  13.012  0.1094 -0.1683  0.5574
  857MPD2    H712646   3.462   4.094  12.966 -0.2861  0.3275  0.5783
  858MPD2     C12647   0.228   3.432  16.451  0.6990  0.5461  0.7046
  858MPD2    C112648   0.187   3.308  16.484 -0.4614  0.0786 -0.1010
  858MPD2    C212649   0.137   3.276  16.614  1.0327 -0.3316  0.0049
  858MPD2    C312650   0.130   3.380  16.705  0.0864  0.2517 -0.1453
  858MPD2    C412651   0.172   3.501  16.680  0.5068  0.1145 -0.3840
  858MPD2    C512652   0.213   3.528  16.549  1.1797 -0.1382 -0.1259
  858MPD2     H12653   0.103   3.176  16.635 -1.6700  0.3893 -0.8854
  858MPD2    H112654   0.160   3.587  16.745  0.4733 -0.8855  0.9328
  858MPD2    H212655   0.262   3.467  16.354  0.9116  0.9670  0.9307
  858MPD2    H312656   0.240   3.629  16.518  0.6186 -0.2465 -0.9972
  858MPD2     N12657   0.055   3.365  16.826 -0.1932 -0.2771 -0.0098
  858MPD2    H512658   0.043   3.445  16.887 -2.7759 -0.8740  0.2698
  858MPD2    N112659   0.204   3.214  16.385 -0.1458  0.0921 -0.5305
  858MPD2    H712660   0.223   3.262  16.297  0.2737  1.0554  0.0901
  859MPD2     C12661   3.053   0.544  15.197  0.2185 -0.2463  0.0945
  859MPD2    C112662   3.154   0.572  15.285  0.0009  0.2176 -0.2917
  859MPD2    C212663   3.152   0.524  15.414  0.2681  0.3049 -0.2563
  859MPD2    C312664   3.043   0.445  15.451  0.6131 -0.8318  0.0063
  859MPD2    C412665   2.939   0.421  15.363  0.6291  0.3405  0.5678
  859MPD2    C512666   2.945   0.463  15.231 -0.3547 -0.7200  0.4424
  859MPD2     H12667   3.232   0.545  15.485 -0.9086 -1.7943  1.6805
  859MPD2    H112668   2.851   0.361  15.383  0.9292 -0.0544  0.7171
  859MPD2    H212669   3.062   0.599  15.104  0.4485 -1.0102 -0.3324
  859MPD2    H312670   2.858   0.449  15.168 -0.0784 -0.7471  0.0696
  859MPD2     N12671   3.047   0.374  15.578  0.3695 -0.2769 -0.0889
  859MPD2    H512672   2.980   0.299  15.590 -1.7820  1.5603 -0.5978
  859MPD2    N112673   3.253   0.659  15.242 -0.2371  0.5305  0.9838
  859MPD2    H712674   3.240   0.687  15.146  0.6410 -0.8591  0.4603
  860MPD2     C12675   1.089   1.997  12.072  0.8577 -0.1135  0.4204
  860MPD2    C112676   1.114   1.867  12.108  0.2416 -0.0257  0.6053
  860MPD2    C212677   1.028   1.771  12.070  0.1395 -0.5557 -0.1601
  860MPD2    C312678   0.900   1.804  12.021  0.2541  0.4249  0.9552
  860MPD2    C412679   0.880   1.939  11.985  0.0295  0.2805 -0.0379
  860MPD2    C512680   0.977   2.033  12.004 -0.0829  0.2518  0.6050
  860MPD2     H12681   1.050   1.668  12.098  2.6918 -0.5742 -2.2209
  860MPD2    H112682   0.783   1.973  11.948  0.1961 -0.4760 -1.1886
  860MPD2    H212683   1.148   2.078  12.114 -1.0011  1.1080  0.6976
  860MPD2    H312684   0.946   2.137  11.998  0.3621  0.3229 -0.4398
  860MPD2     N12685   0.801   1.706  12.012  0.6209  0.5877 -0.1756
  860MPD2    H512686   0.827   1.613  12.045 -1.9910  1.0130  3.1081
  860MPD2    N112687   1.231   1.819  12.162  0.0379 -0.1440 -0.6795
  860MPD2    H712688   1.234   1.717  12.164  1.3517 -0.0717  0.9881
  861MPD2     C12689   3.942   4.151  11.013  0.3311 -0.1503 -0.2636
  861MPD2    C112690   4.019   4.253  11.072 -0.0138 -0.2352  1.0392
  861MPD2    C212691   3.990   4.383  11.037 -0.0526 -0.5224  0.5178
  861MPD2    C312692   3.886   4.420  10.960 -0.4271  0.1977  0.8292
  861MPD2    C412693   3.817   4.318  10.893 -0.8767  0.4305 -0.5545
  861MPD2    C512694   3.843   4.188  10.926 -0.3311  0.0820 -0.2843
  861MPD2     H12695   4.046   4.460  11.088 -0.6590 -0.4589  1.0854
  861MPD2    H112696   3.732   4.337  10.830  0.0070  0.8884 -1.6016
  861MPD2    H212697   3.953   4.046  11.038 -0.1360  0.0349  0.7038
  861MPD2    H312698   3.780   4.109  10.888  0.0783 -1.0226  1.3664
  861MPD2     N12699   3.845   4.554  10.925 -0.6204  0.2008  0.4329
  861MPD2    H512700   3.777   4.566  10.850  1.0256  0.5474 -1.0147
  861MPD2    N112701   4.132   4.240  11.150 -0.3707  0.2507  0.4636
  861MPD2    H712702   4.182   4.323  11.180 -0.2321  0.0268  0.8506
  862MPD2     C12703   3.772   0.201  10.326  0.1306 -0.3733 -0.2347
  862MPD2    C112704   3.781   0.092  10.409  0.0851 -0.1912 -0.5078
  862MPD2    C212705   3.724   4.716  10.366  0.3701  0.7164  0.5315
  862MPD2    C312706   3.671   4.709  10.240 -0.3581  0.2147 -0.3883
  862MPD2    C412707   3.665   0.080  10.156  0.0918  0.0959  0.5479
  862MPD2    C512708   3.709   0.196  10.202  0.7866 -0.1725  0.1871
  862MPD2     H12709   3.730   4.628  10.429  0.8554 -1.7205 -2.9420
  862MPD2    H112710   3.624   0.070  10.057 -0.2990 -0.1684  0.7356
  862MPD2    H212711   3.782   0.302  10.366  0.0849 -1.4413  2.4467
  862MPD2    H312712   3.691   0.285  10.143  1.7352  0.4398  0.8294
  862MPD2     N12713   3.628   4.579  10.197  0.3600  0.3451 -0.4305
  862MPD2    H512714   3.667   4.503  10.253 -1.6737 -0.1038  0.3837
  862MPD2    N112715   3.819   0.096  10.547  0.1852 -0.9454 -0.4108
  862MPD2    H712716   3.790   0.015  10.601 -0.7185  0.1735  0.7685
  863MPD2     C12717   2.885   1.975  16.473  0.3450  0.2775 -0.0973
  863MPD2    C112718   2.985   2.061  16.485 -1.0278 -0.6888  0.2750
  863MPD2    C212719   3.086   2.047  16.574 -0.4889 -0.5320  0.1069
  863MPD2    C312720   3.084   1.933  16.660 -0.3161  0.0690 -0.0814
  863MPD2    C412721   2.988   1.834  16.647  0.0962 -0.1222 -0.3955
  863MPD2    C512722   2.882   1.867  16.564 -0.5324  0.0737 -0.8165
  863MPD2     H12723   3.163   2.124  16.569 -1.4542  0.3124 -1.5265
  863MPD2    H112724   2.986   1.745  16.708 -0.6905  1.4229  1.8546
  863MPD2    H212725   2.801   1.981  16.406  0.5128  0.8567 -0.2557
  863MPD2    H312726   2.791   1.810  16.555 -0.7025  0.1358  0.4849
  863MPD2     N12727   3.193   1.904  16.754  0.1676 -0.1137 -0.3890
  863MPD2    H512728   3.177   1.825  16.816 -0.3529 -0.1426 -0.5588
  863MPD2    N112729   2.976   2.177  16.404 -1.0606  0.4523 -0.0050
  863MPD2    H712730   2.921   2.170  16.319  0.5605 -1.6348 -0.8748
  864MPD2     C12731   3.373   3.274  17.147 -0.2027  0.2669 -0.5630
  864MPD2    C112732   3.393   3.218  17.026 -0.4315  0.6810  0.2754
  864MPD2    C212733   3.498   3.267  16.947  0.3344  0.0244 -0.2351
  864MPD2    C312734   3.577   3.378  16.981 -0.1318  0.7126 -0.2425
  864MPD2    C412735   3.558   3.430  17.103  0.1381 -0.4454 -0.2049
  864MPD2    C512736   3.457   3.376  17.184  0.2437  0.8840 -0.0956
  864MPD2     H12737   3.525   3.214  16.856 -0.7776 -0.2456 -0.4094
  864MPD2    H112738   3.606   3.516  17.150 -0.6723 -0.3358  0.4103
  864MPD2    H212739   3.290   3.252  17.212  0.1239 -0.5575 -0.4254
  864MPD2    H312740   3.434   3.427  17.277  1.0754  0.5552  0.2857
  864MPD2     N12741   3.673   3.432  16.893  0.3213  0.3314 -0.0657
  864MPD2    H512742   3.704   3.525  16.919  0.4011 -0.0861  1.3457
  864MPD2    N112743   3.328   3.099  16.995  0.0976 -0.2642  0.2797
  864MPD2    H712744   3.282   3.062  17.077 -0.5672 -1.6821 -0.7358
  865MPD2     C12745   3.918   3.802  16.139  0.2517  0.1575 -0.1439
  865MPD2    C112746   3.879   3.705  16.220 -0.0440 -0.2639  0.3185
  865MPD2    C212747   3.852   3.739  16.354 -0.2039 -0.0773 -0.3139
  865MPD2    C312748   3.890   3.860  16.405  0.4444 -0.5465 -0.3902
  865MPD2    C412749   3.932   3.956  16.317  0.0863  0.3767 -0.2789
  865MPD2    C512750   3.949   3.926  16.185 -0.6799 -0.1456 -0.2596
  865MPD2     H12751   3.810   3.663  16.419 -1.4496 -0.2369 -1.2959
  865MPD2    H112752   3.966   4.054  16.348 -0.1861  0.4644 -0.2537
  865MPD2    H212753   3.932   3.795  16.031  1.3009 -1.8216  0.1277
  865MPD2    H312754   3.996   3.995  16.115 -0.5890  0.9381  0.8667
  865MPD2     N12755   3.886   3.897  16.540 -0.2548 -0.5891 -0.6603
  865MPD2    H512756   3.890   3.998  16.550 -0.6536 -0.8878  2.4443
  865MPD2    N112757   3.864   3.574  16.170  0.5619  0.2844 -0.2936
  865MPD2    H712758   3.890   3.563  16.073  2.4787  1.7264  0.0557
  866MPD2     C12759   0.396   4.573  11.389 -0.6255 -0.4779  0.0424
  866MPD2    C112760   0.362   4.573  11.254  0.3402 -0.6601  0.6724
  866MPD2    C212761   0.238   4.613  11.214 -0.1197  1.1587  0.6031
  866MPD2    C312762   0.134   4.646  11.307  0.3245  0.1824 -0.5540
  866MPD2    C412763   0.176   4.638  11.440 -0.7159 -0.4226 -0.0913
  866MPD2    C512764   0.301   4.604  11.482  0.1731  0.4689  0.1565
  866MPD2     H12765   0.217   4.605  11.109  1.1959  0.1850  0.4078
  866MPD2    H112766   0.110   4.653  11.525  0.5502  1.4505  0.5728
  866MPD2    H212767   0.490   4.540  11.430 -0.1559  1.2767  0.4132
  866MPD2    H312768   0.319   4.598  11.589  0.6832 -1.1006 -0.0180
  866MPD2     N12769   0.000   4.676  11.277  0.2824  0.0302  0.0666
  866MPD2    H512770   4.686   4.698  11.360  0.1128  1.0668 -0.3112
  866MPD2    N112771   0.454   4.533  11.152  0.0967 -0.3864  0.0184
  866MPD2    H712772   0.428   4.512  11.056 -0.7728  0.9804 -0.0445
  867MPD2     C12773   2.328   3.612  16.212 -0.4669 -0.3711 -0.6146
  867MPD2    C112774   2.371   3.526  16.310  0.2702  0.0490 -0.2041
  867MPD2    C212775   2.322   3.540  16.439  0.2104 -0.0040 -0.0629
  867MPD2    C312776   2.241   3.644  16.481 -0.6686 -0.4010 -0.5374
  867MPD2    C412777   2.228   3.748  16.389 -0.2902  0.4617 -0.4039
  867MPD2    C512778   2.255   3.725  16.252  0.4660  0.2262 -0.2787
  867MPD2     H12779   2.350   3.471  16.518 -2.1357  0.6820  1.3377
  867MPD2    H112780   2.185   3.844  16.414 -1.4539 -1.1430  3.6355
  867MPD2    H212781   2.349   3.601  16.107 -0.0076 -0.8682 -0.4661
  867MPD2    H312782   2.232   3.802  16.179  0.3855  1.7017  1.2871
  867MPD2     N12783   2.193   3.650  16.615 -0.9326  0.3688  0.5857
  867MPD2    H512784   2.180   3.747  16.642  0.2716  0.4022  1.0925
  867MPD2    N112785   2.464   3.417  16.295  0.3446 -0.4669 -0.3965
  867MPD2    H712786   2.467   3.356  16.376 -0.5243  2.5048  1.8580
  868MPD2     C12787   4.080   3.140  13.258 -0.1276 -1.1338  0.0992
  868MPD2    C112788   4.128   3.032  13.328 -0.2938 -0.3158 -0.7530
  868MPD2    C212789   4.136   3.050  13.468 -0.0153  0.6488 -0.1556
  868MPD2    C312790   4.076   3.159  13.534  0.2088  0.2253 -0.2670
  868MPD2    C412791   4.029   3.264  13.452  0.5671 -0.1681  0.0595
  868MPD2    C512792   4.037   3.261  13.312 -0.0551 -0.2800  0.1009
  868MPD2     H12793   4.170   2.964  13.524 -2.1331  0.8264  1.3735
  868MPD2    H112794   3.981   3.353  13.493 -0.6695 -1.0302  0.4749
  868MPD2    H212795   4.063   3.133  13.151  0.5438 -0.9103 -0.0239
  868MPD2    H312796   3.991   3.338  13.252 -1.0382  0.1934  1.4597
  868MPD2     N12797   4.073   3.154  13.677  0.0266 -0.0517  0.3763
  868MPD2    H512798   4.133   3.089  13.727 -0.2758 -1.5484 -1.2161
  868MPD2    N112799   4.186   2.922  13.262 -0.1363  0.1629 -0.2395
  868MPD2    H712800   4.175   2.929  13.161 -2.4450  0.9510  0.0645
  869MPD2     C12801   0.943   0.648   0.796 -0.1664 -0.1771 -0.6070
  869MPD2    C112802   0.806   0.664   0.782  0.3282 -0.2643  0.0590
  869MPD2    C212803   0.759   0.799   0.808 -0.3400 -0.1383  0.3582
  869MPD2    C312804   0.843   0.905   0.850  0.0519  0.2821  0.2145
  869MPD2    C412805   0.980   0.872   0.873 -0.3839  0.4041  0.2806
  869MPD2    C512806   1.024   0.746   0.841 -0.2781 -0.6625 -0.9960
  869MPD2     H12807   0.653   0.802   0.786  0.2278 -0.2262 -2.4062
  869MPD2    H112808   1.043   0.949   0.917 -2.4839  0.4688  3.1574
  869MPD2    H212809   0.988   0.553   0.768  0.3861  0.0523 -0.5027
  869MPD2    H312810   1.131   0.737   0.855 -0.3782  2.1274  1.4835
  869MPD2     N12811   0.802   1.040   0.871 -0.3770  0.2689 -0.1514
  869MPD2    H512812   0.874   1.111   0.884  0.3427 -0.9976  2.7587
  869MPD2    N112813   0.719   0.565   0.735 -0.0177  0.3704 -0.7068
  869MPD2    H712814   0.620   0.590   0.740  0.1871  0.8661  1.0488
  870MPD2     C12815   0.920   3.799   1.205  1.1525 -0.2993  0.2678
  870MPD2    C112816   0.813   3.747   1.132  0.5164 -0.3491  0.0848
  870MPD2    C212817   0.701   3.817   1.108  0.4225  0.1753 -1.5603
  870MPD2    C312818   0.682   3.942   1.162 -0.0888 -0.2897  0.5919
  870MPD2    C412819   0.790   3.999   1.231 -0.1482  0.0464  0.9881
  870MPD2    C512820   0.896   3.926   1.258  0.5576  0.1496 -0.2242
  870MPD2     H12821   0.616   3.776   1.055  0.4887  1.9955 -3.0647
  870MPD2    H112822   0.781   4.099   1.273 -1.2939  0.0763  0.6812
  870MPD2    H212823   1.014   3.747   1.224  1.3806 -0.9975 -2.7294
  870MPD2    H312824   0.971   3.969   1.323 -0.0681 -0.6637  1.0175
  870MPD2     N12825   0.558   4.014   1.149 -0.7005  0.0150  0.1603
  870MPD2    H512826   0.485   3.979   1.088  0.7569 -2.6540 -0.0295
  870MPD2    N112827   0.840   3.616   1.090 -0.5803 -0.3057  0.1230
  870MPD2    H712828   0.931   3.582   1.123  0.2326 -1.4198 -3.2947
  871MPD2     C12829   1.125   3.368  16.895  1.0372 -0.5679  0.0829
  871MPD2    C112830   1.227   3.426  16.823 -0.2547  0.0081 -0.9201
  871MPD2    C212831   1.274   3.372  16.702  0.0872 -0.0317  0.1750
  871MPD2    C312832   1.207   3.267  16.645  0.2431 -0.4194  0.1101
  871MPD2    C412833   1.105   3.204  16.724 -0.1938 -0.2230 -0.1742
  871MPD2    C512834   1.072   3.256  16.846 -0.1093 -0.2444  0.1788
  871MPD2     H12835   1.361   3.413  16.653 -0.2940  1.6867  0.9528
  871MPD2    H112836   1.054   3.111  16.703 -0.3204  0.1000 -1.2729
  871MPD2    H212837   1.088   3.413  16.986 -1.0329 -0.0555 -0.9866
  871MPD2    H312838   0.993   3.204  16.898 -0.4086  2.4230  2.4198
  871MPD2     N12839   1.247   3.206  16.521 -0.3246 -0.3225  0.5878
  871MPD2    H512840   1.338   3.230  16.486  0.0576 -0.5150  1.4416
  871MPD2    N112841   1.278   3.549  16.876 -0.9497  0.1857 -0.5072
  871MPD2    H712842   1.240   3.591  16.961  1.4770  0.9232  0.2179
  872MPD2     C12843   2.121   1.865  13.767  0.6665  0.7189 -0.1605
  872MPD2    C112844   2.177   1.768  13.837  0.4373  0.3933  0.1560
  872MPD2    C212845   2.098   1.682  13.910  0.5835 -0.1693  0.5630
  872MPD2    C312846   1.961   1.681  13.892 -0.8194  1.0497  0.1371
  872MPD2    C412847   1.901   1.776  13.808  0.4788  0.1537 -0.4568
  872MPD2    C512848   1.980   1.873  13.756 -0.6446 -0.4208  0.8462
  872MPD2     H12849   2.139   1.604  13.972  0.0808 -1.4028 -0.6692
  872MPD2    H112850   1.794   1.785  13.793  0.6237 -1.7958 -2.5662
  872MPD2    H212851   2.181   1.928  13.702  0.2010 -0.1136 -1.3895
  872MPD2    H312852   1.945   1.959  13.699  0.2169  0.0673  1.0416
  872MPD2     N12853   1.883   1.583  13.951  0.4656  0.9337  0.6067
  872MPD2    H512854   1.928   1.529  14.024  1.0329 -0.8049 -1.0035
  872MPD2    N112855   2.314   1.774  13.853 -0.2005 -0.4952 -0.2909
  872MPD2    H712856   2.356   1.851  13.801  1.5302 -0.2165  1.5277
  873MPD2     C12857   4.049   0.875   0.933 -0.1498  0.3948 -0.3779
  873MPD2    C112858   3.971   0.985   0.912 -0.7071 -0.4519 -0.3660
  873MPD2    C212859   3.855   0.983   0.826  0.2562 -0.1149 -0.2348
  873MPD2    C312860   3.827   0.864   0.764 -0.1647 -0.6667  0.5272
  873MPD2    C412861   3.894   0.749   0.798  0.0054 -0.1447 -0.2178
  873MPD2    C512862   4.012   0.754   0.873  0.1503 -0.6186  0.0046
  873MPD2     H12863   3.792   1.070   0.809  0.5818 -0.0474 -1.0620
  873MPD2    H112864   3.870   0.657   0.745  4.2459 -0.6960 -1.1500
  873MPD2    H212865   4.132   0.884   1.002 -0.2692  3.0719 -0.5819
  873MPD2    H312866   4.075   0.669   0.894  0.8180 -0.2765 -0.6122
  873MPD2     N12867   3.728   0.848   0.659  0.0578  0.2323 -0.1154
  873MPD2    H512868   3.702   0.752   0.638  0.8408  0.1011 -0.4654
  873MPD2    N112869   4.008   1.105   0.985  0.2998  0.1007  0.1137
  873MPD2    H712870   4.083   1.098   1.053  3.0150 -0.7854 -2.9790
  874MPD2     C12871   3.875   1.329  16.129 -0.5125 -0.0056 -0.1951
  874MPD2    C112872   3.921   1.261  16.241 -0.8506 -0.2497  1.2484
  874MPD2    C212873   4.040   1.305  16.299 -0.3310 -0.0166  0.0098
  874MPD2    C312874   4.104   1.423  16.253 -0.1019  0.2164  0.0822
  874MPD2    C412875   4.051   1.490  16.138  0.3806 -0.5598 -0.0076
  874MPD2    C512876   3.940   1.441  16.086  0.3473  0.0355 -0.0620
  874MPD2     H12877   4.079   1.263  16.391 -2.1408  1.4753  1.4523
  874MPD2    H112878   4.089   1.586  16.105  0.8571 -1.3925 -1.9083
  874MPD2    H212879   3.781   1.306  16.081 -1.1172  0.5588  0.7250
  874MPD2    H312880   3.890   1.503  16.012 -1.4199 -2.4680 -0.9633
  874MPD2     N12881   4.226   1.465  16.316 -0.7097 -0.9567 -0.5243
  874MPD2    H512882   4.258   1.561  16.306 -1.6631 -0.6250 -0.3361
  874MPD2    N112883   3.845   1.159  16.296  0.7078  0.0471 -0.0701
  874MPD2    H712884   3.769   1.117  16.244  0.3212 -0.9729  1.3190
  875MPD2     C12885   4.564   4.021  14.450 -0.0017 -0.3775  1.1381
  875MPD2    C112886   4.554   4.147  14.391  0.0130 -0.7465 -0.4923
  875MPD2    C212887   4.593   4.258  14.470  0.4544 -0.1558  0.3001
  875MPD2    C312888   4.632   4.245  14.601 -0.0918 -0.0038 -0.1066
  875MPD2    C412889   4.636   4.122  14.658  0.1699  0.3866  0.0977
  875MPD2    C512890   4.620   4.013  14.574 -0.3766 -0.0943  1.2650
  875MPD2     H12891   4.593   4.359  14.430 -2.0663 -0.0908  0.4565
  875MPD2    H112892   4.679   4.113  14.758 -1.5916 -0.5125  0.7727
  875MPD2    H212893   4.549   3.926  14.399  1.4361  1.1351 -2.0519
  875MPD2    H312894   4.666   3.924  14.615 -0.0732 -1.5208 -2.2042
  875MPD2     N12895   4.668   4.345  14.687  0.0433  0.3251 -0.5951
  875MPD2    H512896   4.694   4.315  14.780 -1.4856  0.6416 -0.0791
  875MPD2    N112897   4.523   4.169  14.256  0.2333 -0.6962 -0.6615
  875MPD2    H712898   4.553   4.255  14.210  1.4444 -1.6948 -1.7413
  876MPD2     C12899   4.103   0.787  16.275  0.2389  0.1841  0.6089
  876MPD2    C112900   3.996   0.749  16.198  0.0658  0.5928 -0.4991
  876MPD2    C212901   3.916   0.640  16.247 -0.0227  0.2633  0.2283
  876MPD2    C312902   3.940   0.575  16.360 -1.1352 -0.7987  0.3155
  876MPD2    C412903   4.051   0.611  16.432 -0.4766  0.2722 -0.1835
  876MPD2    C512904   4.135   0.712  16.386 -0.1161 -0.0295 -0.0490
  876MPD2     H12905   3.821   0.620  16.200  0.3485  0.1586 -0.4886
  876MPD2    H112906   4.078   0.547  16.515 -1.4495  0.8541  0.5884
  876MPD2    H212907   4.176   0.862  16.245  1.9353 -1.3207  1.0039
  876MPD2    H312908   4.228   0.727  16.439  0.4852  1.2870 -1.4959
  876MPD2     N12909   3.870   0.458  16.389 -0.7698 -0.5237 -0.0754
  876MPD2    H512910   3.814   0.421  16.314 -1.1773 -2.3991  1.1557
  876MPD2    N112911   3.970   0.826  16.079  0.2022  0.1353  0.0031
  876MPD2    H712912   4.041   0.889  16.044  1.0782 -1.4816 -1.1633
  877MPD2     C12913   3.439   1.230  15.472 -0.0824 -0.4611 -0.2925
  877MPD2    C112914   3.577   1.222  15.459 -0.1379 -0.0946 -0.7942
  877MPD2    C212915   3.632   1.264  15.340 -0.8725 -0.6859 -0.4016
  877MPD2    C312916   3.555   1.299  15.235 -0.1196 -0.4295 -0.3470
  877MPD2    C412917   3.416   1.289  15.246 -0.1435 -0.3239  0.3532
  877MPD2    C512918   3.364   1.262  15.368 -0.1308 -0.0174  0.2731
  877MPD2     H12919   3.740   1.275  15.336 -0.4376 -5.0450 -0.1812
  877MPD2    H112920   3.344   1.332  15.177 -0.4410  1.8956  2.0384
  877MPD2    H212921   3.397   1.192  15.565  1.6818  1.8376  1.4618
  877MPD2    H312922   3.256   1.272  15.382 -0.2634  0.6217 -1.1903
  877MPD2     N12923   3.602   1.321  15.101  0.3669 -0.9530 -0.5334
  877MPD2    H512924   3.534   1.311  15.026 -1.0170 -1.5726  0.7904
  877MPD2    N112925   3.669   1.172  15.559  0.0016 -0.2313  0.3450
  877MPD2    H712926   3.763   1.158  15.525 -0.0091  1.0718 -0.2329
  878MPD2     C12927   3.499   0.886  13.009 -1.0353  0.3768  0.0587
  878MPD2    C112928   3.526   1.002  13.079  0.5572  0.0630 -0.4995
  878MPD2    C212929   3.593   1.000  13.202  0.2690 -0.2911  0.3538
  878MPD2    C312930   3.644   0.878  13.248  0.8454 -0.1607 -0.2498
  878MPD2    C412931   3.632   0.771  13.173 -0.0581  0.2437  0.1440
  878MPD2    C512932   3.565   0.776  13.056  0.4689 -0.2466  0.4282
  878MPD2     H12933   3.612   1.085  13.266  2.5417  0.4990 -1.3776
  878MPD2    H112934   3.660   0.669  13.197 -0.4542 -0.6245 -3.0458
  878MPD2    H212935   3.449   0.873  12.914  1.9557 -0.5116 -1.4247
  878MPD2    H312936   3.535   0.681  13.013 -1.4737  1.9047 -3.0110
  878MPD2     N12937   3.702   0.866  13.370  0.1477 -0.5004  0.4890
  878MPD2    H512938   3.705   0.953  13.422  2.6012  1.0903 -2.3033
  878MPD2    N112939   3.458   1.118  13.029 -0.7506  0.1578  0.7425
  878MPD2    H712940   3.404   1.106  12.944 -0.6920  0.1202  0.7109
  879MPD2     C12941   4.104   1.435  16.983  0.6291  0.2565 -0.3309
  879MPD2    C112942   4.018   1.533  16.951  0.2783  0.0796  0.0525
  879MPD2    C212943   3.971   1.554  16.815 -0.3666 -0.5031 -0.1658
  879MPD2    C312944   4.010   1.462  16.721  0.2387 -0.6453  0.0746
  879MPD2    C412945   4.087   1.350  16.762 -0.0011 -0.4504 -0.1581
  879MPD2    C512946   4.139   1.342  16.891  0.6295 -0.6462  0.7795
  879MPD2     H12947   3.908   1.640  16.792  1.2107  1.0798  1.3675
  879MPD2    H112948   4.111   1.271  16.692 -1.2320 -0.2561 -0.7970
  879MPD2    H212949   4.147   1.420  17.081  0.1822  0.0124 -0.1755
  879MPD2    H312950   4.207   1.264  16.924  0.2477 -0.5845  1.7299
  879MPD2     N12951   3.957   1.459  16.592 -0.4330 -0.5774  0.2426
  879MPD2    H512952   3.966   1.373  16.538 -3.5578 -1.2061  0.7487
  879MPD2    N112953   3.977   1.614  17.060 -0.0236  0.0283 -0.1301
  879MPD2    H712954   4.037   1.616  17.142  0.0667 -2.0510 -0.1450
  880MPD2     C12955   0.201   3.199   0.265 -0.5358  0.7703  0.0502
  880MPD2    C112956   0.293   3.290   0.312  1.0624  0.6436 -0.2763
  880MPD2    C212957   0.418   3.248   0.350  0.4916  0.9338  0.1911
  880MPD2    C312958   0.452   3.115   0.346  0.3812  0.0184 -0.8999
  880MPD2    C412959   0.366   3.027   0.292  0.4555 -0.2174  0.3072
  880MPD2    C512960   0.242   3.070   0.239  0.9943 -0.0288 -0.1261
  880MPD2     H12961   0.492   3.314   0.393  0.8636  1.4930 -1.3053
  880MPD2    H112962   0.395   2.923   0.284  2.1632  0.3066 -0.3879
  880MPD2    H212963   0.104   3.222   0.222 -0.5241 -0.8421 -0.8409
  880MPD2    H312964   0.171   3.007   0.186  0.9914  0.2916 -0.5106
  880MPD2     N12965   0.576   3.078   0.399 -0.0152  0.3926 -0.4057
  880MPD2    H512966   0.634   3.155   0.432  0.9554  0.6676 -2.7000
  880MPD2    N112967   0.258   3.431   0.314 -0.7188 -0.1085  0.4074
  880MPD2    H712968   0.165   3.451   0.277  0.4205  1.7394 -1.4039
  881MPD2     C12969   0.541   4.458   0.094  0.4502 -0.5153  0.4061
  881MPD2    C112970   0.575   4.334   0.045 -0.0761 -0.3794  0.3537
  881MPD2    C212971   0.507   4.227   0.090  0.5290 -0.1850 -0.2117
  881MPD2    C312972   0.404   4.247   0.188  0.2878  0.1491  0.7551
  881MPD2    C412973   0.373   4.372   0.233  0.0768  0.0509  0.3889
  881MPD2    C512974   0.441   4.478   0.184  0.0485  0.1091  0.5971
  881MPD2     H12975   0.530   4.128   0.053  0.7208 -0.1552 -0.1747
  881MPD2    H112976   0.303   4.388   0.315 -0.0594 -1.3962  0.5525
  881MPD2    H212977   0.589   4.546   0.054  0.4677 -0.3867  0.7081
  881MPD2    H312978   0.422   4.575   0.228  1.6234 -0.7307  3.0656
  881MPD2     N12979   0.332   4.131   0.241  0.2861 -0.2594 -0.4222
  881MPD2    H512980   0.241   4.147   0.283  1.0388  0.5078  0.9031
  881MPD2    N112981   0.645   4.340  17.670  0.2732 -0.4305 -0.1063
  881MPD2    H712982   0.674   4.431  17.635  1.2719 -0.6438  0.1460
  882MPD2     C12983   3.448   1.176  14.300 -0.2515 -0.2070  0.1347
  882MPD2    C112984   3.415   1.233  14.418 -0.0558  0.1271 -0.5834
  882MPD2    C212985   3.282   1.273  14.440 -0.2434  0.6052  0.7048
  882MPD2    C312986   3.185   1.238  14.342  0.3275  1.1120  0.1654
  882MPD2    C412987   3.229   1.189  14.223  0.5568 -0.2848  0.1983
  882MPD2    C512988   3.356   1.150  14.200  0.0697 -0.0264 -0.3750
  882MPD2     H12989   3.249   1.308  14.538  1.1880 -0.0554  1.4159
  882MPD2    H112990   3.165   1.172  14.138  0.1793  0.2791  0.3676
  882MPD2    H212991   3.550   1.143  14.288  0.6523  3.4101 -2.0448
  882MPD2    H312992   3.380   1.089  14.114  1.7036 -1.1532  0.8489
  882MPD2     N12993   3.048   1.264  14.368  0.7158  0.0728 -0.2649
  882MPD2    H512994   3.034   1.325  14.447 -2.0768  0.1036 -0.7963
  882MPD2    N112995   3.525   1.265  14.502 -0.2967  0.2841 -0.7847
  882MPD2    H712996   3.615   1.227  14.475 -0.2456  0.1930 -0.4865
  883MPD2     C12997   0.732   0.847  16.107  0.5132  0.9214 -0.2434
  883MPD2    C112998   0.813   0.907  16.014 -0.4782 -0.2713  0.2244
  883MPD2    C212999   0.933   0.957  16.046 -0.0940  0.1964  0.3036
  883MPD2    C313000   0.975   0.952  16.175 -0.3061  0.5835 -0.4083
  883MPD2    C413001   0.896   0.890  16.269 -0.8004  0.0693 -0.4606
  883MPD2    C513002   0.776   0.838  16.236 -0.2607 -0.0732  0.3283
  883MPD2     H13003   0.982   1.011  15.967 -0.0362  0.7364  0.7090
  883MPD2    H113004   0.928   0.894  16.373 -0.7269 -0.3304 -0.4678
  883MPD2    H213005   0.637   0.799  16.090  0.0011  1.8142  0.0766
  883MPD2    H313006   0.716   0.795  16.314  0.2775  0.5835  1.1045
  883MPD2     N13007   1.097   1.014  16.199  0.2180 -0.1529  0.7444
  883MPD2    H513008   1.156   1.033  16.119  2.0744  1.0796  2.4171
  883MPD2    N113009   0.780   0.927  15.884 -0.3791 -0.1757  0.6271
  883MPD2    H713010   0.852   0.970  15.827  0.0132 -1.7326 -0.0714
  884MPD2     C13011   2.806   2.088  15.022  0.3069 -0.2130 -0.2112
  884MPD2    C113012   2.716   2.136  14.931 -0.5093 -0.2534 -0.1141
  884MPD2    C213013   2.598   2.186  14.973 -0.8268  0.7726  0.5779
  884MPD2    C313014   2.571   2.177  15.109 -0.2887  0.1647  0.0389
  884MPD2    C413015   2.664   2.141  15.201  0.3660  0.8609  0.4364
  884MPD2    C513016   2.781   2.100  15.160  0.1564 -0.1415  0.3668
  884MPD2     H13017   2.525   2.217  14.899 -1.0558 -2.8381 -0.6972
  884MPD2    H113018   2.651   2.142  15.309 -2.9213 -0.6687  0.0774
  884MPD2    H213019   2.898   2.035  15.001  0.9651  0.4880  0.8909
  884MPD2    H313020   2.859   2.073  15.231 -0.3032  0.0607  0.9497
  884MPD2     N13021   2.439   2.208  15.155 -0.4922  0.3027  0.2278
  884MPD2    H513022   2.378   2.226  15.077 -1.3991 -0.5332  0.7467
  884MPD2    N113023   2.731   2.134  14.787  0.0304  0.0058  0.5237
  884MPD2    H713024   2.659   2.166  14.723 -0.5625  0.3181  1.3624
  885MPD2     C13025   0.865   2.557   0.337  0.6053 -0.2729  0.1835
  885MPD2    C113026   0.963   2.485   0.285  0.5649  0.4394 -0.6301
  885MPD2    C213027   0.951   2.435   0.158 -0.6088 -0.3353 -0.4815
  885MPD2    C313028   0.840   2.451   0.081 -0.1099 -0.3609  0.1117
  885MPD2    C413029   0.737   2.520   0.134  1.4703 -0.5685 -0.1316
  885MPD2    C513030   0.756   2.575   0.257  0.0238 -0.0567 -0.4872
  885MPD2     H13031   1.039   2.389   0.113  0.9044 -1.4945  3.5966
  885MPD2    H113032   0.646   2.543   0.079  0.3350 -3.0110  0.7249
  885MPD2    H213033   0.867   2.588   0.441  1.7667 -0.7681  0.3058
  885MPD2    H313034   0.674   2.629   0.304 -0.1878 -0.6013 -0.2327
  885MPD2     N13035   0.833   2.398  17.704 -0.5120  0.7371 -0.6555
  885MPD2    H513036   0.919   2.357  17.670 -1.2666 -2.0442  0.7997
  885MPD2    N113037   1.076   2.466   0.368  0.7544 -0.3410  0.0397
  885MPD2    H713038   1.067   2.500   0.463 -0.1653 -0.8762  0.1368
  886MPD2     C13039   2.363   0.898  15.498  0.0752  0.0484 -0.1589
  886MPD2    C113040   2.492   0.952  15.514  0.5135 -0.1292 -0.0605
  886MPD2    C213041   2.510   1.086  15.484 -0.1058 -0.4522  0.6696
  886MPD2    C313042   2.419   1.152  15.403 -0.0874  0.8454 -0.2766
  886MPD2    C413043   2.306   1.083  15.362  0.2806  0.2684 -0.4630
  886MPD2    C513044   2.273   0.963  15.415  0.0067  1.1767  0.7184
  886MPD2     H13045   2.605   1.133  15.510 -0.2480  0.2463 -0.0735
  886MPD2    H113046   2.232   1.125  15.295 -0.8024 -1.9958 -0.6832
  886MPD2    H213047   2.330   0.795  15.505 -1.3435  0.7021  3.1740
  886MPD2    H313048   2.175   0.919  15.399  0.8833 -0.5846  0.1749
  886MPD2     N13049   2.437   1.277  15.339  0.1275  0.1002  0.1804
  886MPD2    H513050   2.356   1.313  15.290  0.3113 -1.4322 -1.2264
  886MPD2    N113051   2.593   0.883  15.585  0.0633 -0.4399  1.0784
  886MPD2    H713052   2.672   0.937  15.619  0.4883 -0.0105 -0.6015
  887MPD2     C13053   3.069   0.943  16.134  0.1478  0.5197 -0.6605
  887MPD2    C113054   3.036   0.957  15.998  0.1926  0.0453 -0.1255
  887MPD2    C213055   3.095   1.059  15.927  0.6500  0.2464 -0.2022
  887MPD2    C313056   3.196   1.133  15.977  0.4251 -0.3520  0.4453
  887MPD2    C413057   3.229   1.116  16.111 -0.4203  0.5138  0.0858
  887MPD2    C513058   3.166   1.021  16.187  0.3010  0.3618 -0.6488
  887MPD2     H13059   3.056   1.066  15.826 -3.0396  0.3102  1.2267
  887MPD2    H113060   3.293   1.186  16.162  1.8913 -1.4227 -0.1748
  887MPD2    H213061   3.021   0.880  16.207  1.6325 -1.4512 -1.3694
  887MPD2    H313062   3.187   1.014  16.293 -0.5140  0.4385 -0.4853
  887MPD2     N13063   3.249   1.244  15.901 -0.7280 -0.3560  0.3580
  887MPD2    H513064   3.216   1.254  15.806  2.3872  2.3514 -0.4071
  887MPD2    N113065   2.947   0.877  15.925 -0.8572  0.3353 -0.3506
  887MPD2    H713066   2.933   0.900  15.827  2.5753 -0.0224 -0.9210
  888MPD2     C13067   4.488   0.579  14.899  0.2687  0.5700 -0.3219
  888MPD2    C113068   4.474   0.642  15.021  0.0777 -1.2588 -0.1565
  888MPD2    C213069   4.502   0.773  15.038  0.0928 -0.0003  0.0628
  888MPD2    C313070   4.536   0.852  14.923 -0.0030 -0.4060 -0.1604
  888MPD2    C413071   4.536   0.784  14.796 -0.0651 -0.2729  0.5518
  888MPD2    C513072   4.518   0.653  14.786  0.1665  0.3782 -0.0328
  888MPD2     H13073   4.498   0.822  15.134 -1.4255  2.0784 -1.0652
  888MPD2    H113074   4.556   0.829  14.699  0.5367 -1.3937  0.1499
  888MPD2    H213075   4.475   0.472  14.882  0.4824  1.0368 -3.3574
  888MPD2    H313076   4.526   0.601  14.691 -1.4880 -0.1160  0.0932
  888MPD2     N13077   4.577   0.987  14.946  0.0315  0.5506  0.4064
  888MPD2    H513078   4.600   1.011  15.041 -0.9607 -0.2825  0.8541
  888MPD2    N113079   4.440   0.573  15.139  0.5430 -0.0103  0.0071
  888MPD2    H713080   4.450   0.617  15.230 -0.8839  0.7126 -0.1882
  889MPD2     C13081   3.732   0.469  12.660  0.0326 -0.4286  0.8906
  889MPD2    C113082   3.738   0.482  12.806 -0.0441  0.2537  0.2721
  889MPD2    C213083   3.778   0.607  12.858  1.0178  0.0858 -0.4741
  889MPD2    C313084   3.778   0.719  12.775 -0.2975 -0.0486 -0.4065
  889MPD2    C413085   3.761   0.703  12.641 -0.1295 -0.3075  0.1987
  889MPD2    C513086   3.753   0.583  12.581  0.0287  0.0022 -0.2431
  889MPD2     H13087   3.788   0.619  12.965 -1.5152 -1.8784 -0.0069
  889MPD2    H113088   3.764   0.792  12.580 -2.3651 -0.1408  0.3140
  889MPD2    H213089   3.729   0.373  12.610  1.2959  0.7352 -1.3994
  889MPD2    H313090   3.751   0.569  12.473 -1.6559  1.3569 -0.3897
  889MPD2     N13091   3.792   0.845  12.837 -0.1139 -0.1642 -0.2387
  889MPD2    H513092   3.816   0.829  12.934 -0.7327 -1.8695 -0.3679
  889MPD2    N113093   3.744   0.365  12.886  0.2949 -0.0080 -0.6925
  889MPD2    H713094   3.753   0.384  12.985 -0.0723  1.2758 -0.8991
  890MPD2     C13095   3.626   2.133  14.583 -0.1256 -0.0831  0.4597
  890MPD2    C113096   3.698   2.240  14.632  0.4085  0.2662  0.3673
  890MPD2    C213097   3.795   2.220  14.727 -0.0082 -0.1527  0.6678
  890MPD2    C313098   3.846   2.098  14.761 -0.1252  0.0877 -0.7592
  890MPD2    C413099   3.789   1.989  14.699 -0.4145 -0.0348  0.4298
  890MPD2    C513100   3.680   2.009  14.612  0.0080  0.0552 -0.3089
  890MPD2     H13101   3.831   2.307  14.780 -0.3098  0.3924 -0.0118
  890MPD2    H113102   3.826   1.887  14.703  1.9453  0.7941  0.0167
  890MPD2    H213103   3.551   2.147  14.506 -2.1944 -0.5879  2.3585
  890MPD2    H313104   3.641   1.916  14.570 -1.1100  0.1915  0.4310
  890MPD2     N13105   3.946   2.085  14.855  0.1098 -0.1667 -0.2860
  890MPD2    H513106   3.977   2.172  14.895 -3.0185  0.8030  0.0677
  890MPD2    N113107   3.650   2.367  14.614 -0.2631 -0.3945 -0.5461
  890MPD2    H713108   3.557   2.382  14.576  0.3979  1.8582 -1.2790
  891MPD2     C13109   1.923   0.696  16.653  0.0211  0.5020 -0.2926
  891MPD2    C113110   1.822   0.668  16.744  0.4413  0.3608 -0.0255
  891MPD2    C213111   1.852   0.603  16.861  0.0051 -1.0843 -0.7836
  891MPD2    C313112   1.983   0.575  16.892  0.1251 -0.2265 -0.3739
  891MPD2    C413113   2.078   0.605  16.798  0.0443 -0.4485  0.1094
  891MPD2    C513114   2.052   0.671  16.683 -0.1069  0.0763  0.1946
  891MPD2     H13115   1.775   0.570  16.930  1.4155  1.5059  2.0497
  891MPD2    H113116   2.181   0.574  16.814 -0.1943 -0.0135  2.5630
  891MPD2    H213117   1.898   0.731  16.553 -1.9029  2.9829  1.0493
  891MPD2    H313118   2.125   0.701  16.610 -0.6783 -0.7625 -0.7265
  891MPD2     N13119   2.028   0.518  17.011  0.0097  0.2527  0.0910
  891MPD2    H513120   2.129   0.525  17.018 -0.1231  1.4494  0.8736
  891MPD2    N113121   1.699   0.700  16.693  0.3908 -0.1288  0.1453
  891MPD2    H713122   1.687   0.755  16.608  1.0563 -0.4761 -0.1781
  892MPD2     C13123   2.724   1.776  14.903  0.0785  0.5987 -0.1823
  892MPD2    C113124   2.617   1.775  14.820 -0.2505 -0.7251 -0.4776
  892MPD2    C213125   2.630   1.717  14.697  0.9374  0.3218  0.4142
  892MPD2    C313126   2.741   1.642  14.674 -0.5501 -0.3649  0.2113
  892MPD2    C413127   2.839   1.626  14.774  0.3853 -0.3515 -0.0077
  892MPD2    C513128   2.833   1.693  14.890  0.3335  0.0898  0.3064
  892MPD2     H13129   2.550   1.727  14.625  0.0346  0.9390  1.4890
  892MPD2    H113130   2.922   1.556  14.762 -0.0443 -0.9577  0.5637
  892MPD2    H213131   2.718   1.842  14.990 -0.5179 -1.3608  1.2654
  892MPD2    H313132   2.912   1.682  14.962  3.5341  0.6849 -3.1348
  892MPD2     N13133   2.757   1.562  14.557 -0.0265 -0.1284  0.0836
  892MPD2    H513134   2.844   1.512  14.539 -0.3026 -0.1220 -1.3132
  892MPD2    N113135   2.492   1.830  14.844  0.0446 -1.1337  0.5308
  892MPD2    H713136   2.425   1.818  14.769 -0.2513 -0.1128  0.6275
  893MPD2     C13137   4.066   0.254   1.637  0.3883  0.3326  0.3100
  893MPD2    C113138   4.110   0.271   1.505  0.3746  0.0407  0.2596
  893MPD2    C213139   4.020   0.275   1.397 -0.2201 -0.1811 -0.0650
  893MPD2    C313140   3.884   0.258   1.419  0.1793 -0.2374 -0.4331
  893MPD2    C413141   3.846   0.215   1.544 -0.3664 -0.2381 -0.0949
  893MPD2    C513142   3.935   0.212   1.651 -0.0095 -0.0775  0.4233
  893MPD2     H13143   4.058   0.302   1.298  0.0247  0.0742  0.0973
  893MPD2    H113144   3.744   0.182   1.559 -0.3749 -1.1231 -2.1768
  893MPD2    H213145   4.129   0.262   1.725 -0.9472  0.4555  1.2541
  893MPD2    H313146   3.902   0.195   1.753 -1.6230  0.5085 -0.0016
  893MPD2     N13147   3.782   0.264   1.321 -0.3427 -1.3018  0.1810
  893MPD2    H513148   3.686   0.250   1.347 -0.4635 -0.3141  0.2920
  893MPD2    N113149   4.252   0.287   1.495 -0.8198  0.0161 -0.0928
  893MPD2    H713150   4.296   0.286   1.587 -2.0908 -1.3496  0.4997
  894MPD2     C13151   2.522   2.073   0.974 -0.0034  0.6407  0.1222
  894MPD2    C113152   2.511   2.130   1.105  0.7159  0.4043 -0.1047
  894MPD2    C213153   2.551   2.257   1.125 -0.6054 -0.2092  0.0173
  894MPD2    C313154   2.601   2.329   1.027  0.1736 -0.6220 -0.6436
  894MPD2    C413155   2.626   2.273   0.903  0.3440  0.0322 -0.5850
  894MPD2    C513156   2.581   2.147   0.876  0.1887  0.0586 -0.1777
  894MPD2     H13157   2.558   2.297   1.226  0.3060 -0.9050  0.2298
  894MPD2    H113158   2.696   2.318   0.833  2.3187 -1.0521  0.7051
  894MPD2    H213159   2.493   1.970   0.955 -2.3088  1.4693 -0.8131
  894MPD2    H313160   2.592   2.114   0.774 -0.6556 -0.1213 -0.2096
  894MPD2     N13161   2.655   2.455   1.059  0.7619 -0.0272 -0.0019
  894MPD2    H513162   2.638   2.500   1.148  1.1784 -0.3277  0.2310
  894MPD2    N113163   2.465   2.057   1.212  0.9984 -0.7027  0.3177
  894MPD2    H713164   2.455   2.113   1.296  1.6064  0.5097 -0.4216
  895MPD2     C13165   1.218   1.029  14.070 -0.2118  0.2221  1.3504
  895MPD2    C113166   1.228   1.037  13.938 -0.2676  0.1578 -0.8990
  895MPD2    C213167   1.357   1.014  13.875 -0.6401  0.3817  0.3200
  895MPD2    C313168   1.474   0.995  13.949  0.2966 -0.0994  0.2237
  895MPD2    C413169   1.453   0.998  14.081 -0.0960  0.4424 -0.2778
  895MPD2    C513170   1.330   1.006  14.145 -0.0301 -0.3679 -0.1571
  895MPD2     H13171   1.368   1.030  13.768 -3.3636 -0.4638 -0.0959
  895MPD2    H113172   1.532   1.009  14.154  1.2740  0.8269 -1.8159
  895MPD2    H213173   1.125   1.050  14.121  0.9613 -0.1377  3.6495
  895MPD2    H313174   1.320   1.009  14.253 -0.0822 -0.3469 -0.1626
  895MPD2     N13175   1.599   0.976  13.887  0.2615 -0.6008 -1.0015
  895MPD2    H513176   1.581   0.981  13.788 -0.5855  0.7846 -0.7691
  895MPD2    N113177   1.121   1.062  13.852  0.0163  0.0977 -0.1728
  895MPD2    H713178   1.149   1.089  13.759 -0.0783  1.0102  0.0700
  896MPD2     C13179   4.304   3.340   1.352 -0.3046 -0.4553  0.7572
  896MPD2    C113180   4.254   3.341   1.223  0.1924  0.3325 -0.1353
  896MPD2    C213181   4.130   3.280   1.192 -0.6082 -0.3367  0.0551
  896MPD2    C313182   4.053   3.218   1.290 -0.8442 -0.2541  0.0367
  896MPD2    C413183   4.105   3.210   1.414  0.4642 -0.3355 -0.0870
  896MPD2    C513184   4.228   3.273   1.452  0.1556  0.3255  0.7153
  896MPD2     H13185   4.100   3.274   1.087  1.3346 -2.2109 -0.3816
  896MPD2    H113186   4.058   3.152   1.493 -0.9226 -1.6076 -1.8394
  896MPD2    H213187   4.406   3.376   1.363  0.5964 -2.3810 -1.0987
  896MPD2    H313188   4.273   3.262   1.550  0.9446  1.5245  0.4850
  896MPD2     N13189   3.921   3.167   1.267 -0.1622  0.3298 -0.3098
  896MPD2    H513190   3.905   3.138   1.171 -1.9719 -1.1663  0.4478
  896MPD2    N113191   4.341   3.397   1.125 -0.0091  0.3526  0.8213
  896MPD2    H713192   4.423   3.446   1.159 -0.0569  0.5856  0.6043
  897MPD2     C13193   0.973   1.104  10.867 -0.1744  0.1435  0.4449
  897MPD2    C113194   0.867   1.059  10.794  0.2392  0.6589 -0.0394
  897MPD2    C213195   0.768   0.973  10.849 -0.5156  0.0893  1.2105
  897MPD2    C313196   0.767   0.942  10.982 -0.0409  0.1730 -0.4218
  897MPD2    C413197   0.877   0.989  11.052  0.0566  0.6155  0.3954
  897MPD2    C513198   0.978   1.064  10.997  0.0762  0.4041  0.3572
  897MPD2     H13199   0.674   0.962  10.797  1.3045 -2.5918 -1.4759
  897MPD2    H113200   0.879   0.962  11.156 -1.1491  0.5311  0.3977
  897MPD2    H213201   1.054   1.164  10.827 -1.3411  1.9456  0.7965
  897MPD2    H313202   1.062   1.091  11.060  1.5749  1.9440 -2.3263
  897MPD2     N13203   0.653   0.876  11.042 -0.2938  1.0187  0.0859
  897MPD2    H513204   0.577   0.857  10.976 -1.0911  1.1465  0.9659
  897MPD2    N113205   0.856   1.110  10.668  0.1456  0.3732 -0.9261
  897MPD2    H713206   0.911   1.192  10.643 -1.1639  1.6597  0.3499
  898MPD2     C13207   2.084   0.820  17.307  1.1535  0.1115 -0.2553
  898MPD2    C113208   2.198   0.890  17.291  0.2365  0.6644 -0.4918
  898MPD2    C213209   2.186   1.012  17.222  0.2184 -0.2194 -0.8335
  898MPD2    C313210   2.065   1.050  17.163  0.5258  0.1660  0.6553
  898MPD2    C413211   1.959   0.976  17.196  0.9539 -0.1094  0.3743
  898MPD2    C513212   1.961   0.863  17.267 -0.0667 -0.0504 -0.1687
  898MPD2     H13213   2.270   1.075  17.198  0.7340  1.3298  5.1423
  898MPD2    H113214   1.857   1.007  17.177  0.2944 -2.7481 -0.3740
  898MPD2    H213215   2.081   0.730  17.368 -1.1400  0.6530  0.4082
  898MPD2    H313216   1.869   0.812  17.292 -0.5043  0.0547 -1.5586
  898MPD2     N13217   2.062   1.163  17.079 -0.0376  0.0540 -0.3681
  898MPD2    H513218   2.152   1.190  17.041 -0.0237 -0.6553 -0.8413
  898MPD2    N113219   2.321   0.862  17.350 -0.0135  0.0142  0.2357
  898MPD2    H713220   2.404   0.910  17.316 -0.4676  0.8967  0.3651
  899MPD2     C13221   3.336   1.380  17.059 -0.5995  0.8781  0.3850
  899MPD2    C113222   3.364   1.488  17.140 -0.1007 -0.4689  0.2153
  899MPD2    C213223   3.329   1.471  17.271  0.3455  0.0585  0.5070
  899MPD2    C313224   3.249   1.370  17.317  0.1128 -0.2535 -0.1550
  899MPD2    C413225   3.209   1.272  17.227  0.3163 -0.6510 -0.8442
  899MPD2    C513226   3.268   1.276  17.108 -0.4062 -0.7572  0.2172
  899MPD2     H13227   3.336   1.562  17.330  2.4820  0.2723 -0.0666
  899MPD2    H113228   3.127   1.208  17.261  0.4145 -1.7012 -2.5627
  899MPD2    H213229   3.352   1.394  16.953 -1.4241 -1.1623  0.0019
  899MPD2    H313230   3.231   1.202  17.039 -0.5088  0.3788 -0.9464
  899MPD2     N13231   3.186   1.378  17.440  0.2884 -0.3702 -0.2984
  899MPD2    H513232   3.102   1.324  17.458 -0.0807  0.5726  0.7737
  899MPD2    N113233   3.403   1.609  17.085 -0.5584 -0.0285 -0.2053
  899MPD2    H713234   3.427   1.611  16.986  0.0108  1.2243 -0.0368
  900MPD2     C13235   2.755   3.686  12.083 -0.5893 -0.2178 -0.2376
  900MPD2    C113236   2.715   3.637  12.206 -0.3578 -0.9345  0.4619
  900MPD2    C213237   2.583   3.659  12.243  0.2552 -0.0433 -0.4605
  900MPD2    C313238   2.488   3.707  12.153 -0.0156  0.1187  0.2213
  900MPD2    C413239   2.532   3.767  12.038  0.0253 -0.3354 -0.1077
  900MPD2    C513240   2.668   3.758  12.005  0.0806  0.1535  0.5127
  900MPD2     H13241   2.557   3.623  12.342  0.0339  1.1395 -0.0956
  900MPD2    H113242   2.465   3.812  11.965  0.7257 -1.1840 -1.2850
  900MPD2    H213243   2.860   3.684  12.057 -0.3447  0.3945  0.7092
  900MPD2    H313244   2.704   3.799  11.911 -0.9311  1.6229  0.7687
  900MPD2     N13245   2.355   3.717  12.196  0.2001 -0.1687  0.5305
  900MPD2    H513246   2.334   3.676  12.286 -0.8654  1.6787  1.1195
  900MPD2    N113247   2.811   3.568  12.285  0.4813  0.3693  0.5478
  900MPD2    H713248   2.904   3.582  12.248  1.1631 -1.0344  1.7780
  901MPD2     C13249   3.219   2.916  13.041  0.4594 -0.3353 -0.2029
  901MPD2    C113250   3.210   2.881  12.904  0.2720 -0.2943 -0.0181
  901MPD2    C213251   3.173   2.976  12.811  0.0160  0.1296  0.2958
  901MPD2    C313252   3.119   3.098  12.853 -0.5886 -1.0636  0.1757
  901MPD2    C413253   3.109   3.128  12.985 -0.2608  0.5280  0.5701
  901MPD2    C513254   3.168   3.038  13.072  1.6661 -0.1283  0.4752
  901MPD2     H13255   3.173   2.962  12.704 -1.7338  0.1969  0.2857
  901MPD2    H113256   3.078   3.227  13.014 -1.6515  0.7768 -1.7070
  901MPD2    H213257   3.262   2.852  13.117 -1.0441  1.6585  2.3552
  901MPD2    H313258   3.169   3.078  13.173 -1.3968 -1.4251  1.0361
  901MPD2     N13259   3.078   3.187  12.755  0.4346  1.1029  0.5223
  901MPD2    H513260   3.102   3.161  12.660  1.3089 -0.5079  1.1810
  901MPD2    N113261   3.245   2.754  12.866  0.2924 -0.9137  0.1187
  901MPD2    H713262   3.260   2.693  12.945  0.8395 -0.0187  0.7130
  902MPD2     C13263   1.782   1.574  12.717 -0.1947 -0.2476 -0.7061
  902MPD2    C113264   1.881   1.623  12.803  0.6609  0.1958 -0.1720
  902MPD2    C213265   1.994   1.554  12.809  0.7447  0.2600  0.4884
  902MPD2    C313266   2.015   1.435  12.741  0.0837  0.3544 -0.2144
  902MPD2    C413267   1.908   1.378  12.677 -0.2429  0.6306  0.0513
  902MPD2    C513268   1.805   1.457  12.659 -0.6255 -0.7223  0.2193
  902MPD2     H13269   2.080   1.604  12.850 -0.0574  1.6633  0.4444
  902MPD2    H113270   1.913   1.288  12.616 -0.4628 -0.6776  1.9701
  902MPD2    H213271   1.683   1.619  12.718 -0.1532 -0.1510 -1.0233
  902MPD2    H313272   1.733   1.422  12.586 -0.3921  0.1612 -0.4298
  902MPD2     N13273   2.144   1.374  12.734 -0.3947 -0.2366  0.3368
  902MPD2    H513274   2.161   1.303  12.664 -0.6200  1.5872 -1.5844
  902MPD2    N113275   1.848   1.727  12.890 -0.8902 -0.3445  0.6785
  902MPD2    H713276   1.758   1.768  12.867 -1.0429 -1.4431 -0.6608
  903MPD2     C13277   2.178   1.912  12.666 -0.5963  0.8956  0.2736
  903MPD2    C113278   2.194   1.795  12.603 -0.3608  0.0610  0.1446
  903MPD2    C213279   2.094   1.745  12.518  0.0331  0.1690 -0.5573
  903MPD2    C313280   1.975   1.817  12.503  0.1900 -0.3101 -0.0630
  903MPD2    C413281   1.966   1.940  12.567 -0.1768  0.4267  0.1190
  903MPD2    C513282   2.067   1.987  12.646 -1.0063  0.3137  0.2710
  903MPD2     H13283   2.115   1.649  12.471  0.5600 -0.9375  1.9285
  903MPD2    H113284   1.878   2.003  12.560 -1.0338 -0.8324 -0.3558
  903MPD2    H213285   2.264   1.953  12.717 -0.3995 -1.5891  1.9102
  903MPD2    H313286   2.045   2.073  12.708  0.2666 -0.4547  1.7797
  903MPD2     N13287   1.876   1.764  12.417  0.6271  0.4472 -0.1194
  903MPD2    H513288   1.899   1.673  12.376  1.3229  0.7782 -0.4624
  903MPD2    N113289   2.319   1.732  12.623  0.2722  0.2169 -0.6677
  903MPD2    H713290   2.358   1.753  12.714  3.6412  0.2932 -2.1147
  904MPD2     C13291   1.487   0.414  14.621 -0.0137 -0.2885 -0.5620
  904MPD2    C113292   1.513   0.392  14.488  0.3990  0.1463 -0.7207
  904MPD2    C213293   1.647   0.381  14.448  0.6997  0.6809 -0.5120
  904MPD2    C313294   1.746   0.384  14.545 -0.5915 -0.1965  0.2872
  904MPD2    C413295   1.715   0.387  14.677 -0.2320  0.4499 -0.0100
  904MPD2    C513296   1.585   0.410  14.709 -0.2973 -0.1041 -0.4084
  904MPD2     H13297   1.674   0.368  14.344 -0.1107  0.6177 -0.7175
  904MPD2    H113298   1.790   0.385  14.756 -1.9930  1.0184  1.6716
  904MPD2    H213299   1.387   0.448  14.648  1.1581  3.2735 -0.7301
  904MPD2    H313300   1.564   0.414  14.815 -0.5149 -0.6254 -0.4328
  904MPD2     N13301   1.872   0.369  14.494 -0.3974 -0.2047 -0.3916
  904MPD2    H513302   1.882   0.364  14.394  0.3522 -2.2644 -0.1976
  904MPD2    N113303   1.404   0.406  14.398 -0.7932 -0.7188  0.3174
  904MPD2    H713304   1.316   0.424  14.446 -1.5711 -0.8930 -1.0285
  905MPD2     C13305   1.164   0.789  13.611 -0.6888 -0.0791  0.3307
  905MPD2    C113306   1.258   0.739  13.692  0.4048 -0.2171  0.0537
  905MPD2    C213307   1.387   0.744  13.658  0.1108 -0.4675  0.6978
  905MPD2    C313308   1.428   0.828  13.555  0.2416 -0.8856 -0.3381
  905MPD2    C413309   1.338   0.901  13.486  0.4960  0.1018  0.3348
  905MPD2    C513310   1.208   0.876  13.515 -0.8893  0.2453 -0.1200
  905MPD2     H13311   1.465   0.704  13.722  0.9452  0.7553  0.4531
  905MPD2    H113312   1.367   0.973  13.411  0.4903  0.5402  0.7528
  905MPD2    H213313   1.059   0.776  13.632 -0.4000 -1.3435  0.9937
  905MPD2    H313314   1.138   0.933  13.455 -1.8923  1.5842  2.3576
  905MPD2     N13315   1.566   0.852  13.541  0.3276  0.0474 -0.2457
  905MPD2    H513316   1.591   0.941  13.498  0.6205  0.0595 -0.0519
  905MPD2    N113317   1.208   0.670  13.808  0.3689 -0.1107 -0.4453
  905MPD2    H713318   1.107   0.658  13.815  0.5850 -0.2594  2.3949
  906MPD2     C13319   4.015   0.722  11.635  0.3484  0.2319 -0.1569
  906MPD2    C113320   3.913   0.739  11.542  0.0234 -0.7003 -0.6908
  906MPD2    C213321   3.783   0.705  11.575  0.4820  0.3407 -0.2167
  906MPD2    C313322   3.752   0.657  11.701 -0.5295  0.0585 -0.0672
  906MPD2    C413323   3.849   0.662  11.793 -0.2929  0.4024 -0.2918
  906MPD2    C513324   3.979   0.694  11.760  0.1177  0.2848  0.7830
  906MPD2     H13325   3.702   0.711  11.503  1.1701  2.1715 -0.8394
  906MPD2    H113326   3.835   0.626  11.894 -1.1687 -0.3942 -0.6923
  906MPD2    H213327   4.111   0.770  11.618  1.3319 -1.6628  0.1467
  906MPD2    H313328   4.053   0.692  11.839 -0.0533  0.0865  0.9352
  906MPD2     N13329   3.622   0.602  11.718  0.5551 -0.0277 -0.0886
  906MPD2    H513330   3.552   0.606  11.645 -0.3442 -1.6069  0.6827
  906MPD2    N113331   3.936   0.778  11.412  0.4861  0.3341  0.5441
  906MPD2    H713332   3.850   0.776  11.359  0.7650 -1.1328  0.1401
  907MPD2     C13333   2.579   4.400  16.137 -0.0424  0.2877  0.0454
  907MPD2    C113334   2.669   4.329  16.057 -0.2371 -0.3731  0.3737
  907MPD2    C213335   2.795   4.292  16.101  0.2580  0.6709  0.6741
  907MPD2    C313336   2.829   4.320  16.235 -0.1032 -0.4451 -0.7092
  907MPD2    C413337   2.742   4.388  16.313  0.1513 -0.0672  0.3339
  907MPD2    C513338   2.622   4.425  16.262  0.3958  0.0906  0.2553
  907MPD2     H13339   2.859   4.239  16.031 -0.1012  0.3272  0.6050
  907MPD2    H113340   2.773   4.424  16.411  0.3135 -2.4828  1.1610
  907MPD2    H213341   2.485   4.441  16.104 -1.8592 -1.2327  3.3517
  907MPD2    H313342   2.566   4.500  16.316  1.8471  1.2506  0.1399
  907MPD2     N13343   2.958   4.275  16.279 -0.7617  0.3822  0.5242
  907MPD2    H513344   3.019   4.236  16.208 -4.0006 -3.8293  0.0350
  907MPD2    N113345   2.638   4.303  15.918 -0.5681  0.4997 -0.0979
  907MPD2    H713346   2.718   4.259  15.872 -0.4491  0.4633  0.1477
  908MPD2     C13347   0.477   0.728   9.789 -0.2023 -0.1660  0.0013
  908MPD2    C113348   0.495   0.669   9.917 -0.3520 -0.2236  0.4100
  908MPD2    C213349   0.516   0.746  10.027 -0.4939  0.6051 -0.3812
  908MPD2    C313350   0.529   0.882  10.010  0.3256 -0.0898  0.8818
  908MPD2    C413351   0.531   0.939   9.893 -0.1101 -0.4609 -0.4023
  908MPD2    C513352   0.497   0.868   9.779  0.6968 -0.1872  1.0273
  908MPD2     H13353   0.542   0.704  10.124  1.8453  1.2874 -0.7077
  908MPD2    H113354   0.557   1.043   9.880  1.7538 -0.7324  1.1511
  908MPD2    H213355   0.459   0.670   9.700  0.5295  0.9258 -0.8526
  908MPD2    H313356   0.481   0.910   9.681 -0.2124 -0.1794  1.1730
  908MPD2     N13357   0.572   0.958  10.122  0.5426 -0.1446  0.2570
  908MPD2    H513358   0.572   0.908  10.211 -0.3185  0.2076  0.4576
  908MPD2    N113359   0.489   0.531   9.928  0.9416  0.2274  0.4307
  908MPD2    H713360   0.472   0.489   9.837 -1.1390  2.7128 -0.3072
  909MPD2     C13361   0.430   3.207  11.404  0.4494 -0.3083 -0.2249
  909MPD2    C113362   0.416   3.344  11.408  0.6985 -0.3226  0.2123
  909MPD2    C213363   0.371   3.408  11.519  0.2390  0.6366 -0.0414
  909MPD2    C313364   0.344   3.334  11.635 -0.5536 -0.7238 -0.2676
  909MPD2    C413365   0.368   3.191  11.629 -0.2388  0.4521 -0.0542
  909MPD2    C513366   0.411   3.129  11.514  0.1802 -0.0586  0.4559
  909MPD2     H13367   0.366   3.516  11.512 -1.3658  0.5235 -0.5578
  909MPD2    H113368   0.339   3.130  11.714  1.3585  0.9235  0.8307
  909MPD2    H213369   0.458   3.150  11.316 -0.0436 -1.0183  0.0674
  909MPD2    H313370   0.406   3.021  11.503  0.2708  0.0875 -1.0810
  909MPD2     N13371   0.307   3.400  11.755  0.4208  0.2041 -0.2985
  909MPD2    H513372   0.284   3.499  11.757  2.0060  0.5486  1.1435
  909MPD2    N113373   0.463   3.428  11.307  0.0449  0.6945  0.3271
  909MPD2    H713374   0.445   3.528  11.304  1.3809  0.9659  1.3939
  910MPD2     C13375   2.280   0.514  16.429 -0.8592  0.0468  0.6022
  910MPD2    C113376   2.268   0.386  16.373 -1.0003  0.2614  0.3068
  910MPD2    C213377   2.219   0.382  16.241 -0.1649  0.0820 -0.1644
  910MPD2    C313378   2.173   0.491  16.178  0.2135 -0.2819 -0.0345
  910MPD2    C413379   2.169   0.610  16.244 -0.1764  0.5447  0.4688
  910MPD2    C513380   2.226   0.623  16.369 -0.2842  0.8197  0.1903
  910MPD2     H13381   2.218   0.286  16.191 -2.2307  0.9857 -1.8522
  910MPD2    H113382   2.125   0.701  16.205  3.3304  0.8613 -2.7958
  910MPD2    H213383   2.339   0.532  16.518 -0.5108 -0.0020  0.3825
  910MPD2    H313384   2.243   0.718  16.419 -0.8013  0.0895  1.7540
  910MPD2     N13385   2.102   0.487  16.055 -0.1940 -0.3418  0.2940
  910MPD2    H513386   2.071   0.577  16.021  0.3806 -0.7659 -1.4086
  910MPD2    N113387   2.302   0.263  16.440 -0.2130 -0.5432  0.4832
  910MPD2    H713388   2.275   0.170  16.410  0.8695 -0.4692 -0.7087
  911MPD2     C13389   0.170   0.423  16.578 -0.6485  0.3541  0.6519
  911MPD2    C113390   0.197   0.535  16.658 -0.0041 -0.9836 -0.3021
  911MPD2    C213391   0.130   0.654  16.634  0.9057  0.0270  0.1340
  911MPD2    C313392   0.020   0.660  16.549 -0.5529 -0.4099  0.1058
  911MPD2    C413393   4.730   0.541  16.484 -0.4554 -0.5570 -0.1130
  911MPD2    C513394   0.060   0.423  16.501 -0.2403  0.6808  0.0533
  911MPD2     H13395   0.155   0.752  16.675 -0.2342  0.9527 -1.3815
  911MPD2    H113396   4.647   0.540  16.414 -1.0889 -3.5192  0.6363
  911MPD2    H213397   0.235   0.336  16.577 -1.0430  0.0475  1.2441
  911MPD2    H313398   0.029   0.335  16.446  0.5144  0.8566 -0.6641
  911MPD2     N13399   4.687   0.772  16.506 -0.9454 -1.3716 -0.2841
  911MPD2    H513400   4.614   0.752  16.439 -1.1893 -0.3851 -0.3175
  911MPD2    N113401   0.301   0.515  16.755  0.0295 -0.6602 -0.4930
  911MPD2    H713402   0.334   0.421  16.773 -3.0452 -1.7567 -0.6226
  912MPD2     C13403   4.615   0.667  15.935  0.2642  0.1722  0.5070
  912MPD2    C113404   4.559   0.661  16.051  0.3880 -0.2918  0.4838
  912MPD2    C213405   4.553   0.532  16.116 -0.6931 -1.0910  0.0536
  912MPD2    C313406   4.603   0.422  16.048  0.8045  0.1085  0.5634
  912MPD2    C413407   4.657   0.434  15.917  0.5970 -0.8840  0.3757
  912MPD2    C513408   4.669   0.557  15.864 -0.2468  0.4254  0.5852
  912MPD2     H13409   4.520   0.529  16.219 -1.8234 -2.5415 -0.3542
  912MPD2    H113410   4.682   0.347  15.857 -0.4861  0.0418 -1.4099
  912MPD2    H213411   4.638   0.760  15.884  0.6988  0.7819  1.7903
  912MPD2    H313412   4.714   0.576  15.767 -1.1060  0.6703  0.2365
  912MPD2     N13413   4.615   0.313  16.135 -0.8098  0.2776  1.2641
  912MPD2    H513414   4.563   0.308  16.221 -0.4633 -0.6590  1.4131
  912MPD2    N113415   4.513   0.785  16.105 -0.1917  0.3061  0.7461
  912MPD2    H713416   4.538   0.861  16.043 -2.8783 -0.0975 -0.8306
  913MPD2     C13417   0.563   1.975  10.112  0.7056  0.2149 -0.5549
  913MPD2    C113418   0.480   2.034  10.199 -0.0386  0.4007  0.3396
  913MPD2    C213419   0.453   2.169  10.179 -0.0611 -0.5640  0.0031
  913MPD2    C313420   0.514   2.249  10.085  0.4048 -0.3986 -0.8111
  913MPD2    C413421   0.607   2.183  10.003 -0.0744 -0.2726  0.6079
  913MPD2    C513422   0.619   2.044  10.013 -1.0588  0.1808 -0.4521
  913MPD2     H13423   0.382   2.218  10.244 -0.6683 -0.1505 -0.9548
  913MPD2    H113424   0.666   2.229   9.925  1.5755 -1.7109  1.0219
  913MPD2    H213425   0.595   1.872  10.118 -1.4946 -0.6194 -2.8580
  913MPD2    H313426   0.679   1.982   9.948 -0.2500 -0.8028  1.2382
  913MPD2     N13427   0.479   2.384  10.076  0.0830  0.2367  0.0481
  913MPD2    H513428   0.428   2.419  10.156  1.5171 -1.6952  1.7806
  913MPD2    N113429   0.438   1.955  10.307  0.1299  0.2894 -0.4201
  913MPD2    H713430   0.460   1.856  10.301 -2.0102 -0.2583  0.6089
  914MPD2     C13431   2.535   2.651  12.508 -0.4508  0.1723 -0.3080
  914MPD2    C113432   2.643   2.737  12.508 -0.8642 -0.9415 -0.2621
  914MPD2    C213433   2.768   2.690  12.535  0.4001 -0.3992 -0.4225
  914MPD2    C313434   2.782   2.555  12.568  0.2408  0.3580  0.0813
  914MPD2    C413435   2.677   2.468  12.571  0.1251  0.3718  0.3522
  914MPD2    C513436   2.556   2.515  12.533  0.0229 -0.1151  0.6157
  914MPD2     H13437   2.857   2.751  12.539  0.2353 -0.1916  0.1870
  914MPD2    H113438   2.699   2.363  12.586  2.2541  1.0195  1.7486
  914MPD2    H213439   2.435   2.684  12.484 -0.4671  0.3606  0.0203
  914MPD2    H313440   2.478   2.440  12.519  0.1076  0.4251 -2.7637
  914MPD2     N13441   2.909   2.518  12.601  0.1823  0.5441 -0.2736
  914MPD2    H513442   2.977   2.592  12.591  0.7221  0.2693  1.4738
  914MPD2    N113443   2.620   2.869  12.464 -0.1336 -0.1874 -0.1293
  914MPD2    H713444   2.523   2.896  12.450 -0.0137  0.2810 -0.0556
  915MPD2     C13445   1.047   1.954  15.619 -0.6990 -0.0247  0.0893
  915MPD2    C113446   0.909   1.952  15.605  0.2932  0.4183  1.0339
  915MPD2    C213447   0.836   2.033  15.692 -0.5710  0.0542  0.8511
  915MPD2    C313448   0.901   2.105  15.797 -0.6229 -0.3965 -0.4343
  915MPD2    C413449   1.039   2.096  15.815 -0.7279  0.4367 -0.3082
  915MPD2    C513450   1.107   2.025  15.722 -0.4876  0.2007 -0.1924
  915MPD2     H13451   0.730   2.051  15.680 -0.4445  0.3540  0.2009
  915MPD2    H113452   1.094   2.138  15.899  0.3143 -2.1066  0.2754
  915MPD2    H213453   1.111   1.910  15.543 -0.7346  0.1483 -0.0406
  915MPD2    H313454   1.215   2.019  15.723 -0.7613 -3.9269  1.2626
  915MPD2     N13455   0.832   2.196  15.878  0.2347 -0.9235  0.1982
  915MPD2    H513456   0.733   2.201  15.855  0.5124 -0.6409 -0.9204
  915MPD2    N113457   0.843   1.869  15.507 -0.4470  0.3040 -0.6414
  915MPD2    H713458   0.900   1.799  15.461 -3.0847 -1.8477 -0.6449
  916MPD2     C13459   3.889   0.062  15.938 -0.2407 -0.1837 -0.5388
  916MPD2    C113460   3.971   0.007  16.034 -0.4388  0.5861  0.4157
  916MPD2    C213461   4.098   4.690  16.005 -0.3214  0.0942 -1.0904
  916MPD2    C313462   4.149   4.701  15.872  0.6354  0.1011 -0.8613
  916MPD2    C413463   4.068   0.019  15.775 -0.1742  0.5437  0.0844
  916MPD2    C513464   3.947   0.066  15.809 -0.0386  0.2715  0.3123
  916MPD2     H13465   4.175   4.658  16.074  0.2798 -1.2004 -2.3693
  916MPD2    H113466   4.104   0.024  15.673 -1.2912 -0.5858 -0.3640
  916MPD2    H213467   3.790   0.104  15.952 -0.6688 -0.8736 -1.5061
  916MPD2    H313468   3.895   0.114  15.728 -1.7010 -0.3515  0.9933
  916MPD2     N13469   4.284   4.664  15.847  0.6023  0.0842 -0.1319
  916MPD2    H513470   4.335   4.609  15.915 -0.3137  0.8339  1.1384
  916MPD2    N113471   3.934   0.028  16.166 -0.0300 -0.5499 -0.0981
  916MPD2    H713472   3.847   0.079  16.172  0.5727  0.2672  1.5540
  917MPD2     C13473   3.599   3.271  11.185  0.6951 -0.0332  0.2070
  917MPD2    C113474   3.605   3.347  11.300 -0.1996 -0.4153  0.0447
  917MPD2    C213475   3.568   3.483  11.304 -0.0503 -1.0311  0.5803
  917MPD2    C313476   3.517   3.533  11.186  0.5014  0.1398  0.4851
  917MPD2    C413477   3.501   3.453  11.078 -0.2154 -0.0212 -0.2356
  917MPD2    C513478   3.537   3.324  11.075 -0.1694  0.3843  0.0333
  917MPD2     H13479   3.577   3.537  11.398 -1.0617 -0.2816  0.2479
  917MPD2    H113480   3.450   3.491  10.990 -1.8834 -0.1492  0.6739
  917MPD2    H213481   3.631   3.168  11.176  1.1645 -0.1144  2.7718
  917MPD2    H313482   3.532   3.260  10.989  0.9562 -1.9069  1.6593
  917MPD2     N13483   3.473   3.665  11.163  0.1506 -0.4735 -0.3679
  917MPD2    H513484   3.413   3.672  11.082 -0.3675  1.2820  0.1642
  917MPD2    N113485   3.646   3.283  11.423 -0.0393 -0.0791  0.3759
  917MPD2    H713486   3.683   3.188  11.417  0.6159  0.2864 -1.3182
  918MPD2     C13487   4.193   3.606  12.210 -0.1269  0.0119 -0.2923
  918MPD2    C113488   4.218   3.469  12.194 -0.7104 -0.9590  0.1302
  918MPD2    C213489   4.122   3.396  12.122  0.4163 -0.0733 -0.8176
  918MPD2    C313490   4.019   3.461  12.049  0.1374 -0.2541  0.1704
  918MPD2    C413491   3.998   3.592  12.066  0.2057  0.3171  0.1207
  918MPD2    C513492   4.078   3.662  12.156 -0.8067  0.1414  0.2598
  918MPD2     H13493   4.147   3.291  12.108 -2.0885 -0.9596  1.1789
  918MPD2    H113494   3.909   3.638  12.026 -0.0340  1.0129  1.4690
  918MPD2    H213495   4.258   3.670  12.268  0.1821  1.1340 -1.8655
  918MPD2    H313496   4.071   3.766  12.187  3.6872  0.6119 -0.2948
  918MPD2     N13497   3.929   3.396  11.962  0.3839 -0.0013  0.0170
  918MPD2    H513498   3.869   3.450  11.900  1.1498 -0.6915 -1.3088
  918MPD2    N113499   4.336   3.412  12.238 -0.3594  0.1894  0.2381
  918MPD2    H713500   4.364   3.320  12.205  1.1131  0.6320  0.2643
  919MPD2     C13501   4.333   1.924  11.740 -0.1862 -0.3963 -0.5720
  919MPD2    C113502   4.449   1.866  11.693  0.4285  0.1408  0.2156
  919MPD2    C213503   4.486   1.890  11.561  0.0935 -0.0863 -0.7470
  919MPD2    C313504   4.418   1.988  11.485 -0.6097  0.0276 -0.4689
  919MPD2    C413505   4.314   2.051  11.541 -0.1452  0.2473  0.5669
  919MPD2    C513506   4.262   2.013  11.664 -0.2876 -0.4547 -0.4467
  919MPD2     H13507   4.581   1.843  11.537  1.3670  1.5336  1.0979
  919MPD2    H113508   4.274   2.143  11.498  0.0563 -0.6398 -1.5232
  919MPD2    H213509   4.286   1.922  11.838 -1.3412 -0.3527 -1.1180
  919MPD2    H313510   4.180   2.068  11.709 -0.4849 -2.5743  1.7628
  919MPD2     N13511   4.468   2.023  11.356 -0.2923  0.3291 -0.3486
  919MPD2    H513512   4.418   2.098  11.309 -3.8295 -1.7653  0.0783
  919MPD2    N113513   4.523   1.778  11.769 -0.3123  0.1356 -0.5854
  919MPD2    H713514   4.600   1.731  11.722  0.7963  2.3370 -0.9965
  920MPD2     C13515   4.270   2.675  10.708  0.2117 -0.4269  0.0675
  920MPD2    C113516   4.213   2.551  10.692 -0.0135 -0.8956 -0.4805
  920MPD2    C213517   4.284   2.438  10.736 -0.0971 -0.0472 -0.0639
  920MPD2    C313518   4.404   2.458  10.795  0.1464  0.0727  0.0446
  920MPD2    C413519   4.456   2.582  10.815  1.5792 -0.1115 -1.5123
  920MPD2    C513520   4.385   2.695  10.775  0.1527  0.5478 -0.3482
  920MPD2     H13521   4.249   2.336  10.721  0.6394 -0.4061  0.6851
  920MPD2    H113522   4.554   2.588  10.860  0.7145 -0.3940  0.3835
  920MPD2    H213523   4.236   2.770  10.669 -0.3406 -0.2282  1.0296
  920MPD2    H313524   4.436   2.790  10.785  1.0751 -0.0776  0.9660
  920MPD2     N13525   4.464   2.345  10.844  0.5967  0.5552  0.5272
  920MPD2    H513526   4.428   2.256  10.809  2.8059 -0.6724  1.3518
  920MPD2    N113527   4.093   2.530  10.618  0.0451  0.3562  0.3230
  920MPD2    H713528   4.078   2.431  10.602 -1.3495  0.7787 -0.9012
  921MPD2     C13529   0.850   1.030  16.615 -0.6988  0.6112 -0.7496
  921MPD2    C113530   0.909   0.932  16.696 -0.2523  0.5183  0.0366
  921MPD2    C213531   0.842   0.878  16.804  0.1354 -0.0521  0.2183
  921MPD2    C313532   0.715   0.910  16.829  0.4808  0.1986  0.2623
  921MPD2    C413533   0.658   1.009  16.749 -0.6535  0.8752  0.7173
  921MPD2    C513534   0.722   1.069  16.639  0.3555  0.0553 -0.5108
  921MPD2     H13535   0.894   0.807  16.868  1.1006 -0.1419 -0.6693
  921MPD2    H113536   0.564   1.057  16.772 -2.0875 -2.1965  1.4067
  921MPD2    H213537   0.911   1.089  16.548  0.0657  0.2047 -0.4125
  921MPD2    H313538   0.675   1.153  16.590  1.4099  2.1892  2.1311
  921MPD2     N13539   0.650   0.876  16.947 -0.6325  0.5858 -0.4001
  921MPD2    H513540   0.549   0.885  16.950 -0.6707 -0.5678  1.7126
  921MPD2    N113541   1.049   0.902  16.682 -0.1556 -0.0944 -0.8510
  921MPD2    H713542   1.092   0.929  16.594  0.6122 -1.0505 -0.7777
  922MPD2     C13543   1.594   3.392  17.078 -0.0405  0.1430  0.5066
  922MPD2    C113544   1.535   3.374  17.199 -0.3220 -0.1413 -0.1365
  922MPD2    C213545   1.447   3.265  17.209  0.6960 -0.5078  0.5829
  922MPD2    C313546   1.415   3.183  17.110 -0.1545 -0.1252 -0.2654
  922MPD2    C413547   1.473   3.211  16.987  0.5653 -0.1090  0.2254
  922MPD2    C513548   1.560   3.311  16.974  0.7582  0.4346  0.1002
  922MPD2     H13549   1.408   3.236  17.306 -0.0258  0.2407  0.5078
  922MPD2    H113550   1.449   3.147  16.903 -1.2859 -2.6521  2.7257
  922MPD2    H213551   1.642   3.484  17.045  1.0140 -0.9032 -0.9221
  922MPD2    H313552   1.605   3.331  16.878  0.9117 -3.4408 -0.6212
  922MPD2     N13553   1.330   3.080  17.139 -0.2545  0.0337  0.0795
  922MPD2    H513554   1.295   3.090  17.234  0.6672 -1.7031  0.6111
  922MPD2    N113555   1.556   3.447  17.317 -0.1061  0.2595  0.2197
  922MPD2    H713556   1.510   3.408  17.398  0.6690  0.6481  0.8409
  923MPD2     C13557   2.760   0.143  10.084 -0.6157 -0.1161 -0.1017
  923MPD2    C113558   2.784   0.265  10.039  0.2113 -0.4821 -0.0420
  923MPD2    C213559   2.907   0.328  10.064 -0.0822 -0.1008  0.4499
  923MPD2    C313560   3.002   0.260  10.132 -1.5061 -0.2218 -0.2813
  923MPD2    C413561   2.982   0.129  10.169 -0.5561  0.0018 -0.0354
  923MPD2    C513562   2.857   0.075  10.153  0.3261  0.0441  0.4952
  923MPD2     H13563   2.923   0.421  10.010 -0.5727 -0.6127 -0.5848
  923MPD2    H113564   3.057   0.080  10.230 -2.5854 -2.2385  0.6662
  923MPD2    H213565   2.663   0.095  10.076 -1.0777  0.8860 -0.4135
  923MPD2    H313566   2.831   4.716  10.191  1.8370  0.0656  1.5840
  923MPD2     N13567   3.122   0.313  10.181  0.5657 -0.7643 -0.3614
  923MPD2    H513568   3.192   0.257  10.228  0.3459  0.3829  1.3253
  923MPD2    N113569   2.683   0.317   9.950  0.7930  0.0413 -0.0302
  923MPD2    H713570   2.609   0.262   9.907  1.3094 -0.3010 -0.4860
  924MPD2     C13571   3.332   3.495  16.613  0.7453 -0.2217 -0.5121
  924MPD2    C113572   3.222   3.567  16.568 -0.3537  0.4525 -0.0133
  924MPD2    C213573   3.246   3.684  16.496 -0.2689 -0.1416  0.2177
  924MPD2    C313574   3.371   3.738  16.467  0.1796  0.5338 -0.6252
  924MPD2    C413575   3.479   3.660  16.500 -0.4983  0.7768 -0.2289
  924MPD2    C513576   3.458   3.551  16.578 -0.1619  0.2343  1.0058
  924MPD2     H13577   3.158   3.746  16.480 -0.1899 -1.1762 -4.3619
  924MPD2    H113578   3.583   3.679  16.475 -1.3694  4.6205 -0.8720
  924MPD2    H213579   3.307   3.400  16.661 -1.8892  0.3415 -0.7554
  924MPD2    H313580   3.550   3.496  16.596 -0.0641 -0.4175 -1.4834
  924MPD2     N13581   3.393   3.866  16.408 -0.1158  0.4534  0.5708
  924MPD2    H513582   3.487   3.905  16.418  0.1980  0.7083 -3.2204
  924MPD2    N113583   3.099   3.521  16.598 -0.0565 -0.3442  0.4969
  924MPD2    H713584   3.085   3.457  16.675 -0.7946 -2.1677 -1.1534
  925MPD2     C13585   1.989   1.172  14.539 -0.5053 -0.2796 -0.5130
  925MPD2    C113586   1.854   1.192  14.536  0.1419  0.7579 -0.1472
  925MPD2    C213587   1.783   1.196  14.653  0.5202 -0.0743 -0.2428
  925MPD2    C313588   1.850   1.166  14.775 -0.0491 -0.3012  0.4107
  925MPD2    C413589   1.989   1.142  14.773 -0.4630 -0.2011  0.3115
  925MPD2    C513590   2.055   1.145  14.654 -0.0808 -0.5512 -0.8434
  925MPD2     H13591   1.680   1.231  14.651  0.2842 -0.7065  0.4941
  925MPD2    H113592   2.049   1.127  14.861 -1.9980 -1.1146  1.2013
  925MPD2    H213593   2.047   1.165  14.448  1.5495 -0.0132  0.7912
  925MPD2    H313594   2.163   1.129  14.655 -0.0521 -0.3165 -0.1375
  925MPD2     N13595   1.797   1.170  14.897 -0.2432 -0.0265 -0.1622
  925MPD2    H513596   1.857   1.161  14.978 -0.1922 -1.2268 -0.3297
  925MPD2    N113597   1.783   1.234  14.420  0.2017 -0.0641  0.4197
  925MPD2    H713598   1.686   1.259  14.437  0.1384  0.1650 -0.2773
  926MPD2     C13599   0.392   4.372  13.247 -0.5641 -0.1578 -0.1356
  926MPD2    C113600   0.401   4.509  13.277 -0.1140 -0.5504 -0.5426
  926MPD2    C213601   0.477   4.589  13.189  0.6318  0.0332 -1.2807
  926MPD2    C313602   0.533   4.536  13.075  0.6115 -0.2366  0.0348
  926MPD2    C413603   0.527   4.402  13.055 -0.7001 -0.2534 -0.2597
  926MPD2    C513604   0.452   4.323  13.136  0.5559  0.1978 -0.6836
  926MPD2     H13605   0.488   4.695  13.210  0.5200 -0.0048 -1.0255
  926MPD2    H113606   0.586   4.368  12.971  0.2794 -0.6173  0.5729
  926MPD2    H213607   0.330   4.299  13.299  1.4177 -1.8376 -0.1267
  926MPD2    H313608   0.449   4.215  13.128 -0.3019  0.0558  1.6819
  926MPD2     N13609   0.621   4.606  12.985 -0.5234  0.3303  0.7177
  926MPD2    H513610   0.665   4.554  12.909 -1.6919 -0.9541  0.9147
  926MPD2    N113611   0.358   4.572  13.390  0.1014  0.7703 -0.3513
  926MPD2    H713612   0.365   4.674  13.386  2.1274  0.5736 -1.6781
  927MPD2     C13613   0.666   1.952  17.672 -0.1660  0.3474 -0.0396
  927MPD2    C113614   0.557   1.870  17.659 -0.8279 -0.4691  0.4638
  927MPD2    C213615   0.520   1.825  17.532 -0.2071  0.1847 -0.1058
  927MPD2    C313616   0.601   1.862  17.422 -0.7844  0.2622 -0.1127
  927MPD2    C413617   0.713   1.947  17.438  0.2662 -0.1120  0.0645
  927MPD2    C513618   0.747   1.990  17.572  0.2379 -0.0324 -0.3306
  927MPD2     H13619   0.422   1.787  17.504  1.3442 -1.9066 -2.7269
  927MPD2    H113620   0.770   1.984  17.354 -2.2546 -0.3217 -1.7236
  927MPD2    H213621   0.690   1.988   0.019  0.7142 -1.4383  0.3899
  927MPD2    H313622   0.831   2.054  17.593 -0.3502  0.3326  0.9104
  927MPD2     N13623   0.552   1.823  17.291 -0.8682  0.5110 -0.1540
  927MPD2    H513624   0.473   1.761  17.279 -0.9729  0.8470 -1.1649
  927MPD2    N113625   0.489   1.816   0.017 -0.3893 -0.1648 -0.1000
  927MPD2    H713626   0.519   1.842   0.111 -0.7979  0.5873 -0.1771
  928MPD2     C13627   2.578   0.027   0.640 -0.0501  0.3728 -0.2672
  928MPD2    C113628   2.540   0.159   0.647 -0.3096 -0.4807 -0.5212
  928MPD2    C213629   2.612   0.261   0.593 -0.0375 -0.5888  0.1279
  928MPD2    C313630   2.707   0.225   0.507 -0.4636 -0.6669 -0.4350
  928MPD2    C413631   2.737   0.093   0.486 -0.6858 -0.1777  0.4522
  928MPD2    C513632   2.680   4.733   0.559  0.3317 -0.5615  0.3077
  928MPD2     H13633   2.590   0.366   0.607  1.9576 -0.0021 -1.0973
  928MPD2    H113634   2.817   0.064   0.418  0.7619  1.0161  1.6445
  928MPD2    H213635   2.524   4.692   0.699 -0.9467  0.9442 -0.3759
  928MPD2    H313636   2.722   4.633   0.554  0.0189 -0.8220  2.9140
  928MPD2     N13637   2.786   0.322   0.445 -0.0886  0.8269  0.2740
  928MPD2    H513638   2.845   0.278   0.375  0.7834  0.0336  1.5077
  928MPD2    N113639   2.419   0.180   0.714  0.1922 -0.1799  1.1291
  928MPD2    H713640   2.369   0.101   0.753 -0.1645 -0.7499 -0.5004
  929MPD2     C13641   2.330   1.511  10.207 -0.1522  1.2634  0.4712
  929MPD2    C113642   2.250   1.434  10.292  0.3633  0.1223  0.6133
  929MPD2    C213643   2.111   1.453  10.293 -0.0656 -0.8735  0.6706
  929MPD2    C313644   2.062   1.564  10.225 -0.5297  0.3121  0.6083
  929MPD2    C413645   2.141   1.636  10.141  0.2373 -0.3835  0.6671
  929MPD2    C513646   2.272   1.606  10.127 -0.5584 -0.1561 -0.4064
  929MPD2     H13647   2.045   1.411  10.368 -2.3521 -1.5675 -1.7028
  929MPD2    H113648   2.112   1.718  10.077 -1.5854 -1.0882  0.5816
  929MPD2    H213649   2.436   1.492  10.199 -1.0538 -2.7467 -2.0007
  929MPD2    H313650   2.339   1.668  10.068  1.0012 -1.7810 -0.3544
  929MPD2     N13651   1.933   1.622  10.236  0.3243 -0.6090  0.5312
  929MPD2    H513652   1.916   1.706  10.182 -2.3946 -2.3635 -1.3336
  929MPD2    N113653   2.316   1.350  10.380  0.4860  0.0743 -0.2625
  929MPD2    H713654   2.417   1.342  10.369  0.6248  2.2579 -0.5630
  930MPD2     C13655   4.418   2.405  13.935  0.1879  0.2215  0.7360
  930MPD2    C113656   4.528   2.488  13.936  0.2479 -0.1589  0.4293
  930MPD2    C213657   4.599   2.508  13.815  0.2231 -0.3050  0.4436
  930MPD2    C313658   4.554   2.455  13.696 -0.4495 -1.0788 -0.1014
  930MPD2    C413659   4.431   2.387  13.694  0.8137 -0.2761 -0.7946
  930MPD2    C513660   4.373   2.360  13.811 -0.1738 -0.3396  0.1686
  930MPD2     H13661   4.689   2.567  13.828  0.6169 -0.3969 -1.8601
  930MPD2    H113662   4.379   2.355  13.605  0.4842 -4.0098  0.7350
  930MPD2    H213663   4.355   2.392  14.022  0.0084 -3.1795  0.1159
  930MPD2    H313664   4.280   2.305  13.805  1.4215 -2.9637 -0.3315
  930MPD2     N13665   4.626   2.476  13.586 -0.1198 -0.6706  0.1240
  930MPD2    H513666   4.578   2.475  13.496  0.5089 -1.3211 -0.2010
  930MPD2    N113667   4.563   2.549  14.058 -0.1492 -0.1653 -0.6587
  930MPD2    H713668   4.533   2.516  14.149 -0.6006  2.3136  0.0928
  931MPD2     C13669   0.698   1.928   0.578 -0.6228 -0.3417 -0.0411
  931MPD2    C113670   0.584   1.845   0.605  0.9004 -0.5981  0.2629
  931MPD2    C213671   0.536   1.845   0.734 -0.2402 -0.5127 -0.6344
  931MPD2    C313672   0.594   1.924   0.839  0.9026 -0.3919  0.0975
  931MPD2    C413673   0.709   1.988   0.809  0.7350 -1.0156 -0.3189
  931MPD2    C513674   0.759   2.000   0.681 -0.1022 -0.1148 -0.1216
  931MPD2     H13675   0.431   1.821   0.747  0.0360 -0.1703  2.3924
  931MPD2    H113676   0.759   2.046   0.886  1.3214 -0.6367 -0.9914
  931MPD2    H213677   0.734   1.936   0.476 -2.0818 -0.5139 -0.5690
  931MPD2    H313678   0.845   2.066   0.675 -1.3272  1.4315 -0.5144
  931MPD2     N13679   0.542   1.937   0.968 -0.0423 -0.6852  0.4849
  931MPD2    H513680   0.593   1.999   1.030 -1.3951 -1.6115  2.5806
  931MPD2    N113681   0.515   1.796   0.496 -0.1991  0.1069  0.1197
  931MPD2    H713682   0.541   1.834   0.406  0.7106 -0.8234 -0.0144
  932MPD2     C13683   1.235   1.845  11.784 -0.3497  0.1609 -0.1197
  932MPD2    C113684   1.362   1.874  11.835  0.4618  0.2977 -0.4506
  932MPD2    C213685   1.457   1.773  11.847 -0.3476  0.9671  0.5182
  932MPD2    C313686   1.426   1.644  11.806  0.5562  1.2843 -0.0436
  932MPD2    C413687   1.296   1.617  11.761  0.4387 -0.3889 -0.1362
  932MPD2    C513688   1.199   1.720  11.748 -0.6664 -0.1490 -0.7729
  932MPD2     H13689   1.553   1.803  11.888 -0.0509 -1.7123  1.7858
  932MPD2    H113690   1.263   1.515  11.748  1.1756 -0.7063  0.4620
  932MPD2    H213691   1.160   1.922  11.769 -1.0265 -0.3083  0.8234
  932MPD2    H313692   1.097   1.703  11.715 -1.2935  2.5845 -0.2884
  932MPD2     N13693   1.510   1.532  11.821 -0.2869 -0.5573 -0.2955
  932MPD2    H513694   1.474   1.445  11.783 -1.3601  0.0634 -0.6860
  932MPD2    N113695   1.409   2.006  11.864  0.1714  0.7460 -0.1522
  932MPD2    H713696   1.507   2.021  11.886  0.3191 -0.4809  0.0412
  933MPD2     C13697   1.848   0.731   1.173  0.0262 -0.2426  0.5031
  933MPD2    C113698   1.934   0.745   1.067 -0.3716 -0.4296  0.0081
  933MPD2    C213699   1.947   0.869   1.012  0.0658  0.1083 -0.5917
  933MPD2    C313700   1.861   0.978   1.048  0.3476  0.0796 -0.2084
  933MPD2    C413701   1.772   0.957   1.152  0.5526  0.5778 -0.2914
  933MPD2    C513702   1.771   0.836   1.214  0.3355  0.3896 -0.5295
  933MPD2     H13703   2.020   0.884   0.934  1.4462 -0.5667  0.5877
  933MPD2    H113704   1.724   1.037   1.207  0.0763 -0.5178  0.8765
  933MPD2    H213705   1.824   0.636   1.220 -0.4028  0.5384  1.8605
  933MPD2    H313706   1.709   0.817   1.302  0.1484 -1.6197 -1.0841
  933MPD2     N13707   1.871   1.109   0.986 -0.6631 -0.7020 -0.0924
  933MPD2    H513708   1.961   1.128   0.945 -1.2496  0.5491 -0.8073
  933MPD2    N113709   2.015   0.633   1.039 -0.8912 -1.0230  0.0079
  933MPD2    H713710   1.987   0.548   1.086  0.0853  0.0547  2.5667
  934MPD2     C13711   4.287   2.981   1.313 -0.0702  0.6264  0.4091
  934MPD2    C113712   4.247   2.949   1.179  0.1737  0.5199 -0.6750
  934MPD2    C213713   4.155   2.849   1.151 -0.0962 -0.1919 -0.0010
  934MPD2    C313714   4.111   2.773   1.260  0.7810 -0.3653 -0.2272
  934MPD2    C413715   4.150   2.802   1.391  0.0623 -0.2290 -0.0557
  934MPD2    C513716   4.232   2.907   1.419  1.2330 -0.7797  0.5109
  934MPD2     H13717   4.124   2.841   1.047  1.9480 -1.0760 -0.5527
  934MPD2    H113718   4.107   2.743   1.470  0.1690 -0.1643  0.0496
  934MPD2    H213719   4.362   3.054   1.341 -1.5674  2.1432  0.4406
  934MPD2    H313720   4.257   2.937   1.520  0.1443 -0.6193  0.7359
  934MPD2     N13721   4.033   2.661   1.242 -0.4022  0.4270 -0.2389
  934MPD2    H513722   3.977   2.628   1.320 -2.7378 -0.0340 -2.1248
  934MPD2    N113723   4.310   3.006   1.062 -0.2622  0.1070 -0.0465
  934MPD2    H713724   4.284   2.975   0.969  0.4378 -4.5993  1.3246
  935MPD2     C13725   4.183   1.797   0.801  0.0305  0.4342 -0.4377
  935MPD2    C113726   4.041   1.801   0.803  0.2157  0.2342  0.1600
  935MPD2    C213727   3.983   1.916   0.852 -0.2609 -0.3995 -0.4469
  935MPD2    C313728   4.055   2.023   0.895 -0.2439 -0.4488 -0.0165
  935MPD2    C413729   4.192   2.021   0.886 -0.3401  0.3292 -0.7702
  935MPD2    C513730   4.250   1.904   0.853  0.3168  0.0016 -0.2285
  935MPD2     H13731   3.876   1.913   0.869 -0.2573 -0.3253 -0.4106
  935MPD2    H113732   4.260   2.101   0.912 -0.0109 -0.0472 -0.4680
  935MPD2    H213733   4.234   1.707   0.769 -0.0674  0.7808 -1.5608
  935MPD2    H313734   4.356   1.890   0.841  0.8073  2.7266  1.0418
  935MPD2     N13735   4.001   2.146   0.944  0.0860 -0.1674  0.7913
  935MPD2    H513736   4.071   2.217   0.964  1.0107 -0.5954 -0.8913
  935MPD2    N113737   3.960   1.689   0.776 -0.3548 -0.4015  0.2997
  935MPD2    H713738   3.862   1.710   0.760 -0.1571  1.2472  1.2556
  936MPD2     C13739   2.438   4.542  12.878  0.8118  0.2664  0.3019
  936MPD2    C113740   2.393   4.661  12.938  0.0053  0.3985 -0.4283
  936MPD2    C213741   2.329   0.017  12.860  0.6386  0.6306 -0.4777
  936MPD2    C313742   2.312   0.004  12.725 -0.2323 -0.1369  0.6146
  936MPD2    C413743   2.352   4.623  12.669 -0.3295  0.2311  0.1837
  936MPD2    C513744   2.401   4.522  12.751  0.0581 -0.2191  0.1907
  936MPD2     H13745   2.298   0.109  12.910 -1.6075 -1.2005  1.5048
  936MPD2    H113746   2.345   4.606  12.562 -1.6697 -1.1631  0.5024
  936MPD2    H213747   2.490   4.468  12.938  2.3184  1.3677  0.3555
  936MPD2    H313748   2.421   4.423  12.710 -0.0533 -0.2185  0.1379
  936MPD2     N13749   2.268   0.119  12.657 -0.0097  0.2420 -0.2396
  936MPD2    H513750   2.240   0.198  12.713 -0.0282  1.2893 -1.7127
  936MPD2    N113751   2.420   4.696  13.074 -0.1023 -0.2363  0.0207
  936MPD2    H713752   2.397   0.051  13.105  1.4604 -0.1311  0.8900
  937MPD2     C13753   0.360   1.411  11.692  0.1103  0.0775  0.5846
  937MPD2    C113754   0.288   1.523  11.698  0.1220 -0.2396 -0.4779
  937MPD2    C213755   0.308   1.617  11.600 -0.5982 -0.3096  0.2486
  937MPD2    C313756   0.411   1.605  11.507 -0.2643  0.0003  0.2100
  937MPD2    C413757   0.483   1.489  11.505  0.8055  0.2930  0.6379
  937MPD2    C513758   0.459   1.397  11.600 -0.0192  0.0002 -0.0222
  937MPD2     H13759   0.242   1.703  11.599 -0.3815 -0.1747 -2.4179
  937MPD2    H113760   0.561   1.472  11.432 -1.9461 -0.5659 -2.1354
  937MPD2    H213761   0.339   1.329  11.760  1.1475 -0.3714  0.3604
  937MPD2    H313762   0.519   1.307  11.604  1.9792  1.3055 -0.9608
  937MPD2     N13763   0.437   1.712  11.419  0.1126 -0.2656 -0.5762
  937MPD2    H513764   0.383   1.798  11.423 -0.5468 -0.7050  0.0705
  937MPD2    N113765   0.183   1.537  11.788 -0.2598 -0.1618  0.6888
  937MPD2    H713766   0.125   1.621  11.785 -1.0050 -0.6988 -0.2031
  938MPD2     C13767   2.919   2.068   0.466 -0.7296  0.6067 -0.0132
  938MPD2    C113768   2.911   2.155   0.565  0.1202 -0.0156  0.5663
  938MPD2    C213769   2.907   2.113   0.702  0.6096  0.5047  0.5051
  938MPD2    C313770   2.911   1.974   0.725  0.0931 -0.0055 -0.4972
  938MPD2    C413771   2.925   1.893   0.618 -0.0952  0.4175  0.0330
  938MPD2    C513772   2.922   1.939   0.497 -0.6735  0.0223 -0.7771
  938MPD2     H13773   2.893   2.188   0.779 -4.1607 -0.8722  1.0050
  938MPD2    H113774   2.935   1.786   0.627  1.6369  0.7381  1.6652
  938MPD2    H213775   2.943   2.091   0.363  0.2796 -2.3781 -0.4389
  938MPD2    H313776   2.937   1.866   0.417  1.2217  0.7813 -1.1279
  938MPD2     N13777   2.883   1.911   0.853  0.4098 -0.0590  0.2943
  938MPD2    H513778   2.893   1.810   0.864 -0.8112 -0.1520  0.6762
  938MPD2    N113779   2.918   2.293   0.534  0.2161 -0.1951  0.3458
  938MPD2    H713780   2.923   2.351   0.617 -0.3405 -1.8600  1.5460
  939MPD2     C13781   4.151   3.348   0.586 -0.0095  1.3505  0.5037
  939MPD2    C113782   4.016   3.349   0.608  0.1419  0.1397 -0.4873
  939MPD2    C213783   3.934   3.330   0.500 -0.3134  0.0410  0.0739
  939MPD2    C313784   3.989   3.298   0.374  0.5213 -0.2394 -0.3280
  939MPD2    C413785   4.132   3.298   0.355 -0.7725  0.5911 -0.3378
  939MPD2    C513786   4.205   3.330   0.465 -0.0641  0.0775  0.3098
  939MPD2     H13787   3.826   3.331   0.513 -1.0243 -0.6589 -5.8060
  939MPD2    H113788   4.187   3.269   0.266  3.5401  0.6728  2.2770
  939MPD2    H213789   4.214   3.377   0.669  1.6104 -0.7197  0.0100
  939MPD2    H313790   4.312   3.312   0.458 -0.0153  0.0819  1.0684
  939MPD2     N13791   3.904   3.254   0.272 -0.0501  0.0077 -0.2657
  939MPD2    H513792   3.804   3.257   0.290 -0.1222  1.2339 -0.8574
  939MPD2    N113793   3.975   3.371   0.745 -0.0078  0.1571 -0.0388
  939MPD2    H713794   4.055   3.368   0.808  1.2230 -0.3405 -1.6107
  940MPD2     C13795   2.791   0.359  13.313 -0.0539  0.6312 -0.3968
  940MPD2    C113796   2.789   0.226  13.343 -0.1555  0.5556  0.4172
  940MPD2    C213797   2.877   0.146  13.267 -0.6379  0.3892  0.3459
  940MPD2    C313798   2.958   0.205  13.177 -0.4993 -0.5681 -0.3226
  940MPD2    C413799   2.955   0.344  13.162  0.4283  0.5261 -0.8900
  940MPD2    C513800   2.872   0.422  13.226  0.0143  1.0262  0.8699
  940MPD2     H13801   2.880   0.039  13.284 -1.3404  0.5859  1.7378
  940MPD2    H113802   3.022   0.400  13.097 -1.8212  0.6331 -3.1531
  940MPD2    H213803   2.710   0.414  13.359 -0.2160  0.0589  0.0180
  940MPD2    H313804   2.848   0.526  13.209 -1.3246  0.9114  2.0228
  940MPD2     N13805   3.045   0.129  13.093 -0.1079  0.3663 -0.5129
  940MPD2    H513806   3.119   0.181  13.048  0.1780  0.0464 -0.4086
  940MPD2    N113807   2.712   0.162  13.448  0.0957 -0.1315  0.6451
  940MPD2    H713808   2.715   0.061  13.457 -1.3466 -0.1835  0.4921
  941MPD2     C13809   1.229   4.537  10.387 -0.0627 -0.0914 -0.2408
  941MPD2    C113810   1.358   4.488  10.384 -0.2746 -0.2147 -0.1225
  941MPD2    C213811   1.410   4.417  10.490 -0.1845 -0.1846  0.1359
  941MPD2    C313812   1.339   4.411  10.608 -0.2864  0.0994 -0.1650
  941MPD2    C413813   1.209   4.464  10.612 -0.3936  0.5298  0.4414
  941MPD2    C513814   1.155   4.533  10.500 -0.6192 -0.0779 -0.1249
  941MPD2     H13815   1.504   4.365  10.484  0.4356  0.8805  0.6305
  941MPD2    H113816   1.157   4.473  10.707 -2.0111 -1.0311 -0.2952
  941MPD2    H213817   1.178   4.590  10.308 -0.9431  1.1106  1.1562
  941MPD2    H313818   1.055   4.572  10.516 -0.8562 -0.4717 -0.6580
  941MPD2     N13819   1.379   4.338  10.722  0.5649  0.4818 -0.0181
  941MPD2    H513820   1.309   4.346  10.795 -1.0056  1.1874 -1.5903
  941MPD2    N113821   1.450   4.506  10.275 -0.2601 -0.1599  0.1385
  941MPD2    H713822   1.546   4.475  10.278 -0.3122 -0.4815 -1.6032
  942MPD2     C13823   1.193   0.185  10.109  0.3589  0.0749  0.7552
  942MPD2    C113824   1.325   0.189  10.152  0.0014 -0.6482  0.0147
  942MPD2    C213825   1.425   0.231  10.069  0.4555 -0.3807  0.4599
  942MPD2    C313826   1.394   0.266   9.937  0.0169  0.5231 -0.0790
  942MPD2    C413827   1.259   0.258   9.888 -1.0429 -0.1592  0.0735
  942MPD2    C513828   1.165   0.213   9.976  0.1875  0.8045  0.4622
  942MPD2     H13829   1.525   0.231  10.112  0.6686  2.4285 -0.0533
  942MPD2    H113830   1.234   0.277   9.784  0.4697 -0.4641 -0.3407
  942MPD2    H213831   1.109   0.150  10.168 -1.5125 -0.7560 -2.3965
  942MPD2    H313832   1.064   0.193   9.941 -0.4665  1.6385  1.9005
  942MPD2     N13833   1.488   0.305   9.840 -0.3982 -0.8028 -0.5436
  942MPD2    H513834   1.445   0.337   9.754 -1.2072 -0.6602 -0.0897
  942MPD2    N113835   1.364   0.157  10.287 -0.0087 -0.0960 -0.0520
  942MPD2    H713836   1.462   0.141  10.304 -0.2988 -1.3802  0.4134
  943MPD2     C13837   1.134   4.094   9.529  0.1277  0.3225  0.3535
  943MPD2    C113838   1.123   3.997   9.627  0.4491 -0.1502 -0.8219
  943MPD2    C213839   1.234   3.982   9.704 -0.0137  0.0215 -0.1549
  943MPD2    C313840   1.353   4.043   9.672 -0.2737 -0.2421 -0.9031
  943MPD2    C413841   1.355   4.144   9.581  1.0191 -0.3724  0.4223
  943MPD2    C513842   1.247   4.164   9.496 -0.1273  0.3477  0.6615
  943MPD2     H13843   1.215   3.917   9.788  1.5044 -0.2910 -0.0487
  943MPD2    H113844   1.444   4.204   9.567  0.9503 -0.2635  0.4469
  943MPD2    H213845   1.046   4.114   9.471  0.3283  2.5952  0.8386
  943MPD2    H313846   1.254   4.245   9.424  0.3016 -1.0505 -0.8625
  943MPD2     N13847   1.474   4.011   9.726  0.1103  0.5038 -0.8355
  943MPD2    H513848   1.561   4.033   9.678  0.9983 -2.3324 -0.4845
  943MPD2    N113849   1.001   3.919   9.646  0.1514  0.0010  0.1981
  943MPD2    H713850   0.921   3.946   9.589 -0.2005  0.0865  0.7322
  944MPD2     C13851   0.466   3.279  10.865 -0.3407  0.2605 -0.6170
  944MPD2    C113852   0.408   3.163  10.914 -0.3594  0.4386  0.7410
  944MPD2    C213853   0.297   3.180  10.997  0.1607 -0.0899 -0.3301
  944MPD2    C313854   0.247   3.303  11.033  0.0004 -0.0560  0.2929
  944MPD2    C413855   0.303   3.414  10.962 -0.0409 -0.0784  0.1014
  944MPD2    C513856   0.413   3.401  10.883 -0.9369 -0.2303 -0.2110
  944MPD2     H13857   0.241   3.094  11.032  0.2969 -0.5313 -1.2040
  944MPD2    H113858   0.277   3.517  10.983 -0.9778 -0.4434  0.7385
  944MPD2    H213859   0.548   3.268  10.795 -0.8077 -0.7378 -1.0134
  944MPD2    H313860   0.447   3.488  10.827  1.7313 -2.5469 -2.2125
  944MPD2     N13861   0.144   3.313  11.132  0.6995 -0.1515 -0.4981
  944MPD2    H513862   0.128   3.234  11.194 -1.3287  0.8090  0.2046
  944MPD2    N113863   0.464   3.039  10.885  0.1060  0.1287 -0.1644
  944MPD2    H713864   0.548   3.038  10.828  1.6518  0.9473  2.0822
    1TMC1    C113865   4.050   3.727  14.741  0.8138  0.9719  0.0734
    1TMC1    C213866   4.000   3.640  14.650  0.2258 -0.0910 -0.4345
    1TMC1    C313867   4.007   3.511  14.672  0.0628  0.3783 -0.4352
    1TMC1    C413868   4.133   3.678  14.838 -0.5638 -0.3470 -0.1350
    1TMC1    C513869   4.146   3.544  14.861  0.5747 -0.1517 -0.0594
    1TMC1    C613870   4.080   3.461  14.779  0.1105  0.6363  0.5926
    1TMC1     C13871   4.042   3.871  14.731  0.0972  0.4346  0.3368
    1TMC1     O13872   4.108   3.925  14.813 -0.3069 -0.6287  0.3903
    1TMC1     H13873   3.946   3.675  14.562 -3.1543 -0.9982  1.2695
    1TMC1    H113874   4.164   3.747  14.916 -3.5324  1.1626 -0.2601
    1TMC1    H213875   4.079   3.355  14.804  2.3890  0.4779  0.0235
    1TMC1    C713876   4.165   3.490  14.993  0.1524 -0.0473  0.5989
    1TMC1    C813877   3.947   3.427  14.562  0.7573 -0.3632 -0.8543
    1TMC1    O113878   4.169   3.570  15.087 -0.5168 -0.3358 -0.0343
    1TMC1    O213879   3.898   3.472  14.459 -0.0971 -0.2110 -0.7820
    1TMC1    O313880   4.242   3.377  14.993  0.0615 -0.0301  0.0225
    1TMC1    H313881   4.254   3.336  14.904  0.5753  0.2958 -0.0597
    1TMC1    O513882   3.934   3.295  14.601  0.2378 -0.1741  0.4382
    1TMC1    H513883   3.940   3.284  14.698 -0.5056  1.7609  0.7128
    2MPD2     C13884   3.932   4.321  14.508 -0.0504 -0.5763  0.2993
    2MPD2    C113885   3.868   4.217  14.439  0.0700  0.5837  0.8556
    2MPD2    C213886   3.878   4.088  14.484  0.3437 -0.1084 -0.5420
    2MPD2    C313887   3.946   4.056  14.604 -0.0913 -0.5130  0.2620
    2MPD2    C413888   4.002   4.159  14.679  0.5382 -0.2738 -0.3181
    2MPD2    C513889   3.997   4.287  14.622 -0.1768 -0.3776 -0.2616
    2MPD2     H13890   3.834   4.008  14.425  1.6833  0.9178 -2.9482
    2MPD2    H113891   4.064   4.144  14.767  0.0934 -1.2491 -0.1692
    2MPD2    H213892   3.928   4.425  14.478  0.3603  0.5703  4.2297
    2MPD2    H313893   4.054   4.361  14.678  0.4373 -0.7919 -0.3351
    2MPD2     N13894   3.954   3.920  14.641  0.1703 -0.0454  1.3840
    2MPD2    H513895   3.893   3.853  14.596 -0.1105 -0.2184  2.0239
    2MPD2    N113896   3.822   4.252  14.309  0.4883  0.5120  0.6091
    2MPD2    H713897   3.837   4.346  14.276 -0.8405  0.9575  1.2727
    3TMC2    C113898   3.730   4.244  14.093  0.3504  0.8038 -0.9052
    3TMC2    C213899   3.737   4.175  13.977  0.8155  0.8646 -0.3619
    3TMC2    C313900   3.678   4.240  13.870  0.2884  0.1365 -0.4233
    3TMC2    C413901   3.678   4.367  14.104  0.8514  0.4550  0.1997
    3TMC2    C513902   3.647   4.433  13.988 -0.1271  0.0208  0.8295
    3TMC2    C613903   3.646   4.373  13.863  0.2991  0.4671 -0.6163
    3TMC2     C13904   3.769   4.173  14.216  0.2881  0.0371  0.5162
    3TMC2     O13905   3.763   4.051  14.217  0.1497  0.3476  0.1647
    3TMC2     H13906   3.761   4.070  13.984 -0.4749  0.4966 -1.4722
    3TMC2    H113907   3.654   4.419  14.196  1.9230 -1.0329  1.3202
    3TMC2    H213908   3.602   4.420  13.776  2.3767 -0.6807 -2.2809
    3TMC2    C713909   3.589   4.565  13.999  0.6503  0.0859  0.0515
    3TMC2    C813910   3.644   4.157  13.760 -0.0216  0.3171 -0.0824
    3TMC2    O113911   3.561   4.601  14.113 -0.3322  0.2523 -0.3146
    3TMC2    O213912   3.711   4.055  13.734  0.2400  0.2979 -0.3966
    3TMC2    O513913   3.514   4.175  13.764  0.4015 -0.1722 -0.2756
    3TMC2    H513914   3.484   4.256  13.811 -0.5159 -1.8496  2.0286
    4TMC2    C113915   3.396   0.628  13.428  0.4832  0.0051 -0.4712
    4TMC2    C213916   3.361   0.580  13.307 -0.4176 -0.0426  0.3661
    4TMC2    C313917   3.401   0.464  13.261  0.1999  0.0896  0.4079
    4TMC2    C413918   3.478   0.559  13.506 -0.0173 -0.0624 -0.5818
    4TMC2    C513919   3.523   0.436  13.463 -0.8298 -0.0464 -0.2638
    4TMC2    C613920   3.482   0.390  13.342 -0.3681 -0.0010 -0.1976
    4TMC2     C13921   3.319   0.736  13.493 -0.1351 -0.7934  0.3003
    4TMC2     O13922   3.361   0.769  13.603 -0.0391  0.4189 -0.2494
    4TMC2     H13923   3.290   0.630  13.242 -0.7545  1.1359  1.6355
    4TMC2    H113924   3.525   0.602  13.593 -2.5244 -0.8520  1.1768
    4TMC2    H213925   3.521   0.295  13.305 -1.5360  0.1568 -1.8516
    4TMC2    C713926   3.542   0.325  13.556 -0.4613  0.4414  0.0512
    4TMC2    C813927   3.403   0.428  13.118 -0.1752  0.3230  0.6796
    4TMC2    O113928   3.613   0.236  13.512 -0.0557  0.1785  0.9675
    4TMC2    O213929   3.405   0.500  13.019  0.0348  0.8882  0.4696
    4TMC2    O513930   3.355   0.300  13.124  1.0305  0.2824  0.1630
    4TMC2    H513931   3.334   0.268  13.215 -0.9228  2.0168  0.3340
    5MPD2     C13932   2.834   0.860  13.560  1.0583  0.6687  0.2813
    5MPD2    C113933   2.842   0.807  13.439  0.0177 -0.7611 -0.1919
    5MPD2    C213934   2.967   0.765  13.394 -0.2209  0.2546 -0.0393
    5MPD2    C313935   3.078   0.785  13.478  0.3733 -0.0785  0.4506
    5MPD2    C413936   3.068   0.848  13.602  0.3984 -0.2954  0.5277
    5MPD2    C513937   2.945   0.886  13.644  0.6159 -0.2160  0.0885
    5MPD2     H13938   2.971   0.725  13.294 -0.3477 -1.0614  0.4790
    5MPD2    H113939   3.149   0.860  13.674 -1.8569 -1.6183  3.2640
    5MPD2    H213940   2.743   0.890  13.610  0.6572 -0.4454  0.2175
    5MPD2    H313941   2.931   0.926  13.744  3.3192 -2.2030  1.2907
    5MPD2     N13942   3.204   0.736  13.434 -0.7110  0.0969  0.1013
    5MPD2    H513943   3.202   0.696  13.340 -4.6573  1.7504 -0.5363
    5MPD2    N113944   2.716   0.770  13.383  0.0273  0.4006 -0.5664
    5MPD2    H713945   2.637   0.774  13.447 -0.3967 -1.4737 -0.9588
    6MPD1     C13946   1.543   2.012  13.461  0.1943  0.0854 -0.0734
    6MPD1    C113947   1.513   1.949  13.344 -0.1977 -0.5495 -1.2772
    6MPD1    C213948   1.561   1.825  13.300 -0.5742 -0.0657 -0.1659
    6MPD1    C313949   1.658   1.767  13.387 -0.6024  0.0729  0.6101
    6MPD1    C413950   1.698   1.837  13.501 -0.0809  0.2840 -0.2465
    6MPD1    C513951   1.634   1.952  13.544 -0.5765  0.3719 -0.0172
    6MPD1     H13952   1.516   1.772  13.217 -2.5003  1.6875 -0.2541
    6MPD1    H113953   1.769   1.806  13.576 -0.1689 -0.4342 -0.4641
    6MPD1    H213954   1.490   2.099  13.497  2.4847  0.7419  1.6749
    6MPD1    H313955   1.664   1.992  13.640  2.2082  2.4234 -1.7204
    6MPD1     N13956   1.718   1.641  13.360 -0.1537  0.4367  0.4266
    6MPD1    H513957   1.775   1.599  13.434 -0.2521 -3.2544 -1.6090
    6MPD1    N113958   1.396   2.000  13.285  0.5882  0.1609 -0.4481
    6MPD1    H613959   1.370   2.097  13.304 -1.5500 -0.5348  0.2798
    6MPD1    H713960   1.401   2.013  13.184 -2.8382 -2.0488 -0.9300
    7MPD2     C13961   1.856   0.972  13.343  0.7063 -0.0707 -0.9505
    7MPD2    C113962   1.975   0.997  13.401  0.3508 -0.8257 -0.2811
    7MPD2    C213963   2.068   0.897  13.384 -0.5155 -0.3479 -0.7978
    7MPD2    C313964   2.041   0.784  13.316 -0.1199  0.0716 -0.1173
    7MPD2    C413965   1.915   0.753  13.272 -0.2427 -0.7899  0.0779
    7MPD2    C513966   1.822   0.852  13.284 -0.6485  0.0580 -0.2069
    7MPD2     H13967   2.167   0.914  13.425 -0.9113  0.0552 -0.0053
    7MPD2    H113968   1.898   0.663  13.214 -0.8310  0.4992 -1.7427
    7MPD2    H213969   1.780   1.050  13.336  1.2016  0.4528 -0.5500
    7MPD2    H313970   1.722   0.847  13.244 -0.2788  2.0969 -1.3976
    7MPD2     N13971   2.135   0.684  13.296  0.0579  0.1279  0.0082
    7MPD2    H513972   2.108   0.603  13.240 -3.7229  0.5014  1.2830
    7MPD2    N113973   2.009   1.116  13.474 -0.6215  0.1199  0.0493
    7MPD2    H713974   2.084   1.097  13.539 -2.4766  0.9727  2.4216
    8TMC3    C113975   2.354   0.588  13.299 -0.1304 -0.8480 -0.5361
    8TMC3    C213976   2.481   0.636  13.333  0.0561  0.0294 -0.8175
    8TMC3    C313977   2.561   0.684  13.229  0.2603  0.0445  0.8244
    8TMC3    C413978   2.324   0.575  13.162 -0.3895  0.0915  0.3805
    8TMC3    C513979   2.404   0.623  13.064  0.7302  0.7084 -1.2116
    8TMC3    C613980   2.524   0.675  13.091  0.9978 -0.3005 -0.6377
    8TMC3     C13981   2.255   0.673  13.367 -0.6044  0.1005 -0.2267
    8TMC3     O13982   2.280   0.707  13.483  0.4572  0.1798  0.5276
    8TMC3     H13983   2.519   0.647  13.433 -1.6426  0.3219 -0.2015
    8TMC3    H113984   2.237   0.521  13.125 -1.1053  1.7681 -0.3693
    8TMC3    H213985   2.595   0.710  13.017  0.1815 -0.9530 -1.7278
    8TMC3    C713986   2.323   0.718  12.978 -0.3756  0.1683  0.2234
    8TMC3    C813987   2.701   0.726  13.254 -0.4832 -0.6628  0.1881
    8TMC3    O113988   2.375   0.815  12.927 -0.1106  0.3620  0.2666
    8TMC3    O213989   2.782   0.738  13.163  0.2916 -0.0486  0.2678
    9TMC3    C113990   1.761   1.447  13.241  0.4488 -0.5741 -0.9488
    9TMC3    C213991   1.793   1.403  13.116  0.9840 -0.8008  0.3757
    9TMC3    C313992   1.887   1.300  13.105 -0.2540 -0.1071  0.0110
    9TMC3    C413993   1.801   1.393  13.360 -0.4201 -0.8915 -0.5304
    9TMC3    C513994   1.891   1.291  13.349  0.4807  0.4411  0.7148
    9TMC3    C613995   1.934   1.248  13.223 -0.5286  0.4369 -0.0342
    9TMC3     C13996   1.691   1.573  13.249  0.5402 -0.4541 -0.5439
    9TMC3     O13997   1.645   1.602  13.139 -0.2644  0.2183  0.3262
    9TMC3     H13998   1.761   1.458  13.028 -0.0786 -0.4174  1.0068
    9TMC3    H113999   1.760   1.424  13.456 -0.1662  1.3707 -1.1489
    9TMC3    H214000   1.997   1.159  13.226 -0.9847  0.1045 -0.3214
    9TMC3    C714001   1.938   1.235  13.472 -1.0514  0.5915  0.4916
    9TMC3    C814002   1.894   1.215  12.987  0.1298  0.2631 -0.1990
    9TMC3    O114003   1.926   1.313  13.567  0.1923 -0.0501 -0.0856
    9TMC3    O214004   1.797   1.228  12.913 -0.3189 -0.7283  0.4420
   10MPD2     C14005   1.953   0.711  12.937  0.9388 -0.5525 -0.7002
   10MPD2    C114006   2.080   0.771  12.941  0.5443  0.8511 -0.0020
   10MPD2    C214007   2.087   0.903  12.958 -0.0096 -0.7770  0.5449
   10MPD2    C314008   1.977   0.984  12.949  1.2525 -0.3249  0.2209
   10MPD2    C414009   1.854   0.934  12.927  0.2516  0.2743 -0.8196
   10MPD2    C514010   1.843   0.795  12.924  0.0669 -0.8075 -0.4636
   10MPD2     H14011   2.173   0.942  13.012 -0.3488  1.4522 -0.5166
   10MPD2    H114012   1.764   0.993  12.910 -1.1522 -0.7541  3.0810
   10MPD2    H214013   1.938   0.605  12.916  1.0873 -1.2786  2.9222
   10MPD2    H314014   1.743   0.756  12.909 -0.8089  1.3807 -0.1924
   10MPD2     N14015   1.991   1.116  12.989  0.2159  0.4083  0.0899
   10MPD2    H514016   2.078   1.135  13.037  1.1281  0.2307 -1.4571
   10MPD2    N114017   2.193   0.684  12.961  0.2756 -0.2096  0.4145
   10MPD2    H714018   2.174   0.584  12.966  1.3635 -0.4441 -0.0950
   11MPD2     C14019   3.385   0.024  13.946 -0.6614  0.9957  0.3099
   11MPD2    C114020   3.498   0.011  13.867 -0.5471 -0.2474 -0.0670
   11MPD2    C214021   3.519   0.103  13.766 -0.3809 -0.5001 -0.5691
   11MPD2    C314022   3.441   0.219  13.768 -0.4910  0.4969  0.0109
   11MPD2    C414023   3.339   0.240  13.857 -0.2372 -0.5297 -0.7829
   11MPD2    C514024   3.307   0.136  13.941 -0.2839  0.6815  0.1634
   11MPD2     H14025   3.599   0.086  13.695  0.0639 -1.6483  0.1921
   11MPD2    H114026   3.276   0.328  13.850  0.8313  0.2169 -0.8756
   11MPD2    H214027   3.356   4.690  14.020 -0.3420  0.6348  0.0800
   11MPD2    H314028   3.214   0.141  13.996 -3.0653 -2.2723 -4.2715
   11MPD2     N14029   3.449   0.321  13.663 -0.3000 -0.6001 -0.5927
   11MPD2    H514030   3.386   0.401  13.672 -0.8817 -1.3599  2.0713
   11MPD2    N114031   3.582   4.640  13.885 -0.5203 -0.3061 -0.6654
   11MPD2    H714032   3.647   4.618  13.810 -0.0248 -1.6653  0.1707
    1MPD1     C14033   0.856   1.002  17.631 -0.1909  0.2751  0.8771
    1MPD1    C114034   0.757   1.100  17.604  0.0727  0.0048  0.9884
    1MPD1    C214035   0.723   1.120  17.473 -0.2365  0.2018 -0.3949
    1MPD1    C314036   0.820   1.079  17.374 -0.1882 -0.2156 -0.6689
    1MPD1    C414037   0.920   0.988  17.410  0.7305  0.0184  0.0605
    1MPD1    C514038   0.933   0.943  17.540  0.4601 -0.9228 -0.1288
    1MPD1     H14039   0.637   1.182  17.453 -1.3420 -0.8071  1.2236
    1MPD1    H114040   0.979   0.955  17.325 -1.0271 -1.8232 -0.4333
    1MPD1    H214041   0.880   0.964  17.730 -1.1864 -1.7632  0.3349
    1MPD1    H314042   1.002   0.865  17.568 -0.1128 -0.8246  1.5332
    1MPD1     N14043   0.816   1.115  17.238  0.1529  0.3282 -0.6059
    1MPD1    H514044   0.912   1.109  17.205  0.7491 -1.4007  1.4109
    1MPD1    N114045   0.668   1.133  17.711 -0.3967  0.0398  0.8595
    1MPD1    H614046   0.612   1.214  17.684 -3.0757 -1.3845  2.1452
    1MPD1    H714047   0.713   1.132   0.050 -0.0174  0.5249  0.6760
    2MPD1     C14048   1.511   1.212  16.774  0.0697  0.2916 -0.3448
    2MPD1    C114049   1.460   1.152  16.887 -0.5308 -0.0553 -1.1456
    2MPD1    C214050   1.320   1.141  16.897 -0.0926  0.4755  0.0191
    2MPD1    C314051   1.230   1.209  16.815  0.9094 -0.2851  0.1283
    2MPD1    C414052   1.289   1.281  16.712  0.3614 -0.8118 -0.2458
    2MPD1    C514053   1.425   1.282  16.692  0.1677 -0.4169 -0.7207
    2MPD1     H14054   1.273   1.082  16.974  1.4141  1.1003  1.4269
    2MPD1    H114055   1.230   1.325  16.631 -0.1512 -0.4114  0.3408
    2MPD1    H214056   1.615   1.215  16.744  0.3128 -0.4630  0.4094
    2MPD1    H314057   1.464   1.338  16.608  0.2468  0.3736 -0.1615
    2MPD1     N14058   1.092   1.201  16.849  0.1663  0.1855 -0.3258
    2MPD1    H514059   1.064   1.152  16.933 -0.0809 -1.0386 -1.1234
    2MPD1    N114060   1.549   1.075  16.969  0.3483  0.4957  0.7296
    2MPD1    H614061   1.648   1.099  16.976 -0.0556  1.6918  2.1828
    2MPD1    H714062   1.521   1.033  17.057 -1.9671  1.3348  0.3841
    3TMC3    C114063   0.867   1.291  16.858 -0.1628  0.0383  0.3983
    3TMC3    C214064   0.769   1.382  16.813 -0.5805  0.3888  0.3542
    3TMC3    C314065   0.653   1.380  16.882  0.1200  0.3595  0.0595
    3TMC3    C414066   0.851   1.220  16.974  0.0896  0.1617 -0.7337
    3TMC3    C514067   0.730   1.222  17.038  0.0091 -0.0432  0.1259
    3TMC3    C614068   0.632   1.299  16.987 -0.7836  0.3439 -0.2722
    3TMC3     C14069   0.995   1.281  16.794 -0.1078 -0.2216 -0.6222
    3TMC3     O14070   1.007   1.360  16.704 -0.3628  0.5331 -0.0146
    3TMC3     H14071   0.783   1.417  16.712  0.6520  1.5759  0.9366
    3TMC3    H114072   0.921   1.154  17.023  0.6794  2.4924  1.5322
    3TMC3    H214073   0.534   1.302  17.034  0.1147  1.7806  1.5053
    3TMC3    C714074   0.706   1.162  17.168  0.2446 -0.4212  0.1509
    3TMC3    C814075   0.540   1.439  16.806  0.1323 -0.3502  0.4378
    3TMC3    O114076   0.594   1.177  17.212 -0.0264 -0.5123 -0.0172
    3TMC3    O214077   0.429   1.389  16.814  0.1839 -0.3557 -0.0139
    4MPD1     C14078   0.377   1.782  16.480 -1.2327 -0.3271  0.5680
    4MPD1    C114079   0.500   1.827  16.520 -0.2142 -0.9904 -0.0790
    4MPD1    C214080   0.562   1.757  16.614  0.2457 -0.4352 -0.2865
    4MPD1    C314081   0.493   1.644  16.670  0.3154  0.3328  0.6823
    4MPD1    C414082   0.361   1.614  16.639 -0.3208  0.8690 -0.4922
    4MPD1    C514083   0.303   1.697  16.551 -0.1694 -0.3776  0.4082
    4MPD1     H14084   0.663   1.787  16.638 -0.3029  1.6139 -0.5667
    4MPD1    H114085   0.304   1.537  16.689 -0.5816  0.8477 -0.8251
    4MPD1    H214086   0.320   1.843  16.411  0.6669 -0.0799 -0.7858
    4MPD1    H314087   0.201   1.681  16.519 -0.8642  0.0694  2.3903
    4MPD1     N14088   0.576   1.561  16.752  0.9038  0.0380  0.0270
    4MPD1    H514089   0.660   1.605  16.787  1.3052 -1.4407  0.9369
    4MPD1    N114090   0.570   1.912  16.438 -0.3784  1.0389  0.6577
    4MPD1    H614091   0.525   1.990  16.392 -0.1946  1.1606  0.6855
    4MPD1    H714092   0.660   1.942  16.476  0.7739 -1.1662 -0.3327
    1TCq1    O114093   2.855   1.412  12.251 -0.0174 -0.0453  0.0763
    1TCq1    C114094   2.767   1.510  12.222 -0.4400  0.8851 -0.2338
    1TCq1    O214095   2.715   1.589  12.301  0.5216  0.1438 -0.7424
    1TCq1    C214096   2.719   1.472  12.096 -0.2016  0.1260  0.2863
    1TCq1    C314097   2.797   1.410  12.002  0.2167  0.2202 -0.9793
    1TCq1    C414098   2.745   1.421  11.874  0.0566 -0.6924  0.2957
    1TCq1    C514099   2.624   1.460  11.839  0.1230 -0.3268  0.0721
    1TCq1    C614100   2.546   1.511  11.938 -0.2884 -0.1734  0.6345
    1TCq1    C714101   2.594   1.529  12.063  0.2545  0.1485 -0.0994
    1TCq1    C814102   2.406   1.544  11.916  0.1904 -0.6439 -0.3672
    1TCq1    O414103   2.345   1.598  12.009  0.2510 -0.1003  0.4293
    1TCq1    C914104   2.794   1.317  11.785 -0.7534 -0.2139 -0.1911
    1TCq1    O514105   2.872   1.236  11.834 -0.3956 -0.3205  0.2396
    1TCq1    O614106   2.713   1.288  11.698  0.5126 -0.1113  0.2967
    1TCq1    H114107   2.859   1.341  12.184 -0.2309  0.9644 -1.0035
    1TCq1    H214108   2.905   1.409  12.011  0.3890 -2.4423 -3.2489
    1TCq1    H314109   2.599   1.457  11.734 -0.9005  1.8535  0.2513
    1TCq1    H414110   2.535   1.572  12.143 -2.8712  0.5056 -2.6208
    2MPD1     C14111   1.979   1.613  11.625  0.0740  0.5114  0.1768
    2MPD1    C114112   2.084   1.564  11.548 -1.2219  0.2559 -0.0575
    2MPD1    C214113   2.208   1.542  11.603 -0.3434 -0.2702 -0.2790
    2MPD1    C314114   2.233   1.564  11.738 -0.1349  0.5831 -0.0305
    2MPD1    C414115   2.133   1.624  11.808 -0.5107 -0.4921 -0.9637
    2MPD1    C514116   2.010   1.648  11.752  0.0404  0.7272  0.2623
    2MPD1     H14117   2.282   1.498  11.538 -0.0003  0.1642 -0.1861
    2MPD1    H114118   2.141   1.655  11.911  1.1207 -0.7721 -1.0067
    2MPD1    H214119   1.877   1.623  11.589 -0.1573  0.8660  0.9317
    2MPD1    H314120   1.935   1.696  11.815  1.8841  2.9663  0.7604
    2MPD1     N14121   2.362   1.532  11.789  0.6527 -0.1492 -0.1791
    2MPD1    H514122   2.420   1.493  11.715  0.7632  0.8719 -0.6322
    2MPD1    N114123   2.065   1.535  11.415  0.0049  0.0533 -0.2190
    2MPD1    H614124   1.971   1.523  11.379 -0.7950  0.4097  1.7268
    2MPD1    H714125   2.131   1.469  11.375 -0.0734  0.8282 -1.6511
    1TMC1    C114126   0.125   2.094  17.577  0.5039  0.4304 -0.6195
    1TMC1    C214127   0.234   2.102  17.498  0.0740 -0.4040 -0.4419
    1TMC1    C314128   0.218   2.152  17.375 -0.3649 -0.6785 -0.2129
    1TMC1    C414129   0.006   2.146  17.538  0.3426 -0.4331  0.0114
    1TMC1    C514130   4.736   2.204  17.415  0.3507  0.6842  0.1229
    1TMC1    C614131   0.104   2.212  17.329  0.1673 -0.0333  0.8743
    1TMC1     C14132   0.147   2.056  17.716 -0.1026  0.0249 -0.4285
    1TMC1     O14133   0.071   1.974   0.020  0.3740  0.5727  0.0411
    1TMC1     H14134   0.313   2.028  17.508  1.3334  1.2014  1.2840
    1TMC1    H114135   4.664   2.145  17.611  0.2474 -0.6506 -0.0981
    1TMC1    H214136   0.116   2.257  17.231  0.4460 -0.8913  0.5114
    1TMC1    C714137   4.630   2.303  17.409  0.2865 -0.4314  0.0714
    1TMC1    C814138   0.334   2.152  17.289 -0.1728  0.3251 -0.7217
    1TMC1    O114139   4.576   2.343  17.514  0.1122  0.2472 -0.0778
    1TMC1    O214140   0.321   2.137  17.167  0.1101 -0.2301  0.1759
    1TMC1    O314141   4.633   2.367  17.297  0.3424 -0.2593 -0.0625
    1TMC1    H314142   4.656   2.313  17.218  2.0671 -1.8828  1.5776
    1TMC1    O514143   0.443   2.167  17.365 -0.7097  0.0619  0.2132
    1TMC1    H514144   0.422   2.215  17.447  1.3769  0.0313  0.7678
    2MPD1     C14145   0.456   2.121   0.382  0.8961 -0.2775 -0.3348
    2MPD1    C114146   0.506   2.204   0.279  0.2098  0.7306 -0.0934
    2MPD1    C214147   0.444   2.187   0.161 -0.4585 -0.0050  1.1404
    2MPD1    C314148   0.316   2.132   0.150  0.4087  0.3349  0.2851
    2MPD1    C414149   0.263   2.070   0.256  0.1563 -0.2097  0.1554
    2MPD1    C514150   0.337   2.052   0.367  0.1940  0.0575  0.2981
    2MPD1     H14151   0.491   2.223   0.070  1.1859 -1.3796  1.4231
    2MPD1    H114152   0.177   2.008   0.234  1.4566 -2.4378  1.3493
    2MPD1    H214153   0.518   2.107   0.470 -1.1668  0.7322  1.2887
    2MPD1    H314154   0.302   1.992   0.450 -3.2473 -1.6395 -2.3859
    2MPD1     N14155   0.259   2.126   0.017 -0.3210 -0.3126  0.2431
    2MPD1    H514156   0.312   2.178  17.701 -0.3108 -0.5208  0.0937
    2MPD1    N114157   0.636   2.251   0.288 -0.0891 -0.4133 -0.3151
    2MPD1    H614158   0.651   2.331   0.227 -0.4978  0.1812  0.3747
    2MPD1    H714159   0.650   2.287   0.382 -1.5724  0.4156 -0.4190
    1MPD1     C14160   3.596   0.893  11.946 -0.2342  0.4411 -0.1412
    1MPD1    C114161   3.635   0.920  12.077 -0.0334  0.3697 -0.0075
    1MPD1    C214162   3.757   0.983  12.090  0.8206 -1.0797  0.4359
    1MPD1    C314163   3.827   1.029  11.987 -0.7084  0.0124 -0.6166
    1MPD1    C414164   3.786   1.011  11.859 -0.0060  0.7296 -0.1176
    1MPD1    C514165   3.665   0.944  11.844 -0.2987  0.3631 -0.8407
    1MPD1     H14166   3.791   0.991  12.192 -1.8860  1.7535  1.1046
    1MPD1    H114167   3.846   1.021  11.770  1.2696  0.0869  0.6753
    1MPD1    H214168   3.499   0.853  11.920  0.8275 -2.4858  0.4851
    1MPD1    H314169   3.634   0.918  11.743  0.1856  2.0100 -1.4064
    1MPD1     N14170   3.955   1.079  12.017  0.3609  0.1982  0.5120
    1MPD1    H514171   3.970   1.104  12.114  2.3916  0.1669  0.2049
    1MPD1    N114172   3.572   0.864  12.190  0.3983  0.1394  0.0115
    1MPD1    H614173   3.595   0.910  12.278 -1.2813  0.9735  0.0116
    1MPD1    H714174   3.471   0.851  12.187  0.3182  0.6574  0.5650
    2MPD1     C14175   0.575   1.197  11.317  1.0091  0.4561 -0.3159
    2MPD1    C114176   0.490   1.250  11.228 -0.5371  0.2697  0.6477
    2MPD1    C214177   0.364   1.197  11.212 -0.0912  0.1054  0.2683
    2MPD1    C314178   0.315   1.091  11.285 -0.7093 -0.5147 -0.4212
    2MPD1    C414179   0.404   1.032  11.371  0.0705  0.2582  0.0970
    2MPD1    C514180   0.530   1.085  11.391 -0.5392  0.0937 -0.4362
    2MPD1     H14181   0.293   1.259  11.158 -0.7162 -1.0512 -0.2491
    2MPD1    H114182   0.381   0.937  11.419 -1.4590  1.6340  2.1231
    2MPD1    H214183   0.658   1.253  11.359 -0.1241  1.6675  0.3137
    2MPD1    H314184   0.591   1.042  11.470 -2.5768 -1.1460  0.4406
    2MPD1     N14185   0.183   1.043  11.285 -0.9049 -0.1485 -0.6499
    2MPD1    H514186   0.163   0.975  11.357 -2.0875 -0.6912 -1.4921
    2MPD1    N114187   0.533   1.370  11.163 -0.4668 -0.2784  0.4135
    2MPD1    H614188   0.452   1.398  11.106  0.7269  0.2329 -1.0378
    2MPD1    H714189   0.554   1.452  11.219 -0.1783 -1.1306  1.5301
    3MPD1     C14190   3.846   1.305  11.141 -0.5683  1.1443  0.4804
    3MPD1    C114191   3.881   1.299  11.272 -0.2601  0.2398  0.4644
    3MPD1    C214192   4.012   1.271  11.306  0.0052  0.1286 -0.4595
    3MPD1    C314193   4.108   1.235  11.206 -0.0296 -0.4401 -0.0645
    3MPD1    C414194   4.062   1.222  11.076  1.4520  0.4557 -0.8332
    3MPD1    C514195   3.940   1.279  11.040 -0.6624  0.2121 -0.0838
    3MPD1     H14196   4.035   1.275  11.411 -0.1148 -0.8784 -0.3874
    3MPD1    H114197   4.134   1.200  10.999  3.1015 -0.8514  1.0761
    3MPD1    H214198   3.747   1.326  11.103 -0.6015  0.9568  0.4634
    3MPD1    H314199   3.905   1.286  10.938 -1.3778 -3.0507 -0.0462
    3MPD1     N14200   4.236   1.198  11.253  0.0664  0.7540  0.0311
    3MPD1    H514201   4.256   1.209  11.352  0.2115  0.1519  0.0672
    3MPD1    N114202   3.800   1.356  11.366 -0.3631 -0.2816  0.3333
    3MPD1    H614203   3.702   1.334  11.348 -0.2456 -0.9697  0.5557
    3MPD1    H714204   3.822   1.324  11.460  3.1399  0.7274 -0.1584
    4MPD2     C14205   4.714   1.178  11.670  0.0651  0.0421  0.1041
    4MPD2    C114206   4.664   1.123  11.791 -0.0510  0.0834  0.4577
    4MPD2    C214207   4.732   1.026  11.850 -0.5350 -0.5074  0.2123
    4MPD2    C314208   0.121   0.981  11.807  0.2599  0.4865 -0.5941
    4MPD2    C414209   0.160   1.027  11.690  0.3578  0.0899 -0.2605
    4MPD2    C514210   0.096   1.129  11.622  0.1237 -0.1829  0.2817
    4MPD2     H14211   4.698   1.003  11.950 -1.3821  2.1647  0.5367
    4MPD2    H114212   0.258   1.008  11.647  0.5258 -0.0369  0.1862
    4MPD2    H214213   4.666   1.262  11.623 -0.6119 -0.5007 -0.1696
    4MPD2    H314214   0.143   1.178  11.537  0.0687 -0.5349  0.0480
    4MPD2     N14215   0.176   0.868  11.872  0.1829  0.9637  0.6122
    4MPD2    H514216   0.131   0.844  11.959 -1.1832 -0.9424 -0.6184
    4MPD2    N114217   4.553   1.162  11.863  0.2162  0.1283  0.2876
    4MPD2    H714218   4.533   1.117  11.952  1.7248  1.4415  1.3069
    5TMC3    C114219   4.384   1.279  11.945 -0.4775 -0.8972  0.3914
    5TMC3    C214220   4.261   1.244  11.901 -0.0782  0.4231 -0.0278
    5TMC3    C314221   4.181   1.168  11.976 -0.4569 -0.2233  1.0079
    5TMC3    C414222   4.432   1.235  12.068 -0.1131 -0.0742  0.3513
    5TMC3    C514223   4.349   1.164  12.151  0.1782  0.2958  0.0793
    5TMC3    C614224   4.223   1.128  12.100 -0.5988 -0.4823  0.0913
    5TMC3     C14225   4.472   1.272  11.838 -0.3315 -0.2349 -0.3987
    5TMC3     O14226   4.466   1.346  11.737 -0.2789  0.4941 -0.1174
    5TMC3     H14227   4.228   1.265  11.800 -0.4540 -0.0209  0.0083
    5TMC3    H114228   4.531   1.259  12.105  0.0618  1.5317 -1.1624
    5TMC3    H214229   4.154   1.071  12.162 -0.1582 -2.1342 -0.9237
    5TMC3    C714230   4.437   1.052  12.191  0.4055  0.2359 -0.6066
    5TMC3    C814231   4.045   1.134  11.924 -0.6554 -0.5255 -0.0688
    5TMC3    O114232   4.540   1.041  12.129  0.3904 -0.3808 -0.2906
    5TMC3    O214233   4.029   1.147  11.802  0.3106  0.4067  0.2590
    6TMC3    C114234   4.686   1.057  11.246 -0.3552 -0.2744  0.1425
    6TMC3    C214235   4.579   1.132  11.201  0.2231  0.5707 -0.6840
    6TMC3    C314236   4.448   1.113  11.252 -0.5604 -0.6352  0.5185
    6TMC3    C414237   4.668   0.971  11.354 -0.5224 -0.5586 -0.2790
    6TMC3    C514238   4.541   0.966  11.406 -0.1057 -0.5489 -0.8640
    6TMC3    C614239   4.431   1.036  11.360 -0.2381 -0.0171 -0.5941
    6TMC3     C14240   0.081   1.079  11.195 -0.5758  0.3888  0.0717
    6TMC3     O14241   0.092   1.157  11.100  0.2615  0.0959  0.2367
    6TMC3     H14242   4.596   1.200  11.119  1.1376 -0.3048 -1.2292
    6TMC3    H114243   0.004   0.904  11.395 -2.0925  0.1306  3.7531
    6TMC3    H214244   4.333   1.004  11.393  0.2132 -0.0003  0.7575
    6TMC3    C714245   4.520   0.851  11.501 -0.2106 -0.3343 -0.3839
    6TMC3    C814246   4.334   1.143  11.170  0.5114  0.2844  0.3467
    6TMC3    O114247   4.598   0.757  11.495 -1.4940 -0.1368 -0.3879
    6TMC3    O214248   4.344   1.116  11.051  0.1004 -0.0626 -0.2011
    7MPD2     C14249   4.577   0.631  12.454 -0.2469  0.3053  0.4663
    7MPD2    C114250   4.645   0.701  12.353 -0.0447 -0.7324 -0.3581
    7MPD2    C214251   4.581   0.810  12.302  0.5142 -0.0005 -0.1620
    7MPD2    C314252   4.450   0.845  12.334 -0.0581  1.3312  0.2088
    7MPD2    C414253   4.379   0.765  12.422  0.5432  0.3258  0.5520
    7MPD2    C514254   4.445   0.656  12.486  0.2545 -0.0025  0.3384
    7MPD2     H14255   4.632   0.868  12.225  2.3263 -0.3987  0.7371
    7MPD2    H114256   4.275   0.779  12.448  1.1314  0.5588  2.7160
    7MPD2    H214257   4.617   0.543  12.504  2.8134  0.8025 -1.1080
    7MPD2    H314258   4.395   0.596  12.562 -1.3518 -0.8196 -1.3812
    7MPD2     N14259   4.383   0.960  12.280 -0.3674 -0.1295 -0.3794
    7MPD2    H514260   4.291   0.985  12.314 -0.6465  1.3883 -2.2755
    7MPD2    N114261   0.030   0.656  12.302  0.1731  0.5731  0.4338
    7MPD2    H714262   0.060   0.562  12.326  2.4928  1.1515 -0.2119
    8TMC3    C114263   0.176   0.638  12.118  1.1580 -0.0710 -1.2970
    8TMC3    C214264   0.104   0.529  12.065 -0.0139  0.1286 -0.3007
    8TMC3    C314265   0.108   0.514  11.932  0.2799  0.1798 -0.6490
    8TMC3    C414266   0.264   0.706  12.046  0.7396 -0.3573  0.0998
    8TMC3    C514267   0.271   0.672  11.911  0.1991 -0.1960 -0.1490
    8TMC3    C614268   0.192   0.582  11.848 -0.4106  0.0965  0.0200
    8TMC3     C14269   0.103   0.723  12.207  0.4110 -0.4824 -0.6583
    8TMC3     O14270   0.104   0.842  12.175 -0.0058  0.1379  0.4219
    8TMC3     H14271   0.049   0.465  12.133 -0.8288  0.1025 -0.9892
    8TMC3    H114272   0.315   0.794  12.084  0.7767 -0.1815 -0.3615
    8TMC3    H214273   0.188   0.575  11.740  0.7804  0.7164 -0.0573
    8TMC3    C714274   0.272   0.785  11.821  0.4122  0.0652 -0.1048
    8TMC3    C814275   4.718   0.505  11.874 -0.6971 -0.7832 -0.3162
    8TMC3    O114276   0.333   0.784  11.715  0.0839  0.2748  0.4898
    8TMC3    O214277   4.709   0.476  11.757 -0.0282  1.0882 -0.3661
    9MPD2     C14278   4.446   0.715  11.986 -0.1115  0.3077 -0.5085
    9MPD2    C114279   4.538   0.678  11.897  0.5875 -0.2357 -0.5998
    9MPD2    C214280   4.544   0.730  11.772 -1.1027 -0.3708  0.1288
    9MPD2    C314281   4.447   0.830  11.734 -0.6265  0.8250  0.5157
    9MPD2    C414282   4.357   0.871  11.827  0.5379 -0.0071  0.3631
    9MPD2    C514283   4.350   0.799  11.945  0.3229 -0.1054  0.5462
    9MPD2     H14284   4.627   0.695  11.710 -0.9416 -0.8625  0.6231
    9MPD2    H114285   4.271   0.929  11.794  1.7989  1.0575 -1.0646
    9MPD2    H214286   4.455   0.685  12.089 -1.7231  0.3448 -0.3689
    9MPD2    H314287   4.279   0.825  12.023  0.3479 -2.4106  1.3352
    9MPD2     N14288   4.450   0.896  11.612 -0.5857  0.2668 -0.0711
    9MPD2    H514289   4.379   0.966  11.592 -0.1945  0.9356  0.8830
    9MPD2    N114290   4.629   0.584  11.949 -0.4326  0.2286 -0.1302
    9MPD2    H714291   4.617   0.566  12.048 -0.9285  0.6827 -0.1113
    1MPD1     C14292   4.721   0.115  16.818  0.2060  0.5179  0.1536
    1MPD1    C114293   4.703   0.029  16.705 -0.3872 -0.1601  0.5124
    1MPD1    C214294   4.606   4.677  16.705  0.2293  0.1659 -0.3852
    1MPD1    C314295   4.516   4.668  16.810 -0.0258 -0.5154  0.0071
    1MPD1    C414296   4.544   0.004  16.926  1.0723  0.0790 -0.3403
    1MPD1    C514297   4.648   0.093  16.930  0.3754 -0.3544 -0.0709
    1MPD1     H14298   4.589   4.619  16.616 -3.5859  1.3765 -0.4491
    1MPD1    H114299   4.486   4.723  17.016 -0.2657 -0.0802 -1.2392
    1MPD1    H214300   0.072   0.175  16.816  1.4002 -1.2282  1.4843
    1MPD1    H314301   4.658   0.158  17.015  0.2602 -1.5377  0.8453
    1MPD1     N14302   4.407   4.578  16.803 -0.1426 -0.3954  0.0842
    1MPD1    H514303   4.348   4.573  16.885 -1.0914 -1.3617 -0.6488
    1MPD1    N114304   0.017   0.066  16.578 -0.0231  0.3764  0.2179
    1MPD1    H614305   0.042   4.725  16.520 -1.2636 -0.3272  0.6509
    1MPD1    H714306   0.104   0.115  16.599  0.2072 -0.5455  1.4663
    2TMC2    C114307   4.097   4.284  16.615 -0.7153 -0.0695  0.2557
    2TMC2    C214308   4.101   4.192  16.719  0.8960 -0.7103 -0.3226
    2TMC2    C314309   4.188   4.226  16.821  0.1905 -0.3604  0.0873
    2TMC2    C414310   4.177   4.394  16.610 -0.2927 -0.4855 -0.0226
    2TMC2    C514311   4.259   4.419  16.711  0.3347 -0.0266  0.8911
    2TMC2    C614312   4.269   4.339  16.823 -0.7622 -0.5396  0.4453
    2TMC2     C14313   3.994   4.258  16.520  0.1012  0.3048 -0.9433
    2TMC2     O14314   3.906   4.183  16.558 -0.0150  0.0236 -0.0902
    2TMC2     H14315   4.042   4.102  16.713  0.2898 -0.5105  2.2710
    2TMC2    H114316   4.176   4.468  16.531  0.9311 -1.7127 -1.1765
    2TMC2    H214317   4.346   4.352  16.898 -0.2433 -1.9599  0.1562
    2TMC2    C714318   4.364   4.516  16.689  0.3904 -0.1763  0.4261
    2TMC2    C814319   4.228   4.114  16.906 -0.4373 -0.5072  0.0136
    2TMC2    O114320   4.391   4.530  16.569 -0.1263  0.1208  0.4881
    2TMC2    O214321   4.203   4.004  16.853 -0.0569  0.2480 -0.1011
    2TMC2    O514322   4.207   4.150  17.037 -0.2114 -0.3664 -0.2830
    2TMC2    H514323   4.230   4.245  17.043  1.3202 -0.8798  1.9765
    3MPD1     C14324   3.753   4.346  16.059  0.2739 -0.8201  0.4678
    3MPD1    C114325   3.885   4.400  16.055  0.0928  0.0321  0.0885
    3MPD1    C214326   3.966   4.388  16.169  0.0056  0.6269  0.8598
    3MPD1    C314327   3.921   4.327  16.288  0.2501  0.3623 -0.4224
    3MPD1    C414328   3.790   4.286  16.295 -0.6372  0.7478 -0.3227
    3MPD1    C514329   3.714   4.297  16.180 -0.1728 -0.6306 -0.3856
    3MPD1     H14330   4.068   4.421  16.159  0.0076  0.1357 -0.7520
    3MPD1    H114331   3.742   4.242  16.381  0.5770  0.4266  0.1738
    3MPD1    H214332   3.689   4.361  15.972  0.3856 -0.1722  0.4970
    3MPD1    H314333   3.615   4.255  16.192 -1.2850  1.9868 -0.3380
    3MPD1     N14334   4.013   4.326  16.400 -0.2737  0.1347 -0.5145
    3MPD1    H514335   4.093   4.388  16.389  0.1730 -0.4502 -0.5494
    3MPD1    N114336   3.944   4.432  15.933  0.1912  0.5967  0.2458
    3MPD1    H614337   3.996   4.519  15.947  0.7182  0.7884 -2.8661
    3MPD1    H714338   3.875   4.456  15.862 -1.4581  0.3514  1.7570
    1TMC1    C114339   2.104   3.986  13.297  0.4176 -0.1133 -0.6439
    1TMC1    C214340   2.107   3.874  13.372 -0.0288 -0.5125 -0.3123
    1TMC1    C314341   2.063   3.756  13.318  0.6222  0.1878 -0.8614
    1TMC1    C414342   2.048   3.989  13.173 -0.6988 -0.4478  0.9947
    1TMC1    C514343   1.998   3.867  13.126  0.2597  0.3263  0.1121
    1TMC1    C614344   2.007   3.749  13.195  0.1339 -0.8262 -0.3823
    1TMC1     C14345   2.209   4.086  13.311  0.0053 -0.5198  0.3768
    1TMC1     O14346   2.216   4.186  13.241  0.0462  0.8778 -0.1489
    1TMC1     H14347   2.151   3.871  13.471  1.6814  0.1443 -1.0486
    1TMC1    H114348   2.032   4.080  13.116  1.0162 -1.6895 -1.4576
    1TMC1    H214349   1.969   3.649  13.177 -0.7439 -0.0229 -2.8913
    1TMC1    C714350   1.963   3.867  12.996  0.9861  0.5026  0.2438
    1TMC1    C814351   2.103   3.637  13.392 -0.0001 -0.8361  0.2955
    1TMC1    O114352   1.992   3.956  12.919  0.5292 -0.0988 -0.1109
    1TMC1    O214353   2.113   3.527  13.341  0.0190 -0.1729  0.2336
    1TMC1    O314354   1.899   3.756  12.963 -0.3767  0.3960  0.0337
    1TMC1    H314355   1.885   3.684  13.028 -0.5531  0.5108  0.1226
    1TMC1    O514356   2.036   3.657  13.503  0.1516  0.3523 -0.1295
    1TMC1    H514357   2.040   3.748  13.541  1.0803  0.4648 -0.5002
    2MPD2     C14358   2.464   4.234  13.384  0.7145  0.0898 -0.2644
    2MPD2    C114359   2.419   4.121  13.443  0.1443 -0.5097  0.4354
    2MPD2    C214360   2.494   4.072  13.552  0.5548  0.3952  0.1924
    2MPD2    C314361   2.605   4.146  13.593 -0.7922 -0.0467 -0.9179
    2MPD2    C414362   2.633   4.274  13.539 -0.3148  0.3182  0.4814
    2MPD2    C514363   2.550   4.318  13.438  0.3746  0.2428  0.5587
    2MPD2     H14364   2.481   3.972  13.592 -2.3698 -0.4834 -2.8864
    2MPD2    H114365   2.714   4.336  13.577 -0.5911  0.6120  0.5869
    2MPD2    H214366   2.421   4.279  13.296  0.2050 -0.1661 -0.1468
    2MPD2    H314367   2.555   4.413  13.386 -2.2974  0.8719  1.4730
    2MPD2     N14368   2.684   4.085  13.694 -0.6902 -0.3114  1.2020
    2MPD2    H514369   2.655   3.990  13.714 -1.5408 -0.2719  0.1205
    2MPD2    N114370   2.307   4.045  13.402 -0.0563  0.0056 -0.0965
    2MPD2    H714371   2.305   3.953  13.446  1.1834 -0.4658 -1.0203
    3TCq1    O114372   2.878   3.631  14.025 -0.0675 -0.4325  0.1980
    3TCq1    C114373   2.813   3.710  13.945  0.7615 -0.3883  0.3309
    3TCq1    O214374   2.730   3.677  13.863  0.1245 -0.3146  0.0024
    3TCq1    C214375   2.842   3.844  13.970  0.4789 -0.3334  0.5352
    3TCq1    C314376   2.895   3.891  14.086 -0.6610 -0.7925 -0.2926
    3TCq1    C414377   2.911   4.022  14.103  0.0639  0.5746 -0.1564
    3TCq1    C514378   2.864   4.119  14.006  0.0230 -0.2045 -0.1659
    3TCq1    C614379   2.831   4.064  13.881  0.9593  0.2866  0.2447
    3TCq1    C714380   2.811   3.929  13.867  0.5158 -0.3951 -0.2236
    3TCq1    C814381   2.777   4.148  13.778  0.1756 -0.2087  0.2573
    3TCq1    O414382   2.817   4.265  13.772 -0.3893 -0.2959  0.3445
    3TCq1    C914383   2.953   4.082  14.232  0.5737  0.5753  0.2993
    3TCq1    O514384   2.975   4.010  14.328  0.2668  0.0278 -0.5184
    3TCq1    O614385   3.004   4.198  14.229  0.0554 -0.0448 -0.0665
    3TCq1    H114386   2.957   3.668  14.069  0.0864  0.1828 -0.6095
    3TCq1    H214387   2.922   3.834  14.174 -0.3630  0.0839  0.1864
    3TCq1    H314388   2.865   4.227  14.015  1.5020 -0.3417  1.1447
    3TCq1    H414389   2.786   3.891  13.769  0.0976  0.1182 -0.3167
    1MPD2     C14390   1.437   0.320  15.394  0.5144 -0.1359 -0.6577
    1MPD2    C114391   1.380   0.195  15.375 -0.2973 -0.2979 -0.1371
    1MPD2    C214392   1.451   0.103  15.303 -0.4842  0.2465  0.9855
    1MPD2    C314393   1.587   0.120  15.276  0.6276 -0.4495  0.0646
    1MPD2    C414394   1.646   0.236  15.322  0.0171 -0.1024  0.0234
    1MPD2    C514395   1.571   0.340  15.374  0.0014 -0.7814  0.2565
    1MPD2     H14396   1.399   0.011  15.279 -1.0712 -0.0522  3.3999
    1MPD2    H114397   1.753   0.251  15.315  0.1724 -1.1955 -0.0021
    1MPD2    H214398   1.399   0.409  15.442 -0.4486 -0.9650  0.1121
    1MPD2    H314399   1.617   0.437  15.390 -1.6188 -0.3313  2.0933
    1MPD2     N14400   1.656   0.009  15.227 -0.3782 -0.7591  0.5208
    1MPD2    H514401   1.595   4.669  15.210 -0.5283 -0.3684 -0.7103
    1MPD2    N114402   1.246   0.171  15.418 -0.9200  0.0588 -0.6397
    1MPD2    H714403   1.199   0.242  15.473  0.1169  3.5206 -4.1990
    2TMC3    C114404   1.035   0.070  15.449 -0.4362 -0.0281 -0.1483
    2TMC3    C214405   0.975   4.689  15.417  0.4296  0.4991 -0.1260
    2TMC3    C314406   0.888   4.690  15.307 -0.4416 -0.0219 -0.5767
    2TMC3    C414407   0.997   0.192  15.395 -0.7574  0.0929 -0.1145
    2TMC3    C514408   0.913   0.184  15.284 -0.3618  0.3083  0.3330
    2TMC3    C614409   0.856   0.063  15.235 -0.4133 -0.4732 -0.1260
    2TMC3     C14410   1.176   0.054  15.410  0.7704  0.4888 -0.0157
    2TMC3     O14411   1.200   4.682  15.358 -0.1388 -0.6564 -0.8063
    2TMC3     H14412   0.996   4.593  15.463 -0.5016  0.5113  0.3108
    2TMC3    H114413   1.028   0.279  15.452  1.7311 -1.6029  1.1195
    2TMC3    H214414   0.801   0.059  15.142  1.6917 -1.3741 -1.3251
    2TMC3    C714415   0.924   0.301  15.193  0.2565 -0.0872  0.1306
    2TMC3    C814416   0.893   4.566  15.223  0.6591  0.1769 -0.6019
    2TMC3    O114417   0.867   0.299  15.085  0.1489 -0.4649 -0.2218
    2TMC3    O214418   0.804   4.533  15.149 -0.1998 -0.3629 -0.2600
    3TCq1    O114419   1.985   0.865  15.257 -0.5162  0.2754  0.5466
    3TCq1    C114420   1.913   0.973  15.227 -0.0341 -0.1907  0.1473
    3TCq1    O214421   1.924   1.031  15.116  0.6710 -0.3820  0.0736
    3TCq1    C214422   1.784   0.941  15.287  0.8146  0.1410  0.6077
    3TCq1    C314423   1.783   0.909  15.416 -0.0696 -0.1725 -0.1801
    3TCq1    C414424   1.668   0.840  15.457  0.8138  0.3021  1.1525
    3TCq1    C514425   1.567   0.811  15.369 -0.5649 -0.2139  0.3837
    3TCq1    C614426   1.575   0.838  15.235  0.1370 -0.2115 -0.1403
    3TCq1    C714427   1.689   0.903  15.192 -0.0417 -0.1823  0.5489
    3TCq1    C814428   1.483   0.782  15.138  0.1908  0.1039  0.2764
    3TCq1    O414429   1.495   0.829  15.027  0.4222 -1.0780 -0.3213
    3TCq1    C914430   1.644   0.815  15.592 -0.9733 -0.4429  0.2790
    3TCq1    O514431   1.684   0.905  15.671 -0.7677  0.4942 -0.4820
    3TCq1    O614432   1.569   0.718  15.620  0.4130  0.0416  0.5934
    3TCq1    H114433   1.947   0.817  15.334 -1.4717 -0.3006 -0.2878
    3TCq1    H214434   1.861   0.936  15.487  1.3430 -0.7941 -1.5116
    3TCq1    H314435   1.470   0.783  15.407 -0.9121  1.9705  1.1339
    3TCq1    H414436   1.693   0.927  15.086 -0.5184  0.9317  0.7781
    4MPD2     C14437   1.281   0.616  14.998  0.1850  0.8849  0.0059
    4MPD2    C114438   1.300   0.613  15.134  0.1883  0.2566 -0.0101
    4MPD2    C214439   1.207   0.542  15.209  0.7018 -0.1359 -0.7786
    4MPD2    C314440   1.101   0.466  15.154  0.2685  0.7235 -0.3522
    4MPD2    C414441   1.082   0.482  15.017  0.5296 -0.2219  0.2377
    4MPD2    C514442   1.170   0.557  14.943  0.8833  0.5980  0.0854
    4MPD2     H14443   1.204   0.544  15.318  0.0978 -0.5622 -0.7830
    4MPD2    H114444   1.005   0.426  14.964  1.9114 -2.4729  0.5720
    4MPD2    H214445   1.346   0.671  14.932  1.2919 -0.1547  0.2357
    4MPD2    H314446   1.159   0.559  14.835  3.2095  1.0619 -0.1486
    4MPD2     N14447   1.023   0.385  15.235  0.7085 -0.1408 -0.0940
    4MPD2    H514448   1.049   0.375  15.332 -0.6358  0.0057  0.2862
    4MPD2    N114449   1.403   0.684  15.200 -0.5311  0.0851 -0.8935
    4MPD2    H714450   1.415   0.670  15.299 -0.4542 -0.1501 -0.9352
    5TMC2    C114451   1.636   4.469  15.041  0.7330 -0.4653  0.5037
    5TMC2    C214452   1.690   4.370  15.123  0.2807 -0.0847  0.4302
    5TMC2    C314453   1.811   4.391  15.177 -0.1367 -0.3930 -0.0865
    5TMC2    C414454   1.698   4.592  15.039  0.4726  0.6837 -0.4102
    5TMC2    C514455   1.811   4.616  15.112  0.0753  0.4211  0.1800
    5TMC2    C614456   1.877   4.511  15.173 -0.6093 -0.1558  0.2541
    5TMC2     C14457   1.492   4.487  15.056 -0.0041  0.3261 -0.1741
    5TMC2     O14458   1.456   4.601  15.082  0.0171  0.7261  0.4944
    5TMC2     H14459   1.640   4.274  15.132 -2.7979  1.4710 -0.1330
    5TMC2    H114460   1.652   4.677  14.989  0.4507  0.5419 -0.6310
    5TMC2    H214461   1.967   4.540  15.226 -0.2788  1.7546 -1.3831
    5TMC2    C714462   1.786   4.735  15.191 -0.3065 -0.3682 -1.0178
    5TMC2    C814463   1.865   4.295  15.278 -0.2635  0.2706  0.0768
    5TMC2    O114464   1.886   0.061  15.212  0.1735 -0.5032  0.0411
    5TMC2    O214465   1.797   4.227  15.351  0.2820  0.4233 -0.2070
    5TMC2    O514466   1.997   4.276  15.255 -0.3833  0.0510  0.5482
    5TMC2    H514467   2.038   4.323  15.178  1.0631  0.0145  1.2966
    6MPD2     C14468   1.011   4.344  15.066 -0.0022  0.3998 -0.8648
    6MPD2    C114469   1.085   4.440  15.144  0.3866  0.4910  0.2932
    6MPD2    C214470   1.223   4.441  15.138  0.1190 -0.5890 -0.1205
    6MPD2    C314471   1.284   4.351  15.058 -0.3409  0.0148  0.3002
    6MPD2    C414472   1.210   4.253  14.990 -0.0094  0.0848  0.0120
    6MPD2    C514473   1.077   4.252  14.993  0.6534 -0.5177 -0.2121
    6MPD2     H14474   1.281   4.501  15.207  0.2389  0.9363 -1.5621
    6MPD2    H114475   1.256   4.175  14.930 -0.7034  0.6466 -1.2453
    6MPD2    H214476   0.903   4.342  15.074  0.0516  0.2988 -0.1704
    6MPD2    H314477   1.020   4.174  14.943 -1.8901  0.4457  1.2035
    6MPD2     N14478   1.422   4.372  15.027 -0.0683 -0.8441 -0.0019
    6MPD2    H514479   1.468   4.293  14.982 -2.0548 -1.6190 -0.7095
    6MPD2    N114480   1.028   4.541  15.225 -0.0871 -0.7924  0.3740
    6MPD2    H714481   1.090   4.604  15.274 -1.9012  2.1106 -1.0671
  945NH4     N114482   2.655   3.739  16.166  0.0504  0.6357 -0.3669
  945NH4     H214483   2.635   3.767  16.264 -1.7934  0.4281 -0.6775
  945NH4     H314484   2.619   3.647  16.135 -0.5652  0.6984  0.1743
  945NH4     H414485   2.757   3.748  16.150  0.2205  0.8463  0.8748
  945NH4     H514486   2.616   3.812  16.102  1.2076  3.0321  1.6595
  946SOD     NA14487   2.285   1.858  10.815  0.0634 -0.7356  0.1982
  947SOD     NA14488   4.424   3.728  12.549 -0.3423 -0.1297  0.1292
  948SOD     NA14489   2.878   0.888  12.316 -0.6408  0.0679  0.6174
  949SOD     NA14490   3.313   2.321  16.641 -0.2095  0.1889  0.3386
  950SOD     NA14491   3.256   1.221  12.047 -0.2736 -0.2753  0.0455
  951SOD     NA14492   3.422   0.245  17.262 -0.0023  0.0323 -0.4065
  952SOD     NA14493   2.394   1.241   2.689 -0.3324 -0.3806  0.7747
  953SOL     OW14494   3.222   2.994   8.535  0.0451 -0.4333 -0.1216
  953SOL    HW114495   3.165   3.043   8.476 -0.2723 -0.8125 -0.1320
  953SOL    HW214496   3.174   3.010   8.616  0.9983  1.3795  0.0849
  954SOL     OW14497   4.075   2.028   0.539 -0.2584  0.2904  0.2521
  954SOL    HW114498   4.113   2.031   0.626 -3.3545  0.0281  1.6093
  954SOL    HW214499   3.991   1.983   0.553 -1.7803  3.3152  0.7627
  955SOL     OW14500   4.117   1.585   8.515  0.3520 -0.3932  0.0272
  955SOL    HW114501   4.173   1.510   8.536  1.4681 -0.0155 -1.6054
  955SOL    HW214502   4.031   1.545   8.521  0.6690 -0.9048  1.2207
  956SOL     OW14503   2.183   0.844   7.993  0.0170  0.0543 -0.1912
  956SOL    HW114504   2.252   0.864   8.056 -0.6533 -1.3215  0.9802
  956SOL    HW214505   2.132   0.925   8.004 -1.6475 -1.4611  3.4408
  957SOL     OW14506   1.503   2.515   8.466  0.0865 -0.3628 -0.7880
  957SOL    HW114507   1.416   2.549   8.485  0.5678 -1.0490  2.6122
  957SOL    HW214508   1.537   2.549   8.383  0.8454 -0.3441 -0.4653
  958SOL     OW14509   3.136   2.070  12.731 -0.8790  0.5571  0.2925
  958SOL    HW114510   3.056   2.034  12.769 -1.1530  1.1087  0.2424
  958SOL    HW214511   3.097   2.085  12.645  1.6683  0.3927 -0.8922
  959SOL     OW14512   1.228   0.685   9.637 -0.1293 -0.0873  0.2168
  959SOL    HW114513   1.188   0.645   9.560  1.5373 -0.5652 -0.3788
  959SOL    HW214514   1.267   0.766   9.603  0.2202 -0.1501  0.4707
  960SOL     OW14515   1.069   1.813   1.653  0.4874  0.5966 -0.2891
  960SOL    HW114516   1.098   1.842   1.566 -0.8559  2.2706 -0.2059
  960SOL    HW214517   1.065   1.720   1.633  1.8207  0.5206 -0.1652
  961SOL     OW14518   3.266   0.769   9.554 -0.0829 -0.1010  0.0583
  961SOL    HW114519   3.294   0.820   9.630 -0.6308 -4.1027  2.9631
  961SOL    HW214520   3.303   0.820   9.482 -0.1996 -0.0364  0.0450
  962SOL     OW14521   2.819   2.168   6.502  0.1401  0.0122  0.3542
  962SOL    HW114522   2.777   2.084   6.521 -1.4001  1.1506  1.9834
  962SOL    HW214523   2.736   2.211   6.481  0.7877  1.6269  1.1078
  963SOL     OW14524   4.291   4.648   4.391 -0.0477  0.1827 -0.1672
  963SOL    HW114525   4.211   4.667   4.440 -1.3405 -0.3540 -2.1210
  963SOL    HW214526   4.292   4.553   4.384  2.9634  0.4336 -3.3091
  964SOL     OW14527   1.682   3.550   5.320  0.1164  0.4446 -0.2017
  964SOL    HW114528   1.686   3.644   5.300  0.9616  0.5412  0.3642
  964SOL    HW214529   1.704   3.549   5.413 -1.1821 -0.6304  0.0804
  965SOL     OW14530   2.703   4.543   0.977 -0.9174  0.5065  0.3557
  965SOL    HW114531   2.745   4.488   0.910 -2.1375  0.4649 -0.3756
  965SOL    HW214532   2.709   4.487   1.054 -1.9212 -0.5452 -0.3351
  966SOL     OW14533   0.888   4.594   3.058 -0.6285 -0.5207 -0.0436
  966SOL    HW114534   0.951   4.542   3.108  0.9000  1.1908 -0.1902
  966SOL    HW214535   0.912   4.557   2.973  2.1293 -0.4293  0.6962
  967SOL     OW14536   4.168   1.280  12.900 -0.5452 -0.1197  0.3865
  967SOL    HW114537   4.151   1.361  12.949  0.2798  0.3448 -0.0976
  967SOL    HW214538   4.256   1.259  12.931 -0.8933 -3.4341 -0.8727
  968SOL     OW14539   4.700   1.743   2.623  0.4384 -0.1509 -0.8579
  968SOL    HW114540   4.646   1.790   2.687  1.9955  1.7608 -0.9323
  968SOL    HW214541   4.709   1.806   2.551  1.4141 -2.1223 -2.4445
  969SOL     OW14542   2.620   1.470   4.869  0.2868 -0.1375  0.7125
  969SOL    HW114543   2.716   1.472   4.863  0.1778  1.2280 -0.6870
  969SOL    HW214544   2.607   1.544   4.809 -0.6943 -2.6516 -2.1790
  970SOL     OW14545   1.922   3.104   8.834  0.0025  0.3444 -0.2217
  970SOL    HW114546   1.874   3.031   8.795 -2.0415  1.9100 -0.6330
  970SOL    HW214547   1.959   3.145   8.756 -2.0973 -1.6708 -2.2814
  971SOL     OW14548   4.738   0.644   9.676 -0.0874  0.3850 -0.3593
  971SOL    HW114549   0.082   0.641   9.628  0.0483  0.6984 -0.1413
  971SOL    HW214550   4.673   0.631   9.606  0.4873 -0.9879 -0.6385
  972SOL     OW14551   3.298   4.240   8.736 -0.1037 -0.2140 -0.3608
  972SOL    HW114552   3.320   4.197   8.819 -3.2967 -2.9099 -0.9382
  972SOL    HW214553   3.204   4.244   8.757 -0.5449 -0.8581 -2.2639
  973SOL     OW14554   3.920   0.414   3.709 -0.1498  0.0276  0.5742
  973SOL    HW114555   3.861   0.480   3.674  2.1153  1.5160 -0.4859
  973SOL    HW214556   3.921   0.438   3.802  0.8940 -0.7636  0.7747
  974SOL     OW14557   0.765   1.901   2.415  0.0787 -0.6769  0.1185
  974SOL    HW114558   0.808   1.818   2.438 -0.0139 -1.2226 -1.6645
  974SOL    HW214559   0.711   1.905   2.494 -1.1570 -1.4816 -0.6966
  975SOL     OW14560   4.021   0.060   2.280 -0.3640 -0.6313  0.1872
  975SOL    HW114561   4.076   0.078   2.356  0.4076 -3.3824  0.3170
  975SOL    HW214562   4.023   4.705   2.303  1.1372 -0.6376  0.0544
  976SOL     OW14563   0.284   0.811   5.913  0.1448 -0.4539  0.0949
  976SOL    HW114564   0.362   0.811   5.857  1.3491  1.3604  1.7200
  976SOL    HW214565   0.294   0.889   5.968  0.7582 -1.0531  0.8391
  977SOL     OW14566   4.396   0.873   4.590  0.1192 -0.2172  0.2150
  977SOL    HW114567   4.373   0.796   4.538 -0.1556 -0.4060  0.6169
  977SOL    HW214568   4.456   0.831   4.652 -1.4886 -1.3287  0.9883
  978SOL     OW14569   2.195   4.171   5.120 -0.4656  0.1577 -0.2352
  978SOL    HW114570   2.137   4.227   5.172 -0.6850  1.3212 -1.7239
  978SOL    HW214571   2.153   4.173   5.034  0.7596 -0.2845 -0.8448
  979SOL     OW14572   2.203   2.709   5.970  0.6173 -0.3172 -0.0425
  979SOL    HW114573   2.169   2.624   5.945 -0.8361  0.2389  0.0313
  979SOL    HW214574   2.157   2.716   6.053  0.1084  0.3537 -0.3769
  980SOL     OW14575   3.175   4.461   5.382  0.4231  0.0638 -0.2488
  980SOL    HW114576   3.199   4.454   5.474  1.7451  2.3814 -0.4158
  980SOL    HW214577   3.166   4.556   5.377  0.8062  0.1810  1.4975
  981SOL     OW14578   4.117   2.202  12.181 -0.6781  0.2620 -0.6740
  981SOL    HW114579   4.132   2.216  12.275 -0.7320 -0.7124 -0.5200
  981SOL    HW214580   4.172   2.126  12.162  0.3960  0.7051  0.5660
  982SOL     OW14581   4.006   1.331   8.198  0.1282 -0.5509 -0.9298
  982SOL    HW114582   3.945   1.264   8.227 -0.2779  0.4933  0.6468
  982SOL    HW214583   4.080   1.315   8.256 -0.1932  0.5345 -0.2227
  983SOL     OW14584   4.485   0.198   3.431 -0.1132 -0.1551  0.1655
  983SOL    HW114585   4.547   0.161   3.368  1.7034  2.9224  0.0987
  983SOL    HW214586   4.421   0.128   3.443 -0.4778  0.1956  0.2643
  984SOL     OW14587   2.544   4.100   4.554  0.1145  0.0457  0.6536
  984SOL    HW114588   2.557   4.169   4.489  0.5267 -0.5482  0.1092
  984SOL    HW214589   2.451   4.117   4.568 -0.6004 -2.2014 -1.4176
  985SOL     OW14590   0.461   0.729   0.139  0.6889 -0.0886  0.3512
  985SOL    HW114591   0.454   0.783   0.060 -2.8928 -2.0844 -0.6697
  985SOL    HW214592   0.503   0.799   0.189 -0.2952 -0.5487  1.8414
  986SOL     OW14593   0.481   2.559   2.914 -0.3440 -0.0961  0.1678
  986SOL    HW114594   0.447   2.558   3.003  0.0955  1.3414  0.3515
  986SOL    HW214595   0.408   2.521   2.865 -0.0795 -0.3434 -0.0360
  987SOL     OW14596   3.206   1.927   9.547 -0.1721 -0.5736  0.2378
  987SOL    HW114597   3.272   1.995   9.531 -0.8754  0.4086  1.5659
  987SOL    HW214598   3.134   1.975   9.507  1.4600 -0.5967 -2.7172
  988SOL     OW14599   4.615   2.816   1.828 -0.3625 -0.0623  0.1253
  988SOL    HW114600   4.652   2.767   1.902 -3.2074 -0.8269  1.0192
  988SOL    HW214601   4.578   2.747   1.771 -1.2931 -2.4414  3.6055
  989SOL     OW14602   0.356   0.209  11.084  0.2577  0.8438  0.3951
  989SOL    HW114603   0.270   0.173  11.062 -0.1487  1.8260  0.3913
  989SOL    HW214604   0.341   0.264  11.160 -1.2289 -0.5270  1.0980
  990SOL     OW14605   4.081   4.700   1.313  0.2952  0.3823  0.3061
  990SOL    HW114606   4.087   0.026   1.242 -1.2276 -0.5141 -0.6594
  990SOL    HW214607   4.175   4.690   1.329  0.3241  1.0107  0.5340
  991SOL     OW14608   0.449   3.930   2.463  0.5796 -0.1401  0.0287
  991SOL    HW114609   0.427   4.012   2.506  0.6676 -1.4607  2.5815
  991SOL    HW214610   0.425   3.863   2.527 -0.2571  0.1566  0.0241
  992SOL     OW14611   0.411   0.292  17.156 -0.4046  0.0438  0.1445
  992SOL    HW114612   0.445   0.287  17.246  2.7714 -3.6364 -1.2557
  992SOL    HW214613   0.344   0.360  17.167 -1.4635 -0.7680 -1.2771
  993SOL     OW14614   4.187   4.041   8.876  0.0971  0.6705  0.1982
  993SOL    HW114615   4.250   3.996   8.932  0.6385  0.8508 -0.2656
  993SOL    HW214616   4.115   4.069   8.933 -0.7675 -0.2279 -0.4468
  994SOL     OW14617   1.679   2.844   3.383  0.1042 -0.0094  0.1890
  994SOL    HW114618   1.680   2.938   3.401 -3.3524 -0.6636  3.7223
  994SOL    HW214619   1.589   2.816   3.367  1.2709 -1.7612 -3.1714
  995SOL     OW14620   2.339   4.036   9.246  0.0422  0.5414 -0.2430
  995SOL    HW114621   2.307   3.947   9.237  1.5850 -0.2105  1.7663
  995SOL    HW214622   2.316   4.068   9.333  2.4917 -0.8786  0.9123
  996SOL     OW14623   4.116   3.413  10.613  0.0230 -0.0789  0.2792
  996SOL    HW114624   4.192   3.471  10.620 -0.0679 -0.1605  1.8853
  996SOL    HW214625   4.125   3.369  10.698  1.2367 -2.1218 -0.9080
  997SOL     OW14626   3.958   1.692   8.233 -0.0098 -0.0261  0.2069
  997SOL    HW114627   3.978   1.605   8.199  1.6504  1.6395 -3.1593
  997SOL    HW214628   4.047   1.725   8.224  0.3834 -1.1414  0.0534
  998SOL     OW14629   2.543   3.342   7.786  0.3521 -0.0688 -0.2556
  998SOL    HW114630   2.636   3.365   7.780  0.3496  0.1262  0.5740
  998SOL    HW214631   2.550   3.254   7.822  0.5387 -0.1172 -0.4094
  999SOL     OW14632   1.449   1.255   8.140  0.1050 -0.1153  0.3633
  999SOL    HW114633   1.428   1.292   8.225  0.1691  0.1842  0.2493
  999SOL    HW214634   1.418   1.313   8.070 -0.7505 -0.4166  0.4976
 1000SOL     OW14635   1.014   3.568   5.336 -0.3851  0.3027 -0.0803
 1000SOL    HW114636   1.067   3.493   5.309 -0.0002  0.6642 -0.3257
 1000SOL    HW214637   0.927   3.535   5.312  0.2005  0.8239 -2.9021
 1001SOL     OW14638   0.107   4.245  14.169 -0.2748 -0.2506  0.3127
 1001SOL    HW114639   0.162   4.311  14.128 -2.2353  0.8516 -0.5689
 1001SOL    HW214640   0.151   4.233  14.253  0.1554 -2.2677 -0.2068
 1002SOL     OW14641   0.614   3.518  15.148  0.1611  0.1908 -0.0112
 1002SOL    HW114642   0.566   3.599  15.169 -0.0100  0.0179  0.2613
 1002SOL    HW214643   0.639   3.533  15.057  2.1644 -0.3285  0.4610
 1003SOL     OW14644   2.065   0.959  11.336  0.1905  0.8565 -0.6075
 1003SOL    HW114645   2.095   0.925  11.252  0.1612 -0.9118  0.1067
 1003SOL    HW214646   2.139   1.017  11.353  0.9214 -0.6679  1.3892
 1004SOL     OW14647   2.722   3.857   6.049  0.4942  0.0607  0.1015
 1004SOL    HW114648   2.726   3.767   6.083  0.0940 -0.9777 -2.5969
 1004SOL    HW214649   2.749   3.904   6.128  3.2695  0.6740 -1.1972
 1005SOL     OW14650   4.438   1.387  10.178  0.2108 -0.2188  0.1812
 1005SOL    HW114651   4.403   1.379  10.090  0.1441 -1.5752  0.3347
 1005SOL    HW214652   4.412   1.304  10.216 -0.8650 -0.5557 -1.3161
 1006SOL     OW14653   0.354   2.233   9.369 -0.3283  0.4195  0.3083
 1006SOL    HW114654   0.406   2.167   9.323  0.5032  1.3096 -0.0370
 1006SOL    HW214655   0.275   2.228   9.316 -0.1330 -0.6307  0.1209
 1007SOL     OW14656   2.403   3.635   2.937  0.4366 -0.2618 -0.8959
 1007SOL    HW114657   2.434   3.544   2.933 -1.3021 -0.9026  0.5872
 1007SOL    HW214658   2.310   3.621   2.953  0.4659  1.0190  0.3732
 1008SOL     OW14659   1.435   1.913   4.296 -0.0031 -0.4812  0.1522
 1008SOL    HW114660   1.467   1.977   4.232  0.6540  0.6835  1.6558
 1008SOL    HW214661   1.493   1.838   4.287  1.2382  0.5735 -0.6165
 1009SOL     OW14662   2.252   1.176  14.987  0.1680  0.6446 -0.3398
 1009SOL    HW114663   2.262   1.256  14.935  0.7880  0.9674  0.2682
 1009SOL    HW214664   2.204   1.224  15.055 -0.1892  0.2874 -0.3450
 1010SOL     OW14665   2.250   4.525   9.630 -0.3290  0.3813 -0.1410
 1010SOL    HW114666   2.186   4.506   9.562 -0.7435  0.6709  0.1691
 1010SOL    HW214667   2.316   4.578   9.584  0.4889 -0.8992 -0.4448
 1011SOL     OW14668   4.670   3.348   8.130 -0.3141 -0.7084  0.3918
 1011SOL    HW114669   0.014   3.321   8.171  0.4571 -0.9562 -1.3273
 1011SOL    HW214670   4.616   3.372   8.205 -1.3116  1.5372 -1.0588
 1012SOL     OW14671   1.929   2.649   8.296  0.2015  0.1172  0.2622
 1012SOL    HW114672   1.941   2.725   8.353 -2.3189 -1.2215  2.5896
 1012SOL    HW214673   1.834   2.651   8.298  0.2139  1.8146 -0.5234
 1013SOL     OW14674   3.468   3.294   9.737 -0.3160 -0.2283 -0.1647
 1013SOL    HW114675   3.412   3.361   9.777  0.6288  0.6749 -0.3410
 1013SOL    HW214676   3.547   3.310   9.789 -0.2606 -0.8630 -0.0510
 1014SOL     OW14677   1.275   1.596   5.419  0.0388  0.0478 -0.0986
 1014SOL    HW114678   1.210   1.619   5.353  0.6332  0.7895 -0.4260
 1014SOL    HW214679   1.244   1.657   5.486 -1.2181 -0.5971 -0.0819
 1015SOL     OW14680   2.985   3.234  10.383 -0.0255 -0.1043 -0.1168
 1015SOL    HW114681   3.059   3.232  10.322 -0.7716  1.3192 -1.0637
 1015SOL    HW214682   2.966   3.141  10.377  1.0478 -0.2710 -0.9845
 1016SOL     OW14683   4.063   3.103  11.489  0.0907  0.1746 -0.8028
 1016SOL    HW114684   4.120   3.131  11.561  0.2350  1.3252 -1.3771
 1016SOL    HW214685   4.106   3.021  11.464  0.3555 -0.6334  2.2461
 1017SOL     OW14686   3.234   2.581   2.229 -0.2927  0.0340  0.3405
 1017SOL    HW114687   3.269   2.579   2.318  1.4298 -1.0591 -0.3483
 1017SOL    HW214688   3.170   2.652   2.224  1.0564  1.1207 -1.4980
 1018SOL     OW14689   1.910   1.712  12.075  0.0269 -0.2320 -0.0940
 1018SOL    HW114690   1.833   1.677  12.031  0.5959  0.5554 -1.7145
 1018SOL    HW214691   1.910   1.662  12.157  0.7782  0.5793  0.4064
 1019SOL     OW14692   0.063   1.510   3.254 -0.6626 -0.5520  0.0385
 1019SOL    HW114693   0.150   1.532   3.288 -1.1481 -0.2693  1.0805
 1019SOL    HW214694   0.065   1.535   3.161  3.2396 -2.4590 -0.3704
 1020SOL     OW14695   1.071   3.703   1.515  0.1068  0.1612  0.4816
 1020SOL    HW114696   1.103   3.787   1.549  0.7768 -0.4023  1.2200
 1020SOL    HW214697   1.149   3.648   1.518 -0.3716 -0.6231 -1.3858
 1021SOL     OW14698   2.383   0.375   3.151 -0.6989  0.0619  0.0482
 1021SOL    HW114699   2.436   0.443   3.109 -1.4270  1.3668  1.2542
 1021SOL    HW214700   2.344   0.395   3.236 -0.3867 -1.2334  0.5037
 1022SOL     OW14701   3.374   3.224  11.666 -0.2830 -0.2568  0.6093
 1022SOL    HW114702   3.283   3.198  11.684  0.3394 -2.8449  0.0071
 1022SOL    HW214703   3.387   3.170  11.588 -0.6340 -0.8178  0.9427
 1023SOL     OW14704   1.255   0.265   2.829  0.1978  0.3719  0.1465
 1023SOL    HW114705   1.202   0.190   2.857  0.3113 -0.1526 -1.0079
 1023SOL    HW214706   1.179   0.306   2.789 -0.2543  1.6700  2.3953
 1024SOL     OW14707   1.060   0.809  12.620  0.2530  0.7063 -0.7273
 1024SOL    HW114708   1.029   0.748  12.554 -0.1743  0.3455 -0.1902
 1024SOL    HW214709   1.034   0.754  12.694  2.2816  1.2471  0.3746
 1025SOL     OW14710   4.218   2.933   3.604  0.5338  0.0073  0.7283
 1025SOL    HW114711   4.254   3.022   3.611  1.0325 -0.0467 -1.0128
 1025SOL    HW214712   4.222   2.904   3.513  1.6998 -2.3297  1.5385
 1026SOL     OW14713   0.230   1.224   6.841 -0.0485 -0.2129 -0.1733
 1026SOL    HW114714   0.268   1.174   6.913 -1.1891  0.6681  1.0387
 1026SOL    HW214715   0.201   1.304   6.886 -0.2424 -0.7163  0.5906
 1027SOL     OW14716   4.395   3.759   7.684 -0.1768  0.5161  0.4091
 1027SOL    HW114717   4.423   3.753   7.593  1.1662 -0.6756  0.8951
 1027SOL    HW214718   4.443   3.683   7.716  0.6600  0.2717 -1.4735
 1028SOL     OW14719   3.474   2.450  13.948 -0.3127  0.1575  0.1167
 1028SOL    HW114720   3.537   2.509  13.906  0.3098  0.3108  1.2394
 1028SOL    HW214721   3.535   2.395  13.997 -0.7122 -1.4214 -1.1878
 1029SOL     OW14722   0.861   1.164   0.457 -0.0199  0.2734  0.1075
 1029SOL    HW114723   0.860   1.260   0.463 -1.3812  0.2620 -0.1161
 1029SOL    HW214724   0.951   1.142   0.483  0.6967  3.0413  0.0188
 1030SOL     OW14725   3.676   2.046   2.391  0.0875 -0.5439 -0.6587
 1030SOL    HW114726   3.684   2.135   2.357  0.2770  0.3909  1.7880
 1030SOL    HW214727   3.704   2.068   2.480  2.2992  0.0222 -1.4900
 1031SOL     OW14728   0.793   4.314   3.235 -0.3191 -0.2862  0.1148
 1031SOL    HW114729   0.785   4.408   3.255 -0.6177 -0.4765  0.9063
 1031SOL    HW214730   0.862   4.281   3.292  0.1760  3.3788  1.6477
 1032SOL     OW14731   0.078   1.893  16.299 -0.1200  0.0215  0.0471
 1032SOL    HW114732   0.060   1.866  16.209  0.0890 -2.0950  0.6266
 1032SOL    HW214733   0.057   1.986  16.296 -2.5532 -0.4358  2.4232
 1033SOL     OW14734   1.147   2.773   5.789 -1.1542 -0.2801  0.3684
 1033SOL    HW114735   1.071   2.716   5.801 -1.0224 -0.2703  1.2324
 1033SOL    HW214736   1.165   2.781   5.882 -0.5803 -2.1599  0.4147
 1034SOL     OW14737   0.594   1.051   4.687  0.6009  0.5947 -0.1736
 1034SOL    HW114738   0.663   1.084   4.630  2.2666 -1.3118  0.7487
 1034SOL    HW214739   0.633   0.979   4.737 -0.8276 -0.0286  0.0306
 1035SOL     OW14740   0.953   1.417   9.168 -0.3531  0.1470 -0.2931
 1035SOL    HW114741   1.037   1.446   9.203  0.5118 -0.3385 -1.9684
 1035SOL    HW214742   0.960   1.322   9.167  0.1457  0.2141 -2.2291
 1036SOL     OW14743   0.275   0.024  17.302  0.2176 -0.0466 -0.2898
 1036SOL    HW114744   0.332   0.101  17.302 -1.3741  1.1574  0.6724
 1036SOL    HW214745   0.259   0.001  17.211  0.5939 -1.6170  0.0519
 1037SOL     OW14746   1.359   1.169   4.279 -0.0459  0.6072  0.2976
 1037SOL    HW114747   1.423   1.127   4.336  1.1561  0.8100 -0.9058
 1037SOL    HW214748   1.403   1.249   4.249  0.6421  0.1454  0.0876
 1038SOL     OW14749   4.528   1.061   5.230  0.1495 -0.0136 -0.0843
 1038SOL    HW114750   4.515   1.012   5.149  0.6511  0.5901 -0.5353
 1038SOL    HW214751   4.483   1.005   5.293 -0.4357  0.2663 -0.2513
 1039SOL     OW14752   3.318   1.278   6.331 -0.6185 -0.3715 -0.3883
 1039SOL    HW114753   3.304   1.368   6.361  0.6419 -1.2128  2.7529
 1039SOL    HW214754   3.282   1.233   6.407 -2.3552  0.6733 -0.5894
 1040SOL     OW14755   3.909   2.859   1.962  0.1593 -0.0557  0.0664
 1040SOL    HW114756   3.838   2.923   1.969 -0.0138 -0.2129 -0.2428
 1040SOL    HW214757   3.988   2.913   1.957 -0.0500  0.2818  0.4639
 1041SOL     OW14758   1.240   3.104   7.729  0.3126 -0.0049  0.3074
 1041SOL    HW114759   1.166   3.140   7.779 -0.2615 -0.4556 -0.2138
 1041SOL    HW214760   1.203   3.101   7.641  0.1334  0.2398  0.3739
 1042SOL     OW14761   4.727   2.079  14.864 -0.2198  0.4647  0.2202
 1042SOL    HW114762   4.684   2.074  14.778 -1.9087  1.0494  1.0248
 1042SOL    HW214763   4.659   2.097  14.929  0.2644  0.4225  0.7371
 1043SOL     OW14764   4.723   2.224   6.230 -0.6311  0.0114 -0.2652
 1043SOL    HW114765   0.018   2.313   6.226  1.3509 -0.6884  0.6515
 1043SOL    HW214766   0.065   2.174   6.240  0.1186  0.5616 -3.5751
 1044SOL     OW14767   0.762   3.917   4.331 -0.1764  0.7097  0.2622
 1044SOL    HW114768   0.832   3.973   4.365  0.8144 -1.0490  1.1380
 1044SOL    HW214769   0.689   3.972   4.358 -1.2309 -0.7811  0.4591
 1045SOL     OW14770   0.862   2.018   4.661 -0.3918 -0.3785  0.6515
 1045SOL    HW114771   0.885   1.962   4.587 -3.5745  0.4076 -0.8902
 1045SOL    HW214772   0.830   1.956   4.727  0.6907 -1.1807  0.4286
 1046SOL     OW14773   0.574   2.092  12.007 -0.5911  0.0497 -0.5914
 1046SOL    HW114774   0.593   2.002  11.980  2.4872  0.2050  1.0907
 1046SOL    HW214775   0.531   2.078  12.092  0.1188 -1.7917 -0.5338
 1047SOL     OW14776   3.514   1.889   2.751 -0.0800 -0.5202 -0.1503
 1047SOL    HW114777   3.452   1.821   2.724  0.7880 -0.1554 -3.0071
 1047SOL    HW214778   3.471   1.957   2.700 -0.9150 -0.3006  0.8363
 1048SOL     OW14779   1.702   1.685   2.800  0.6562  0.3348  0.1092
 1048SOL    HW114780   1.769   1.690   2.732  1.9601 -1.7621  1.2440
 1048SOL    HW214781   1.726   1.611   2.855  1.5814  1.5016  1.2617
 1049SOL     OW14782   4.665   2.126   8.653 -0.3929  0.6437 -0.0518
 1049SOL    HW114783   4.577   2.098   8.679  0.4177 -2.9406 -1.1070
 1049SOL    HW214784   4.651   2.167   8.568  0.1426  2.1682  0.6028
 1050SOL     OW14785   4.053   1.721  10.344 -0.3923 -0.9702  0.4742
 1050SOL    HW114786   4.104   1.669  10.406  1.1816 -0.9976 -0.8439
 1050SOL    HW214787   4.100   1.804  10.350  0.0359 -1.0022 -2.4075
 1051SOL     OW14788   0.561   0.277   1.739 -0.2787  0.2231 -0.6795
 1051SOL    HW114789   0.493   0.338   1.768 -0.7698  1.0264 -3.5021
 1051SOL    HW214790   0.571   0.238   1.826 -0.5306 -0.0043 -0.7515
 1052SOL     OW14791   2.602   1.275   0.230  0.6034 -0.4856 -0.1136
 1052SOL    HW114792   2.664   1.266   0.158  2.1804  0.0862  1.1868
 1052SOL    HW214793   2.649   1.239   0.305 -0.2616  0.5556  0.9281
 1053SOL     OW14794   2.166   0.383   3.804  0.3178 -0.5277 -0.3085
 1053SOL    HW114795   2.189   0.299   3.765  1.1341 -0.1746 -0.5758
 1053SOL    HW214796   2.254   0.417   3.820  0.4891 -1.7062  1.2676
 1054SOL     OW14797   4.532   0.409   7.534  0.1357 -0.5297 -0.0495
 1054SOL    HW114798   4.615   0.363   7.516 -0.0412 -0.5878 -0.7275
 1054SOL    HW214799   4.482   0.339   7.576  0.9829 -0.1768  1.5349
 1055SOL     OW14800   2.913   0.827  12.936  0.2519 -0.1282  0.4284
 1055SOL    HW114801   2.868   0.795  13.014  1.1199 -2.2177  0.0839
 1055SOL    HW214802   2.835   0.839  12.881 -1.4376 -1.7310  2.4966
 1056SOL     OW14803   3.332   1.896  12.488  0.4729 -0.3251  0.2391
 1056SOL    HW114804   3.242   1.865  12.500  0.6779 -1.6516 -1.7103
 1056SOL    HW214805   3.357   1.950  12.563 -1.3091  0.0847  0.5250
 1057SOL     OW14806   4.010   1.105  10.758  0.0139  0.4284 -0.0345
 1057SOL    HW114807   4.100   1.134  10.772 -0.1702  0.3621  1.3390
 1057SOL    HW214808   4.004   1.078  10.667 -0.7672  1.3863 -0.2587
 1058SOL     OW14809   0.349   2.474  10.341 -0.3654 -0.1783 -0.1674
 1058SOL    HW114810   0.337   2.422  10.420 -0.8451 -0.4834 -0.4383
 1058SOL    HW214811   0.432   2.514  10.367  0.7201 -1.2460 -1.9316
 1059SOL     OW14812   3.005   0.992   6.477 -0.3801  0.2764 -0.2140
 1059SOL    HW114813   2.930   1.047   6.501 -0.2474  0.3961 -0.0754
 1059SOL    HW214814   2.975   0.917   6.530  0.8074  0.3340  0.5325
 1060SOL     OW14815   2.763   3.423   8.627  0.1558  0.4816  0.1829
 1060SOL    HW114816   2.824   3.440   8.700  0.1807  0.8562  0.0739
 1060SOL    HW214817   2.686   3.394   8.675 -0.4456 -0.4519 -1.3502
 1061SOL     OW14818   4.122   0.110  14.704  0.4149  0.0762  0.0403
 1061SOL    HW114819   4.117   0.049  14.630  2.3654 -0.9823  0.7626
 1061SOL    HW214820   4.041   0.157  14.686  0.8796  0.2037 -1.7129
 1062SOL     OW14821   4.205   1.764  13.142 -0.7373  0.6449 -0.0487
 1062SOL    HW114822   4.223   1.749  13.235 -2.6364 -0.9167  0.0684
 1062SOL    HW214823   4.183   1.857  13.140  2.8820  1.5164  0.8418
 1063SOL     OW14824   4.647   2.438   0.335  0.0295 -0.0349  0.0827
 1063SOL    HW114825   4.702   2.483   0.399 -0.4558 -1.2192  1.3355
 1063SOL    HW214826   4.656   2.348   0.366  3.7384 -0.2727 -1.7623
 1064SOL     OW14827   1.418   2.280   9.249  0.1749  0.2759  0.1125
 1064SOL    HW114828   1.436   2.317   9.163 -1.3466  1.2808  0.2311
 1064SOL    HW214829   1.324   2.289   9.261 -0.3165 -3.7895 -0.5521
 1065SOL     OW14830   2.558   2.906   6.798  0.6788 -0.2433  0.0376
 1065SOL    HW114831   2.567   2.839   6.867 -1.3857 -1.7212 -1.1295
 1065SOL    HW214832   2.480   2.957   6.818 -0.0737 -1.4030  0.0460
 1066SOL     OW14833   0.991   4.559   3.428  0.4059 -0.3277  0.7402
 1066SOL    HW114834   1.001   4.464   3.432  0.3864 -0.2895  1.8663
 1066SOL    HW214835   0.907   4.567   3.474  0.3862  0.2169  0.6112
 1067SOL     OW14836   0.725   2.472   7.605 -0.0551  0.0034  0.0587
 1067SOL    HW114837   0.695   2.560   7.627  0.5066  0.1973  0.0676
 1067SOL    HW214838   0.674   2.460   7.525 -0.5004  1.6653  0.1031
 1068SOL     OW14839   1.365   1.606   0.546  0.1957 -0.0502  0.0356
 1068SOL    HW114840   1.319   1.614   0.462 -0.1311  0.3343  0.2499
 1068SOL    HW214841   1.386   1.513   0.555 -2.9794 -0.3962  4.1743
 1069SOL     OW14842   0.698   0.423   3.400  0.0240 -0.4997  0.3931
 1069SOL    HW114843   0.749   0.347   3.371 -1.8821 -1.5995 -0.0849
 1069SOL    HW214844   0.627   0.418   3.336  0.4972 -1.4166 -0.0648
 1070SOL     OW14845   2.296   4.111  14.376 -0.6491  0.1759 -0.7065
 1070SOL    HW114846   2.272   4.115  14.469  2.6778 -3.7467  0.2797
 1070SOL    HW214847   2.318   4.019  14.380  0.6494  0.5302  0.2354
 1071SOL     OW14848   2.182   3.315   2.223  1.0490 -0.5412 -0.2708
 1071SOL    HW114849   2.101   3.366   2.217  1.8401  0.4918 -2.1746
 1071SOL    HW214850   2.149   3.227   2.203  1.7846 -0.7858 -0.3985
 1072SOL     OW14851   0.829   4.143  13.143 -0.5263  0.6553 -0.1722
 1072SOL    HW114852   0.835   4.229  13.102  1.1259  0.4424 -0.3940
 1072SOL    HW214853   0.924   4.130  13.139 -0.9214 -2.0743 -0.6450
 1073SOL     OW14854   2.087   1.767   4.959 -0.1338  0.1440  0.6074
 1073SOL    HW114855   2.096   1.672   4.967 -3.2215 -0.0716  1.6132
 1073SOL    HW214856   2.064   1.787   4.868 -1.6548  2.9225  1.6094
 1074SOL     OW14857   2.730   4.578  13.474  0.1987 -0.4629  0.3373
 1074SOL    HW114858   2.748   4.491  13.438  0.3881 -0.2630 -0.0476
 1074SOL    HW214859   2.753   4.554  13.564 -1.3125 -1.2603  0.5077
 1075SOL     OW14860   4.648   0.172   2.186  0.2509  0.1669  0.1770
 1075SOL    HW114861   4.599   0.245   2.147  2.5751  0.0525 -2.9767
 1075SOL    HW214862   4.581   0.124   2.233  0.8237  1.0311  1.8888
 1076SOL     OW14863   2.886   0.016  15.162 -0.1284 -0.2429  0.2243
 1076SOL    HW114864   2.827   4.679  15.158 -0.3576 -0.1545  1.8767
 1076SOL    HW214865   2.822   0.085  15.143 -0.3122 -0.1175  1.3055
 1077SOL     OW14866   1.150   3.423   7.893 -0.0518  0.1765  0.0706
 1077SOL    HW114867   1.178   3.423   7.985  0.8264 -0.1283 -0.2061
 1077SOL    HW214868   1.083   3.354   7.894 -0.2060  0.3406  1.3534
 1078SOL     OW14869   0.263   4.291   5.300 -0.2484  0.7654  0.1314
 1078SOL    HW114870   0.227   4.352   5.236  1.3895  0.3563 -1.1535
 1078SOL    HW214871   0.188   4.268   5.356 -0.2473 -1.2808 -0.7017
 1079SOL     OW14872   4.093   2.659  10.090 -0.0260 -0.0984 -0.5231
 1079SOL    HW114873   4.130   2.716  10.158 -0.5460 -0.9497  0.4675
 1079SOL    HW214874   4.154   2.586  10.102  0.1170  0.5146  2.4513
 1080SOL     OW14875   3.463   0.015  17.210  0.5068  0.5766  0.0899
 1080SOL    HW114876   3.555   4.733  17.193  0.4180  0.6216 -0.4399
 1080SOL    HW214877   3.432   4.664  17.225 -0.3822  1.2569  2.2953
 1081SOL     OW14878   4.099   3.932   2.843 -0.2294  0.5304  0.0467
 1081SOL    HW114879   4.064   4.019   2.824  2.0055  0.8691 -2.6092
 1081SOL    HW214880   4.023   3.876   2.833  0.1958  0.0041 -0.2519
 1082SOL     OW14881   4.060   2.385  14.049 -0.2762 -0.1724  0.6812
 1082SOL    HW114882   4.108   2.464  14.074 -0.2488  0.5474 -1.6934
 1082SOL    HW214883   4.111   2.332  14.111 -0.9725  1.1834  2.4275
 1083SOL     OW14884   3.351   2.180  16.185  0.2780 -0.2252  0.5039
 1083SOL    HW114885   3.415   2.131  16.134  0.8861  1.9678 -0.8261
 1083SOL    HW214886   3.279   2.116  16.186 -0.5685  0.7140  0.3852
 1084SOL     OW14887   4.201   1.596   4.113 -0.1106  0.5798 -0.1475
 1084SOL    HW114888   4.196   1.608   4.019 -0.4846 -1.1600 -0.3510
 1084SOL    HW214889   4.219   1.684   4.148 -1.0760  0.0339  1.7215
 1085SOL     OW14890   0.245   2.477   6.586  0.0124  0.2290  0.1921
 1085SOL    HW114891   0.290   2.518   6.513 -1.1182  1.9922  0.4954
 1085SOL    HW214892   0.164   2.526   6.573 -0.0377  0.1286  0.1225
 1086SOL     OW14893   1.094   0.611   7.757 -0.1976 -0.3793 -0.0155
 1086SOL    HW114894   1.173   0.571   7.793  0.3561  1.6877  1.0851
 1086SOL    HW214895   1.100   0.573   7.670 -1.0457 -0.4819 -0.0340
 1087SOL     OW14896   1.091   3.700   7.443  0.6374 -0.3697 -0.2243
 1087SOL    HW114897   1.010   3.671   7.401  0.6469  0.5253 -0.8683
 1087SOL    HW214898   1.073   3.792   7.462  0.6691 -0.4804  0.3417
 1088SOL     OW14899   3.926   0.369   6.126  0.0862 -0.0478  0.2260
 1088SOL    HW114900   3.971   0.294   6.164 -2.9272 -1.6572  0.5282
 1088SOL    HW214901   3.954   0.440   6.184 -1.1493 -0.5914  1.4857
 1089SOL     OW14902   4.141   4.187  10.761 -0.4324 -0.7937  0.6449
 1089SOL    HW114903   4.092   4.168  10.681  1.7311 -0.1969 -0.8316
 1089SOL    HW214904   4.078   4.249  10.799  0.3866 -0.9254  2.2156
 1090SOL     OW14905   2.466   1.357   2.481  0.4372  0.0814  0.0746
 1090SOL    HW114906   2.489   1.310   2.401  2.0424  0.9497  0.0416
 1090SOL    HW214907   2.407   1.423   2.444  0.5114 -1.0514 -2.0568
 1091SOL     OW14908   4.543   3.746  16.241  0.1901 -0.5089 -0.0624
 1091SOL    HW114909   4.580   3.698  16.316  1.6062  2.4110  1.0840
 1091SOL    HW214910   4.626   3.770  16.200 -1.2043  1.4693 -1.6867
 1092SOL     OW14911   0.945   4.500   8.948 -0.5095  0.4448 -0.2555
 1092SOL    HW114912   0.887   4.474   8.876  0.2895 -0.8928 -0.4143
 1092SOL    HW214913   0.898   4.456   9.019  1.0875 -1.7560 -0.5602
 1093SOL     OW14914   3.048   4.171   3.406  0.3959 -0.5009 -0.0629
 1093SOL    HW114915   3.078   4.092   3.452 -2.2679  0.6846  3.7469
 1093SOL    HW214916   3.009   4.136   3.326  0.2650 -0.9657  0.1965
 1094SOL     OW14917   4.131   2.520   8.237  0.3530  0.4891  0.8206
 1094SOL    HW114918   4.184   2.519   8.158 -2.6542  3.1947 -1.2410
 1094SOL    HW214919   4.122   2.615   8.244  0.4705  0.3591  2.7607
 1095SOL     OW14920   2.190   2.524   0.443  0.3657 -0.2559 -0.5065
 1095SOL    HW114921   2.142   2.526   0.525 -1.2851  1.5259 -1.5241
 1095SOL    HW214922   2.269   2.475   0.466  0.0968 -0.9693 -1.0944
 1096SOL     OW14923   3.161   4.701   3.431 -0.0828 -0.0680  0.2606
 1096SOL    HW114924   3.137   4.611   3.452 -0.9333  0.1466  0.1908
 1096SOL    HW214925   3.240   4.696   3.377  1.5347  1.4600  2.4846
 1097SOL     OW14926   3.846   3.972   1.092  0.0821  0.1194 -0.0095
 1097SOL    HW114927   3.783   4.041   1.111 -0.4807 -1.0275  2.3009
 1097SOL    HW214928   3.895   4.014   1.021 -2.2870  1.1328 -1.0558
 1098SOL     OW14929   1.297   1.267   0.256  0.2137  0.4011  0.3697
 1098SOL    HW114930   1.335   1.347   0.219  2.0126 -0.3756  0.5558
 1098SOL    HW214931   1.250   1.218   0.188  1.1227  1.0431 -0.7170
 1099SOL     OW14932   3.483   3.895   9.121  0.1061 -0.1837 -0.2275
 1099SOL    HW114933   3.503   3.802   9.108  0.2911  0.0429 -1.5607
 1099SOL    HW214934   3.445   3.886   9.209 -0.4913  1.3994 -0.3313
 1100SOL     OW14935   0.151   3.279   8.763 -0.4918  0.1317  0.2270
 1100SOL    HW114936   0.223   3.282   8.826  0.5619  1.4935 -1.0322
 1100SOL    HW214937   0.175   3.347   8.700 -1.1395  0.0617 -0.0904
 1101SOL     OW14938   0.284   3.799   3.745 -0.1475 -0.3485  0.1216
 1101SOL    HW114939   0.206   3.820   3.694  1.3561  0.1878 -1.9226
 1101SOL    HW214940   0.241   3.804   3.831  0.7381  2.4495  0.4038
 1102SOL     OW14941   3.460   2.154   3.937 -1.0863 -0.1606  0.2037
 1102SOL    HW114942   3.520   2.080   3.939 -1.8702 -0.8427 -1.1447
 1102SOL    HW214943   3.448   2.163   3.842 -0.4688 -2.9029 -0.1226
 1103SOL     OW14944   2.980   0.162  10.694  0.5431  0.4060  0.5371
 1103SOL    HW114945   2.964   0.207  10.611 -0.1751 -0.4376  0.2201
 1103SOL    HW214946   2.981   0.238  10.754 -2.6660  0.0655  1.0492
 1104SOL     OW14947   1.751   1.772   8.708  0.4382  0.4060 -0.4979
 1104SOL    HW114948   1.668   1.819   8.696 -1.0822 -1.1612  3.8887
 1104SOL    HW214949   1.719   1.682   8.701 -0.9285  1.1914 -4.6989
 1105SOL     OW14950   2.455   2.032  12.441  1.0543 -0.0774 -0.6230
 1105SOL    HW114951   2.376   2.007  12.393 -0.3153  0.7040  1.2139
 1105SOL    HW214952   2.516   1.964  12.412  0.8210  0.0174 -1.3165
 1106SOL     OW14953   1.890   1.831   3.514  0.2330 -0.1186  0.0347
 1106SOL    HW114954   1.868   1.753   3.464  1.2921 -0.4844  0.1327
 1106SOL    HW214955   1.985   1.821   3.506  0.3867  0.8747  0.6002
 1107SOL     OW14956   2.753   4.208  12.853  0.1409 -0.2051  0.2956
 1107SOL    HW114957   2.710   4.203  12.767 -0.5590 -0.1527  0.6439
 1107SOL    HW214958   2.675   4.227  12.905  0.3335  3.7341 -0.8500
 1108SOL     OW14959   2.430   2.905  13.247  0.0697 -0.2484 -0.2635
 1108SOL    HW114960   2.491   2.861  13.187  0.5887 -1.1683  0.9435
 1108SOL    HW214961   2.427   2.993  13.209  0.7336 -0.8197 -1.6440
 1109SOL     OW14962   3.977   3.417   3.493 -0.2996  0.0957 -0.0214
 1109SOL    HW114963   4.004   3.340   3.544  0.2255 -0.9919 -1.9213
 1109SOL    HW214964   4.060   3.450   3.460 -0.0017 -0.7790 -0.1675
 1110SOL     OW14965   2.646   0.533   6.114  0.1300 -0.4752 -0.1106
 1110SOL    HW114966   2.715   0.481   6.073  1.5695  0.6401  0.9144
 1110SOL    HW214967   2.615   0.471   6.180  1.1456  0.1545  0.9613
 1111SOL     OW14968   3.773   4.710   6.155 -0.2251 -0.4441 -0.2934
 1111SOL    HW114969   3.826   0.023   6.216 -1.3561  0.8200 -0.3606
 1111SOL    HW214970   3.746   4.640   6.215 -2.6408  0.9357  0.2562
 1112SOL     OW14971   0.089   0.085   1.165 -0.4271 -0.0718 -0.3615
 1112SOL    HW114972   0.177   0.053   1.144 -0.7571 -0.2288 -1.4878
 1112SOL    HW214973   0.074   0.129   1.081  3.4276  0.2067 -0.9084
 1113SOL     OW14974   4.208   2.371   0.321 -0.1938  0.1922 -0.2126
 1113SOL    HW114975   4.149   2.340   0.390 -1.9223  1.0575 -1.3048
 1113SOL    HW214976   4.207   2.466   0.330  0.2788 -0.0801  2.8064
 1114SOL     OW14977   1.005   2.265   6.765 -0.1651  0.5322 -0.0095
 1114SOL    HW114978   0.915   2.295   6.779 -0.3732 -0.1763  0.1632
 1114SOL    HW214979   1.048   2.286   6.848  1.1116 -0.2529 -0.4822
 1115SOL     OW14980   3.465   0.673  11.406 -0.2408 -0.7791  0.3456
 1115SOL    HW114981   3.409   0.706  11.336  0.3737  1.7991  1.0484
 1115SOL    HW214982   3.409   0.604  11.441 -3.7713  2.4207  1.0210
 1116SOL     OW14983   0.874   3.459   6.411 -0.4668  0.1074 -0.2606
 1116SOL    HW114984   0.922   3.388   6.368  1.5443  1.2895  0.0547
 1116SOL    HW214985   0.883   3.533   6.351  0.0771  0.5763  0.3875
 1117SOL     OW14986   2.415   2.357  14.368 -0.2382  0.3170  0.1025
 1117SOL    HW114987   2.393   2.367  14.275 -3.1411 -1.0273  0.6385
 1117SOL    HW214988   2.352   2.410  14.417 -0.3057  0.4523 -0.1309
 1118SOL     OW14989   3.028   2.350   5.227  0.5198 -0.4639 -0.0534
 1118SOL    HW114990   3.082   2.384   5.155 -0.9863 -0.1777 -1.0360
 1118SOL    HW214991   2.981   2.283   5.178 -2.3332  1.6030 -0.1422
 1119SOL     OW14992   1.281   1.601   3.231 -0.2437 -0.0239  0.4677
 1119SOL    HW114993   1.270   1.506   3.234  2.0296 -0.2583  1.1578
 1119SOL    HW214994   1.210   1.625   3.291 -0.1410  1.7728 -0.1466
 1120SOL     OW14995   4.622   0.022  14.322 -0.1925  0.2482  0.6847
 1120SOL    HW114996   4.659   4.720  14.400 -4.0618 -2.1203  1.2967
 1120SOL    HW214997   4.598   0.107  14.359 -1.2214  0.6925 -0.9493
 1121SOL     OW14998   1.931   3.342   3.284  0.1220  0.1524 -0.2951
 1121SOL    HW114999   1.921   3.314   3.193  1.1522 -1.1255 -0.0147
 1121SOL    HW215000   1.993   3.415   3.278  0.1693  0.1301 -0.0640
 1122SOL     OW15001   1.012   0.920   8.167 -0.5648  0.5045  0.1622
 1122SOL    HW115002   1.071   0.992   8.188  2.0461 -1.4390 -0.4543
 1122SOL    HW215003   1.014   0.909   8.072  1.6976 -1.1610  0.3977
 1123SOL     OW15004   2.479   3.501   9.420 -0.8711  0.0813  0.2974
 1123SOL    HW115005   2.467   3.572   9.483 -1.5066 -0.9300  1.3360
 1123SOL    HW215006   2.442   3.424   9.464 -2.8082  0.4276 -0.7444
 1124SOL     OW15007   4.191   0.041   1.925  0.2437 -0.1351  0.2911
 1124SOL    HW115008   4.157   0.043   1.835 -0.7438  1.7881  0.7168
 1124SOL    HW215009   4.117   0.066   1.979  1.8007 -0.7727  2.7198
 1125SOL     OW15010   2.906   2.754   5.948 -0.2119 -0.3254  0.1771
 1125SOL    HW115011   2.826   2.777   5.994  0.5257 -1.7590  2.1640
 1125SOL    HW215012   2.943   2.676   5.989 -0.7999 -0.6715  0.0508
 1126SOL     OW15013   1.776   4.222  10.476 -0.4505  0.6752  0.2537
 1126SOL    HW115014   1.825   4.141  10.493  0.1080  0.9871  0.1132
 1126SOL    HW215015   1.727   4.229  10.558  2.8130  0.5173  2.1882
 1127SOL     OW15016   0.837   1.391  11.781 -0.5799 -0.1381  0.6330
 1127SOL    HW115017   0.757   1.344  11.760 -0.6027  0.7894 -1.4007
 1127SOL    HW215018   0.891   1.350  11.713  0.4551  0.8928  0.8238
 1128SOL     OW15019   0.521   1.434   9.396 -0.4981 -0.4104 -0.4242
 1128SOL    HW115020   0.457   1.493   9.356  0.1174  0.7261  0.2611
 1128SOL    HW215021   0.495   1.351   9.356  0.4750 -1.8067  1.8880
 1129SOL     OW15022   3.324   1.498   8.270  0.2799 -0.3119  0.3760
 1129SOL    HW115023   3.411   1.463   8.252  0.5605  0.7946 -0.3714
 1129SOL    HW215024   3.340   1.543   8.353 -0.7847 -0.6929  0.7900
 1130SOL     OW15025   2.302   3.505  14.691  0.2529 -0.0325 -0.4352
 1130SOL    HW115026   2.250   3.450  14.749 -0.4537 -0.8478 -1.8411
 1130SOL    HW215027   2.345   3.553  14.761 -1.9532  2.0710 -0.5182
 1131SOL     OW15028   3.147   0.089  10.444 -0.2468 -0.4301  0.9968
 1131SOL    HW115029   3.213   0.055  10.383  1.2063  1.2033  1.6757
 1131SOL    HW215030   3.177   0.053  10.528  0.1174  0.4083  1.2229
 1132SOL     OW15031   0.608   3.353  13.315  0.0109 -0.2217  0.2855
 1132SOL    HW115032   0.536   3.397  13.362  0.2393  0.3726  0.0799
 1132SOL    HW215033   0.575   3.264  13.309  0.7230 -0.3248 -1.8522
 1133SOL     OW15034   2.716   2.145   4.404  0.0372 -0.7836 -0.3002
 1133SOL    HW115035   2.732   2.056   4.374  1.2201 -1.1326  1.3357
 1133SOL    HW215036   2.788   2.189   4.358 -0.5577  1.1226  0.5730
 1134SOL     OW15037   1.432   1.395   2.967 -0.3491  0.0760  0.2183
 1134SOL    HW115038   1.414   1.339   3.043 -1.9871  1.6856  1.0102
 1134SOL    HW215039   1.482   1.335   2.912  0.1678  2.4466 -1.8997
 1135SOL     OW15040   3.944   3.601   2.440 -0.2364  0.4856  0.0430
 1135SOL    HW115041   3.953   3.696   2.437  0.9789  0.2760 -2.4674
 1135SOL    HW215042   3.853   3.594   2.469 -0.6983  1.6314 -1.1441
 1136SOL     OW15043   1.750   3.990   7.999  0.2858  0.2449  0.3425
 1136SOL    HW115044   1.772   3.920   8.061  0.2098  1.3758  1.6620
 1136SOL    HW215045   1.829   3.986   7.945  0.0009 -2.9128  0.1534
 1137SOL     OW15046   1.724   0.069  17.230  0.3116  1.1339 -0.4627
 1137SOL    HW115047   1.780   4.731  17.224  0.5521  1.2418  0.4606
 1137SOL    HW215048   1.732   0.118  17.148  3.0167  0.6283 -0.5078
 1138SOL     OW15049   3.974   0.832   3.827  0.6274  0.1505  0.3350
 1138SOL    HW115050   4.022   0.913   3.844  2.0900 -1.4071  3.5109
 1138SOL    HW215051   3.898   0.868   3.782 -0.5373 -1.2834  1.1618
 1139SOL     OW15052   1.688   3.964   5.454  0.4096 -0.2096 -0.3212
 1139SOL    HW115053   1.649   3.917   5.528  0.7120  0.1835  0.0816
 1139SOL    HW215054   1.605   3.971   5.405 -0.0639 -1.7535  0.2368
 1140SOL     OW15055   2.576   1.104   4.006  0.8896  0.0842 -0.2548
 1140SOL    HW115056   2.487   1.069   3.995  1.0293  0.0188 -1.1982
 1140SOL    HW215057   2.552   1.194   4.028 -0.2928  0.0535 -1.4339
 1141SOL     OW15058   1.807   1.145  10.861  0.3443 -0.0468  0.1634
 1141SOL    HW115059   1.739   1.105  10.915 -0.9238  1.5506 -0.2709
 1141SOL    HW215060   1.756   1.206  10.807 -0.1023 -0.5756 -0.0124
 1142SOL     OW15061   3.773   3.052   3.170  0.6909  0.6475  0.6705
 1142SOL    HW115062   3.851   3.083   3.124  0.6424 -1.4650 -0.9108
 1142SOL    HW215063   3.762   3.116   3.239 -1.1640  1.0676 -0.0303
 1143SOL     OW15064   1.814   1.923   7.178 -0.1942  0.3695  0.3525
 1143SOL    HW115065   1.849   1.898   7.263  0.0053 -1.1534 -0.1744
 1143SOL    HW215066   1.793   1.836   7.144  0.1419  0.5898 -0.4279
 1144SOL     OW15067   2.608   2.141  13.562  0.4643 -0.2009 -0.0479
 1144SOL    HW115068   2.678   2.134  13.627  0.3510 -0.6889  0.0178
 1144SOL    HW215069   2.526   2.160  13.607  0.2659 -0.2168 -0.3991
 1145SOL     OW15070   0.170   0.572   4.161  0.6220  0.3116  0.1459
 1145SOL    HW115071   0.216   0.640   4.211 -1.1993  0.5420  1.4838
 1145SOL    HW215072   0.131   0.622   4.089  4.0348  1.7271 -0.7229
 1146SOL     OW15073   4.071   0.525   3.010 -0.1946  0.3029 -0.0055
 1146SOL    HW115074   4.060   0.475   3.091 -1.7473 -0.9157 -0.9469
 1146SOL    HW215075   4.040   0.460   2.946 -1.3417  1.5293 -0.6798
 1147SOL     OW15076   2.465   1.400   9.944 -0.2323  0.3820 -0.0450
 1147SOL    HW115077   2.443   1.329  10.004  2.0542  0.6706  1.1382
 1147SOL    HW215078   2.373   1.416   9.925  0.1394  1.0262 -1.3204
 1148SOL     OW15079   2.652   3.026   9.060 -0.1683  0.0377 -0.5941
 1148SOL    HW115080   2.706   3.031   9.139 -0.2144 -1.4754 -0.4736
 1148SOL    HW215081   2.720   2.995   9.000 -0.4301  2.5048 -2.1612
 1149SOL     OW15082   4.632   3.662   4.901  0.3744  0.7792  0.5208
 1149SOL    HW115083   4.590   3.578   4.884 -1.1074  1.9139 -1.4066
 1149SOL    HW215084   4.699   3.636   4.965 -1.3492 -1.4228  1.4163
 1150SOL     OW15085   3.759   4.400   4.319 -0.2351 -0.2417  0.0967
 1150SOL    HW115086   3.707   4.452   4.380 -0.6245 -2.1758  1.4023
 1150SOL    HW215087   3.772   4.454   4.241  1.2087 -1.3806 -0.4507
 1151SOL     OW15088   4.723   2.132   3.335 -0.2849 -0.4928  0.0327
 1151SOL    HW115089   4.660   2.062   3.318 -1.9217  0.3415  2.6386
 1151SOL    HW215090   4.715   2.137   3.430  1.2993  0.9344  0.0912
 1152SOL     OW15091   3.245   4.253   5.925  0.6126  0.2380 -0.6224
 1152SOL    HW115092   3.188   4.262   6.001  0.9042 -0.2758 -0.3409
 1152SOL    HW215093   3.318   4.204   5.963 -0.1203  1.7370  2.7022
 1153SOL     OW15094   3.921   4.550   5.818 -0.2180 -0.3886 -0.1377
 1153SOL    HW115095   3.837   4.565   5.775 -0.4296 -0.1656  0.3521
 1153SOL    HW215096   3.925   4.622   5.880  0.3806 -0.0046 -0.6216
 1154SOL     OW15097   4.243   3.463  14.067  0.5275 -0.2649  0.2983
 1154SOL    HW115098   4.161   3.503  14.040  1.8497  0.8427 -2.0836
 1154SOL    HW215099   4.302   3.536  14.046  1.9480 -1.8314 -1.0813
 1155SOL     OW15100   4.333   3.238   3.837 -0.8718 -0.3472 -0.1229
 1155SOL    HW115101   4.329   3.333   3.849  0.1749 -0.2402 -0.5911
 1155SOL    HW215102   4.413   3.213   3.885  0.2845  0.3939 -1.6610
 1156SOL     OW15103   2.533   0.514  15.022 -0.0432  0.0454  0.3929
 1156SOL    HW115104   2.569   0.541  15.106 -1.9007  3.5010  0.0957
 1156SOL    HW215105   2.483   0.595  15.005 -2.6017 -1.6421 -0.1334
 1157SOL     OW15106   1.656   1.482  15.799 -0.2085  0.2975  1.0749
 1157SOL    HW115107   1.744   1.487  15.762 -0.1340  0.0494  1.2189
 1157SOL    HW215108   1.651   1.430  15.879 -1.9713 -0.4137  0.4997
 1158SOL     OW15109   2.812   1.639   6.621 -0.7005 -0.6876 -0.3364
 1158SOL    HW115110   2.900   1.667   6.647 -1.6623  0.8882  1.2460
 1158SOL    HW215111   2.780   1.600   6.702 -2.4110 -3.4438 -2.3726
 1159SOL     OW15112   2.813   3.424   8.108  0.1780 -0.0722 -0.9766
 1159SOL    HW115113   2.863   3.478   8.048  2.4784 -0.8990  0.1868
 1159SOL    HW215114   2.845   3.446   8.196  0.0007  0.1301 -0.9625
 1160SOL     OW15115   1.349   2.204   6.737  0.2132 -0.0398 -0.0212
 1160SOL    HW115116   1.363   2.229   6.646  0.6477  0.8142  0.2891
 1160SOL    HW215117   1.274   2.144   6.730  0.5641 -0.4053 -0.6089
 1161SOL     OW15118   3.230   2.734  12.055 -0.5074 -0.0753 -0.5363
 1161SOL    HW115119   3.162   2.764  11.995 -0.6443  1.2340  0.2974
 1161SOL    HW215120   3.289   2.694  11.990  0.1609 -0.9891  0.6260
 1162SOL     OW15121   4.162   1.097   4.836 -0.4411 -0.4075  0.0335
 1162SOL    HW115122   4.143   1.122   4.745 -0.8284 -0.0179  0.2195
 1162SOL    HW215123   4.252   1.067   4.834 -0.9494 -2.0529  1.7152
 1163SOL     OW15124   0.567   3.487   3.186 -0.0251  0.0807 -0.0085
 1163SOL    HW115125   0.608   3.537   3.116 -0.7364  1.5350  0.6244
 1163SOL    HW215126   0.487   3.536   3.206  0.6886  0.4243  2.0452
 1164SOL     OW15127   3.781   0.075   2.640  0.1141  0.1874 -0.8312
 1164SOL    HW115128   3.710   0.074   2.576  0.0305  1.1588 -0.7555
 1164SOL    HW215129   3.776   0.169   2.653 -1.4309  0.0872 -0.6278
 1165SOL     OW15130   0.364   0.416   4.026  0.4821 -0.6121 -0.0553
 1165SOL    HW115131   0.326   0.366   3.954 -3.0641  2.0320 -0.0145
 1165SOL    HW215132   0.286   0.456   4.066  2.6601  3.2337  0.2416
 1166SOL     OW15133   1.362   2.737   2.425  0.5950  0.4599 -0.1875
 1166SOL    HW115134   1.417   2.662   2.445  0.0205  0.2228  0.5127
 1166SOL    HW215135   1.291   2.694   2.376  1.0115  0.8623 -1.1363
 1167SOL     OW15136   3.143   4.559   5.012  0.4658  0.1577 -0.4402
 1167SOL    HW115137   3.143   4.646   5.051  2.5618 -0.7798  1.6678
 1167SOL    HW215138   3.222   4.514   5.041 -0.8152  0.1541  3.0793
 1168SOL     OW15139   2.634   4.355   5.327 -0.5618  0.2381  0.1924
 1168SOL    HW115140   2.660   4.324   5.414  0.2058  2.0800  0.6116
 1168SOL    HW215141   2.609   4.268   5.296 -2.9960  0.0866  2.5591
 1169SOL     OW15142   3.209   2.540   4.306 -0.2277 -0.2227 -0.2329
 1169SOL    HW115143   3.272   2.591   4.255  0.0254 -2.1788 -1.8944
 1169SOL    HW215144   3.159   2.611   4.345 -0.1399 -0.4485  0.2899
 1170SOL     OW15145   2.955   2.671   3.101  0.2205  0.3045  0.2989
 1170SOL    HW115146   3.037   2.649   3.145  0.0093  0.9577  1.0137
 1170SOL    HW215147   2.962   2.763   3.076  1.6798  0.3789  1.0028
 1171SOL     OW15148   0.444   3.464   1.217 -0.1315 -0.0754 -0.2899
 1171SOL    HW115149   0.496   3.526   1.165  1.9127 -0.3110  1.4762
 1171SOL    HW215150   0.354   3.492   1.198 -1.0835 -1.4270  2.2630
 1172SOL     OW15151   2.216   2.099   8.117  0.0151 -0.2286  0.0117
 1172SOL    HW115152   2.269   2.050   8.180  2.1663  1.3756 -0.5673
 1172SOL    HW215153   2.212   2.045   8.037  3.6561 -1.1035  0.4245
 1173SOL     OW15154   3.214   2.773   7.261 -0.4911 -0.2385  0.7471
 1173SOL    HW115155   3.164   2.741   7.185 -2.1949  0.7750  1.4507
 1173SOL    HW215156   3.278   2.834   7.225 -0.9543 -0.7894 -1.0252
 1174SOL     OW15157   3.379   4.248  17.172 -0.0704 -0.3885  0.6442
 1174SOL    HW115158   3.360   4.179  17.236  0.7091 -0.4655  0.7944
 1174SOL    HW215159   3.455   4.205  17.133  1.3075  1.3968  1.3062
 1175SOL     OW15160   3.199   4.354  17.619  0.6880 -0.3441 -0.3050
 1175SOL    HW115161   3.157   4.284  17.570  0.5923 -0.0298 -0.6712
 1175SOL    HW215162   3.291   4.334  17.601  1.1960  0.3338  1.5371
 1176SOL     OW15163   3.678   1.851  14.161  0.2092 -0.0340 -0.0233
 1176SOL    HW115164   3.600   1.890  14.202  0.0190 -0.3733 -0.0683
 1176SOL    HW215165   3.748   1.866  14.224  0.1018  1.1894 -0.1908
 1177SOL     OW15166   2.812   3.820   7.565 -0.1996  0.1481 -0.1582
 1177SOL    HW115167   2.879   3.789   7.503  0.4039 -0.4239  0.7646
 1177SOL    HW215168   2.775   3.893   7.516 -1.0988 -0.8249 -0.9236
 1178SOL     OW15169   0.806   2.088   8.236 -0.3834 -0.4965  0.5615
 1178SOL    HW115170   0.756   2.034   8.174  0.3531 -1.7237  1.0461
 1178SOL    HW215171   0.828   2.165   8.183  0.1367 -0.2394  1.1499
 1179SOL     OW15172   1.551   4.160  15.611  0.4357 -0.5958  0.0630
 1179SOL    HW115173   1.520   4.165  15.521  0.3233  1.3313  0.1909
 1179SOL    HW215174   1.638   4.122  15.598 -0.2658 -1.7715 -1.1293
 1180SOL     OW15175   4.714   0.066  17.253 -0.1782 -0.2472 -0.0308
 1180SOL    HW115176   0.034   0.025  17.317 -1.6343 -0.8538  0.9112
 1180SOL    HW215177   4.626   0.040  17.282  0.1045  0.1068  1.1562
 1181SOL     OW15178   0.683   4.005  14.187 -0.0316 -0.3322  0.2756
 1181SOL    HW115179   0.739   4.016  14.110 -1.6736  1.4510 -0.6535
 1181SOL    HW215180   0.602   4.027  14.141 -2.1997  0.5489  4.5684
 1182SOL     OW15181   2.731   0.164   7.980  0.1413 -0.4908 -0.2732
 1182SOL    HW115182   2.652   0.196   8.022  0.5617  1.1898 -0.7806
 1182SOL    HW215183   2.694   0.109   7.911 -0.3149  0.6536 -0.9318
 1183SOL     OW15184   0.742   3.159  15.290 -0.2605 -0.2634  0.1073
 1183SOL    HW115185   0.817   3.167  15.230 -0.0493 -0.8821  0.2865
 1183SOL    HW215186   0.756   3.242  15.336 -0.1731 -0.2594  0.0743
 1184SOL     OW15187   1.247   3.651   4.214 -0.0749 -0.3635  0.0607
 1184SOL    HW115188   1.309   3.695   4.271 -0.3252 -0.1073  0.1324
 1184SOL    HW215189   1.253   3.696   4.130  1.3971  2.2117  1.5630
 1185SOL     OW15190   2.765   1.562   7.697 -0.2430 -0.2051  0.1941
 1185SOL    HW115191   2.806   1.487   7.740 -0.5599 -0.9438 -0.7821
 1185SOL    HW215192   2.757   1.526   7.608 -1.5612 -0.4122  0.3902
 1186SOL     OW15193   3.679   0.355   8.983 -0.3268  0.3692 -0.1466
 1186SOL    HW115194   3.692   0.291   8.914  1.5372 -1.2458  1.7247
 1186SOL    HW215195   3.759   0.344   9.034 -1.3167 -0.1017  1.3020
 1187SOL     OW15196   2.024   2.437  16.271 -0.3118  0.3877  0.2295
 1187SOL    HW115197   1.954   2.382  16.308 -2.0912  2.4498 -0.0314
 1187SOL    HW215198   2.105   2.389  16.286 -0.4748 -0.5847 -2.0381
 1188SOL     OW15199   3.475   4.628   8.961  0.3464 -0.2053  0.2398
 1188SOL    HW115200   3.543   4.684   8.923 -1.5536  1.2355 -1.0612
 1188SOL    HW215201   3.486   4.644   9.054 -2.0475  1.0105  0.3122
 1189SOL     OW15202   4.445   0.715   9.280  0.0421 -0.1627  0.5497
 1189SOL    HW115203   4.384   0.645   9.254 -0.6153  0.2675  0.9189
 1189SOL    HW215204   4.404   0.787   9.233 -1.0789  1.0997  3.4810
 1190SOL     OW15205   4.482   0.663   2.102  0.0903  0.1122  0.4788
 1190SOL    HW115206   4.475   0.742   2.155 -0.5700 -1.0581  2.1449
 1190SOL    HW215207   4.576   0.668   2.086  0.0683 -0.6560  0.1165
 1191SOL     OW15208   2.108   3.597   2.943 -0.2644 -0.1758 -0.0224
 1191SOL    HW115209   2.060   3.593   2.861  1.3833 -4.4505 -0.7470
 1191SOL    HW215210   2.035   3.621   3.000  0.4300  0.7586  0.4780
 1192SOL     OW15211   1.905   4.181   7.542  0.9159  0.6269  0.0961
 1192SOL    HW115212   1.911   4.087   7.530 -1.3558  0.6501 -1.1736
 1192SOL    HW215213   1.811   4.194   7.535  0.7695  0.5872  2.1207
 1193SOL     OW15214   2.056   3.418   9.323  0.1996 -0.0363 -0.4009
 1193SOL    HW115215   1.990   3.409   9.391  1.6655 -0.9633  0.8963
 1193SOL    HW215216   2.027   3.345   9.268  0.8423 -0.0425 -0.7343
 1194SOL     OW15217   4.178   2.141   2.453 -0.0534 -0.0837 -0.0910
 1194SOL    HW115218   4.271   2.159   2.444 -0.4411  2.3411  0.7391
 1194SOL    HW215219   4.175   2.053   2.490  0.3323  0.0700  0.3070
 1195SOL     OW15220   0.093   3.697   8.926  0.4552 -0.6056 -0.4423
 1195SOL    HW115221   0.064   3.704   8.835 -0.4899 -0.1975 -0.1101
 1195SOL    HW215222   0.074   3.790   8.940 -2.0311 -0.7758 -2.7622
 1196SOL     OW15223   4.308   3.568   4.870  0.0157 -0.1997  0.1577
 1196SOL    HW115224   4.219   3.542   4.894 -0.5614  1.3571 -0.2461
 1196SOL    HW215225   4.338   3.592   4.958 -1.4673  0.3882  0.5203
 1197SOL     OW15226   2.029   4.390   5.956  0.0370  0.0023 -0.0057
 1197SOL    HW115227   1.956   4.386   5.894 -0.4655 -4.0661  0.8684
 1197SOL    HW215228   2.100   4.347   5.908  0.8830 -1.6510  2.7518
 1198SOL     OW15229   1.721   3.354   7.760 -0.1441  1.0319  0.1307
 1198SOL    HW115230   1.783   3.281   7.770 -0.8794  0.2724 -0.8028
 1198SOL    HW215231   1.636   3.319   7.787  0.0776  2.0878  2.2028
 1199SOL     OW15232   4.076   4.483   2.723  0.4275 -0.1131 -0.1978
 1199SOL    HW115233   4.028   4.558   2.759  1.4093  0.0302  0.7974
 1199SOL    HW215234   4.010   4.437   2.671  0.0534  1.3579 -1.0344
 1200SOL     OW15235   0.797   2.757   7.371 -0.3725 -0.1208 -0.4684
 1200SOL    HW115236   0.744   2.684   7.341  0.0293 -0.6720  0.1637
 1200SOL    HW215237   0.744   2.833   7.346 -0.7706 -0.0757  0.5329
 1201SOL     OW15238   3.673   3.784   1.166 -0.2745 -0.4730 -0.2655
 1201SOL    HW115239   3.621   3.826   1.097 -0.2793 -0.1407 -0.0578
 1201SOL    HW215240   3.752   3.838   1.158 -1.3917  1.1931 -0.1832
 1202SOL     OW15241   3.279   2.498   8.752  0.3303 -0.2711  0.1557
 1202SOL    HW115242   3.358   2.453   8.781 -0.2992 -0.7746  1.1085
 1202SOL    HW215243   3.279   2.499   8.657  1.8628 -0.5778  0.1607
 1203SOL     OW15244   4.244   3.016  10.735  0.1991 -0.5055  0.0478
 1203SOL    HW115245   4.233   3.025  10.640 -1.8335 -1.9778  0.1573
 1203SOL    HW215246   4.152   3.017  10.758 -0.1147  0.2536 -1.2086
 1204SOL     OW15247   0.089   3.374   1.763  0.1419  0.5621 -0.1565
 1204SOL    HW115248   0.046   3.328   1.691  1.6585 -2.4349  0.8367
 1204SOL    HW215249   0.092   3.305   1.830 -0.9675  1.4465  0.8149
 1205SOL     OW15250   4.049   3.063   9.448  0.0423  0.3934 -0.1064
 1205SOL    HW115251   3.985   3.112   9.499 -1.3042  0.7018 -2.0775
 1205SOL    HW215252   3.999   2.982   9.441  1.0284  0.0079 -2.7704
 1206SOL     OW15253   0.122   0.644  16.140 -0.1333 -0.1277 -0.3301
 1206SOL    HW115254   0.033   0.647  16.105 -0.1827 -0.1302 -0.2069
 1206SOL    HW215255   0.139   0.729  16.181  2.0070 -1.0816  0.7461
 1207SOL     OW15256   3.444   1.270   4.671 -0.4050  0.2772 -0.1525
 1207SOL    HW115257   3.383   1.326   4.719 -0.1321 -1.0935  1.8007
 1207SOL    HW215258   3.504   1.331   4.628  0.8704 -0.5323  0.4848
 1208SOL     OW15259   0.141   2.803   2.833  0.0844 -0.1622 -0.6480
 1208SOL    HW115260   0.191   2.848   2.765  0.2489  1.2268  0.3850
 1208SOL    HW215261   0.069   2.766   2.782 -0.8356  1.4475 -0.5121
 1209SOL     OW15262   1.066   1.232  14.941  0.0246  0.0489 -0.1226
 1209SOL    HW115263   1.085   1.311  14.991 -2.9993  0.7650 -0.0941
 1209SOL    HW215264   1.146   1.215  14.892 -1.2217 -0.4342 -1.9893
 1210SOL     OW15265   3.227   1.021   8.884  0.7702  0.1207 -0.3056
 1210SOL    HW115266   3.180   1.006   8.967 -0.1739 -0.3151 -0.9114
 1210SOL    HW215267   3.313   0.982   8.900  0.5178  0.0091  0.8112
 1211SOL     OW15268   1.079   4.571  16.083 -0.0013  0.4280 -0.5974
 1211SOL    HW115269   1.139   4.611  16.019  2.1482  0.3942  1.3901
 1211SOL    HW215270   1.110   4.481  16.084  1.8194  1.0532  0.4814
 1212SOL     OW15271   0.015   2.306   4.170  0.4836 -0.2614  0.4465
 1212SOL    HW115272   0.077   2.342   4.107 -0.8829  3.6807  1.3637
 1212SOL    HW215273   4.689   2.258   4.118  0.9643 -0.4605  0.0393
 1213SOL     OW15274   1.598   0.573   5.152  0.2214  0.2414  0.2296
 1213SOL    HW115275   1.661   0.501   5.161 -1.9551 -1.7374 -0.5814
 1213SOL    HW215276   1.521   0.530   5.115 -1.2526  2.0677  1.1969
 1214SOL     OW15277   2.681   0.873   9.996 -0.6216 -0.2819 -0.1693
 1214SOL    HW115278   2.614   0.841  10.056 -0.0674 -5.1935 -2.1349
 1214SOL    HW215279   2.763   0.845  10.039  0.0473 -0.5846 -1.6355
 1215SOL     OW15280   3.807   1.625   8.768 -0.4369 -0.0845 -0.7136
 1215SOL    HW115281   3.884   1.682   8.771 -0.4194 -0.1271 -0.3619
 1215SOL    HW215282   3.754   1.664   8.698 -2.2980  1.4879  1.5669
 1216SOL     OW15283   3.973   4.142   6.182 -1.3819  0.2367  0.0804
 1216SOL    HW115284   4.017   4.166   6.101 -1.7378  1.4909  0.2501
 1216SOL    HW215285   3.900   4.089   6.150 -2.1712  1.3535  0.0340
 1217SOL     OW15286   3.320   1.430   3.493 -0.0487 -0.1130  0.0951
 1217SOL    HW115287   3.338   1.519   3.522 -0.0611 -0.1972  0.3672
 1217SOL    HW215288   3.409   1.397   3.495  0.3599  0.9188 -1.2672
 1218SOL     OW15289   2.223   4.518   2.768 -0.2481  0.4388 -0.3013
 1218SOL    HW115290   2.311   4.509   2.730  0.3864  0.6823  1.0934
 1218SOL    HW215291   2.166   4.475   2.704  0.7254 -0.5059 -0.5288
 1219SOL     OW15292   1.717   1.382   7.566 -0.7026 -0.3310  0.0343
 1219SOL    HW115293   1.812   1.397   7.565 -0.1907 -3.7592 -0.0319
 1219SOL    HW215294   1.698   1.423   7.482 -1.3070 -2.0188 -0.6479
 1220SOL     OW15295   1.881   1.929   2.922  0.3787  0.4511 -0.0626
 1220SOL    HW115296   1.853   1.838   2.923 -0.6774  0.7919  1.5832
 1220SOL    HW215297   1.885   1.941   3.017 -0.0744 -0.8751  0.1271
 1221SOL     OW15298   2.207   1.693  12.219  0.5799 -0.2066 -0.3371
 1221SOL    HW115299   2.277   1.683  12.284  0.9090  0.4335 -0.5927
 1221SOL    HW215300   2.250   1.645  12.148 -0.1434 -0.5391 -0.5415
 1222SOL     OW15301   2.189   2.323   1.807 -0.1637 -0.1466 -0.3776
 1222SOL    HW115302   2.121   2.360   1.863  0.3669  0.0158  0.1677
 1222SOL    HW215303   2.239   2.277   1.875  3.9043  3.1244 -1.1596
 1223SOL     OW15304   0.816   2.244   9.264 -0.0946  0.2232  0.6981
 1223SOL    HW115305   0.783   2.201   9.185 -0.5529  1.4496  0.2106
 1223SOL    HW215306   0.843   2.330   9.231 -3.2418  1.1528  0.6191
 1224SOL     OW15307   3.889   1.018   7.429 -0.2325  0.4289 -0.8030
 1224SOL    HW115308   3.941   0.944   7.459  1.2093  2.2547  1.2477
 1224SOL    HW215309   3.891   0.999   7.335  0.3333 -0.2616 -0.6495
 1225SOL     OW15310   0.603   3.434   8.988 -0.0621 -0.4330  0.0997
 1225SOL    HW115311   0.673   3.395   8.935 -1.5025 -3.3085  0.2693
 1225SOL    HW215312   0.638   3.407   9.073  0.3107 -0.2185  0.0124
 1226SOL     OW15313   0.740   1.947   5.664  0.4048  0.2407  0.2765
 1226SOL    HW115314   0.648   1.970   5.653  0.6495  1.9137  1.7479
 1226SOL    HW215315   0.755   1.874   5.603  2.6508  1.8079 -1.0702
 1227SOL     OW15316   0.980   4.060   1.642  0.2823  0.7960 -0.0068
 1227SOL    HW115317   0.961   4.128   1.577  0.0411  1.8395  1.1603
 1227SOL    HW215318   0.998   4.115   1.718 -0.3275 -0.1279  0.7931
 1228SOL     OW15319   2.815   4.482  17.205 -0.3716 -0.3751 -0.6260
 1228SOL    HW115320   2.767   4.485  17.288 -3.7043  0.4104 -2.5911
 1228SOL    HW215321   2.899   4.520  17.231 -0.5282 -0.8310  0.5325
 1229SOL     OW15322   3.027   4.504  14.699  0.2101  0.4594 -0.0902
 1229SOL    HW115323   3.101   4.495  14.638  0.2696  1.5805 -0.1928
 1229SOL    HW215324   2.965   4.557  14.648 -0.8712 -3.3507 -2.7406
 1230SOL     OW15325   2.187   1.066   0.871  0.1094 -0.1714 -0.4433
 1230SOL    HW115326   2.252   1.001   0.845 -1.8100 -2.2513 -0.0122
 1230SOL    HW215327   2.235   1.146   0.848 -0.1513  0.1446  0.1055
 1231SOL     OW15328   0.383   3.265   7.788 -0.2081 -0.0186 -0.3229
 1231SOL    HW115329   0.330   3.304   7.856 -0.3009 -0.4563 -0.1422
 1231SOL    HW215330   0.435   3.341   7.762  0.7052 -1.1521 -1.8051
 1232SOL     OW15331   2.011   1.358  17.571  0.0012  0.3842 -0.3920
 1232SOL    HW115332   2.042   1.348  17.661 -0.9686 -1.0244 -0.2244
 1232SOL    HW215333   1.960   1.278  17.563  0.3814 -0.0763  1.6182
 1233SOL     OW15334   2.520   4.325   2.109 -0.1560  0.2255  0.3576
 1233SOL    HW115335   2.482   4.409   2.083 -0.5139  0.4549  1.6019
 1233SOL    HW215336   2.548   4.289   2.025  1.8882  2.2920  0.1534
 1234SOL     OW15337   2.169   3.958   7.131 -0.0247  0.0178 -0.2148
 1234SOL    HW115338   2.111   3.883   7.145 -0.3281  0.2203 -0.3973
 1234SOL    HW215339   2.111   4.033   7.122 -0.6540 -0.6660 -1.8119
 1235SOL     OW15340   1.157   2.721  14.195  0.2284 -0.4035 -0.1634
 1235SOL    HW115341   1.067   2.745  14.217  1.1908  1.1021  2.1293
 1235SOL    HW215342   1.205   2.777  14.256 -1.4587  0.1382  0.6701
 1236SOL     OW15343   3.587   3.130   1.811 -0.3055 -0.0276  0.0862
 1236SOL    HW115344   3.677   3.138   1.781 -0.0044 -0.6616  0.8177
 1236SOL    HW215345   3.576   3.215   1.853  1.0465 -0.3477  1.0688
 1237SOL     OW15346   2.429   4.011   3.000  0.8912  0.4489 -0.6440
 1237SOL    HW115347   2.381   4.089   3.029 -0.3941 -0.8055  0.5737
 1237SOL    HW215348   2.402   4.002   2.909  1.7025  2.4021 -1.0936
 1238SOL     OW15349   3.799   3.908  15.851  0.1163  0.0515  0.1278
 1238SOL    HW115350   3.854   3.971  15.897  0.5701 -1.3645  1.5284
 1238SOL    HW215351   3.719   3.959  15.844  0.8442  0.8178 -2.7351
 1239SOL     OW15352   1.063   0.740  17.214 -0.2231 -0.0955  0.3869
 1239SOL    HW115353   1.029   0.670  17.271 -1.0492 -0.4747 -0.5813
 1239SOL    HW215354   0.977   0.764  17.179  0.6674  0.3563 -1.4726
 1240SOL     OW15355   2.672   2.860   5.008 -0.1397 -0.3471  0.1356
 1240SOL    HW115356   2.700   2.934   5.061 -3.0594 -0.4402  1.8187
 1240SOL    HW215357   2.584   2.896   4.996  0.1591  0.8652  1.6951
 1241SOL     OW15358   4.160   4.171   4.124 -0.1678 -0.2485 -0.5487
 1241SOL    HW115359   4.233   4.167   4.186  1.1417  1.6472 -1.9445
 1241SOL    HW215360   4.121   4.084   4.113  2.0592 -1.4128  0.7644
 1242SOL     OW15361   2.106   2.061   9.078 -0.0268 -0.3941  0.3856
 1242SOL    HW115362   2.092   2.069   8.983 -1.2167  1.9958  0.7601
 1242SOL    HW215363   2.179   1.999   9.083  0.3635  0.0680  0.3881
 1243SOL     OW15364   0.080   2.782   0.408 -0.1134 -0.1631  0.6148
 1243SOL    HW115365   0.150   2.728   0.371 -0.7420 -0.4436 -0.1533
 1243SOL    HW215366   0.102   2.775   0.501 -0.3165  1.6356  0.7877
 1244SOL     OW15367   1.304   0.666   5.932 -0.2923  0.5479  0.3954
 1244SOL    HW115368   1.250   0.589   5.915  1.4880 -0.8172  0.7851
 1244SOL    HW215369   1.347   0.674   5.847 -3.4302 -1.1889 -1.3247
 1245SOL     OW15370   2.434   0.123  14.397 -0.1900  0.5536 -0.2579
 1245SOL    HW115371   2.524   0.156  14.408  0.3144 -0.5675 -0.9376
 1245SOL    HW215372   2.450   0.037  14.357 -0.6075  1.2884 -2.0259
 1246SOL     OW15373   1.172   0.721   7.054  0.5552  0.4446  0.2545
 1246SOL    HW115374   1.208   0.688   6.972  2.3245 -0.5728  1.4351
 1246SOL    HW215375   1.086   0.751   7.025 -0.3785 -2.3898  0.1335
 1247SOL     OW15376   1.469   1.896   0.315  0.0204  0.1174 -0.4570
 1247SOL    HW115377   1.377   1.879   0.337 -0.3031  1.2976 -0.8811
 1247SOL    HW215378   1.477   1.977   0.365  1.8764 -0.6999  0.5975
 1248SOL     OW15379   3.496   1.887   9.358  0.0762  0.1981 -0.5477
 1248SOL    HW115380   3.482   1.878   9.452  1.0271  1.8328 -0.2385
 1248SOL    HW215381   3.451   1.969   9.340 -1.2937 -0.5698 -0.5668
 1249SOL     OW15382   1.989   0.208   4.567 -0.0013 -0.0311 -0.2876
 1249SOL    HW115383   1.965   0.199   4.474  0.6945 -1.6356 -0.3238
 1249SOL    HW215384   1.946   0.291   4.585 -1.9080 -1.2664  0.8710
 1250SOL     OW15385   0.815   0.408   4.925  0.3966 -0.5727 -0.0253
 1250SOL    HW115386   0.741   0.402   4.865 -0.8620 -0.0396  1.4588
 1250SOL    HW215387   0.882   0.379   4.863  1.7788  2.3741  0.1044
 1251SOL     OW15388   3.761   3.020  15.666 -0.2699 -0.0133  0.2088
 1251SOL    HW115389   3.744   2.979  15.581 -2.1636 -1.3657  1.2272
 1251SOL    HW215390   3.693   3.086  15.678 -0.5870 -0.3548  0.2849
 1252SOL     OW15391   3.648   0.126   5.068  0.2974 -0.2248  0.3643
 1252SOL    HW115392   3.644   0.062   5.139 -1.1473 -0.8739 -0.3028
 1252SOL    HW215393   3.573   0.112   5.011 -0.1825 -2.2114  1.4640
 1253SOL     OW15394   4.365   4.016   4.252  0.2869 -0.6828  0.5498
 1253SOL    HW115395   4.431   3.966   4.300  1.1601  0.1999  0.2767
 1253SOL    HW215396   4.395   4.023   4.161  2.5801 -3.0376  1.1401
 1254SOL     OW15397   0.562   2.905   9.391 -0.2253  0.7366 -0.7361
 1254SOL    HW115398   0.474   2.904   9.428  0.5093  2.5217  1.0332
 1254SOL    HW215399   0.536   2.864   9.309  0.9492  1.2687 -1.3661
 1255SOL     OW15400   0.259   2.882   1.615 -0.1192 -0.7926  0.0135
 1255SOL    HW115401   0.182   2.915   1.570 -1.3735 -1.7576  1.4371
 1255SOL    HW215402   0.312   2.849   1.542  0.4121  1.4916 -0.6332
 1256SOL     OW15403   3.762   1.551   1.775  0.0340 -0.3111 -0.4929
 1256SOL    HW115404   3.720   1.523   1.856  0.0506  0.5621 -0.1825
 1256SOL    HW215405   3.784   1.467   1.734  0.5173  0.1441 -1.1729
 1257SOL     OW15406   1.462   2.958  12.487 -0.5032  0.0121  0.0776
 1257SOL    HW115407   1.515   2.987  12.413 -2.3498  0.7167 -0.9629
 1257SOL    HW215408   1.376   2.955  12.445 -0.4409 -1.0814  0.0374
 1258SOL     OW15409   0.960   2.972   8.807  0.5100 -0.2904  0.3077
 1258SOL    HW115410   0.889   2.945   8.749  0.0570 -2.3023  1.7727
 1258SOL    HW215411   0.943   3.066   8.804 -2.1644 -0.8486 -1.4504
 1259SOL     OW15412   3.387   2.337   3.019 -0.3136 -0.2474  0.1580
 1259SOL    HW115413   3.393   2.428   2.992  0.5359  0.0062  1.2123
 1259SOL    HW215414   3.319   2.303   2.961 -0.2663  0.3833 -0.2729
 1260SOL     OW15415   2.298   2.645  15.740  0.1829  0.4422  0.1111
 1260SOL    HW115416   2.260   2.628  15.654  0.3342  0.0311  0.1235
 1260SOL    HW215417   2.368   2.579  15.736 -0.3987 -0.1943  0.4278
 1261SOL     OW15418   2.561   1.078   6.710  0.1076  0.0701 -0.5481
 1261SOL    HW115419   2.497   1.006   6.716  1.8623 -1.4513  0.0814
 1261SOL    HW215420   2.562   1.101   6.803 -1.7567  1.0863 -0.7714
 1262SOL     OW15421   2.652   0.089  10.714 -0.6302  0.5858  0.0482
 1262SOL    HW115422   2.570   0.084  10.664  1.7520  0.2396 -3.8611
 1262SOL    HW215423   2.652   0.182  10.738  0.5545  0.4018  0.7496
 1263SOL     OW15424   3.343   3.009   9.658 -0.4750 -0.0431 -0.1866
 1263SOL    HW115425   3.260   3.040   9.622 -1.6080 -1.6937  1.0442
 1263SOL    HW215426   3.383   3.094   9.680  0.8667 -0.3717 -1.3510
 1264SOL     OW15427   1.560   3.974   0.203 -0.7143 -0.5139 -0.4467
 1264SOL    HW115428   1.507   4.042   0.245  0.0873  1.4612 -2.6236
 1264SOL    HW215429   1.541   3.981   0.110  1.1005  0.5961 -0.7307
 1265SOL     OW15430   3.692   1.726   0.986  0.2050  0.1399  0.6164
 1265SOL    HW115431   3.650   1.811   1.002  1.5652  0.8014  0.6197
 1265SOL    HW215432   3.774   1.728   1.035  1.1636  1.0400 -1.0099
 1266SOL     OW15433   1.029   4.664   6.761  0.1979  0.1139  0.3425
 1266SOL    HW115434   0.959   4.600   6.752 -0.0677  0.1376  2.0862
 1266SOL    HW215435   0.986   4.720   6.826 -2.3682  0.7190 -1.9223
 1267SOL     OW15436   0.289   3.350  15.613 -0.8120 -0.1377  0.0795
 1267SOL    HW115437   0.375   3.321  15.582 -1.8737  1.6000 -4.4424
 1267SOL    HW215438   0.290   3.434  15.567  2.3681  0.0686  0.5389
 1268SOL     OW15439   3.740   4.623   3.330 -0.3534  0.6542  0.6858
 1268SOL    HW115440   3.708   4.575   3.253  0.1533  3.1001 -1.0468
 1268SOL    HW215441   3.710   4.711   3.307 -1.1100 -0.1402 -1.4556
 1269SOL     OW15442   4.140   3.576   5.315  0.3320  0.1260  0.6474
 1269SOL    HW115443   4.233   3.573   5.338  0.6663  0.3179 -0.6916
 1269SOL    HW215444   4.107   3.655   5.359  0.2227  0.3113  0.2351
 1270SOL     OW15445   3.901   1.217   6.213  0.4964  0.1115 -0.0261
 1270SOL    HW115446   3.894   1.312   6.212 -2.3305 -0.0970 -1.4056
 1270SOL    HW215447   3.940   1.209   6.126  1.5292 -0.7753  0.5276
 1271SOL     OW15448   3.020   2.394   9.417  0.6790 -0.0248  0.4633
 1271SOL    HW115449   2.993   2.481   9.448 -0.3358 -0.5044  0.9080
 1271SOL    HW215450   2.934   2.354   9.422  1.0253 -0.5937  1.6899
 1272SOL     OW15451   3.619   4.325  15.755  0.1461  0.0606 -0.3235
 1272SOL    HW115452   3.698   4.380  15.757  1.5734 -2.1004  2.3703
 1272SOL    HW215453   3.607   4.345  15.663  0.0342  2.9758  0.3043
 1273SOL     OW15454   1.052   1.958   8.359 -0.6204  0.3065  0.2230
 1273SOL    HW115455   0.990   1.954   8.286  0.6640 -2.2855 -0.7585
 1273SOL    HW215456   0.992   1.968   8.433 -2.1290 -0.5673 -0.8954
 1274SOL     OW15457   3.660   1.381   6.314  0.7123  0.4222  0.1380
 1274SOL    HW115458   3.640   1.419   6.228  1.2528  1.3092  0.4060
 1274SOL    HW215459   3.582   1.407   6.364 -0.1370  0.1220 -1.0099
 1275SOL     OW15460   2.054   4.197   7.087  0.2634  0.4221  0.4524
 1275SOL    HW115461   1.975   4.230   7.045  1.1261  2.4571  0.4484
 1275SOL    HW215462   2.035   4.238   7.171  2.0031  1.7070  0.2248
 1276SOL     OW15463   2.752   3.672  17.172  0.9096 -0.0911  0.0160
 1276SOL    HW115464   2.738   3.759  17.211 -2.0346 -0.1871 -0.8655
 1276SOL    HW215465   2.711   3.616  17.237  0.9938 -1.2979 -0.9804
 1277SOL     OW15466   0.651   1.903   0.240  0.1720 -0.0136  0.1764
 1277SOL    HW115467   0.714   1.834   0.261  1.4749  1.0115 -0.3073
 1277SOL    HW215468   0.703   1.975   0.203  0.0215  0.0748  0.1351
 1278SOL     OW15469   4.368   4.460   3.403 -0.0730 -0.4266  0.4935
 1278SOL    HW115470   4.286   4.420   3.430 -0.1960 -0.7782 -0.3756
 1278SOL    HW215471   4.395   4.385   3.349 -0.2188 -1.0787  1.3145
 1279SOL     OW15472   2.075   3.397   6.812 -0.0138  0.1007  0.0348
 1279SOL    HW115473   2.148   3.380   6.871 -1.2043  0.9433  1.7200
 1279SOL    HW215474   2.009   3.380   6.878 -0.5432  1.2791 -0.1872
 1280SOL     OW15475   1.125   1.213  10.555 -0.1328  0.3661  0.4738
 1280SOL    HW115476   1.113   1.267  10.633 -0.9158  0.3311  0.3688
 1280SOL    HW215477   1.192   1.252  10.499 -1.0357  0.5515 -0.4588
 1281SOL     OW15478   2.332   3.553   7.760 -0.1773 -0.2153  0.1267
 1281SOL    HW115479   2.389   3.621   7.724  0.1913  0.1493  1.3906
 1281SOL    HW215480   2.395   3.484   7.780  0.7877  1.2426  2.1918
 1282SOL     OW15481   0.808   1.137   3.970  0.0563  0.4948 -0.3910
 1282SOL    HW115482   0.722   1.179   3.961  0.5880  1.5163 -0.8240
 1282SOL    HW215483   0.863   1.196   3.918 -0.7751  1.1052 -0.5805
 1283SOL     OW15484   3.989   4.276  11.844  0.6492  0.4423  0.2802
 1283SOL    HW115485   4.060   4.214  11.862  0.3973 -0.1839 -0.8623
 1283SOL    HW215486   3.923   4.221  11.802  1.7967 -0.6548 -0.0624
 1284SOL     OW15487   2.451   2.129   7.766 -0.5155  0.2514 -0.2112
 1284SOL    HW115488   2.542   2.156   7.754  0.2216 -0.5895  3.5185
 1284SOL    HW215489   2.445   2.060   7.700 -2.9148  1.9277 -1.7461
 1285SOL     OW15490   4.013   3.745  10.299  0.2704  0.0099 -0.1908
 1285SOL    HW115491   4.068   3.823  10.287  2.3394 -1.0353  2.6899
 1285SOL    HW215492   4.056   3.683  10.240 -0.6638 -0.3745 -0.4655
 1286SOL     OW15493   1.385   4.301   2.101 -0.2305 -0.0461  0.6131
 1286SOL    HW115494   1.312   4.301   2.164  0.1397 -0.8900  1.0455
 1286SOL    HW215495   1.357   4.385   2.064  0.2881  0.6964  1.9044
 1287SOL     OW15496   1.769   0.289   3.802 -0.5114  0.4153 -0.6993
 1287SOL    HW115497   1.837   0.305   3.867 -0.7997 -0.4309 -0.1854
 1287SOL    HW215498   1.717   0.368   3.806 -0.9410  0.2234 -2.4450
 1288SOL     OW15499   3.641   1.554   7.702 -0.3249 -0.4619  0.0268
 1288SOL    HW115500   3.683   1.576   7.785 -1.2822  0.1818  0.3526
 1288SOL    HW215501   3.629   1.460   7.712 -1.6920 -0.3057 -0.1569
 1289SOL     OW15502   1.645   2.964   2.968  0.2159  0.6571  0.1186
 1289SOL    HW115503   1.606   3.039   3.013 -1.7410  0.0260 -0.5391
 1289SOL    HW215504   1.732   2.960   3.009 -1.4955 -1.5827  3.5086
 1290SOL     OW15505   1.844   2.050   4.964  0.4234 -0.0349  0.2537
 1290SOL    HW115506   1.810   2.061   4.875  3.3205  1.3809 -0.6604
 1290SOL    HW215507   1.781   1.981   4.986 -1.3859  1.8036  0.7982
 1291SOL     OW15508   0.628   3.780   4.979 -0.7398  0.1492 -0.8478
 1291SOL    HW115509   0.623   3.788   5.075 -0.9970 -1.4945 -0.7147
 1291SOL    HW215510   0.564   3.711   4.962 -2.1679  0.9861  1.1111
 1292SOL     OW15511   1.985   0.329   3.443  0.4513  0.3347  0.2178
 1292SOL    HW115512   1.897   0.362   3.464  0.0386 -1.2979  1.0416
 1292SOL    HW215513   2.020   0.283   3.519 -0.6171  0.7704  0.9752
 1293SOL     OW15514   1.178   2.177   6.001 -0.6394  0.4858 -0.3249
 1293SOL    HW115515   1.161   2.128   5.920  1.1785 -1.0453  0.2222
 1293SOL    HW215516   1.182   2.104   6.062 -0.6346  0.5945 -0.1949
 1294SOL     OW15517   3.520   3.726   2.889  0.0601  0.0301 -0.4012
 1294SOL    HW115518   3.480   3.806   2.922 -0.8161  0.0330 -1.4768
 1294SOL    HW215519   3.612   3.747   2.875  0.8480 -3.0591 -0.0221
 1295SOL     OW15520   0.863   2.002   1.878  0.3606  0.1617 -0.2419
 1295SOL    HW115521   0.902   2.084   1.907 -0.6941  0.7778 -0.5623
 1295SOL    HW215522   0.833   1.965   1.961  0.9400 -0.7788 -0.4491
 1296SOL     OW15523   4.628   0.670   8.494  0.4576 -0.1456 -0.6212
 1296SOL    HW115524   4.620   0.578   8.520 -0.4675 -0.4334 -1.9195
 1296SOL    HW215525   4.646   0.713   8.577 -0.6748 -0.8242 -0.0248
 1297SOL     OW15526   0.856   0.950   2.406 -0.6234 -0.3993  0.2174
 1297SOL    HW115527   0.802   0.910   2.337  1.2181 -0.9408 -0.8881
 1297SOL    HW215528   0.897   1.024   2.361 -2.0481 -1.2590 -2.4755
 1298SOL     OW15529   2.235   3.522   1.380  0.0403  0.2104  0.3999
 1298SOL    HW115530   2.179   3.575   1.438  1.6191  1.8875  0.3890
 1298SOL    HW215531   2.314   3.529   1.433  0.1622 -2.3140  0.5498
 1299SOL     OW15532   3.117   1.696   4.643 -0.2123 -0.0069  0.5152
 1299SOL    HW115533   3.085   1.785   4.626  2.1410  0.9992  1.2695
 1299SOL    HW215534   3.170   1.721   4.719 -0.3765  1.3998  0.1655
 1300SOL     OW15535   4.058   1.999   2.828  0.2880  0.0999  0.2988
 1300SOL    HW115536   4.026   1.994   2.918  1.2269 -1.0760  0.5692
 1300SOL    HW215537   3.987   1.963   2.776  0.7169 -1.6040  0.8924
 1301SOL     OW15538   3.058   3.060   8.731  1.0999  0.3835 -0.0396
 1301SOL    HW115539   3.003   3.050   8.809  1.1046 -0.3333 -0.1319
 1301SOL    HW215540   2.987   3.086   8.673 -0.6025 -1.0301  1.3994
 1302SOL     OW15541   1.876   2.446   2.978 -0.0494  0.5399  0.3768
 1302SOL    HW115542   1.789   2.465   2.942  0.3432  0.8568 -0.4190
 1302SOL    HW215543   1.924   2.522   2.944 -0.3225  1.6460  2.4959
 1303SOL     OW15544   1.638   0.091   2.116 -0.2679  0.2731 -0.2488
 1303SOL    HW115545   1.632   4.735   2.127 -1.9257  0.4422  0.2609
 1303SOL    HW215546   1.701   0.102   2.045  0.2418 -0.3046  0.1108
 1304SOL     OW15547   0.044   0.011   7.022 -0.5077 -0.0300 -0.3098
 1304SOL    HW115548   0.078   4.715   7.105  0.0871  1.6983  0.1752
 1304SOL    HW215549   4.707   0.065   7.047 -1.6752 -2.5442  1.5198
 1305SOL     OW15550   1.827   1.017   4.208  0.1908  0.1203 -0.6316
 1305SOL    HW115551   1.904   0.963   4.226  0.6181  0.7092 -0.7080
 1305SOL    HW215552   1.812   1.033   4.302 -2.5423 -1.0207 -0.8589
 1306SOL     OW15553   2.779   3.031   3.783  0.3191 -0.4119  0.2683
 1306SOL    HW115554   2.684   3.039   3.789  0.3126  0.4527 -0.9902
 1306SOL    HW215555   2.784   2.989   3.698 -1.5405  1.7068 -0.8872
 1307SOL     OW15556   0.339   2.757  16.210 -0.0303 -0.7213 -0.5247
 1307SOL    HW115557   0.338   2.764  16.306  1.6514 -0.2968 -0.5512
 1307SOL    HW215558   0.432   2.758  16.188 -0.3340 -1.7143 -1.8568
 1308SOL     OW15559   1.204   1.588   1.145 -0.1950  0.5580 -0.4533
 1308SOL    HW115560   1.164   1.654   1.089  1.6273  1.7474 -0.3522
 1308SOL    HW215561   1.172   1.511   1.097 -0.5326  0.2496  0.2614
 1309SOL     OW15562   3.269   2.700   9.769  0.5888  0.1471  0.2158
 1309SOL    HW115563   3.250   2.688   9.862 -1.7430 -0.3220 -0.3352
 1309SOL    HW215564   3.283   2.794   9.757  1.3311  0.2070  1.5560
 1310SOL     OW15565   1.808   3.618   4.681 -0.2966 -0.7751 -0.1720
 1310SOL    HW115566   1.887   3.568   4.661  0.3732  0.7829 -1.4461
 1310SOL    HW215567   1.846   3.706   4.676  0.3016 -1.0719 -0.7942
 1311SOL     OW15568   4.587   1.075   9.396 -0.4135 -0.0815 -0.1071
 1311SOL    HW115569   4.515   1.037   9.447  0.0807 -1.5269 -0.4776
 1311SOL    HW215570   4.641   1.109   9.467 -0.4161 -1.0480  0.3645
 1312SOL     OW15571   0.751   2.821   5.479 -0.1804 -0.5915  0.5031
 1312SOL    HW115572   0.828   2.837   5.425 -0.5877  0.0732  0.1104
 1312SOL    HW215573   0.785   2.871   5.554 -0.9142  0.7164 -0.0460
 1313SOL     OW15574   2.133   1.596   6.041 -0.1634 -0.6169  0.2793
 1313SOL    HW115575   2.094   1.560   5.962  1.4941 -1.4333 -0.1720
 1313SOL    HW215576   2.121   1.524   6.102  2.6417 -2.2263 -1.0824
 1314SOL     OW15577   2.003   3.288   4.018 -0.0433  0.4789 -0.3321
 1314SOL    HW115578   1.919   3.288   3.972  0.5560 -0.0398 -1.4085
 1314SOL    HW215579   1.970   3.320   4.103 -1.3023 -0.7415 -0.3716
 1315SOL     OW15580   0.226   1.599   5.499 -0.2762  0.0999 -0.5430
 1315SOL    HW115581   0.258   1.511   5.481 -1.3899 -0.7284  1.5437
 1315SOL    HW215582   0.134   1.585   5.524 -0.3521  0.6578 -0.5174
 1316SOL     OW15583   1.623   3.333   0.865  0.1162 -0.0097 -0.3457
 1316SOL    HW115584   1.703   3.316   0.915 -0.5526 -2.5212 -0.1423
 1316SOL    HW215585   1.619   3.429   0.864  0.3876  0.0272  1.9497
 1317SOL     OW15586   1.546   0.639   0.349  0.1893  0.6268 -0.1038
 1317SOL    HW115587   1.591   0.724   0.349  1.7061 -0.1893 -1.8769
 1317SOL    HW215588   1.622   0.583   0.334 -0.6740 -1.2738  2.5548
 1318SOL     OW15589   3.308   4.377   7.194  0.2851 -0.0242  0.2921
 1318SOL    HW115590   3.268   4.293   7.215  2.8564 -1.6566 -1.3161
 1318SOL    HW215591   3.397   4.360   7.224 -1.0209 -0.3945  4.0021
 1319SOL     OW15592   4.567   3.138   8.518 -0.4673 -0.0382  0.0909
 1319SOL    HW115593   4.518   3.062   8.549  2.3881 -1.7819  0.3740
 1319SOL    HW215594   4.615   3.090   8.450 -0.0746  1.6568 -0.8060
 1320SOL     OW15595   2.958   4.236   7.337 -0.5915 -0.7395 -0.0674
 1320SOL    HW115596   2.944   4.241   7.243  1.7862 -0.5975 -0.4055
 1320SOL    HW215597   3.052   4.218   7.344 -0.6994 -1.5735 -0.8662
 1321SOL     OW15598   4.255   1.118  14.335  0.3930 -0.1050  0.0729
 1321SOL    HW115599   4.320   1.092  14.270 -3.0475  0.9524 -3.7907
 1321SOL    HW215600   4.188   1.158  14.280  1.5476  1.3388 -0.2935
 1322SOL     OW15601   3.984   2.401   4.530  0.1089  0.2134 -0.5841
 1322SOL    HW115602   3.956   2.425   4.618 -0.1184  1.3512 -0.9626
 1322SOL    HW215603   3.899   2.383   4.489 -1.1800 -0.1918  2.3226
 1323SOL     OW15604   2.409   2.431   2.808  0.2582  0.1432  0.0693
 1323SOL    HW115605   2.500   2.405   2.800  0.7732  2.1960 -0.7653
 1323SOL    HW215606   2.393   2.379   2.887 -0.7250  1.9160  1.0384
 1324SOL     OW15607   2.940   4.440   8.363  0.3419 -0.1714 -0.4475
 1324SOL    HW115608   2.991   4.435   8.281  1.6924  4.1038  0.0860
 1324SOL    HW215609   3.007   4.406   8.422 -1.4129  1.0710  2.2402
 1325SOL     OW15610   3.949   3.646   3.329  0.3333  0.1897 -0.4587
 1325SOL    HW115611   3.947   3.569   3.385  0.6444  0.0966 -0.5795
 1325SOL    HW215612   4.037   3.650   3.293  1.1723  0.2324  1.6684
 1326SOL     OW15613   0.978   1.831   6.858  0.1688  0.1939 -0.4067
 1326SOL    HW115614   0.904   1.891   6.861 -2.1080 -2.5519 -1.8997
 1326SOL    HW215615   0.961   1.782   6.939  1.5874 -0.1674 -0.3208
 1327SOL     OW15616   0.381   3.793   2.968  0.6291 -0.3190  0.4219
 1327SOL    HW115617   0.374   3.698   2.966  2.4079 -0.3984 -1.4626
 1327SOL    HW215618   0.410   3.821   3.055  0.8725 -0.5883  0.4248
 1328SOL     OW15619   1.155   2.588  12.394 -0.5263 -0.0460  0.6712
 1328SOL    HW115620   1.244   2.559  12.412 -0.1454 -0.4469 -1.8313
 1328SOL    HW215621   1.166   2.682  12.384  1.0517 -0.2430  0.5633
 1329SOL     OW15622   2.591   0.426   6.365 -0.5593 -0.3068  0.0283
 1329SOL    HW115623   2.634   0.451   6.447  1.0860  0.4377 -1.0577
 1329SOL    HW215624   2.617   0.335   6.357  1.0375 -0.2520  4.5976
 1330SOL     OW15625   4.716   0.345  17.255  0.5956  0.0589  0.3015
 1330SOL    HW115626   4.709   0.251  17.243  1.1538  0.0763 -0.1257
 1330SOL    HW215627   0.073   0.353  17.252  0.6386 -0.1795  0.9674
 1331SOL     OW15628   2.378   1.431   0.275 -0.2794  0.0059 -0.3876
 1331SOL    HW115629   2.464   1.391   0.262 -1.2689 -1.3357 -2.8724
 1331SOL    HW215630   2.347   1.453   0.187 -1.3140  0.5725  0.1238
 1332SOL     OW15631   2.450   3.714   8.676 -0.5981  0.2397  0.1681
 1332SOL    HW115632   2.507   3.696   8.601 -0.5808 -2.0300  0.7094
 1332SOL    HW215633   2.394   3.786   8.647 -2.4010 -1.4308 -0.5103
 1333SOL     OW15634   1.510   0.157   2.789 -0.7908  0.0639 -0.6901
 1333SOL    HW115635   1.421   0.192   2.794 -0.4208  1.1568 -1.8449
 1333SOL    HW215636   1.552   0.224   2.844 -0.8535  0.2277 -0.8428
 1334SOL     OW15637   1.448   2.883   8.381  0.3504 -0.2249  0.5046
 1334SOL    HW115638   1.453   2.870   8.286  1.3507  0.8189  0.4151
 1334SOL    HW215639   1.430   2.977   8.384  2.1297  0.0851  1.8250
 1335SOL     OW15640   4.517   3.590   1.216 -0.2341  0.1372 -0.2683
 1335SOL    HW115641   4.600   3.570   1.259  0.2341 -0.8960 -1.6658
 1335SOL    HW215642   4.550   3.655   1.154 -0.8837  0.3370 -0.4071
 1336SOL     OW15643   0.682   3.722  16.546 -0.3279 -0.0399  0.0340
 1336SOL    HW115644   0.652   3.631  16.547 -0.2547 -0.0666 -0.3886
 1336SOL    HW215645   0.736   3.724  16.467  0.2764 -2.1542  0.4155
 1337SOL     OW15646   2.897   1.638   4.277 -0.0314  0.0999 -0.1160
 1337SOL    HW115647   2.866   1.556   4.316  1.8536 -0.6817 -0.2265
 1337SOL    HW215648   2.822   1.696   4.263 -1.6337 -2.4259 -1.8015
 1338SOL     OW15649   1.277   4.049   4.980  0.3144 -0.0785 -0.0406
 1338SOL    HW115650   1.190   4.074   4.948 -0.4769 -1.1874  1.2513
 1338SOL    HW215651   1.248   3.978   5.037  2.3722 -1.4720 -0.7640
 1339SOL     OW15652   3.348   4.518   2.881 -0.4213 -0.6122 -0.0030
 1339SOL    HW115653   3.281   4.574   2.920 -0.9361  0.3399 -2.2588
 1339SOL    HW215654   3.299   4.494   2.802  0.8446 -1.7578 -0.4233
 1340SOL     OW15655   1.226   1.616   0.289  0.2160  0.2584  0.4087
 1340SOL    HW115656   1.233   1.552   0.218 -0.2925 -1.0667  1.5558
 1340SOL    HW215657   1.241   1.699   0.243  1.2283  0.1299  0.5084
 1341SOL     OW15658   3.222   4.073   2.278 -0.4681 -0.7184  0.3865
 1341SOL    HW115659   3.232   4.041   2.189  1.9356 -0.6067  0.6233
 1341SOL    HW215660   3.143   4.127   2.274 -0.0757 -0.4034 -3.1156
 1342SOL     OW15661   2.960   3.606   0.970  0.0581  0.1189  0.5731
 1342SOL    HW115662   2.996   3.625   0.883  0.3834 -0.9725  0.4579
 1342SOL    HW215663   3.037   3.561   1.006  0.4254  0.1942 -0.1095
 1343SOL     OW15664   2.585   2.311   6.407 -0.1578  0.3545 -0.7378
 1343SOL    HW115665   2.493   2.327   6.429  0.3227 -0.2289  1.6937
 1343SOL    HW215666   2.584   2.297   6.312 -1.1517 -0.9600 -0.5266
 1344SOL     OW15667   3.816   0.190   5.402 -0.2917 -0.3968 -0.1041
 1344SOL    HW115668   3.835   0.136   5.326 -0.1896  0.1409 -0.4597
 1344SOL    HW215669   3.773   0.124   5.456  1.5305 -1.4365  0.0706
 1345SOL     OW15670   4.220   4.007   5.543  0.0992 -0.5279  0.5057
 1345SOL    HW115671   4.215   4.102   5.533  2.2710 -0.5232 -0.6295
 1345SOL    HW215672   4.283   4.001   5.615  1.6105 -0.3644 -0.7908
 1346SOL     OW15673   0.705   3.041   2.042 -0.0152 -0.0903  0.3784
 1346SOL    HW115674   0.773   2.986   2.003 -0.9405 -0.6387 -0.4427
 1346SOL    HW215675   0.638   3.053   1.975  0.0145 -1.0034  0.1940
 1347SOL     OW15676   3.449   1.833  12.252 -0.3972  0.8376 -0.1818
 1347SOL    HW115677   3.453   1.744  12.288  2.7822  1.1085  0.0750
 1347SOL    HW215678   3.406   1.874  12.326  0.9049 -2.1322  2.2319
 1348SOL     OW15679   1.890   1.739   6.876 -0.5096 -0.6218  0.0722
 1348SOL    HW115680   1.857   1.735   6.786  0.9127 -2.3900 -0.3557
 1348SOL    HW215681   1.810   1.722   6.926 -1.1289  1.3784 -0.2495
 1349SOL     OW15682   3.820   3.368   5.664  0.2837 -0.3761 -0.1071
 1349SOL    HW115683   3.911   3.360   5.694 -0.6038  0.6713  2.8402
 1349SOL    HW215684   3.786   3.300   5.721 -4.1730  0.5993 -1.6117
 1350SOL     OW15685   3.011   4.413   6.511 -0.3851 -0.8077  0.7698
 1350SOL    HW115686   3.030   4.484   6.572 -1.4284  0.6773 -0.6424
 1350SOL    HW215687   2.941   4.451   6.457  2.3035  2.8989 -0.0738
 1351SOL     OW15688   2.601   2.749   6.270  0.2047 -0.1440  0.4138
 1351SOL    HW115689   2.566   2.787   6.351 -2.0529 -3.5437  1.0087
 1351SOL    HW215690   2.606   2.656   6.289  1.9213 -0.8485 -3.5876
 1352SOL     OW15691   0.256   1.990   5.221 -0.2656 -0.4836 -0.9775
 1352SOL    HW115692   0.340   2.032   5.241 -0.0953 -1.9327  1.2451
 1352SOL    HW215693   0.240   1.946   5.304  0.6335  0.0844 -0.4889
 1353SOL     OW15694   3.880   1.915   4.593  0.1569 -0.4832  0.0160
 1353SOL    HW115695   3.809   1.979   4.593  2.1960  1.7780  0.4873
 1353SOL    HW215696   3.869   1.876   4.680  0.9526 -1.2719 -0.2388
 1354SOL     OW15697   4.158   2.506   6.077 -0.6557 -0.5760  0.0236
 1354SOL    HW115698   4.139   2.592   6.039  1.3690  0.8198  2.1107
 1354SOL    HW215699   4.124   2.530   6.164  0.3893 -2.1380  0.8685
 1355SOL     OW15700   1.869   2.179   7.525 -0.3647 -0.2143 -0.5609
 1355SOL    HW115701   1.931   2.251   7.511 -2.2939  1.5274 -0.2518
 1355SOL    HW215702   1.830   2.172   7.437 -2.7229  2.4045  0.2663
 1356SOL     OW15703   0.960   0.472   6.316 -0.5575  0.3655  0.2719
 1356SOL    HW115704   0.910   0.390   6.317 -3.0029  1.8840  2.1023
 1356SOL    HW215705   0.888   0.534   6.326 -0.5239  0.3383  0.6669
 1357SOL     OW15706   3.903   0.316   2.864 -0.0168  0.1940  0.5899
 1357SOL    HW115707   3.847   0.317   2.787  1.8320 -2.6460 -0.7798
 1357SOL    HW215708   3.841   0.346   2.931 -0.7526 -1.0160  0.4491
 1358SOL     OW15709   2.969   3.732   4.108 -0.3855 -0.2009 -0.4577
 1358SOL    HW115710   2.895   3.682   4.074 -1.1420  0.2919  0.4681
 1358SOL    HW215711   2.932   3.758   4.192 -1.5117  0.7651 -1.2635
 1359SOL     OW15712   2.591   0.879   7.960 -0.4330  0.1033 -0.5745
 1359SOL    HW115713   2.567   0.856   7.870  0.9047 -3.1334 -0.0826
 1359SOL    HW215714   2.657   0.813   7.981  2.2286  3.1759  0.7385
 1360SOL     OW15715   1.925   2.709   5.554 -0.3597 -0.2366  0.3757
 1360SOL    HW115716   1.979   2.760   5.495  0.9543 -1.0451  0.8816
 1360SOL    HW215717   1.974   2.728   5.634 -1.4195  1.2761  0.6631
 1361SOL     OW15718   1.034   1.606   9.579  0.3253  0.0528  0.2101
 1361SOL    HW115719   0.992   1.611   9.494 -1.3794 -2.7257  0.8808
 1361SOL    HW215720   1.012   1.689   9.620 -3.5029 -1.4662  1.2097
 1362SOL     OW15721   0.982   0.191   3.118  0.0283  0.3171 -0.0412
 1362SOL    HW115722   0.916   0.199   3.186  0.4791 -1.4446  0.5946
 1362SOL    HW215723   1.046   0.140   3.168  0.9523  1.2480 -0.2573
 1363SOL     OW15724   3.335   4.430   3.634 -0.2757  0.4302  0.5644
 1363SOL    HW115725   3.375   4.343   3.636  0.2063  0.6542  0.7526
 1363SOL    HW215726   3.404   4.486   3.599  0.4582 -1.5033 -1.0779
 1364SOL     OW15727   3.190   1.197   6.560 -0.0312 -0.0925 -0.4404
 1364SOL    HW115728   3.153   1.259   6.623 -2.2075 -1.0166 -0.7976
 1364SOL    HW215729   3.123   1.130   6.544  0.3462 -0.3491 -0.9496
 1365SOL     OW15730   1.885   0.643   0.105  0.1361 -0.2955  0.1218
 1365SOL    HW115731   1.807   0.653   0.051 -0.1991  0.9777  0.8436
 1365SOL    HW215732   1.943   0.707   0.064  1.3749 -2.4779 -1.5164
 1366SOL     OW15733   3.826   3.214   7.579 -0.2494 -0.4608 -0.2485
 1366SOL    HW115734   3.887   3.237   7.649  2.7364 -0.7074 -2.7575
 1366SOL    HW215735   3.802   3.297   7.538 -2.6995 -1.5401 -1.0335
 1367SOL     OW15736   2.966   4.062   9.255 -0.3140  0.3159 -0.1080
 1367SOL    HW115737   2.898   4.003   9.289  0.8225 -1.3412 -0.7568
 1367SOL    HW215738   2.991   4.003   9.185  0.4569  1.0253 -0.4257
 1368SOL     OW15739   3.888   1.585   7.153 -0.2938  0.4381  0.0578
 1368SOL    HW115740   3.886   1.519   7.083 -0.8343 -0.2994  0.7633
 1368SOL    HW215741   3.796   1.592   7.181 -0.6426 -0.7472 -0.7870
 1369SOL     OW15742   2.849   2.539   2.187 -0.4367 -0.3190  0.0886
 1369SOL    HW115743   2.914   2.567   2.251 -0.8957  0.6337  0.1419
 1369SOL    HW215744   2.773   2.596   2.201 -1.9126 -1.7061 -2.3327
 1370SOL     OW15745   4.215   3.723   2.710  0.2156 -0.0294 -0.0661
 1370SOL    HW115746   4.165   3.794   2.750  0.1169  0.3720 -0.9035
 1370SOL    HW215747   4.265   3.686   2.783 -0.3654 -1.5958 -0.4586
 1371SOL     OW15748   0.108   3.001   8.743  0.0750 -0.6101  0.4280
 1371SOL    HW115749   0.088   3.091   8.717  1.0622  0.0694  2.0496
 1371SOL    HW215750   0.107   3.008   8.838  0.8788  1.2073  0.3105
 1372SOL     OW15751   1.043   0.479   8.713  0.3492  0.1224 -0.5226
 1372SOL    HW115752   0.983   0.418   8.756 -1.6615  0.8373 -2.2543
 1372SOL    HW215753   1.019   0.559   8.759 -0.9966  0.7479 -2.2935
 1373SOL     OW15754   4.662   2.129  11.848  0.2444  0.1737  0.2141
 1373SOL    HW115755   4.615   2.064  11.900  0.2972  1.1776  1.4910
 1373SOL    HW215756   4.723   2.170  11.909  1.5139 -0.8006 -0.4117
 1374SOL     OW15757   4.487   4.137  13.189 -0.4580  0.5431  0.3139
 1374SOL    HW115758   4.420   4.202  13.210  0.7697  3.0511 -3.3717
 1374SOL    HW215759   4.567   4.177  13.223 -0.6430  0.9235  0.2983
 1375SOL     OW15760   0.215   2.233   1.384 -0.3677 -0.1290  0.2357
 1375SOL    HW115761   0.292   2.211   1.435  1.8143 -0.1699 -3.0563
 1375SOL    HW215762   0.237   2.326   1.377 -0.1291 -0.2194 -0.1953
 1376SOL     OW15763   4.504   0.924   7.754  0.2499 -0.0784 -0.1557
 1376SOL    HW115764   4.589   0.961   7.730 -1.1024  1.4616 -2.4622
 1376SOL    HW215765   4.446   1.000   7.759 -0.6764 -0.7144 -1.3420
 1377SOL     OW15766   1.979   1.899   3.191 -0.2935 -0.7563  0.0489
 1377SOL    HW115767   2.056   1.909   3.247 -0.1855  1.7720 -0.5405
 1377SOL    HW215768   1.912   1.954   3.232 -1.2808 -2.5667  0.8602
 1378SOL     OW15769   1.992   1.865   6.185 -0.0483  0.1569 -0.7253
 1378SOL    HW115770   1.902   1.845   6.160 -0.6061  2.9952 -1.0711
 1378SOL    HW215771   2.038   1.849   6.102  0.5673  0.9284 -0.5445
 1379SOL     OW15772   3.551   1.871   3.221 -0.3166 -0.3164 -0.3604
 1379SOL    HW115773   3.562   1.809   3.293 -3.6093 -0.4261  0.0119
 1379SOL    HW215774   3.456   1.868   3.220 -0.4007  0.7077  2.8236
 1380SOL     OW15775   3.443   0.425  17.094  0.2330 -0.4960  0.0937
 1380SOL    HW115776   3.430   0.509  17.048  0.4568  1.1392  3.0325
 1380SOL    HW215777   3.484   0.375  17.023 -0.5891  0.2589 -0.9154
 1381SOL     OW15778   1.353   2.931   7.003  0.7642  0.0400 -0.0606
 1381SOL    HW115779   1.326   2.851   6.958 -1.6036  1.5457 -1.3032
 1381SOL    HW215780   1.267   2.971   6.988  0.6426 -0.5029 -0.8111
 1382SOL     OW15781   1.705   1.495   8.704  0.3121  0.0963  0.1297
 1382SOL    HW115782   1.779   1.464   8.757 -0.2031  1.2763  1.5497
 1382SOL    HW215783   1.713   1.433   8.632  2.0803  0.1790  0.2538
 1383SOL     OW15784   0.357   4.611   8.236 -0.1933  0.2127 -0.3096
 1383SOL    HW115785   0.263   4.631   8.226 -0.4969 -1.4650 -0.7678
 1383SOL    HW215786   0.351   4.515   8.238  1.8990  0.1030  0.4900
 1384SOL     OW15787   4.320   1.516  13.809  0.3635 -0.3027 -0.0384
 1384SOL    HW115788   4.371   1.437  13.828  2.3478  0.9487 -0.1322
 1384SOL    HW215789   4.353   1.577  13.875  0.7777 -0.0678 -0.4561
 1385SOL     OW15790   3.331   0.379   4.237  0.4797  0.6945  0.2091
 1385SOL    HW115791   3.239   0.401   4.253  0.2658  0.3641 -0.5428
 1385SOL    HW215792   3.323   0.297   4.187  2.3327  1.9822 -2.2448
 1386SOL     OW15793   4.603   0.150  10.492 -0.7203  0.4740  0.8959
 1386SOL    HW115794   4.640   0.164  10.580 -0.1926  1.2328  0.5593
 1386SOL    HW215795   4.533   0.215  10.496  0.6745  2.2328 -3.5052
 1387SOL     OW15796   3.616   3.090  13.479 -0.5409 -0.1024 -0.1992
 1387SOL    HW115797   3.653   3.176  13.458 -0.4892 -0.0011  0.3135
 1387SOL    HW215798   3.670   3.066  13.554 -1.9479  2.9511  1.7835
 1388SOL     OW15799   4.409   3.628   2.014  0.5984  0.2839  0.4135
 1388SOL    HW115800   4.351   3.558   2.045  0.2288  1.1292  1.6046
 1388SOL    HW215801   4.383   3.631   1.922 -2.2609  0.7990  1.2593
 1389SOL     OW15802   4.612   4.382  17.054 -1.1642  0.1749 -0.0232
 1389SOL    HW115803   4.619   4.319  16.982 -0.1366  0.2579 -0.0085
 1389SOL    HW215804   4.698   4.382  17.096 -0.5952  2.0254 -1.1908
 1390SOL     OW15805   0.865   2.105   0.171 -0.3428 -1.2399  0.5628
 1390SOL    HW115806   0.922   2.127   0.244 -0.2782  2.3869 -0.6066
 1390SOL    HW215807   0.782   2.145   0.195 -0.9180 -2.4058  0.5112
 1391SOL     OW15808   1.010   2.551   7.915  0.1047  0.1544 -0.6283
 1391SOL    HW115809   1.030   2.561   7.822 -0.2504  0.2096 -0.6989
 1391SOL    HW215810   0.929   2.599   7.932 -0.2112 -1.3363  2.0551
 1392SOL     OW15811   0.440   2.822  14.164  0.1170  0.1376 -0.6691
 1392SOL    HW115812   0.516   2.765  14.175 -0.1879 -0.4950 -1.8665
 1392SOL    HW215813   0.483   2.902  14.136  0.4270  0.2077 -0.0106
 1393SOL     OW15814   4.287   2.124   6.791 -0.5459  0.6265 -0.6555
 1393SOL    HW115815   4.351   2.185   6.828 -0.0959 -0.4162  0.2897
 1393SOL    HW215816   4.334   2.045   6.765 -0.3281  0.0914  1.3220
 1394SOL     OW15817   0.053   4.328   8.396  0.2764  0.2382 -0.7478
 1394SOL    HW115818   0.063   4.297   8.306 -3.4684 -0.2059 -0.9833
 1394SOL    HW215819   0.079   4.247   8.442  0.3157  0.3392 -0.5895
 1395SOL     OW15820   3.935   4.141   2.215  0.2175 -0.6393 -0.4825
 1395SOL    HW115821   3.934   4.198   2.292 -0.0147 -0.0909 -0.8935
 1395SOL    HW215822   4.025   4.152   2.184 -0.1371  2.4426 -0.4140
 1396SOL     OW15823   0.181   1.224  12.600 -0.4754  0.0238  0.1490
 1396SOL    HW115824   0.153   1.218  12.691  0.5644 -1.5715  0.3456
 1396SOL    HW215825   0.177   1.134  12.569 -2.7071  0.5683 -1.2193
 1397SOL     OW15826   1.678   4.070  13.320 -0.1401  0.4347 -0.1305
 1397SOL    HW115827   1.616   4.077  13.392 -0.6937  0.8555 -0.6435
 1397SOL    HW215828   1.697   3.977  13.322  0.3413  0.5603  1.0871
 1398SOL     OW15829   1.289   3.276   0.621  0.0756 -0.1404 -0.4892
 1398SOL    HW115830   1.349   3.268   0.695 -0.1862 -1.0920 -0.3814
 1398SOL    HW215831   1.312   3.363   0.590  0.6268 -0.0407  0.1963
 1399SOL     OW15832   3.279   1.166   2.743  0.2552  0.3155  0.2019
 1399SOL    HW115833   3.267   1.261   2.732 -0.1528  0.1189 -1.0732
 1399SOL    HW215834   3.243   1.136   2.659  1.9238 -1.0148 -0.0343
 1400SOL     OW15835   0.594   4.418   4.427 -0.0190 -0.3418 -0.3345
 1400SOL    HW115836   0.528   4.455   4.486  0.4425  1.6451 -1.0909
 1400SOL    HW215837   0.658   4.488   4.422 -0.0894 -0.1335  1.7081
 1401SOL     OW15838   3.485   1.909   3.750 -0.0066  0.6512  0.4051
 1401SOL    HW115839   3.428   1.834   3.735 -1.5294  1.6526  1.1094
 1401SOL    HW215840   3.557   1.887   3.809  1.3099  1.4988 -0.8911
 1402SOL     OW15841   2.322   4.022   9.715  0.0174 -0.2016 -0.0416
 1402SOL    HW115842   2.238   3.977   9.704  1.4395 -2.8727  0.0713
 1402SOL    HW215843   2.282   4.100   9.753 -0.4105 -1.3584  1.8661
 1403SOL     OW15844   2.589   3.379  16.850 -0.1577 -0.2765  0.1062
 1403SOL    HW115845   2.667   3.350  16.898 -0.6268 -0.2464  0.8909
 1403SOL    HW215846   2.525   3.353  16.917 -0.8838  2.0601  0.3295
 1404SOL     OW15847   1.632   0.489   7.426 -0.1949  0.1815 -0.2885
 1404SOL    HW115848   1.584   0.479   7.344  1.7752  0.6110 -1.5055
 1404SOL    HW215849   1.690   0.414   7.440  1.1452  1.1724 -0.5495
 1405SOL     OW15850   2.488   0.248   0.131 -0.0786  0.2346 -0.3398
 1405SOL    HW115851   2.395   0.251   0.153  0.1887 -0.0260  0.8200
 1405SOL    HW215852   2.481   0.312   0.060 -1.3638 -0.7924 -1.1535
 1406SOL     OW15853   3.817   2.765  11.283  0.4282 -0.1012  0.5017
 1406SOL    HW115854   3.792   2.852  11.313 -1.2426 -0.2713 -0.3627
 1406SOL    HW215855   3.778   2.760  11.195  2.1985 -0.1686 -0.2747
 1407SOL     OW15856   4.155   2.003   9.723 -0.2915 -0.5368 -0.4047
 1407SOL    HW115857   4.236   2.004   9.672  0.3560  3.9045  0.6438
 1407SOL    HW215858   4.104   2.068   9.676  0.5218  2.6526  3.0705
 1408SOL     OW15859   2.459   2.611  10.126  0.7717  0.0940 -0.4491
 1408SOL    HW115860   2.453   2.603  10.031 -2.5422  2.1651 -0.4286
 1408SOL    HW215861   2.379   2.662  10.141  2.8019  2.5902  1.8170
 1409SOL     OW15862   0.289   2.731   6.173 -0.7959 -0.0302  0.1909
 1409SOL    HW115863   0.331   2.725   6.087 -0.0367 -1.1252  0.6540
 1409SOL    HW215864   0.239   2.811   6.156  1.9958  1.5034 -0.7318
 1410SOL     OW15865   3.869   2.853   9.488  1.0261 -0.6505  0.0973
 1410SOL    HW115866   3.810   2.926   9.507  0.5799 -0.7916 -0.7700
 1410SOL    HW215867   3.811   2.802   9.431 -0.6859  1.3200  0.0891
 1411SOL     OW15868   2.229   0.723   7.740 -0.3462 -0.0776 -0.3068
 1411SOL    HW115869   2.144   0.680   7.730  0.0905 -0.4023 -2.6509
 1411SOL    HW215870   2.232   0.747   7.832 -2.9507 -1.2909  0.1050
 1412SOL     OW15871   3.893   3.267   8.725  0.7100 -0.2086  0.2193
 1412SOL    HW115872   3.860   3.314   8.801  1.1995  0.4669  0.0095
 1412SOL    HW215873   3.975   3.226   8.750  0.8391  0.5253  0.9726
 1413SOL     OW15874   3.276   1.653  14.116  0.6690 -0.5133  0.8358
 1413SOL    HW115875   3.272   1.728  14.057  2.0927 -1.4457 -0.4539
 1413SOL    HW215876   3.185   1.627  14.125  0.4997  0.5826  2.2275
 1414SOL     OW15877   0.598   4.098  16.861 -0.2108  0.2503 -0.4892
 1414SOL    HW115878   0.564   4.119  16.773 -1.1282 -2.5134 -0.7786
 1414SOL    HW215879   0.538   4.034  16.898 -0.9779  1.3070  0.1053
 1415SOL     OW15880   0.313   1.233   5.668  0.3147  0.3059 -0.8237
 1415SOL    HW115881   0.331   1.139   5.679  0.3841  0.5070  0.8487
 1415SOL    HW215882   0.313   1.241   5.573 -1.7013  2.6475 -0.6192
 1416SOL     OW15883   2.846   2.507   2.562  0.2157  0.4869  0.0515
 1416SOL    HW115884   2.842   2.427   2.616  0.3346 -1.4724 -2.8283
 1416SOL    HW215885   2.756   2.509   2.529  0.3983  2.0905 -0.3059
 1417SOL     OW15886   3.175   3.232   4.958  0.0792  0.0894 -0.4667
 1417SOL    HW115887   3.120   3.160   4.989 -1.0325  0.9677 -0.3992
 1417SOL    HW215888   3.099   3.274   4.920 -0.5800 -0.6423  0.0306
 1418SOL     OW15889   3.240   1.706  16.050  0.2278 -0.8618  0.0372
 1418SOL    HW115890   3.212   1.665  16.132 -2.0422  0.5219 -0.0632
 1418SOL    HW215891   3.314   1.647  16.035 -0.3460 -1.2739 -1.1534
 1419SOL     OW15892   3.670   4.306  17.075 -0.3683 -0.5462  0.3845
 1419SOL    HW115893   3.733   4.299  17.003 -1.2951 -1.3715 -0.3296
 1419SOL    HW215894   3.631   4.218  17.079 -2.2656  0.2742 -0.2006
 1420SOL     OW15895   4.257   0.625   8.426  0.5514 -0.0552 -0.1962
 1420SOL    HW115896   4.206   0.584   8.356  0.0665 -0.6253  0.4950
 1420SOL    HW215897   4.307   0.546   8.445  0.1048 -0.0268  1.0905
 1421SOL     OW15898   4.393   2.094  10.638 -0.1691  0.0186 -0.4728
 1421SOL    HW115899   4.415   2.158  10.570 -0.7940  1.7153  0.9074
 1421SOL    HW215900   4.430   2.012  10.605 -1.3863 -0.0634 -1.6041
 1422SOL     OW15901   3.404   0.274   9.024 -0.1697 -0.2305  0.1245
 1422SOL    HW115902   3.397   0.244   8.933 -1.0917  1.8079 -0.4852
 1422SOL    HW215903   3.484   0.323   9.005 -1.3453  2.4186  2.0020
 1423SOL     OW15904   0.965   0.781   5.859  0.5977  0.8135  0.7925
 1423SOL    HW115905   0.929   0.867   5.882 -1.0593  0.4054 -0.3108
 1423SOL    HW215906   0.940   0.723   5.931 -2.5834 -0.3614 -1.2693
 1424SOL     OW15907   3.003   2.532   4.737 -0.1659 -0.3223 -0.1938
 1424SOL    HW115908   2.945   2.589   4.788  2.4890  1.4142  0.8577
 1424SOL    HW215909   3.078   2.591   4.735 -0.1392 -0.3920 -1.1903
 1425SOL     OW15910   1.619   2.923   4.963 -0.5838  0.3391  0.2751
 1425SOL    HW115911   1.704   2.880   4.957 -0.2239  0.8063  1.9179
 1425SOL    HW215912   1.637   2.988   5.032 -0.9009  0.8201 -0.0923
 1426SOL     OW15913   4.184   0.035   0.774  0.1016  0.2884  0.4896
 1426SOL    HW115914   4.135   0.056   0.854 -3.4897 -2.2667 -1.0189
 1426SOL    HW215915   4.243   0.110   0.774 -1.4785  1.5154 -0.6176
 1427SOL     OW15916   1.540   1.231   5.863 -0.5097  0.2684  0.2268
 1427SOL    HW115917   1.542   1.180   5.945  2.7661  0.1705  0.0760
 1427SOL    HW215918   1.459   1.196   5.827 -1.2948  0.7161  1.5768
 1428SOL     OW15919   4.538   1.910  16.201  0.5677  0.0729 -0.0121
 1428SOL    HW115920   4.478   1.970  16.156 -1.2186  0.2205  2.6131
 1428SOL    HW215921   4.595   1.978  16.236 -0.3117 -0.1235  1.7741
 1429SOL     OW15922   0.550   1.263   6.686  0.3136  0.1628 -0.1706
 1429SOL    HW115923   0.468   1.313   6.679  0.7702  0.9376 -0.0263
 1429SOL    HW215924   0.593   1.296   6.607  1.6064  0.0729  0.4950
 1430SOL     OW15925   0.626   1.873  16.070  0.4252  0.3466 -0.2521
 1430SOL    HW115926   0.567   1.799  16.053  1.2802 -0.7337  1.4754
 1430SOL    HW215927   0.558   1.935  16.097 -0.1569 -0.6812  0.6504
 1431SOL     OW15928   1.387   4.379   9.175  0.6120  0.7710 -0.0267
 1431SOL    HW115929   1.307   4.432   9.183  0.4130  0.4301  0.2448
 1431SOL    HW215930   1.442   4.422   9.240  1.4016 -0.2971  0.0094
 1432SOL     OW15931   4.702   2.505   5.319 -0.3040  0.5039 -0.5069
 1432SOL    HW115932   4.629   2.557   5.350 -0.4979 -0.9211  1.4252
 1432SOL    HW215933   0.033   2.570   5.331  0.8110 -0.4368 -1.8684
 1433SOL     OW15934   2.684   2.913   3.194  0.6172  0.6729 -0.1961
 1433SOL    HW115935   2.752   2.920   3.126  0.3918 -1.9484 -0.6562
 1433SOL    HW215936   2.723   2.849   3.252  2.4428 -1.0281 -3.2910
 1434SOL     OW15937   2.836   1.572   7.139 -0.0527  0.7306  0.4208
 1434SOL    HW115938   2.832   1.612   7.226 -2.2095 -0.1458  0.7263
 1434SOL    HW215939   2.769   1.504   7.145  1.3841 -0.8784 -1.7442
 1435SOL     OW15940   1.761   1.069   7.698 -0.2703 -0.3153 -0.0516
 1435SOL    HW115941   1.713   1.150   7.714 -2.6785 -1.3774 -2.0179
 1435SOL    HW215942   1.691   1.008   7.675 -2.2506  1.7233  0.6445
 1436SOL     OW15943   0.241   0.927   5.336 -0.1253 -0.0012  0.0028
 1436SOL    HW115944   0.162   0.957   5.381 -0.6006  0.7078 -1.3146
 1436SOL    HW215945   0.194   0.873   5.272 -0.5245 -0.6855  0.8737
 1437SOL     OW15946   0.228   3.431   7.119 -0.1431 -0.6664 -0.2046
 1437SOL    HW115947   0.139   3.435   7.084  0.1174 -2.5228 -1.0626
 1437SOL    HW215948   0.215   3.422   7.214 -0.5061 -0.8427 -0.2722
 1438SOL     OW15949   2.862   3.374   7.270 -0.5191  0.5925 -0.0022
 1438SOL    HW115950   2.812   3.365   7.189  3.1872  2.6771 -2.5273
 1438SOL    HW215951   2.811   3.310   7.320  1.3965 -1.5565 -0.8437
 1439SOL     OW15952   2.881   2.681   5.067  0.0588 -0.1760  0.5567
 1439SOL    HW115953   2.806   2.740   5.063  1.3798  1.4926  0.3097
 1439SOL    HW215954   2.841   2.595   5.068  1.0673 -0.6405  1.1469
 1440SOL     OW15955   1.566   1.268  15.651  0.1002  0.6006 -0.0110
 1440SOL    HW115956   1.650   1.222  15.649 -1.1088 -1.6893  2.0780
 1440SOL    HW215957   1.580   1.344  15.708 -0.2360  0.3136  0.4517
 1441SOL     OW15958   2.851   1.653  16.288  0.1670 -0.2642 -0.0490
 1441SOL    HW115959   2.800   1.713  16.234 -0.8810  0.5643  1.8783
 1441SOL    HW215960   2.800   1.572  16.283  0.9417 -0.7557 -0.0371
 1442SOL     OW15961   2.359   4.414   0.381  0.2587  0.0791 -0.1671
 1442SOL    HW115962   2.451   4.439   0.378  0.6315 -1.3196 -0.2455
 1442SOL    HW215963   2.334   4.385   0.294  0.1925  1.8280 -0.7285
 1443SOL     OW15964   3.414   0.627   7.736 -0.2482  0.1178 -0.3583
 1443SOL    HW115965   3.400   0.646   7.828 -4.5956 -2.1251 -0.5535
 1443SOL    HW215966   3.321   0.603   7.728 -0.3261  0.0310  0.8211
 1444SOL     OW15967   1.148   0.445  12.957  0.1656 -0.6153 -0.4109
 1444SOL    HW115968   1.114   0.413  13.040  1.5886 -0.2309  0.3250
 1444SOL    HW215969   1.244   0.444  12.958  0.1749  1.1014  0.5672
 1445SOL     OW15970   0.534   4.139   6.234 -0.3312  0.3565 -0.3157
 1445SOL    HW115971   0.475   4.084   6.286  0.4049  1.5491  1.8059
 1445SOL    HW215972   0.521   4.099   6.148  1.5476 -2.3167  0.6442
 1446SOL     OW15973   2.130   0.274  12.039  0.4825  0.8888 -0.5410
 1446SOL    HW115974   2.094   0.319  12.115  0.0065 -0.4740  0.0364
 1446SOL    HW215975   2.221   0.297  12.058  0.9637 -0.1238 -1.6484
 1447SOL     OW15976   1.229   1.110  17.368 -0.2158 -0.6863  0.4311
 1447SOL    HW115977   1.193   1.143  17.450  1.4612  0.7283  0.6044
 1447SOL    HW215978   1.317   1.145  17.353 -0.2157 -1.2823 -0.9609
 1448SOL     OW15979   1.935   0.357   4.015 -0.7752  0.3227 -0.1584
 1448SOL    HW115980   1.977   0.404   4.087 -0.6649  1.2638 -0.8377
 1448SOL    HW215981   2.001   0.358   3.946 -0.3704  1.8822  0.2397
 1449SOL     OW15982   0.689   1.275  10.967  0.5926 -0.7411  0.1973
 1449SOL    HW115983   0.642   1.307  11.045 -1.9281  1.9792 -2.4066
 1449SOL    HW215984   0.744   1.216  11.018  0.3599  0.5220  1.9457
 1450SOL     OW15985   4.160   3.511  17.597  0.3182 -0.7597 -0.1935
 1450SOL    HW115986   4.158   3.495  17.691 -2.2825  1.4847  0.1142
 1450SOL    HW215987   4.067   3.522  17.576  0.6094  0.4812 -0.8504
 1451SOL     OW15988   2.049   2.048   9.900 -0.5733 -0.2437  0.4137
 1451SOL    HW115989   2.124   2.107   9.902 -1.4747  0.9653 -1.8122
 1451SOL    HW215990   2.068   1.984   9.832 -1.1112  0.3841 -0.3212
 1452SOL     OW15991   2.570   0.079   4.529  0.9442  0.4189 -0.1629
 1452SOL    HW115992   2.612   0.004   4.572 -0.7159 -0.4508 -0.0721
 1452SOL    HW215993   2.566   0.146   4.597 -4.4185  1.0826 -1.1139
 1453SOL     OW15994   2.669   4.536  16.925 -0.1108  0.1367 -0.0084
 1453SOL    HW115995   2.604   4.587  16.973  1.4283 -0.0235  2.2148
 1453SOL    HW215996   2.748   4.561  16.971  0.5609 -1.5243 -0.2582
 1454SOL     OW15997   0.693   0.617   2.777 -0.8766  0.1097 -0.5736
 1454SOL    HW115998   0.686   0.599   2.871 -1.5011  1.6507 -0.3407
 1454SOL    HW215999   0.620   0.560   2.751 -1.1786 -0.3810  1.3279
 1455SOL     OW16000   3.278   4.676   0.092 -0.1323 -0.0816 -0.1093
 1455SOL    HW116001   3.253   4.588   0.120 -1.4187 -0.0304 -1.1381
 1455SOL    HW216002   3.204   4.700   0.037 -1.7176 -3.6730  0.4889
 1456SOL     OW16003   1.815   0.782   8.664 -0.5911  0.6860 -0.3423
 1456SOL    HW116004   1.820   0.803   8.757 -3.5958  2.1658 -0.4926
 1456SOL    HW216005   1.765   0.701   8.672  1.7740 -0.8435 -1.1524
 1457SOL     OW16006   1.148   3.567   3.045 -0.7594  0.0757 -0.5475
 1457SOL    HW116007   1.149   3.605   2.957  1.8330 -1.1474 -1.0565
 1457SOL    HW216008   1.067   3.516   3.050  0.3016 -1.8104 -2.7916
 1458SOL     OW16009   0.046   2.938   4.156 -0.4233  1.2811  0.4799
 1458SOL    HW116010   4.704   2.970   4.115  0.1996 -0.6548 -2.2827
 1458SOL    HW216011   0.007   2.900   4.234 -1.0538  0.3489 -0.2872
 1459SOL     OW16012   2.533   4.617   7.335  0.5121 -0.4370  0.1465
 1459SOL    HW116013   2.552   4.553   7.403  0.9282  1.6174  1.9889
 1459SOL    HW216014   2.553   4.692   7.392 -0.8251 -0.6058  0.8363
 1460SOL     OW16015   0.836   3.903   4.019 -0.3030  0.1463 -0.0324
 1460SOL    HW116016   0.819   3.818   4.059  2.1052 -1.0701 -1.6241
 1460SOL    HW216017   0.827   3.971   4.086 -0.4416  0.4427 -0.3542
 1461SOL     OW16018   3.088   3.183   6.479  0.2634  0.9230  0.2556
 1461SOL    HW116019   3.128   3.185   6.565  0.7624 -0.6347  0.0660
 1461SOL    HW216020   3.145   3.128   6.426 -1.1253  0.1072 -0.3894
 1462SOL     OW16021   0.086   4.316   7.676 -0.1854  0.0199 -0.2352
 1462SOL    HW116022   0.145   4.283   7.608 -0.6114 -0.9588 -0.1208
 1462SOL    HW216023   0.150   4.366   7.728 -0.4507  0.5766 -0.4427
 1463SOL     OW16024   4.236   2.671   6.940 -0.2117 -0.0154  0.0332
 1463SOL    HW116025   4.299   2.700   7.006 -0.9134  0.7282  0.3858
 1463SOL    HW216026   4.172   2.743   6.939 -1.1744 -0.8975 -0.8694
 1464SOL     OW16027   4.089   4.506  13.948 -0.3183 -0.3640  0.4946
 1464SOL    HW116028   4.094   4.410  13.955 -3.3240 -0.5028  0.5709
 1464SOL    HW216029   4.105   4.523  13.855  1.1680 -1.7483  0.4981
 1465SOL     OW16030   3.132   3.160  13.761 -0.4781 -0.4360  0.2127
 1465SOL    HW116031   3.058   3.219  13.771  0.3741  0.5785  0.4972
 1465SOL    HW216032   3.175   3.199  13.685 -1.5930  1.9304  0.7963
 1466SOL     OW16033   1.309   1.873  10.854 -0.0253 -0.0596 -0.2593
 1466SOL    HW116034   1.275   1.817  10.924  0.6156  0.8041  0.7481
 1466SOL    HW216035   1.349   1.801  10.805 -2.2879 -0.7492 -1.0739
 1467SOL     OW16036   3.440   4.528  15.898 -0.0989  0.0281  0.5357
 1467SOL    HW116037   3.353   4.529  15.858  0.2218  2.4324 -0.1388
 1467SOL    HW216038   3.475   4.469  15.831  0.2313  0.4354  0.3428
 1468SOL     OW16039   1.225   1.033   8.647  0.8660 -0.0678  0.2878
 1468SOL    HW116040   1.208   1.085   8.725 -1.5366  0.4098 -0.5338
 1468SOL    HW216041   1.152   0.971   8.650 -0.6233  1.7373  1.3407
 1469SOL     OW16042   4.178   0.339   4.217 -0.3143  0.1847  0.6952
 1469SOL    HW116043   4.223   0.342   4.133 -0.2333  0.0841  0.7338
 1469SOL    HW216044   4.114   0.409   4.214 -0.7174 -0.2553 -1.1672
 1470SOL     OW16045   0.096   4.608   9.872 -0.0526  0.3621  0.1432
 1470SOL    HW116046   0.001   4.609   9.886  0.2341  0.8692  2.0209
 1470SOL    HW216047   0.103   4.653   9.788 -0.1572 -0.5949 -0.3777
 1471SOL     OW16048   1.680   3.558  12.655  0.6084  0.2376 -0.7824
 1471SOL    HW116049   1.599   3.600  12.684 -0.3083 -0.4299 -2.3626
 1471SOL    HW216050   1.667   3.471  12.692 -2.9140  1.6453  1.2070
 1472SOL     OW16051   2.516   3.123   3.773 -0.1010 -0.1712  0.0655
 1472SOL    HW116052   2.455   3.138   3.701 -0.3948  1.9611  0.7739
 1472SOL    HW216053   2.518   3.205   3.822  0.4344 -0.7328  0.9937
 1473SOL     OW16054   3.537   3.275   8.673  0.1361 -0.0480 -0.8137
 1473SOL    HW116055   3.543   3.361   8.632  1.9928  0.2709  0.1253
 1473SOL    HW216056   3.540   3.212   8.601  2.5605 -0.0288 -0.7486
 1474SOL     OW16057   2.193   2.902   2.523 -0.0668  0.0263 -0.5036
 1474SOL    HW116058   2.189   2.826   2.580  1.9258  0.0254 -0.3542
 1474SOL    HW216059   2.280   2.936   2.546 -1.3879  1.6565  2.1559
 1475SOL     OW16060   4.645   0.216   4.169 -0.3748  0.2466 -0.1578
 1475SOL    HW116061   4.624   0.176   4.253  1.7305 -0.9122 -0.1790
 1475SOL    HW216062   4.601   0.150   4.115 -0.3578 -1.3258  1.7294
 1476SOL     OW16063   0.888   3.650   9.359 -0.0949 -0.1890  0.1558
 1476SOL    HW116064   0.963   3.670   9.415  0.4948  0.5195 -0.8864
 1476SOL    HW216065   0.883   3.555   9.358  1.3512 -0.2568 -0.4672
 1477SOL     OW16066   3.835   2.835   2.866  0.1112 -0.4488 -0.2368
 1477SOL    HW116067   3.862   2.833   2.774  0.0722  1.2221 -0.2939
 1477SOL    HW216068   3.787   2.918   2.873 -2.9756 -2.3189  0.6308
 1478SOL     OW16069   3.604   0.112   3.256  0.3325  0.5029  0.3526
 1478SOL    HW116070   3.569   0.156   3.333  1.7379  2.8492 -0.3655
 1478SOL    HW216071   3.538   0.131   3.189  0.6196 -1.1628 -0.4105
 1479SOL     OW16072   0.895   3.818  12.000 -0.4258  0.0491  0.6185
 1479SOL    HW116073   0.921   3.734  11.962  0.6491  1.8163 -2.5962
 1479SOL    HW216074   0.964   3.846  12.059  0.3429 -0.1753 -0.1704
 1480SOL     OW16075   2.743   0.686  12.315  0.9649  0.1964 -0.1449
 1480SOL    HW116076   2.683   0.733  12.256 -0.2211 -1.4919 -0.2860
 1480SOL    HW216077   2.691   0.616  12.353  1.7443  0.1990  0.8987
 1481SOL     OW16078   0.435   0.761  13.399  0.4056 -0.7782 -0.0567
 1481SOL    HW116079   0.512   0.744  13.453  1.3981 -0.3378 -1.3404
 1481SOL    HW216080   0.441   0.854  13.378 -2.7217 -0.1533  1.7771
 1482SOL     OW16081   2.627   2.428   4.656  0.4960 -0.6416  0.1626
 1482SOL    HW116082   2.636   2.511   4.609  2.9042 -0.8369  0.2722
 1482SOL    HW216083   2.557   2.389   4.603  0.0633 -1.2188  1.1620
 1483SOL     OW16084   1.660   1.111   6.546  0.2882 -0.1969  0.4438
 1483SOL    HW116085   1.743   1.068   6.569 -0.0822 -0.0569  2.0595
 1483SOL    HW216086   1.634   1.066   6.466 -3.3837  0.9491  1.0064
 1484SOL     OW16087   2.339   4.051  11.429  0.1115  0.0224 -0.4828
 1484SOL    HW116088   2.400   4.003  11.371 -0.8472 -0.6419 -0.9396
 1484SOL    HW216089   2.397   4.052  11.505  0.1907  1.3861 -0.5714
 1485SOL     OW16090   3.145   1.629   8.547  0.0643  0.6481 -0.4182
 1485SOL    HW116091   3.219   1.688   8.552 -0.0646  0.7196  0.5095
 1485SOL    HW216092   3.079   1.687   8.585  1.1824  0.7846  1.2901
 1486SOL     OW16093   1.498   4.200  12.150  0.8225 -0.1576 -0.1389
 1486SOL    HW116094   1.534   4.263  12.087 -0.2152  1.9263  1.3455
 1486SOL    HW216095   1.576   4.152  12.178  1.0291 -0.2413 -0.8649
 1487SOL     OW16096   4.583   1.091   6.322 -0.2164  0.1886 -0.1009
 1487SOL    HW116097   4.493   1.123   6.329 -0.1669  0.0766  1.1472
 1487SOL    HW216098   4.578   1.003   6.287  0.6122  0.6719 -1.4639
 1488SOL     OW16099   1.209   3.517   8.276 -0.5901 -0.1598  0.3654
 1488SOL    HW116100   1.258   3.589   8.317 -1.1168 -0.6403  1.8444
 1488SOL    HW216101   1.282   3.476   8.229 -1.2009 -0.4258 -0.3520
 1489SOL     OW16102   3.512   2.729  11.444 -0.5833 -0.0164 -0.4759
 1489SOL    HW116103   3.574   2.676  11.393 -2.6806 -0.4302 -2.5672
 1489SOL    HW216104   3.565   2.808  11.459  0.2634  0.0585 -3.6786
 1490SOL     OW16105   0.490   0.871   7.204 -0.0420  0.2123 -0.7629
 1490SOL    HW116106   0.404   0.831   7.213  0.6258 -0.9354  0.4993
 1490SOL    HW216107   0.470   0.942   7.265 -2.4745 -0.9754 -0.2230
 1491SOL     OW16108   3.951   2.483   9.521  0.2182 -0.1325 -0.0705
 1491SOL    HW116109   4.045   2.494   9.511  0.0788  0.5699 -0.5552
 1491SOL    HW216110   3.946   2.545   9.593 -1.0587 -0.0758 -0.1994
 1492SOL     OW16111   4.046   3.939   6.809 -0.3168 -0.6266  0.3370
 1492SOL    HW116112   4.059   3.903   6.721 -0.3976 -0.6790  0.3462
 1492SOL    HW216113   4.113   3.892   6.859  0.4177 -0.2976 -0.3387
 1493SOL     OW16114   2.367   1.326   0.537 -0.1359  0.2235  0.2723
 1493SOL    HW116115   2.310   1.399   0.562 -0.0469  0.9446 -1.6373
 1493SOL    HW216116   2.389   1.360   0.450 -0.1804 -0.5000 -0.0182
 1494SOL     OW16117   3.459   4.151   0.554 -0.3619  0.8216 -0.2924
 1494SOL    HW116118   3.483   4.178   0.643 -2.3859  0.2198  0.4380
 1494SOL    HW216119   3.388   4.212   0.532 -1.4537 -1.0701 -1.9773
 1495SOL     OW16120   3.552   1.950   6.006  0.5227 -0.0955  0.4404
 1495SOL    HW116121   3.600   2.030   5.986 -1.4636  0.9804  0.0521
 1495SOL    HW216122   3.459   1.972   6.005  0.5041 -0.2210 -0.7863
 1496SOL     OW16123   1.749   2.145   9.820  0.5023 -0.0138  0.6963
 1496SOL    HW116124   1.835   2.138   9.779 -0.1020  2.3074 -0.9258
 1496SOL    HW216125   1.693   2.152   9.742 -1.3704 -0.2888  2.0268
 1497SOL     OW16126   0.710   0.656  10.605 -0.0773  0.0083  0.5343
 1497SOL    HW116127   0.711   0.704  10.522 -1.9452  0.6479  0.8938
 1497SOL    HW216128   0.689   0.727  10.666 -1.0298 -0.8187  1.1624
 1498SOL     OW16129   3.159   2.191   7.538  0.2273  0.2351  0.1257
 1498SOL    HW116130   3.253   2.204   7.542  0.1261  0.8719  0.5873
 1498SOL    HW216131   3.147   2.103   7.503  1.9110 -0.3402  1.0396
 1499SOL     OW16132   4.654   4.438   1.023  0.0129 -0.1269 -0.4522
 1499SOL    HW116133   4.627   4.501   0.955 -0.2179  0.3056  0.0451
 1499SOL    HW216134   4.713   4.488   1.079 -2.1930  0.0871  1.6793
 1500SOL     OW16135   3.356   3.242   7.550 -0.2951 -0.0352 -0.0532
 1500SOL    HW116136   3.358   3.153   7.586 -0.6574  1.1059  2.7878
 1500SOL    HW216137   3.307   3.229   7.469 -2.3158 -1.8937  1.4512
 1501SOL     OW16138   1.749   2.212  10.932  0.3838 -0.1104 -0.0821
 1501SOL    HW116139   1.696   2.210  10.853  2.3341  0.6988 -1.4252
 1501SOL    HW216140   1.693   2.252  10.999  0.0760 -0.3772 -0.1842
 1502SOL     OW16141   3.216   4.265   9.298  0.3886  0.3124  0.0644
 1502SOL    HW116142   3.157   4.340   9.299  1.0876  0.8832 -2.4443
 1502SOL    HW216143   3.159   4.188   9.297 -0.5978  1.0454 -0.0177
 1503SOL     OW16144   3.116   2.140  11.793 -0.2760  0.0067  0.4822
 1503SOL    HW116145   3.091   2.078  11.861 -2.0141  1.4358  1.1299
 1503SOL    HW216146   3.050   2.207  11.807  0.0430  0.1683  1.2494
 1504SOL     OW16147   0.222   1.381   1.730 -0.0203 -0.2366  0.3735
 1504SOL    HW116148   0.294   1.348   1.783  0.5984  1.5885  0.6942
 1504SOL    HW216149   0.184   1.296   1.709 -0.5031 -0.3349  1.6517
 1505SOL     OW16150   1.394   2.793   2.956 -0.0033 -0.0877 -0.1740
 1505SOL    HW116151   1.469   2.853   2.958 -0.5338  0.5859 -0.2444
 1505SOL    HW216152   1.321   2.854   2.967 -0.1959 -0.2539 -0.5627
 1506SOL     OW16153   3.724   0.609   4.548  0.0669 -0.1198 -0.0658
 1506SOL    HW116154   3.812   0.582   4.575  0.5333  1.5520  0.0376
 1506SOL    HW216155   3.721   0.608   4.452  1.9253 -1.4895 -0.1054
 1507SOL     OW16156   1.657   3.587  14.127  0.5948 -0.4705  0.4957
 1507SOL    HW116157   1.751   3.603  14.117  0.4045 -0.2187 -0.9259
 1507SOL    HW216158   1.652   3.509  14.071  0.6078  0.4242 -0.7446
 1508SOL     OW16159   0.233   0.803   7.289 -0.3398  0.0611 -0.0674
 1508SOL    HW116160   0.145   0.840   7.289 -1.3570 -2.3075  0.6299
 1508SOL    HW216161   0.216   0.732   7.352  0.4327 -0.6277 -0.6238
 1509SOL     OW16162   3.217   3.710  14.864 -0.0648  0.3923 -0.1999
 1509SOL    HW116163   3.224   3.636  14.805  0.8186 -1.5687  2.3939
 1509SOL    HW216164   3.178   3.778  14.808 -0.1113  0.4735 -0.0705
 1510SOL     OW16165   0.122   3.650   8.515 -0.0422 -0.2556  0.4622
 1510SOL    HW116166   0.066   3.606   8.452 -1.9266  0.0746  1.8928
 1510SOL    HW216167   0.060   3.703   8.566  0.3072  1.1680 -0.6034
 1511SOL     OW16168   2.250   3.589   5.505  0.0248 -0.1277 -0.2226
 1511SOL    HW116169   2.303   3.638   5.567 -0.6253 -0.5565  0.6634
 1511SOL    HW216170   2.317   3.561   5.443  0.6023  2.6936 -0.8834
 1512SOL     OW16171   0.197   4.694  16.092 -0.0139 -0.1918  0.1720
 1512SOL    HW116172   0.191   4.723  16.001 -2.0712 -0.3201  0.2631
 1512SOL    HW216173   0.152   4.611  16.077  0.9114 -0.7530  0.5233
 1513SOL     OW16174   2.049   1.336   8.425 -0.0553  0.0463  0.6710
 1513SOL    HW116175   2.076   1.427   8.437  1.5864 -0.4349  0.6449
 1513SOL    HW216176   2.133   1.295   8.405 -0.0955  0.4539 -0.3041
 1514SOL     OW16177   3.835   1.907   0.469  0.3108 -0.5732  0.4396
 1514SOL    HW116178   3.788   1.864   0.541  0.0675  0.6909  1.0318
 1514SOL    HW216179   3.835   1.835   0.405  0.7915 -0.0285 -0.1786
 1515SOL     OW16180   1.567   3.222   2.477 -0.3385 -0.5722  0.2390
 1515SOL    HW116181   1.575   3.238   2.383  1.3008 -1.0125  0.2947
 1515SOL    HW216182   1.612   3.296   2.520 -0.5774  0.4561 -1.3068
 1516SOL     OW16183   4.393   1.795   4.272 -0.0656  0.4952 -0.0579
 1516SOL    HW116184   4.371   1.740   4.347 -0.1535  1.9057  0.9555
 1516SOL    HW216185   4.483   1.820   4.291  0.3463 -0.2202 -1.0823
 1517SOL     OW16186   1.819   3.927  10.474  0.4035  0.1359  0.3890
 1517SOL    HW116187   1.735   3.881  10.464  1.8310 -1.9423 -1.7833
 1517SOL    HW216188   1.820   3.932  10.569 -0.2334 -0.7875  0.4497
 1518SOL     OW16189   3.747   3.885   5.003 -0.7884 -0.4616 -0.3187
 1518SOL    HW116190   3.658   3.920   5.006 -0.5232  0.2308 -0.6966
 1518SOL    HW216191   3.779   3.886   5.093 -2.0560 -0.6298  0.1352
 1519SOL     OW16192   2.427   3.202   7.272 -0.7540 -0.0127  0.0432
 1519SOL    HW116193   2.429   3.122   7.325 -1.7266 -1.8908 -2.6984
 1519SOL    HW216194   2.441   3.269   7.338 -0.5008 -0.3243  0.3033
 1520SOL     OW16195   0.599   3.238  16.282  0.0637  0.4940 -0.0850
 1520SOL    HW116196   0.687   3.263  16.311  0.0340  0.3060  0.1632
 1520SOL    HW216197   0.598   3.143  16.293 -2.5226  0.4742 -0.5631
 1521SOL     OW16198   2.652   3.628   2.742 -0.1839  0.1958  0.0093
 1521SOL    HW116199   2.652   3.579   2.659  1.3947 -0.4141  0.3755
 1521SOL    HW216200   2.565   3.665   2.729 -1.7816 -1.8389  5.0269
 1522SOL     OW16201   0.183   3.683  11.678 -0.2027 -0.5134  0.5511
 1522SOL    HW116202   0.246   3.739  11.725  0.1823 -1.7060  1.4703
 1522SOL    HW216203   0.177   3.721  11.590 -0.8368  0.1491  0.8744
 1523SOL     OW16204   0.946   1.040  15.102  0.3807 -0.3961  0.1713
 1523SOL    HW116205   0.964   1.108  15.037 -0.2059  0.1852  0.6090
 1523SOL    HW216206   0.923   1.083  15.185 -0.3074  1.1285 -0.8119
 1524SOL     OW16207   4.538   3.132  14.848 -0.4747  0.0546  0.5290
 1524SOL    HW116208   4.615   3.121  14.792 -1.9292  0.5912 -1.5604
 1524SOL    HW216209   4.558   3.088  14.931  1.9547  1.8699  0.9189
 1525SOL     OW16210   0.726   3.917   0.538 -0.2921 -0.3245  0.3834
 1525SOL    HW116211   0.713   3.952   0.627  1.9824  0.2005  0.4975
 1525SOL    HW216212   0.659   3.850   0.526 -1.6019  0.9210  0.6933
 1526SOL     OW16213   1.419   2.771   4.185  0.3035  0.5298  0.0261
 1526SOL    HW116214   1.430   2.682   4.151 -2.1002  0.1011  0.3806
 1526SOL    HW216215   1.325   2.781   4.171  0.3052 -0.6545 -0.8437
 1527SOL     OW16216   1.236   1.825   7.554  0.0386 -0.4901  0.2789
 1527SOL    HW116217   1.245   1.874   7.635 -0.5091 -0.0746  0.0908
 1527SOL    HW216218   1.230   1.738   7.592  0.4932 -0.1730  1.0622
 1528SOL     OW16219   3.245   0.427   6.303  0.2965 -0.1843  0.2299
 1528SOL    HW116220   3.159   0.391   6.326  0.9354 -0.1975  2.6902
 1528SOL    HW216221   3.298   0.354   6.271  1.8340  0.4579  1.2631
 1529SOL     OW16222   3.151   3.325   0.820 -0.2710  0.3990 -0.5012
 1529SOL    HW116223   3.149   3.410   0.863 -2.3366 -0.1661  0.4951
 1529SOL    HW216224   3.077   3.284   0.864  1.2017 -0.9442  0.7459
 1530SOL     OW16225   4.066   4.725   6.461 -0.2480  0.1604 -0.1179
 1530SOL    HW116226   4.031   4.638   6.479 -2.4736  1.5260  2.2226
 1530SOL    HW216227   4.156   4.699   6.444 -1.3149 -2.0731 -2.3635
 1531SOL     OW16228   3.131   2.004  16.109  0.3997  0.2211 -0.3699
 1531SOL    HW116229   3.162   1.932  16.054 -0.3934 -0.2164 -0.2369
 1531SOL    HW216230   3.086   2.063  16.048  0.3563 -1.4303 -1.9452
 1532SOL     OW16231   0.803   4.616   0.581  0.5898  0.9976 -0.0962
 1532SOL    HW116232   0.852   4.674   0.523 -0.2167  1.5697 -0.2030
 1532SOL    HW216233   0.785   4.539   0.526  2.6712  1.5983 -1.6154
 1533SOL     OW16234   4.182   3.286  10.848  0.4596 -0.1926  0.1066
 1533SOL    HW116235   4.156   3.288  10.940 -2.2995 -0.1452 -0.6595
 1533SOL    HW216236   4.220   3.198  10.844  0.3589 -0.1727 -1.5091
 1534SOL     OW16237   1.534   1.927   6.771 -0.0737 -0.9057  0.3483
 1534SOL    HW116238   1.547   1.885   6.686  0.3666 -0.9367  0.4319
 1534SOL    HW216239   1.444   1.897   6.786 -0.5393  1.1766  1.8143
 1535SOL     OW16240   4.099   0.224   3.629 -0.2677 -0.0452 -0.1769
 1535SOL    HW116241   4.039   0.292   3.661  0.9740  0.9472  0.0498
 1535SOL    HW216242   4.143   0.260   3.552  0.3318  2.0288  1.1260
 1536SOL     OW16243   4.332   2.663   7.863 -0.0025 -0.3823 -0.5373
 1536SOL    HW116244   4.294   2.743   7.901 -1.5836 -0.1133 -2.7027
 1536SOL    HW216245   4.424   2.683   7.848  0.3377 -2.2143 -0.8791
 1537SOL     OW16246   3.708   4.057   1.931  0.4468 -0.2488 -0.0397
 1537SOL    HW116247   3.726   4.143   1.892  1.5919 -0.5065 -0.0958
 1537SOL    HW216248   3.630   4.067   1.985  0.5159  2.9173 -0.5143
 1538SOL     OW16249   0.529   3.920  14.376 -0.2157 -0.1582  0.0045
 1538SOL    HW116250   0.602   3.960  14.330  1.3038 -1.8144  0.9831
 1538SOL    HW216251   0.489   3.885  14.296 -0.7517  0.6433 -0.0761
 1539SOL     OW16252   3.298   3.169   5.719  0.1681 -0.6698 -0.5683
 1539SOL    HW116253   3.299   3.075   5.700 -0.2062 -0.6191 -0.8602
 1539SOL    HW216254   3.215   3.177   5.766  0.1277 -0.0885 -0.7380
 1540SOL     OW16255   0.732   0.113   2.196  0.0318 -0.1906 -0.0124
 1540SOL    HW116256   0.815   0.132   2.239 -1.1780  1.6476  1.5020
 1540SOL    HW216257   0.679   0.070   2.264  1.5049  1.1139  1.9363
 1541SOL     OW16258   4.556   1.744   3.022 -0.0096  0.3955  0.6724
 1541SOL    HW116259   4.567   1.802   3.097  0.8076 -0.2286  1.0321
 1541SOL    HW216260   4.638   1.748   2.972 -0.5806  0.3889 -0.2694
 1542SOL     OW16261   0.450   3.320   2.852  0.2269  0.2758 -0.0643
 1542SOL    HW116262   0.519   3.287   2.910  0.7168 -1.3463 -1.5488
 1542SOL    HW216263   0.400   3.240   2.832  0.9404 -0.4091  0.8927
 1543SOL     OW16264   0.335   4.339   8.218 -0.6085 -0.5454  0.0167
 1543SOL    HW116265   0.392   4.310   8.147 -0.0038 -0.0138  0.2840
 1543SOL    HW216266   0.313   4.253   8.254 -0.9225 -0.1763  0.7196
 1544SOL     OW16267   4.525   0.786  13.409  0.7119  0.1606  0.2323
 1544SOL    HW116268   4.586   0.735  13.355  1.6981  0.3303  1.2066
 1544SOL    HW216269   4.445   0.732  13.410  1.4604 -0.9323  1.3796
 1545SOL     OW16270   1.170   2.081   2.617 -0.4959 -0.2923 -0.2043
 1545SOL    HW116271   1.149   2.123   2.700 -0.5920  0.1607 -0.4555
 1545SOL    HW216272   1.181   1.992   2.650  1.7187 -0.7077 -2.0525
 1546SOL     OW16273   1.924   3.237   4.379 -0.3289  0.0548  0.1120
 1546SOL    HW116274   1.954   3.211   4.466  1.1586  1.2877 -0.0232
 1546SOL    HW216275   1.869   3.162   4.359  1.3500 -1.5040  1.3240
 1547SOL     OW16276   2.287   0.477   9.287 -0.3133  0.0039 -0.1680
 1547SOL    HW116277   2.314   0.397   9.241  0.2907  0.3284 -0.3800
 1547SOL    HW216278   2.226   0.502   9.219  0.4631 -0.2158 -0.9511
 1548SOL     OW16279   4.045   4.548   5.585 -0.0724 -0.5288 -0.1855
 1548SOL    HW116280   3.974   4.576   5.527  2.0133  0.1856 -2.3828
 1548SOL    HW216281   3.997   4.544   5.668  0.0869  1.7653  0.0076
 1549SOL     OW16282   4.224   1.913   2.567 -0.5440  0.2203  0.1364
 1549SOL    HW116283   4.164   1.851   2.608 -1.8322 -0.2760 -2.5225
 1549SOL    HW216284   4.295   1.853   2.546 -1.0839  0.5083 -2.5887
 1550SOL     OW16285   4.486   2.707   3.915  0.2049  0.0169 -0.1036
 1550SOL    HW116286   4.579   2.699   3.935  0.6015 -1.1535 -2.3746
 1550SOL    HW216287   4.461   2.705   4.007 -0.9736 -0.0508 -0.4201
 1551SOL     OW16288   1.328   0.090   0.357 -0.1355  0.7622 -0.0405
 1551SOL    HW116289   1.277   0.021   0.399  3.6613 -1.8821  0.1984
 1551SOL    HW216290   1.268   0.155   0.396 -0.8349 -0.7788  1.4444
 1552SOL     OW16291   0.226   2.111   5.528 -0.0760 -0.6966 -0.0122
 1552SOL    HW116292   0.174   2.151   5.598  0.8342 -0.9559  0.8076
 1552SOL    HW216293   0.189   2.163   5.457  0.7184 -1.2631 -0.8425
 1553SOL     OW16294   3.852   4.592   1.833  0.2235 -0.3150  0.3982
 1553SOL    HW116295   3.869   4.615   1.741 -1.3677  2.1017  0.6877
 1553SOL    HW216296   3.872   4.671   1.884 -0.6002 -0.1449  0.4576
 1554SOL     OW16297   1.270   0.706   4.476  0.3902 -0.0196 -0.2101
 1554SOL    HW116298   1.221   0.656   4.410  1.9538 -2.8622  0.7866
 1554SOL    HW216299   1.357   0.708   4.437 -0.0117  0.7016 -1.0842
 1555SOL     OW16300   2.158   3.115   9.165  0.0543 -0.3904  0.8104
 1555SOL    HW116301   2.232   3.061   9.135  0.4750  0.2414  0.6956
 1555SOL    HW216302   2.135   3.062   9.241  0.9906  1.6267  2.4894
 1556SOL     OW16303   2.347   4.166  12.577 -0.2640 -0.1748 -0.3694
 1556SOL    HW116304   2.302   4.083  12.562  0.3484 -0.2757 -1.5814
 1556SOL    HW216305   2.342   4.217  12.496  2.4581 -3.6316 -2.6986
 1557SOL     OW16306   0.050   4.614   2.351 -0.0176  0.2265  0.3141
 1557SOL    HW116307   4.719   4.626   2.416 -1.0713  0.9100 -0.9456
 1557SOL    HW216308   4.725   4.604   2.280 -0.2006  0.0217  0.5102
 1558SOL     OW16309   1.549   3.169  16.613  0.5881  0.0320 -0.0836
 1558SOL    HW116310   1.586   3.257  16.611  1.3706 -0.2609  2.2495
 1558SOL    HW216311   1.629   3.118  16.604  0.0745 -0.7270 -0.3511
 1559SOL     OW16312   3.449   2.850  17.607  0.2696 -0.3857 -0.2925
 1559SOL    HW116313   3.444   2.920  17.542  1.5008 -0.7480 -0.7696
 1559SOL    HW216314   3.404   2.776  17.567 -0.1225 -0.0545 -0.4715
 1560SOL     OW16315   3.876   2.090   8.595 -0.3665 -0.5032  0.4208
 1560SOL    HW116316   3.858   2.162   8.534  1.2802 -0.1045  0.3981
 1560SOL    HW216317   3.883   2.020   8.531  0.0002 -1.1632  1.1909
 1561SOL     OW16318   3.445   3.336   2.200 -0.4668  0.6650  0.0777
 1561SOL    HW116319   3.365   3.386   2.214  0.6820  3.1286 -2.0857
 1561SOL    HW216320   3.417   3.246   2.217 -1.4971  1.2813  1.6894
 1562SOL     OW16321   2.174   1.989   5.480 -0.2476  0.0855 -0.0923
 1562SOL    HW116322   2.089   1.968   5.441  0.0664 -1.6389  0.1743
 1562SOL    HW216323   2.202   1.903   5.509  1.4550  0.7596  0.2942
 1563SOL     OW16324   1.447   2.215   6.064 -0.7917 -0.1916 -0.1623
 1563SOL    HW116325   1.439   2.298   6.017  0.1094 -0.6018 -1.0486
 1563SOL    HW216326   1.358   2.181   6.054  0.3248 -3.5498  1.2650
 1564SOL     OW16327   2.889   0.353   3.505  0.1720  0.3600  0.3412
 1564SOL    HW116328   2.931   0.273   3.472  1.1945  0.6629  0.9350
 1564SOL    HW216329   2.801   0.348   3.467  0.4616 -0.7971 -0.2005
 1565SOL     OW16330   2.460   0.400   4.732 -0.0005  0.1841 -0.2340
 1565SOL    HW116331   2.380   0.356   4.762  0.6302  1.2942  3.0722
 1565SOL    HW216332   2.520   0.342   4.781 -1.0501  0.0598  0.9092
 1566SOL     OW16333   0.033   3.658   3.233 -0.0807  0.0816  0.1160
 1566SOL    HW116334   0.121   3.637   3.264  0.1573 -0.2356 -0.7764
 1566SOL    HW216335   0.049   3.690   3.145 -1.2160  2.1125  0.6357
 1567SOL     OW16336   1.302   4.676   4.610 -0.9444 -1.0759 -0.5169
 1567SOL    HW116337   1.313   4.668   4.515  1.9546  0.4233 -0.3078
 1567SOL    HW216338   1.395   4.688   4.628 -0.7549 -1.7796 -1.0288
 1568SOL     OW16339   2.479   1.158   7.217  0.0134  0.1515 -0.1961
 1568SOL    HW116340   2.458   1.072   7.252 -0.6610  1.0799  1.7201
 1568SOL    HW216341   2.457   1.215   7.292  0.8824 -1.1392  1.0365
 1569SOL     OW16342   0.270   4.722   6.044  0.4297  0.2273  0.4075
 1569SOL    HW116343   0.312   0.014   5.963  1.9891 -1.1369  0.7003
 1569SOL    HW216344   0.211   0.057   6.061 -0.3559  0.1620 -1.9861
 1570SOL     OW16345   3.796   2.219   5.510 -0.5027  0.2221  0.3498
 1570SOL    HW116346   3.790   2.298   5.563  1.5288 -0.2953  1.3474
 1570SOL    HW216347   3.763   2.250   5.426  0.1445 -0.9892 -0.3423
 1571SOL     OW16348   1.924   3.913  17.410 -0.0297  0.2773 -0.5947
 1571SOL    HW116349   1.988   3.851  17.374  1.2410  0.2746  1.7086
 1571SOL    HW216350   1.865   3.910  17.335  1.9169 -1.9388 -2.0460
 1572SOL     OW16351   1.746   1.859   7.920  0.7131 -0.1675  0.7127
 1572SOL    HW116352   1.657   1.882   7.894  0.8144  0.0551  0.5681
 1572SOL    HW216353   1.742   1.865   8.016 -1.4243  1.5361  0.4849
 1573SOL     OW16354   2.379   0.728  14.990 -0.4895 -0.2041 -0.1113
 1573SOL    HW116355   2.290   0.756  15.013 -0.0180  0.1368  1.3286
 1573SOL    HW216356   2.399   0.810  14.946 -0.9911  0.6003  1.1648
 1574SOL     OW16357   1.281   4.544   6.772 -0.6348 -0.1573  0.0269
 1574SOL    HW116358   1.279   4.553   6.868  1.2452  0.5089 -0.0083
 1574SOL    HW216359   1.198   4.587   6.753  0.6944  1.4239 -2.0789
 1575SOL     OW16360   1.189   3.291   8.511  0.0529  0.2585  0.1414
 1575SOL    HW116361   1.164   3.369   8.462  0.2343  0.1141 -0.1818
 1575SOL    HW216362   1.226   3.327   8.591  1.7375 -0.3382 -0.3683
 1576SOL     OW16363   2.077   2.766  16.613 -0.0555 -0.0683 -0.1548
 1576SOL    HW116364   2.002   2.798  16.562 -0.8071  1.3299  1.8245
 1576SOL    HW216365   2.109   2.854  16.629 -0.9272 -0.1951  2.3269
 1577SOL     OW16366   4.739   1.255   6.669  0.1159 -0.8025  0.1813
 1577SOL    HW116367   0.089   1.242   6.702  0.4620 -2.1713 -1.2814
 1577SOL    HW216368   4.710   1.164   6.679  0.9187 -0.9464  1.1631
 1578SOL     OW16369   2.982   1.465  13.233  0.1662 -0.1856  0.2189
 1578SOL    HW116370   2.902   1.515  13.253 -0.5819 -0.8420 -1.0855
 1578SOL    HW216371   3.008   1.453  13.324 -1.8472  0.0300  0.8228
 1579SOL     OW16372   2.490   3.307   4.430 -0.4246 -0.2760  0.0296
 1579SOL    HW116373   2.516   3.395   4.458 -2.3801  0.9064 -1.9434
 1579SOL    HW216374   2.548   3.250   4.482 -1.5080 -0.6282  0.8444
 1580SOL     OW16375   2.764   1.508   6.860  0.7317 -0.1230  0.0488
 1580SOL    HW116376   2.819   1.525   6.936  1.7613 -2.7258 -0.1196
 1580SOL    HW216377   2.692   1.472   6.912  1.8021  0.9514  2.2941
 1581SOL     OW16378   3.483   2.984   8.672  0.7611  0.1811  0.2930
 1581SOL    HW116379   3.420   2.981   8.745 -1.1245  0.9542 -1.3098
 1581SOL    HW216380   3.422   3.004   8.602  0.3510 -0.3521  0.4942
 1582SOL     OW16381   0.094   1.372  13.281  0.3912 -0.2024 -0.4268
 1582SOL    HW116382   0.105   1.464  13.259  3.3583 -0.7873 -1.4177
 1582SOL    HW216383   0.036   1.382  13.356 -0.8820  0.3945 -1.4886
 1583SOL     OW16384   2.874   3.074   5.586  0.2163 -0.0829  0.6630
 1583SOL    HW116385   2.903   2.985   5.607 -1.7887 -0.7856  0.4566
 1583SOL    HW216386   2.933   3.080   5.511 -1.6744  0.1214 -0.7876
 1584SOL     OW16387   4.644   2.953   1.307  0.0409 -0.2943  0.5121
 1584SOL    HW116388   4.586   3.027   1.292 -1.3791 -0.6433  4.2462
 1584SOL    HW216389   4.608   2.895   1.240 -1.8529  1.3213  0.1300
 1585SOL     OW16390   1.681   3.485  13.321 -0.3683 -0.7190 -0.4406
 1585SOL    HW116391   1.665   3.543  13.396  0.5809 -0.4283 -0.4518
 1585SOL    HW216392   1.725   3.410  13.362 -1.1429 -0.0138  1.6648
 1586SOL     OW16393   3.768   3.436   8.960 -0.5513 -0.0627  0.2720
 1586SOL    HW116394   3.760   3.520   9.004 -2.7957 -1.1410  1.9278
 1586SOL    HW216395   3.863   3.441   8.972 -0.6245 -1.5939  1.4840
 1587SOL     OW16396   3.730   2.855   8.063  0.7259  0.3639 -0.2253
 1587SOL    HW116397   3.774   2.940   8.069  0.9190  0.2659 -0.2370
 1587SOL    HW216398   3.676   2.861   8.142 -1.6475 -1.4402 -1.7101
 1588SOL     OW16399   4.456   1.721   6.375 -0.5653  0.0651  0.1390
 1588SOL    HW116400   4.458   1.798   6.317  1.6471 -0.4351 -0.4234
 1588SOL    HW216401   4.376   1.737   6.426 -1.4355 -1.8384 -0.6216
 1589SOL     OW16402   2.283   2.723   6.462 -0.0034 -0.3319 -0.1792
 1589SOL    HW116403   2.352   2.784   6.486 -1.3563  0.5998  1.3066
 1589SOL    HW216404   2.201   2.772   6.470  0.4058  0.4811 -1.0716
 1590SOL     OW16405   0.765   1.988   6.871  0.1202 -0.4406  0.2498
 1590SOL    HW116406   0.757   2.061   6.809 -2.7550 -0.3801  0.6937
 1590SOL    HW216407   0.702   2.021   6.935 -1.3525  0.8237 -1.8454
 1591SOL     OW16408   4.715   0.947   1.054 -0.0311 -0.4353 -0.4550
 1591SOL    HW116409   0.035   0.980   1.123  0.3701  0.7347 -1.3427
 1591SOL    HW216410   4.725   1.006   0.979 -1.0329  0.4914  0.1424
 1592SOL     OW16411   3.620   0.039   4.039  0.0030 -0.5132  0.1430
 1592SOL    HW116412   3.578   4.736   3.964 -0.0984  2.1976 -1.3144
 1592SOL    HW216413   3.663   4.700   4.076  0.7011  1.8841  4.3551
 1593SOL     OW16414   0.239   4.543   6.330  0.4965 -0.4963  0.4205
 1593SOL    HW116415   0.228   4.454   6.296  0.0479  0.3994 -1.7758
 1593SOL    HW216416   0.211   4.524   6.420  0.9775  0.1556  0.7041
 1594SOL     OW16417   0.878   1.277   6.071 -0.7335  0.5238 -0.1120
 1594SOL    HW116418   0.899   1.358   6.025  0.9875  0.9392  1.3796
 1594SOL    HW216419   0.957   1.284   6.126 -0.6928 -0.7469 -0.0172
 1595SOL     OW16420   2.894   1.536   1.724 -0.1474 -0.3646  0.3190
 1595SOL    HW116421   2.908   1.628   1.699  1.2801 -0.8031 -0.5217
 1595SOL    HW216422   2.976   1.492   1.701  0.8897  1.7710 -0.0931
 1596SOL     OW16423   3.276   2.517   2.499  0.2284  0.2616  0.7198
 1596SOL    HW116424   3.217   2.446   2.523  0.3025 -0.2887 -0.7672
 1596SOL    HW216425   3.357   2.469   2.520  0.9745  0.1188 -2.5149
 1597SOL     OW16426   0.755   4.402   8.795 -0.2436 -0.3068  0.5652
 1597SOL    HW116427   0.670   4.368   8.824 -0.3005 -0.1229  0.6122
 1597SOL    HW216428   0.728   4.438   8.710 -0.1040 -1.6586 -0.0575
 1598SOL     OW16429   3.134   4.191   5.703 -0.5442 -0.4967 -0.1168
 1598SOL    HW116430   3.140   4.097   5.719  0.3615 -0.0731  1.9389
 1598SOL    HW216431   3.171   4.223   5.785 -2.8976  1.4331  0.1843
 1599SOL     OW16432   0.006   0.672   3.789 -0.4157  0.2377  0.0630
 1599SOL    HW116433   4.654   0.690   3.815  0.6390  2.3442  2.3128
 1599SOL    HW216434   4.719   0.646   3.701  0.4911 -0.2916 -0.0488
 1600SOL     OW16435   1.121   3.210   9.107 -0.0732  0.2229 -0.2758
 1600SOL    HW116436   1.157   3.281   9.055  0.6095 -0.5970 -0.9230
 1600SOL    HW216437   1.134   3.249   9.194  0.5773  1.7190 -1.0475
 1601SOL     OW16438   0.922   3.001   5.936  0.2063 -0.1370 -0.1895
 1601SOL    HW116439   0.989   3.049   5.984  0.7621 -0.8761 -0.2341
 1601SOL    HW216440   0.941   2.909   5.950  1.6009  0.4055  1.5001
 1602SOL     OW16441   1.199   1.385   9.324 -0.4865  0.3690  0.1162
 1602SOL    HW116442   1.223   1.452   9.388 -1.5215  3.2334 -2.5080
 1602SOL    HW216443   1.275   1.403   9.270  0.6405 -3.1035  0.5843
 1603SOL     OW16444   2.687   4.570   8.464 -0.5228  0.3111  0.5525
 1603SOL    HW116445   2.679   4.583   8.558 -1.4897 -0.7035  0.6128
 1603SOL    HW216446   2.780   4.548   8.460 -1.2030 -2.5436  0.3591
 1604SOL     OW16447   4.558   2.964   4.814 -0.4012  0.0059  0.3591
 1604SOL    HW116448   4.508   2.884   4.836 -4.0521  2.2922  0.4620
 1604SOL    HW216449   4.488   3.026   4.835 -1.6129 -1.0709 -0.4486
 1605SOL     OW16450   2.902   3.182  15.213  0.5848 -0.0040 -0.0916
 1605SOL    HW116451   2.951   3.123  15.270  0.1803  1.1826  1.4788
 1605SOL    HW216452   2.842   3.123  15.167  0.5974  0.4126 -0.6425
 1606SOL     OW16453   4.217   4.594  17.420 -0.7810  0.2012  0.1736
 1606SOL    HW116454   4.244   4.504  17.438 -0.2151  0.2945 -0.1837
 1606SOL    HW216455   4.205   4.631  17.507  0.8320  2.2502 -0.4757
 1607SOL     OW16456   4.156   1.326   2.599 -0.1383  0.2709 -0.4861
 1607SOL    HW116457   4.146   1.285   2.513  3.8634 -0.2589 -0.6963
 1607SOL    HW216458   4.178   1.414   2.569  0.3849  0.7176  1.2432
 1608SOL     OW16459   0.586   4.339  15.775  0.0387 -0.2807 -0.1410
 1608SOL    HW116460   0.555   4.399  15.707  1.1430  1.7133  1.0994
 1608SOL    HW216461   0.529   4.351  15.850  1.2381  0.4169  0.6551
 1609SOL     OW16462   2.445   0.819   1.895  0.5582  0.2476 -0.1610
 1609SOL    HW116463   2.390   0.873   1.838  2.0619  0.8363 -1.0567
 1609SOL    HW216464   2.518   0.878   1.914  1.2814 -1.0428  0.9862
 1610SOL     OW16465   2.405   4.424   8.197  0.0529  0.1095  0.1996
 1610SOL    HW116466   2.446   4.384   8.274 -2.3213 -3.1168 -0.2341
 1610SOL    HW216467   2.314   4.395   8.201  0.6643 -2.1378 -1.9238
 1611SOL     OW16468   2.694   3.906   0.377  0.2512  0.0075 -0.5070
 1611SOL    HW116469   2.774   3.860   0.401  0.5479 -0.6302 -2.7386
 1611SOL    HW216470   2.673   3.934   0.467 -1.4166  0.2160 -0.9640
 1612SOL     OW16471   2.502   2.590   4.937 -0.5658 -0.2436 -0.5646
 1612SOL    HW116472   2.460   2.674   4.957  1.3573  0.9335 -1.4612
 1612SOL    HW216473   2.571   2.586   5.004 -0.5533  0.7119 -0.5205
 1613SOL     OW16474   3.956   4.314   7.590 -0.0253 -0.1553  0.2508
 1613SOL    HW116475   3.900   4.293   7.665  0.8071  0.2471  0.9849
 1613SOL    HW216476   3.921   4.402   7.575 -1.8859 -1.1330 -1.1675
 1614SOL     OW16477   1.389   3.419   2.602  0.1365  1.1195 -0.1849
 1614SOL    HW116478   1.484   3.427   2.617  0.2958 -2.0709  0.5443
 1614SOL    HW216479   1.396   3.454   2.513  1.5410 -0.9820 -0.9022
 1615SOL     OW16480   0.103   3.946   8.835 -0.1943  0.3105 -0.0111
 1615SOL    HW116481   0.131   4.016   8.894 -0.6784  2.6409 -2.5578
 1615SOL    HW216482   0.018   3.983   8.814 -1.0073 -2.4184 -1.4931
 1616SOL     OW16483   3.225   1.521  14.788  0.3015 -0.0297 -0.0688
 1616SOL    HW116484   3.297   1.461  14.767 -0.5395 -1.1220  0.1406
 1616SOL    HW216485   3.274   1.600  14.768  0.7322 -0.2252  0.2357
 1617SOL     OW16486   4.030   2.595   5.476  0.2377 -0.3974  0.0428
 1617SOL    HW116487   4.055   2.506   5.451 -0.8154 -0.0789 -2.1710
 1617SOL    HW216488   3.994   2.576   5.562 -1.5216 -2.7955 -1.2187
 1618SOL     OW16489   2.901   1.578  13.635  0.2350 -0.6899  0.0812
 1618SOL    HW116490   2.828   1.517  13.641 -0.6539  0.3968  0.2892
 1618SOL    HW216491   2.892   1.620  13.549 -2.7983 -0.3396  0.5761
 1619SOL     OW16492   2.100   3.813   5.737  0.7586 -0.3069 -0.0855
 1619SOL    HW116493   2.110   3.886   5.676  0.4429  0.4138  0.7265
 1619SOL    HW216494   2.175   3.837   5.792  0.7965 -0.9223  0.1370
 1620SOL     OW16495   0.771   4.391   5.493 -0.3020  0.3705  0.0578
 1620SOL    HW116496   0.737   4.441   5.567  0.6042  0.1600  0.6152
 1620SOL    HW216497   0.705   4.323   5.482  1.6545 -1.1897 -2.1248
 1621SOL     OW16498   1.635   1.416   2.000  0.1119  0.5511 -0.2356
 1621SOL    HW116499   1.641   1.394   1.907  1.0945 -0.3959  0.0503
 1621SOL    HW216500   1.546   1.452   2.000 -0.3655 -0.6564 -2.2919
 1622SOL     OW16501   0.890   1.646   3.607 -0.2111 -0.6907  0.9240
 1622SOL    HW116502   0.972   1.606   3.636  0.7701 -0.0249 -0.8850
 1622SOL    HW216503   0.847   1.664   3.690 -1.7808 -1.8804  0.3642
 1623SOL     OW16504   0.520   4.125   8.521 -0.2325  0.0859 -0.4193
 1623SOL    HW116505   0.533   4.217   8.497 -1.0864  0.1412 -0.6734
 1623SOL    HW216506   0.465   4.102   8.446  0.3930  0.4462 -0.9936
 1624SOL     OW16507   0.238   2.753   8.770 -0.3210  0.8470  0.0602
 1624SOL    HW116508   0.328   2.775   8.744  0.0232 -0.7776 -0.0867
 1624SOL    HW216509   0.182   2.831   8.765 -0.5070  0.8951  2.8468
 1625SOL     OW16510   2.352   1.617   2.392  0.4205  0.1087 -0.1164
 1625SOL    HW116511   2.399   1.634   2.310 -0.0018  1.1458 -0.1459
 1625SOL    HW216512   2.262   1.613   2.358 -0.2283  0.9762  1.4957
 1626SOL     OW16513   4.166   1.865  16.021 -0.5237 -0.6565 -0.1316
 1626SOL    HW116514   4.163   1.951  15.978  1.6089  0.7002  2.4753
 1626SOL    HW216515   4.149   1.810  15.944 -3.2843  2.2230 -1.5724
 1627SOL     OW16516   4.374   4.236   0.005 -0.7545 -0.0282 -0.0189
 1627SOL    HW116517   4.381   4.141  17.746  0.6464 -0.1701  1.9406
 1627SOL    HW216518   4.445   4.266  17.701  0.0850 -0.2082  0.9425
 1628SOL     OW16519   4.295   0.767   7.615  0.3444 -0.5997 -0.0081
 1628SOL    HW116520   4.332   0.697   7.669  0.7320 -0.4993 -0.1454
 1628SOL    HW216521   4.337   0.843   7.655  2.9395 -1.5331 -0.9440
 1629SOL     OW16522   3.225   0.073   5.125  0.5272  0.0982  0.5187
 1629SOL    HW116523   3.211   0.036   5.212 -0.8034  0.8042  0.5929
 1629SOL    HW216524   3.261   0.156   5.155  1.3224 -0.2076  0.4257
 1630SOL     OW16525   1.884   3.912   4.444  0.7315  0.3703 -0.0450
 1630SOL    HW116526   1.900   3.954   4.359  2.2478  2.3155  1.1939
 1630SOL    HW216527   1.789   3.908   4.454  0.8088  0.5641  0.7413
 1631SOL     OW16528   3.913   1.440  13.359  0.1164  0.0222 -0.2895
 1631SOL    HW116529   3.943   1.454  13.449  1.8107  2.0774 -1.1733
 1631SOL    HW216530   3.820   1.419  13.368  0.7566 -2.6364  0.2574
 1632SOL     OW16531   1.288   0.243   0.707 -0.6662  0.1998 -0.1932
 1632SOL    HW116532   1.312   0.313   0.768 -1.1523 -2.0036  2.5126
 1632SOL    HW216533   1.366   0.189   0.715 -1.1905 -0.6449 -0.7901
 1633SOL     OW16534   3.326   3.545  12.041 -0.3448 -0.4496  0.2626
 1633SOL    HW116535   3.393   3.561  12.107 -0.3405  0.2831  0.0794
 1633SOL    HW216536   3.364   3.469  11.996  2.0688  2.5258 -2.7944
 1634SOL     OW16537   2.409   4.062   4.919 -0.1324  0.0462  0.3351
 1634SOL    HW116538   2.400   4.001   4.993  0.3934 -0.5166 -0.0631
 1634SOL    HW216539   2.391   4.145   4.962  2.4019  1.8569 -2.1342
 1635SOL     OW16540   4.143   2.163   8.557  0.5028 -1.0777 -0.2490
 1635SOL    HW116541   4.173   2.101   8.491  1.8358  0.9239 -1.4964
 1635SOL    HW216542   4.054   2.134   8.579 -0.6559  1.4363 -1.6272
 1636SOL     OW16543   1.333   1.107  17.635  0.0388  0.1401  0.5433
 1636SOL    HW116544   1.380   1.157  17.568  0.0030  0.3367  0.6669
 1636SOL    HW216545   1.383   1.025  17.638  0.5187  0.4145 -0.0331
 1637SOL     OW16546   0.320   4.187   4.249  0.6439  0.3280  0.0466
 1637SOL    HW116547   0.314   4.239   4.329 -2.3059 -0.1745  0.1796
 1637SOL    HW216548   0.414   4.176   4.239  0.6250  0.5881 -0.4076
 1638SOL     OW16549   2.897   0.686   4.420 -0.0421  0.9594  0.2724
 1638SOL    HW116550   2.890   0.595   4.449  0.9722  0.7572 -0.0928
 1638SOL    HW216551   2.981   0.687   4.374 -0.4895 -1.4185 -0.6141
 1639SOL     OW16552   1.504   1.917   7.781 -0.1490 -0.2078  0.3323
 1639SOL    HW116553   1.548   1.999   7.759 -3.0467  0.6886 -2.0126
 1639SOL    HW216554   1.416   1.943   7.807  0.1920  1.2083  0.0399
 1640SOL     OW16555   4.056   2.146   1.722 -0.1281 -0.2257  0.7424
 1640SOL    HW116556   4.094   2.066   1.757  1.2378  0.4167  0.7437
 1640SOL    HW216557   4.136   2.195   1.701 -1.6926  1.2165 -1.8799
 1641SOL     OW16558   4.698   3.404   0.328 -0.9448  0.2834 -0.6504
 1641SOL    HW116559   4.714   3.328   0.384  3.2460  2.5526  1.2215
 1641SOL    HW216560   4.620   3.443   0.367  0.1074 -1.6538  3.4327
 1642SOL     OW16561   0.178   3.830   9.400  0.1045 -0.2166 -0.4464
 1642SOL    HW116562   0.224   3.797   9.323 -0.2688 -0.6517 -0.4829
 1642SOL    HW216563   0.251   3.836   9.461 -0.7807 -0.2362  0.6102
 1643SOL     OW16564   1.539   4.465  10.981  0.1973  0.3868 -0.1824
 1643SOL    HW116565   1.599   4.537  10.996 -1.3138  2.0199 -1.9167
 1643SOL    HW216566   1.452   4.504  10.970 -0.0021  0.6206  2.3149
 1644SOL     OW16567   4.138   3.831   4.818 -0.0043 -0.0686  0.3309
 1644SOL    HW116568   4.076   3.825   4.891 -1.1325 -0.2698 -0.6495
 1644SOL    HW216569   4.195   3.758   4.844  0.5033  0.4906  0.7874
 1645SOL     OW16570   3.325   2.029  17.670  0.5536  0.3888 -0.1601
 1645SOL    HW116571   3.413   2.046  17.705  1.5097 -4.9688 -0.0088
 1645SOL    HW216572   3.346   1.955  17.612  1.6124  0.4299  0.1666
 1646SOL     OW16573   4.357   1.468   8.813 -0.2204 -0.4131 -0.6702
 1646SOL    HW116574   4.311   1.549   8.791  1.3702  0.4406 -0.8858
 1646SOL    HW216575   4.315   1.398   8.763 -1.4983  0.8108 -1.3081
 1647SOL     OW16576   3.244   2.258   1.297  0.4233  0.4546  0.2578
 1647SOL    HW116577   3.336   2.265   1.320  1.1357  1.6610 -2.9356
 1647SOL    HW216578   3.237   2.282   1.204  0.7185  0.7728  0.3203
 1648SOL     OW16579   1.400   2.482   7.122 -0.1307  0.0452 -0.4654
 1648SOL    HW116580   1.423   2.567   7.159  0.1667 -0.5205  0.6410
 1648SOL    HW216581   1.306   2.478   7.137 -0.0341  1.8869  0.5823
 1649SOL     OW16582   2.322   0.171  14.648  0.1832 -0.0768 -0.4312
 1649SOL    HW116583   2.398   0.228  14.643 -0.5045  0.9251  0.4659
 1649SOL    HW216584   2.333   0.117  14.570 -2.6274 -1.3611  0.0441
 1650SOL     OW16585   2.515   3.401  11.573 -0.2002 -0.1206 -0.0917
 1650SOL    HW116586   2.440   3.411  11.632 -0.8627  1.5161 -1.2260
 1650SOL    HW216587   2.521   3.306  11.576  0.5879 -0.0627  0.1533
 1651SOL     OW16588   0.572   3.902   3.181 -0.0018  0.5551  0.2332
 1651SOL    HW116589   0.643   3.895   3.245  1.5066  1.6842 -1.3159
 1651SOL    HW216590   0.496   3.900   3.239  0.8389 -3.2462  1.1816
 1652SOL     OW16591   4.645   2.605   8.638 -0.3108 -0.5735 -0.8041
 1652SOL    HW116592   4.632   2.620   8.732 -1.0279  0.3146 -1.0367
 1652SOL    HW216593   4.564   2.554   8.632  1.1667 -2.6854 -2.9015
 1653SOL     OW16594   3.432   0.337   3.334 -0.0939  0.5002 -0.1997
 1653SOL    HW116595   3.371   0.288   3.389  0.3942 -2.9157 -2.6954
 1653SOL    HW216596   3.510   0.338   3.389  0.5418 -0.4541 -1.0796
 1654SOL     OW16597   1.290   3.810   0.464  0.4953  0.1752 -0.5520
 1654SOL    HW116598   1.197   3.824   0.485  0.2389  0.4151 -1.8461
 1654SOL    HW216599   1.286   3.858   0.381  1.6797 -2.7224 -2.3176
 1655SOL     OW16600   1.655   2.546   4.614  0.3805 -0.0338  0.6046
 1655SOL    HW116601   1.688   2.458   4.594 -0.1325 -0.0690 -0.0805
 1655SOL    HW216602   1.724   2.585   4.669  0.3064  0.0807  0.6162
 1656SOL     OW16603   3.910   4.658   8.250  0.0164 -0.6610  0.2359
 1656SOL    HW116604   3.897   4.724   8.318  1.1067 -0.4488  0.2419
 1656SOL    HW216605   3.951   4.704   8.177 -0.8181  1.5155  1.1432
 1657SOL     OW16606   4.225   4.452   3.704 -0.2408 -0.7834 -0.6012
 1657SOL    HW116607   4.176   4.415   3.778  0.5718 -0.0891  0.2779
 1657SOL    HW216608   4.198   4.543   3.714 -2.3355 -1.4112 -0.4495
 1658SOL     OW16609   1.623   2.984   8.570 -0.3487 -0.9511 -0.7630
 1658SOL    HW116610   1.571   2.923   8.517 -1.9311 -1.4781  1.3680
 1658SOL    HW216611   1.660   3.046   8.508 -0.8457  0.5734  0.4760
 1659SOL     OW16612   2.251   4.146   4.558 -0.8726  0.4212 -0.4660
 1659SOL    HW116613   2.167   4.120   4.596  0.3287 -1.1338  1.1363
 1659SOL    HW216614   2.215   4.157   4.470 -1.6123  1.1350 -0.0711
 1660SOL     OW16615   0.373   2.945   3.864 -0.2161  0.4292  0.2073
 1660SOL    HW116616   0.334   2.959   3.778  1.7435  1.1916 -0.5369
 1660SOL    HW216617   0.344   2.862   3.903  0.4343  1.3120  2.5963
 1661SOL     OW16618   3.613   1.193   3.775  0.0127 -0.5011  0.5170
 1661SOL    HW116619   3.665   1.114   3.778  1.3991  0.3855 -0.1406
 1661SOL    HW216620   3.661   1.257   3.828  0.1952 -0.1558 -0.0689
 1662SOL     OW16621   2.646   3.523  17.364 -0.2372 -0.2928 -0.9374
 1662SOL    HW116622   2.659   3.489  17.452 -0.4252 -0.4724 -0.9788
 1662SOL    HW216623   2.559   3.485  17.348 -0.6564  0.0075  0.6563
 1663SOL     OW16624   2.192   3.359   6.206 -0.2000 -0.0261  0.7529
 1663SOL    HW116625   2.104   3.328   6.230 -1.2185  1.4740 -1.1273
 1663SOL    HW216626   2.182   3.347   6.112 -0.8303  0.5136  0.7509
 1664SOL     OW16627   2.355   2.848   0.869  0.1322  0.4945  0.2721
 1664SOL    HW116628   2.315   2.914   0.925  1.3437  0.1699  1.5358
 1664SOL    HW216629   2.321   2.876   0.784 -0.3546 -1.2046 -0.1037
 1665SOL     OW16630   0.620   1.566   2.446 -0.0243  1.2599 -0.2910
 1665SOL    HW116631   0.654   1.622   2.516  1.9026 -0.3409  0.0402
 1665SOL    HW216632   0.656   1.480   2.469  0.0005  1.0162 -1.2449
 1666SOL     OW16633   0.914   3.945   8.630 -0.7435 -0.1484 -0.6638
 1666SOL    HW116634   0.842   3.977   8.685 -0.4493 -1.4982  0.5248
 1666SOL    HW216635   0.947   3.892   8.703 -0.8359  1.3636  0.4669
 1667SOL     OW16636   4.619   0.485   8.795  0.1853 -0.1340  0.4122
 1667SOL    HW116637   4.712   0.460   8.793  0.6203  1.4116  0.7622
 1667SOL    HW216638   4.598   0.452   8.708 -1.3052  0.5463  0.5143
 1668SOL     OW16639   1.399   1.471   0.888  0.1422  0.6301  0.7505
 1668SOL    HW116640   1.412   1.412   0.814  1.6664  0.0297  1.4874
 1668SOL    HW216641   1.488   1.506   0.898  0.1034  1.1817 -0.8853
 1669SOL     OW16642   2.059   2.060   2.775  0.2078 -0.1438  0.1908
 1669SOL    HW116643   2.008   2.011   2.840 -0.8420 -1.0737 -1.3340
 1669SOL    HW216644   2.076   2.141   2.822  0.1420  1.6454 -2.9109
 1670SOL     OW16645   0.927   1.879   4.440  0.2080 -0.4759 -0.2160
 1670SOL    HW116646   1.019   1.893   4.421 -0.4375  0.9143 -2.2672
 1670SOL    HW216647   0.889   1.885   4.353  0.9915  0.7182 -0.4750
 1671SOL     OW16648   3.151   1.010  15.524  0.0216 -0.0031 -0.4771
 1671SOL    HW116649   3.163   0.999  15.430 -3.8703 -1.6992 -0.7710
 1671SOL    HW216650   3.135   0.922  15.557 -1.0020  0.3097 -0.1435
 1672SOL     OW16651   1.704   2.620   2.801  0.1133 -0.9837  0.4817
 1672SOL    HW116652   1.697   2.553   2.732 -0.3432  1.2630 -1.6271
 1672SOL    HW216653   1.777   2.677   2.776  1.4197 -2.8207  0.0853
 1673SOL     OW16654   2.865   2.452  16.643  0.1749 -0.3129  0.0348
 1673SOL    HW116655   2.783   2.418  16.606  2.5941 -1.4312 -4.2625
 1673SOL    HW216656   2.901   2.371  16.678  2.6225  0.3473 -0.9399
 1674SOL     OW16657   3.390   4.306   2.331 -0.5196  0.4485 -0.8363
 1674SOL    HW116658   3.417   4.341   2.246 -2.0457  1.3031 -0.9762
 1674SOL    HW216659   3.344   4.228   2.300  3.1008 -0.7534 -3.1923
 1675SOL     OW16660   1.659   4.494   0.850 -0.0374  0.4786 -0.0390
 1675SOL    HW116661   1.655   4.400   0.832  1.2497  0.5996 -1.0138
 1675SOL    HW216662   1.684   4.544   0.772  2.0818  1.0667  1.0054
 1676SOL     OW16663   3.329   3.499   9.851 -0.0738  0.3377 -0.6177
 1676SOL    HW116664   3.243   3.474   9.815  0.0458 -0.9913  0.0049
 1676SOL    HW216665   3.306   3.506   9.944  2.1853  0.2815 -0.0542
 1677SOL     OW16666   0.922   2.640  11.014 -0.0644  0.1281 -0.2417
 1677SOL    HW116667   0.936   2.699  11.088  0.0432 -2.1340  1.5814
 1677SOL    HW216668   1.013   2.643  10.985 -0.5083 -0.4811 -1.6682
 1678SOL     OW16669   1.062   4.662   2.071  0.1206  0.0527  0.0479
 1678SOL    HW116670   1.102   0.001   2.033 -0.0673 -0.5003 -1.3009
 1678SOL    HW216671   1.031   4.691   2.157 -0.4825 -1.0517  0.2127
 1679SOL     OW16672   4.056   3.467   1.755  0.0228 -0.0604 -0.0936
 1679SOL    HW116673   4.003   3.469   1.675  0.1928  0.3309 -0.1966
 1679SOL    HW216674   4.004   3.511   1.822 -1.6690 -3.9368  1.1309
 1680SOL     OW16675   1.274   0.519   8.834 -0.0088  0.1951  0.5198
 1680SOL    HW116676   1.208   0.470   8.784  0.8802 -1.4696  0.9963
 1680SOL    HW216677   1.268   0.592   8.772 -3.0811 -2.7618 -2.7251
 1681SOL     OW16678   1.332   2.178   7.636 -0.2211  0.1808  0.1825
 1681SOL    HW116679   1.302   2.147   7.551 -0.3556 -1.5527  0.8491
 1681SOL    HW216680   1.423   2.208   7.625  0.1077 -1.0160 -0.3856
 1682SOL     OW16681   0.506   1.440   5.879  0.0605 -0.5363  0.1484
 1682SOL    HW116682   0.475   1.519   5.923  1.0163 -0.2821  0.3650
 1682SOL    HW216683   0.437   1.425   5.815  0.7017 -0.0551 -0.6639
 1683SOL     OW16684   4.552   0.305   6.108  0.4140 -0.1003 -0.2884
 1683SOL    HW116685   4.501   0.241   6.157 -0.5782  0.6031 -0.4024
 1683SOL    HW216686   4.545   0.268   6.020 -0.8748  1.2302 -0.7407
 1684SOL     OW16687   2.191   1.619  17.542  0.0508 -0.1162 -0.2121
 1684SOL    HW116688   2.112   1.575  17.572 -0.3792  0.9025  0.1712
 1684SOL    HW216689   2.172   1.712  17.555 -3.5266 -0.9075  0.2351
 1685SOL     OW16690   3.510   2.541   9.706 -0.1159 -0.2206 -0.4291
 1685SOL    HW116691   3.525   2.512   9.796  0.3557  0.3990 -0.3150
 1685SOL    HW216692   3.425   2.586   9.705  0.4156  0.7544 -0.8889
 1686SOL     OW16693   3.085   4.607   8.677 -0.0825 -0.5666  0.1695
 1686SOL    HW116694   3.087   4.673   8.607  1.4262 -1.9470 -1.1061
 1686SOL    HW216695   3.177   4.583   8.665  0.4533  1.9454 -0.9575
 1687SOL     OW16696   3.147   3.501   3.305 -0.4876  0.1521  0.2253
 1687SOL    HW116697   3.088   3.550   3.362  0.1253 -0.1336  1.1079
 1687SOL    HW216698   3.172   3.421   3.352 -1.5160  1.1940  2.5302
 1688SOL     OW16699   0.675   3.051  10.312  0.2148 -0.1593  0.2207
 1688SOL    HW116700   0.667   3.133  10.265 -0.3100 -0.6847 -0.6088
 1688SOL    HW216701   0.612   3.059  10.384 -2.6265 -0.1076 -2.3051
 1689SOL     OW16702   1.949   4.456   0.345  0.4663  0.0738  0.5380
 1689SOL    HW116703   2.005   4.504   0.284 -0.7928  2.2818  1.1381
 1689SOL    HW216704   1.879   4.434   0.283 -0.1143  0.3054  1.1130
 1690SOL     OW16705   0.238   0.958   4.825 -0.2582 -0.6427 -0.0294
 1690SOL    HW116706   0.157   0.907   4.815 -1.7217  1.6520  0.0982
 1690SOL    HW216707   0.297   0.927   4.757 -0.9842  2.9508 -2.2672
 1691SOL     OW16708   2.911   0.729   1.608 -0.1524 -0.1507 -0.2785
 1691SOL    HW116709   2.832   0.742   1.660  0.9105  0.5507  1.1479
 1691SOL    HW216710   2.969   0.675   1.661  0.2557 -0.0465 -0.6146
 1692SOL     OW16711   4.099   2.254  11.035 -0.4525  0.5740  0.2186
 1692SOL    HW116712   4.161   2.208  10.978  0.3554  0.2957  1.3271
 1692SOL    HW216713   4.065   2.179  11.083 -1.1675  0.9742  0.3512
 1693SOL     OW16714   4.199   2.627  13.968 -0.0533 -0.1730  0.3418
 1693SOL    HW116715   4.196   2.722  13.981  2.0761 -0.2646  1.4699
 1693SOL    HW216716   4.179   2.625  13.875  1.6475  1.0372 -0.0641
 1694SOL     OW16717   0.878   1.328   2.322  0.5540  0.1831  0.3569
 1694SOL    HW116718   0.827   1.395   2.277  0.6180 -0.2589 -0.3807
 1694SOL    HW216719   0.939   1.385   2.369  1.9270  0.2447 -1.4994
 1695SOL     OW16720   2.020   1.838   2.129  0.1066 -0.2973 -0.2981
 1695SOL    HW116721   2.038   1.930   2.152  1.3415 -0.6892  0.3150
 1695SOL    HW216722   1.998   1.849   2.037  2.3883 -0.8126 -0.8939
 1696SOL     OW16723   1.613   3.342   4.150  0.2835 -0.1105  0.4602
 1696SOL    HW116724   1.521   3.352   4.174  0.4874  1.1047  0.7531
 1696SOL    HW216725   1.637   3.262   4.196  0.6916 -2.2479 -3.4659
 1697SOL     OW16726   1.683   1.468   2.562 -0.2018 -0.4434 -0.2913
 1697SOL    HW116727   1.742   1.542   2.578 -0.5621  0.2338 -2.1518
 1697SOL    HW216728   1.738   1.391   2.578  0.3894 -0.1067 -0.7289
 1698SOL     OW16729   4.254   0.809   1.231 -0.9018 -0.4410 -0.2838
 1698SOL    HW116730   4.187   0.829   1.297  1.0958  0.4840  1.4551
 1698SOL    HW216731   4.318   0.800   1.302 -0.5636 -2.0634 -0.8009
 1699SOL     OW16732   0.627   2.236   4.595 -0.3065  0.0776 -0.1151
 1699SOL    HW116733   0.672   2.152   4.596  1.0213  0.7656 -1.2984
 1699SOL    HW216734   0.642   2.271   4.683  0.3145  2.1431 -1.0454
 1700SOL     OW16735   2.652   2.391   3.825 -0.1920 -0.0887 -0.2708
 1700SOL    HW116736   2.573   2.436   3.853  0.0561 -0.5505  1.1828
 1700SOL    HW216737   2.653   2.408   3.731 -1.9708 -0.9784 -0.4384
 1701SOL     OW16738   1.192   1.471   2.631 -1.2112 -0.2976 -0.0082
 1701SOL    HW116739   1.155   1.509   2.552 -0.2868  0.1657 -0.2101
 1701SOL    HW216740   1.194   1.376   2.617  0.2627  0.0679 -2.2621
 1702SOL     OW16741   3.865   1.545  13.656 -0.5255 -0.0829  0.0450
 1702SOL    HW116742   3.893   1.519  13.744  0.0171 -0.4481 -0.2309
 1702SOL    HW216743   3.771   1.547  13.670 -0.7878  0.7714 -1.8813
 1703SOL     OW16744   1.113   1.588   1.409 -0.1266  0.6533 -0.0785
 1703SOL    HW116745   1.028   1.562   1.373 -0.1574  1.3270 -0.4699
 1703SOL    HW216746   1.158   1.613   1.329 -0.0548 -0.5118 -0.4138
 1704SOL     OW16747   3.979   0.691   2.189 -0.0294 -0.6999 -0.7072
 1704SOL    HW116748   4.054   0.722   2.138  0.7589 -0.3292  0.6835
 1704SOL    HW216749   4.021   0.632   2.252  0.6583 -0.9960 -1.4264
 1705SOL     OW16750   0.572   2.262   5.082  0.1818  0.2468  0.4407
 1705SOL    HW116751   0.492   2.211   5.067  0.7241 -0.4171 -0.2229
 1705SOL    HW216752   0.573   2.293   5.172  1.2716 -0.0677  0.5386
 1706SOL     OW16753   4.256   2.179   4.106 -1.2143  0.3510  0.1027
 1706SOL    HW116754   4.205   2.227   4.171 -3.2487 -2.3108  0.4629
 1706SOL    HW216755   4.258   2.101   4.161  0.0370  0.0190 -0.4044
 1707SOL     OW16756   0.523   3.758   7.766  0.3006  0.0368  0.3736
 1707SOL    HW116757   0.613   3.749   7.735 -0.3245 -2.2974 -0.7418
 1707SOL    HW216758   0.478   3.694   7.711  0.4926  1.7307 -1.7855
 1708SOL     OW16759   0.101   4.473   5.136  0.0744 -0.3759  0.0243
 1708SOL    HW116760   0.026   4.454   5.078  0.7943  0.3795 -1.1478
 1708SOL    HW216761   0.061   4.551   5.175  2.0297 -0.0889  1.4286
 1709SOL     OW16762   4.601   2.665   7.858 -0.6035  0.8731 -0.3985
 1709SOL    HW116763   4.670   2.731   7.848 -1.0839  0.8128 -4.1096
 1709SOL    HW216764   4.647   2.588   7.892 -0.7080  1.1136  0.2878
 1710SOL     OW16765   4.625   4.568   3.306 -0.2483 -0.2938 -0.1262
 1710SOL    HW116766   4.531   4.564   3.289 -0.7626  0.3332  2.5844
 1710SOL    HW216767   4.661   4.498   3.252  0.7066 -0.0964  0.2604
 1711SOL     OW16768   2.947   2.558  11.907  0.3623  0.3797 -0.1420
 1711SOL    HW116769   2.970   2.560  11.814  2.4960 -0.6148  0.3638
 1711SOL    HW216770   3.005   2.492  11.945 -0.2027  0.7245  1.3129
 1712SOL     OW16771   2.803   4.596   1.691  0.2520  0.3862  0.0091
 1712SOL    HW116772   2.795   4.566   1.782 -3.5773  0.5054 -0.2917
 1712SOL    HW216773   2.859   4.671   1.710  0.7632  0.3315 -1.3029
 1713SOL     OW16774   2.861   0.346  14.937  0.5092  0.0663 -0.0705
 1713SOL    HW116775   2.867   0.258  14.899  1.4192  0.0258  0.1563
 1713SOL    HW216776   2.781   0.379  14.897  1.5308  0.7812 -1.5354
 1714SOL     OW16777   3.000   0.781   9.695 -0.3770 -0.3295  0.0313
 1714SOL    HW116778   2.919   0.823   9.724  1.0785  2.5718 -0.1430
 1714SOL    HW216779   3.019   0.840   9.622 -0.1817 -0.4738 -0.0355
 1715SOL     OW16780   0.886   0.075   6.943 -0.2661  0.0043 -0.1478
 1715SOL    HW116781   0.948   0.067   7.015 -0.3030 -0.8757 -0.2176
 1715SOL    HW216782   0.822   0.009   6.972 -0.3527  1.5364  3.1892
 1716SOL     OW16783   0.753   4.408   8.246 -0.2953 -0.5675  0.5377
 1716SOL    HW116784   0.822   4.341   8.249  0.7537  0.5773  1.9602
 1716SOL    HW216785   0.797   4.493   8.249  0.2814 -0.8444 -0.0031
 1717SOL     OW16786   0.757   1.541   2.980  0.7263  0.4922 -0.0547
 1717SOL    HW116787   0.782   1.449   2.976 -1.4418 -0.0368 -0.8191
 1717SOL    HW216788   0.752   1.580   2.893  1.4139  1.5098  0.3534
 1718SOL     OW16789   4.548   0.066   6.820 -0.2029 -0.0134 -0.0186
 1718SOL    HW116790   4.608   0.002   6.782 -1.7252 -2.5921  1.8293
 1718SOL    HW216791   4.585   0.087   6.906 -0.2676 -2.8875  0.7189
 1719SOL     OW16792   1.931   1.542  12.273 -0.8843 -0.3531 -0.1583
 1719SOL    HW116793   1.908   1.449  12.276  0.6648 -0.7610 -0.8632
 1719SOL    HW216794   2.008   1.541  12.215 -1.1124  3.4612 -0.5171
 1720SOL     OW16795   4.286   4.019   1.461  0.6638  0.0962 -0.0602
 1720SOL    HW116796   4.320   4.072   1.388 -3.3026  3.2442  0.3798
 1720SOL    HW216797   4.233   3.947   1.430 -0.0459  0.5056  0.2041
 1721SOL     OW16798   0.276   3.036  17.402  0.2548  0.3897 -0.2775
 1721SOL    HW116799   0.237   3.123  17.392 -0.7954  0.0387  0.7864
 1721SOL    HW216800   0.254   2.995  17.319 -0.4795  0.8243 -0.2993
 1722SOL     OW16801   4.217   3.078  10.038  0.0832 -0.2171 -1.1013
 1722SOL    HW116802   4.157   3.139   9.996 -1.7541  0.2053  2.1886
 1722SOL    HW216803   4.231   3.019   9.963 -1.6883 -1.6547 -0.2941
 1723SOL     OW16804   0.466   2.004  12.246  0.0537 -0.1179  0.8205
 1723SOL    HW116805   0.455   2.041  12.334 -4.8315 -1.3789  0.7391
 1723SOL    HW216806   0.404   1.932  12.253  1.8105 -1.9645 -2.5416
 1724SOL     OW16807   3.662   0.362   6.166 -0.4781 -0.5298 -0.4019
 1724SOL    HW116808   3.755   0.356   6.143 -0.6601 -0.0851 -1.2665
 1724SOL    HW216809   3.647   0.456   6.153  1.8872 -0.5223 -3.0624
 1725SOL     OW16810   1.774   0.382   5.215 -0.0309  0.3302 -0.1465
 1725SOL    HW116811   1.779   0.288   5.230  4.0861  0.5386 -0.0895
 1725SOL    HW216812   1.868   0.400   5.218  0.5514 -2.5753 -1.6680
 1726SOL     OW16813   3.299   4.491  17.277 -0.2533 -0.0699  1.0059
 1726SOL    HW116814   3.303   4.418  17.215  0.9204  1.1105 -0.3144
 1726SOL    HW216815   3.328   4.445  17.355  1.3086 -0.6113  0.1008
 1727SOL     OW16816   1.119   2.447   2.747  0.7530  0.8363 -0.2730
 1727SOL    HW116817   1.209   2.472   2.768  0.3366  0.2906  2.1848
 1727SOL    HW216818   1.122   2.358   2.782  1.9927  2.6661  4.2024
 1728SOL     OW16819   0.740   1.878   1.670 -0.6608 -0.4422  0.2151
 1728SOL    HW116820   0.827   1.877   1.630 -2.2080  1.4435 -3.2292
 1728SOL    HW216821   0.767   1.923   1.750 -0.5369  0.0977 -0.1270
 1729SOL     OW16822   1.481   1.876  12.571  0.1192 -0.0181  0.6204
 1729SOL    HW116823   1.546   1.925  12.521 -0.5431 -1.1446 -1.3243
 1729SOL    HW216824   1.518   1.864  12.659  0.0660  1.8427  0.9010
 1730SOL     OW16825   3.927   2.573  13.836 -0.6091 -0.2405  0.0385
 1730SOL    HW116826   3.925   2.581  13.931 -0.0194 -0.5170  0.0724
 1730SOL    HW216827   3.952   2.480  13.833 -0.1652 -0.1670  1.6347
 1731SOL     OW16828   2.093   0.933   7.082  0.2440 -0.5795  0.7346
 1731SOL    HW116829   2.035   0.893   7.017 -0.0655  0.0703  0.6101
 1731SOL    HW216830   2.029   0.986   7.130  0.5085  0.7126 -0.3719
 1732SOL     OW16831   2.019   4.098   3.399  0.0338 -0.0168  0.0937
 1732SOL    HW116832   2.038   4.090   3.492 -0.8357 -1.3072  0.1537
 1732SOL    HW216833   2.010   4.193   3.395 -0.8742 -0.1058 -0.0840
 1733SOL     OW16834   0.022   4.184   8.168 -0.6148  0.2537 -0.2101
 1733SOL    HW116835   4.681   4.191   8.116 -1.0268 -0.5620  0.3076
 1733SOL    HW216836   0.007   4.091   8.188  0.6966  0.5802  2.3255
 1734SOL     OW16837   1.837   3.712   4.082 -0.1159  0.0692  0.4277
 1734SOL    HW116838   1.917   3.743   4.040 -2.4038  3.3562 -1.5083
 1734SOL    HW216839   1.860   3.621   4.104  0.7743 -0.3342 -2.1927
 1735SOL     OW16840   1.998   3.688   9.408 -0.0104 -0.5876 -0.2817
 1735SOL    HW116841   1.920   3.713   9.359  0.3369 -0.0559 -0.5570
 1735SOL    HW216842   2.050   3.648   9.338  2.2762 -1.6293  1.9738
 1736SOL     OW16843   2.894   3.800   0.556 -0.1782  0.1754  0.5140
 1736SOL    HW116844   2.895   3.749   0.637  1.2354 -1.4016 -0.4801
 1736SOL    HW216845   2.926   3.884   0.591  0.4560  0.9482 -1.9037
 1737SOL     OW16846   0.883   3.149   2.496 -0.6059  0.6682  0.1427
 1737SOL    HW116847   0.938   3.211   2.543  0.9212 -1.0921  0.6802
 1737SOL    HW216848   0.890   3.177   2.405 -1.2616 -0.5003 -0.2725
 1738SOL     OW16849   1.601   0.333  16.785 -0.3624  0.1246  0.3150
 1738SOL    HW116850   1.608   0.255  16.730 -2.2907 -0.6066  1.1249
 1738SOL    HW216851   1.579   0.403  16.724 -0.3627  0.8726  1.1667
 1739SOL     OW16852   1.838   0.805   7.029 -0.0850  0.8378  0.3324
 1739SOL    HW116853   1.749   0.824   7.060 -0.0180  0.4995  0.7340
 1739SOL    HW216854   1.871   0.739   7.090 -0.6023  0.5663  0.3156
 1740SOL     OW16855   2.898   1.772   8.572  0.4887  0.0057 -0.0782
 1740SOL    HW116856   2.846   1.696   8.546 -1.3913  1.7393 -1.3207
 1740SOL    HW216857   2.829   1.826   8.611  0.0128 -0.1371 -0.7212
 1741SOL     OW16858   4.028   0.224  13.346 -0.0239 -0.0847  0.1335
 1741SOL    HW116859   4.029   0.314  13.379  0.4489 -0.1937  0.4094
 1741SOL    HW216860   4.081   0.233  13.266 -0.5829 -0.5295 -0.2882
 1742SOL     OW16861   3.782   4.397  10.414 -0.2769  0.2168  0.5681
 1742SOL    HW116862   3.858   4.355  10.373 -0.4085  0.6347 -0.1039
 1742SOL    HW216863   3.737   4.339  10.476  0.7067  1.2338  2.2207
 1743SOL     OW16864   0.431   0.974  17.720 -0.0248 -0.0622 -0.5721
 1743SOL    HW116865   0.381   0.967  17.639 -0.7306 -2.6145  0.0532
 1743SOL    HW216866   0.503   1.030  17.691 -0.3527  1.3321  1.3147
 1744SOL     OW16867   4.161   2.249  12.753  0.0912  0.2505  0.5362
 1744SOL    HW116868   4.235   2.297  12.717  0.3768 -0.2891  0.4058
 1744SOL    HW216869   4.098   2.311  12.715  0.9412 -2.2088 -4.9245
 1745SOL     OW16870   1.228   4.332   2.730 -0.3321 -0.2155 -0.5255
 1745SOL    HW116871   1.323   4.345   2.732 -0.5309  0.9433  1.7232
 1745SOL    HW216872   1.188   4.411   2.693 -3.0238 -0.9681  0.7938
 1746SOL     OW16873   0.072   1.916   5.025 -0.3346  0.3799 -0.3754
 1746SOL    HW116874   4.737   1.933   5.083  0.2834 -2.7382  1.3433
 1746SOL    HW216875   0.146   1.919   5.086 -1.7625  1.4460  1.2837
 1747SOL     OW16876   2.446   0.432   7.194  0.4116 -0.6496  0.2019
 1747SOL    HW116877   2.460   0.418   7.100  1.9730  0.2824  0.2939
 1747SOL    HW216878   2.380   0.365   7.211  0.3352 -0.1299  1.9381
 1748SOL     OW16879   1.280   0.137   5.276  0.4625 -0.2546  0.6772
 1748SOL    HW116880   1.331   0.137   5.357  0.7656 -3.7887  0.5119
 1748SOL    HW216881   1.332   0.067   5.236 -2.0082 -1.7948  0.1453
 1749SOL     OW16882   3.600   1.758  13.490  0.6056  0.7413  0.5148
 1749SOL    HW116883   3.673   1.819  13.496  1.8589 -0.7527  0.3601
 1749SOL    HW216884   3.614   1.732  13.399  2.3697 -2.6277  1.7409
 1750SOL     OW16885   2.280   0.103   8.089  0.1946  1.0405  0.6811
 1750SOL    HW116886   2.219   0.060   8.148  0.3075 -2.5011 -1.7930
 1750SOL    HW216887   2.265   0.193   8.121  0.6340  1.4501 -0.2631
 1751SOL     OW16888   0.173   3.040  17.133  0.4676  0.1153 -0.2474
 1751SOL    HW116889   0.118   3.039  17.211  0.6817  0.1307 -0.0946
 1751SOL    HW216890   0.123   2.991  17.068  1.8941 -0.2506 -1.0596
 1752SOL     OW16891   4.131   4.321   3.460  0.2736  0.2826 -0.1779
 1752SOL    HW116892   4.141   4.344   3.552  1.9392 -4.6768  0.9180
 1752SOL    HW216893   4.038   4.327   3.437  0.0840 -2.0466 -0.0932
 1753SOL     OW16894   1.175   3.597  16.167 -0.2022  0.4416  0.2166
 1753SOL    HW116895   1.198   3.596  16.074 -0.4244  0.1183  0.1620
 1753SOL    HW216896   1.095   3.649  16.158 -0.5048  0.0905  0.9000
 1754SOL     OW16897   3.881   4.197  10.126 -0.0895 -0.1938 -0.3354
 1754SOL    HW116898   3.926   4.196  10.210 -0.0349  1.4734 -0.3588
 1754SOL    HW216899   3.958   4.188  10.071  0.0110 -0.0545 -0.2173
 1755SOL     OW16900   4.261   2.545  14.227 -0.0320  0.1363  1.1942
 1755SOL    HW116901   4.320   2.607  14.270 -0.2881  1.1154  0.1353
 1755SOL    HW216902   4.276   2.574  14.137 -0.4065 -0.1943  1.0262
 1756SOL     OW16903   2.792   0.694   2.359 -0.2257  0.2015  0.2362
 1756SOL    HW116904   2.714   0.662   2.314 -0.3882  0.8810  0.0269
 1756SOL    HW216905   2.773   0.788   2.365 -0.9684 -0.0211  1.5073
 1757SOL     OW16906   1.788   4.181   0.860  0.8007 -0.5016  0.3093
 1757SOL    HW116907   1.822   4.095   0.834 -1.1422 -2.0992  3.0737
 1757SOL    HW216908   1.817   4.202   0.948 -0.9116 -0.3879  0.8545
 1758SOL     OW16909   2.935   0.220   5.345  0.4848 -0.3930  0.3965
 1758SOL    HW116910   2.895   0.251   5.264 -0.1446  2.2694  1.7211
 1758SOL    HW216911   3.025   0.253   5.349  0.4885 -0.6379  2.2493
 1759SOL     OW16912   0.238   2.498   9.460  0.2366 -0.3550 -0.0679
 1759SOL    HW116913   0.264   2.474   9.549  0.2868  0.6974  0.2038
 1759SOL    HW216914   0.266   2.418   9.416  0.8629 -0.1767 -0.0052
 1760SOL     OW16915   3.834   0.069  17.383 -0.7194  0.6482  0.0814
 1760SOL    HW116916   3.824   0.068  17.478 -4.2987 -0.3934 -0.2935
 1760SOL    HW216917   3.903   0.134  17.393 -0.8455  0.6799  0.7456
 1761SOL     OW16918   0.633   3.366   9.273  0.4322 -0.5654  0.4017
 1761SOL    HW116919   0.589   3.289   9.306 -1.3912 -0.1215 -1.0199
 1761SOL    HW216920   0.706   3.369   9.335  0.2834 -1.3497  0.6050
 1762SOL     OW16921   3.489   1.020   6.387  0.1257 -0.4106  0.2222
 1762SOL    HW116922   3.522   1.079   6.320 -2.3271 -0.4472 -1.0171
 1762SOL    HW216923   3.411   0.985   6.345  0.4987 -0.9793  0.0158
 1763SOL     OW16924   3.186   0.677   6.603 -0.6000 -0.0306  0.5569
 1763SOL    HW116925   3.219   0.765   6.623  2.9672 -1.6201  1.6248
 1763SOL    HW216926   3.096   0.683   6.635 -1.2185  2.5251 -1.5750
 1764SOL     OW16927   0.904   1.184   2.622  0.0996 -0.0246 -0.1080
 1764SOL    HW116928   0.858   1.104   2.598  0.9882 -0.0381 -1.7693
 1764SOL    HW216929   0.948   1.159   2.703  1.8740  0.9003 -0.7818
 1765SOL     OW16930   0.355   0.966   5.679  0.2310 -0.1289 -0.5958
 1765SOL    HW116931   0.344   0.942   5.587 -1.6515 -1.1662 -0.1141
 1765SOL    HW216932   0.398   0.884   5.702  0.8319  0.0865 -0.9696
 1766SOL     OW16933   0.773   2.324   7.825 -0.3982 -0.4999 -0.2098
 1766SOL    HW116934   0.723   2.242   7.824 -0.1352 -0.6749  0.9635
 1766SOL    HW216935   0.745   2.357   7.740  2.7726  0.6214 -0.8070
 1767SOL     OW16936   2.604   4.365  11.111 -0.2729  0.2778 -0.3412
 1767SOL    HW116937   2.521   4.398  11.078  0.1455  1.3944 -0.2739
 1767SOL    HW216938   2.584   4.350  11.204  1.3668  1.0099  0.1410
 1768SOL     OW16939   4.582   4.238   7.252  0.4992 -0.0273 -0.1718
 1768SOL    HW116940   4.495   4.269   7.227  0.1434  0.1312  1.2472
 1768SOL    HW216941   4.628   4.321   7.240  0.8097 -0.3056 -0.9265
 1769SOL     OW16942   1.428   4.154   7.092  0.1433  0.3546  0.0085
 1769SOL    HW116943   1.436   4.156   6.997 -0.7546  0.4925 -0.0731
 1769SOL    HW216944   1.335   4.180   7.091  0.5455  1.8166  0.5241
 1770SOL     OW16945   1.158   0.454  14.616  0.5872 -0.1141  0.1404
 1770SOL    HW116946   1.120   0.367  14.629 -2.3213  1.1549  0.2172
 1770SOL    HW216947   1.077   0.503  14.599  0.4741 -0.1513  0.5752
 1771SOL     OW16948   3.112   4.497   9.377  0.0335 -0.0199 -0.4449
 1771SOL    HW116949   3.019   4.472   9.379  0.1243 -0.3002  0.1363
 1771SOL    HW216950   3.120   4.536   9.464  0.0605 -2.1386  0.5082
 1772SOL     OW16951   4.135   1.306   4.981 -0.0571 -0.1862  0.1066
 1772SOL    HW116952   4.139   1.234   4.917 -1.2885 -1.9027  1.9519
 1772SOL    HW216953   4.224   1.305   5.015  0.0538 -0.4384 -0.1858
 1773SOL     OW16954   4.662   2.404   3.394  0.1394 -0.7381 -0.1013
 1773SOL    HW116955   4.685   2.311   3.388 -0.5046 -0.8887 -0.3341
 1773SOL    HW216956   4.616   2.417   3.310 -1.0102  0.8031  0.7646
 1774SOL     OW16957   1.077   3.143   5.677  0.2438  0.6523 -0.3014
 1774SOL    HW116958   1.119   3.118   5.595 -2.6755  1.6137 -2.0820
 1774SOL    HW216959   1.096   3.237   5.687  2.4699 -0.1477  3.1793
 1775SOL     OW16960   3.624   3.924   6.382 -0.5662 -0.1874  0.0323
 1775SOL    HW116961   3.717   3.911   6.363  0.0917  1.9245  1.7939
 1775SOL    HW216962   3.627   4.014   6.416  0.3056 -0.2210  0.0454
 1776SOL     OW16963   1.559   3.079   7.379 -0.0677 -0.3639  0.6275
 1776SOL    HW116964   1.490   3.101   7.317 -0.3699  1.5751  1.6550
 1776SOL    HW216965   1.546   3.130   7.459 -1.4287  0.9168 -0.4174
 1777SOL     OW16966   0.504   3.041   6.136 -0.6387  0.3461  0.4283
 1777SOL    HW116967   0.495   3.029   6.041  2.1704  0.5419  0.1494
 1777SOL    HW216968   0.417   3.081   6.139 -0.6803  0.3884 -1.3137
 1778SOL     OW16969   0.589   1.187   8.460 -0.0105 -0.3222 -0.5899
 1778SOL    HW116970   0.620   1.264   8.507 -1.6306  1.6492 -2.7587
 1778SOL    HW216971   0.656   1.123   8.485 -0.4371 -0.5425  0.0081
 1779SOL     OW16972   2.047   2.384   7.537 -0.3847  0.4468 -0.0724
 1779SOL    HW116973   2.110   2.408   7.468  0.6325  0.2757  0.7981
 1779SOL    HW216974   1.996   2.463   7.555 -1.2717  0.2234 -1.5748
 1780SOL     OW16975   2.989   2.959  15.353  0.2247 -0.5196  0.3853
 1780SOL    HW116976   2.910   2.963  15.407 -0.4958  0.4927 -0.7377
 1780SOL    HW216977   3.029   2.874  15.370  0.2227 -1.1086 -2.5961
 1781SOL     OW16978   3.662   4.008  15.569 -0.5324 -0.1973 -0.1171
 1781SOL    HW116979   3.710   4.058  15.502 -0.2299  0.9139  0.9320
 1781SOL    HW216980   3.628   3.923  15.541 -0.7859  0.3098 -1.3547
 1782SOL     OW16981   4.457   3.236   0.225 -0.1875 -0.3062  0.0531
 1782SOL    HW116982   4.421   3.147   0.215  0.6154 -0.8050  1.6752
 1782SOL    HW216983   4.520   3.237   0.153  0.1886  0.1322  0.3856
 1783SOL     OW16984   3.411   2.519  11.127 -0.1602  0.2488 -0.2787
 1783SOL    HW116985   3.477   2.462  11.168 -0.2430 -0.8705 -1.6955
 1783SOL    HW216986   3.364   2.446  11.086 -1.5428  1.3903 -0.7198
 1784SOL     OW16987   4.659   1.670  16.210  0.0637  0.3748  0.1761
 1784SOL    HW116988   4.736   1.681  16.154  1.0521 -0.0113  1.4850
 1784SOL    HW216989   4.615   1.754  16.220 -0.3897  0.2208 -0.4757
 1785SOL     OW16990   1.540   4.117   8.130  0.2094  0.0512 -0.5247
 1785SOL    HW116991   1.467   4.056   8.127  0.0164  0.2198  1.0448
 1785SOL    HW216992   1.610   4.066   8.090 -1.6499 -1.9180 -1.2235
 1786SOL     OW16993   2.802   4.099   5.354 -0.8963 -0.0355  0.0907
 1786SOL    HW116994   2.888   4.141   5.356 -0.3589 -1.2110  2.1898
 1786SOL    HW216995   2.824   4.006   5.346 -0.4477 -0.1543  2.7413
 1787SOL     OW16996   3.076   1.970  11.574 -0.0494  0.2539  0.0979
 1787SOL    HW116997   3.087   1.996  11.665 -0.7733 -0.3511  0.3632
 1787SOL    HW216998   3.163   1.984  11.537  0.7264  0.4721  2.0058
 1788SOL     OW16999   3.032   1.190   0.065  0.0639  0.0843 -0.2170
 1788SOL    HW117000   3.107   1.235   0.105  1.6471 -0.0632 -2.9989
 1788SOL    HW217001   3.049   1.102   0.100  0.8054  0.8019  1.2608
 1789SOL     OW17002   3.008   3.602   9.834 -0.2786  0.2091 -0.5570
 1789SOL    HW117003   3.023   3.683   9.787 -1.1584  1.5371  1.4486
 1789SOL    HW217004   3.056   3.624   9.914  0.5846  4.6990 -2.3263
 1790SOL     OW17005   0.538   0.123   7.072 -0.2254  0.1248  0.4573
 1790SOL    HW117006   0.452   0.151   7.104 -1.2356 -0.2254 -1.9858
 1790SOL    HW217007   0.510   0.036   7.043  0.7544 -0.4684  1.2657
 1791SOL     OW17008   1.698   1.888   8.182 -0.1278 -0.5064 -0.6492
 1791SOL    HW117009   1.631   1.858   8.244 -1.8042  0.6923 -1.8515
 1791SOL    HW217010   1.777   1.847   8.217  0.3018  0.8222 -0.0503
 1792SOL     OW17011   0.725   2.066   3.244  0.1762  0.3678  0.4277
 1792SOL    HW117012   0.818   2.081   3.226  0.5510 -0.9664  1.2903
 1792SOL    HW217013   0.712   2.009   3.168  0.6259  1.4645 -0.4848
 1793SOL     OW17014   4.557   4.342  17.581  0.7513 -0.3421  0.4224
 1793SOL    HW117015   4.588   4.430  17.558  0.9684 -0.7874 -0.9903
 1793SOL    HW217016   4.634   4.286  17.566  0.3863 -1.0854  1.3266
 1794SOL     OW17017   3.696   4.406   2.440  0.2212 -0.0570 -0.3377
 1794SOL    HW117018   3.707   4.470   2.369  0.6122  1.3357  0.9873
 1794SOL    HW217019   3.676   4.330   2.384 -0.9261  0.7099 -0.9546
 1795SOL     OW17020   2.554   0.548   2.274 -0.1966  0.1212  0.2823
 1795SOL    HW117021   2.510   0.627   2.244  1.5189  0.4578 -1.3405
 1795SOL    HW217022   2.521   0.481   2.213 -1.1364  2.3549 -1.6386
 1796SOL     OW17023   3.623   0.915   5.250  0.0218  0.4482  0.0747
 1796SOL    HW117024   3.530   0.893   5.249 -0.0676  0.7642  1.2432
 1796SOL    HW217025   3.626   0.980   5.321  0.8437  0.2013  0.2604
 1797SOL     OW17026   1.565   0.963   2.937 -0.1057 -0.6244  0.6088
 1797SOL    HW117027   1.550   1.042   2.884 -1.6329 -0.5916  1.0696
 1797SOL    HW217028   1.481   0.918   2.936 -0.7675  0.7076 -2.4612
 1798SOL     OW17029   0.447   3.977   6.956 -0.1026 -0.3806 -0.0903
 1798SOL    HW117030   0.403   3.997   7.038 -0.9475 -0.9046 -0.4207
 1798SOL    HW217031   0.494   4.061   6.953 -0.6904 -0.0088  1.3716
 1799SOL     OW17032   2.574   4.577   7.069 -0.2316 -0.1034  0.1027
 1799SOL    HW117033   2.570   4.671   7.056  0.2695 -0.0565  0.3147
 1799SOL    HW217034   2.576   4.564   7.164 -0.0027  0.5079  0.1777
 1800SOL     OW17035   4.051   4.662  14.485  0.1505  0.3144 -0.0237
 1800SOL    HW117036   3.969   4.675  14.438 -0.6293 -0.0886  1.2202
 1800SOL    HW217037   4.120   4.663  14.419  0.6821  2.0796  0.5570
 1801SOL     OW17038   2.326   4.426   5.314  0.2213  0.3509 -0.0965
 1801SOL    HW117039   2.409   4.382   5.335 -0.6497 -1.0063  0.4624
 1801SOL    HW217040   2.275   4.388   5.385  1.3807  0.3467  0.7344
 1802SOL     OW17041   4.654   0.787  10.135  0.2720  0.0478  0.0886
 1802SOL    HW117042   4.683   0.876  10.155  0.1462 -0.3360  1.9695
 1802SOL    HW217043   4.717   0.759  10.069 -0.6268  1.3149 -1.2842
 1803SOL     OW17044   3.239   1.167   2.478  0.1162 -0.3397  0.3738
 1803SOL    HW117045   3.174   1.223   2.436  0.3114  2.0440  3.2168
 1803SOL    HW217046   3.306   1.180   2.410  0.6738  0.2795  1.0388
 1804SOL     OW17047   2.779   0.282   6.062 -0.0388  0.6604 -0.2300
 1804SOL    HW117048   2.849   0.297   5.998 -0.7446 -1.1429 -1.4158
 1804SOL    HW217049   2.829   0.222   6.117  1.4442  2.1021 -0.0244
 1805SOL     OW17050   2.937   3.916   7.149  0.4963 -0.1652  0.3022
 1805SOL    HW117051   2.848   3.929   7.116  0.3566 -2.4683 -0.2460
 1805SOL    HW217052   2.986   3.937   7.069 -1.3021  3.6877  0.2071
 1806SOL     OW17053   1.107   0.070   4.998 -0.4765 -0.2042 -0.6003
 1806SOL    HW117054   1.146   0.057   5.085 -2.2275  1.0647  0.3757
 1806SOL    HW217055   1.187   0.103   4.956  0.0826  1.1282  1.5217
 1807SOL     OW17056   0.091   4.734   9.623 -0.1555 -0.2137  0.2766
 1807SOL    HW117057   0.088   0.054   9.548 -1.6097  1.2536  1.4790
 1807SOL    HW217058   0.000   4.735   9.652 -0.1464 -1.0267  0.3472
 1808SOL     OW17059   1.858   0.663   9.165 -0.4757  0.2344 -0.2940
 1808SOL    HW117060   1.881   0.578   9.127 -0.2317 -0.6028  1.6995
 1808SOL    HW217061   1.939   0.693   9.207 -0.0898 -2.2342  0.7327
 1809SOL     OW17062   0.138   4.065   8.537 -0.4604 -0.3770 -0.1744
 1809SOL    HW117063   0.053   4.023   8.523 -1.1700  1.0885 -0.3893
 1809SOL    HW217064   0.165   4.036   8.624 -0.5653 -0.0242 -0.0232
 1810SOL     OW17065   1.455   1.411   4.194 -0.3166 -0.2402  0.2519
 1810SOL    HW117066   1.508   1.453   4.126  2.4088 -0.2835  2.3357
 1810SOL    HW217067   1.380   1.467   4.176 -1.1171 -1.9250 -1.5471
 1811SOL     OW17068   1.378   2.860   7.508  0.0532 -0.2584 -0.0865
 1811SOL    HW117069   1.441   2.830   7.574  0.2555  1.2637  0.4233
 1811SOL    HW217070   1.431   2.933   7.477 -1.0830  0.8539  0.5951
 1812SOL     OW17071   2.496   4.669   9.210  0.1783  0.2992 -0.3304
 1812SOL    HW117072   2.573   4.618   9.185  1.1499  2.4056 -1.6846
 1812SOL    HW217073   2.533   0.019   9.200 -1.6849  1.2920  1.6379
 1813SOL     OW17074   0.647   2.551   5.507 -0.2574 -0.6151 -0.4140
 1813SOL    HW117075   0.678   2.635   5.474  0.0143 -0.4848  0.1860
 1813SOL    HW217076   0.733   2.524   5.541 -0.0752 -0.5846 -0.8404
 1814SOL     OW17077   3.295   1.436   0.773  0.1732 -0.2795  0.6321
 1814SOL    HW117078   3.334   1.431   0.860 -0.7070 -0.8663  0.9939
 1814SOL    HW217079   3.349   1.508   0.739  2.4716 -1.7848  1.1458
 1815SOL     OW17080   2.599   1.575   3.020 -0.7481  0.1331  0.4892
 1815SOL    HW117081   2.576   1.623   2.941  1.1747  0.0586 -0.1248
 1815SOL    HW217082   2.513   1.551   3.055 -1.3671  3.4426  1.2077
 1816SOL     OW17083   0.741   3.533  13.083  0.0038 -0.3142  0.6488
 1816SOL    HW117084   0.814   3.571  13.131  0.1132 -0.3692  0.5234
 1816SOL    HW217085   0.688   3.470  13.133  1.1938 -1.1218  0.9075
 1817SOL     OW17086   1.105   0.049   5.564 -0.0717  0.2449  0.0313
 1817SOL    HW117087   1.195   0.029   5.539 -0.2766 -2.5052  1.5006
 1817SOL    HW217088   1.084   4.718   5.626  0.1141  0.1380 -0.0275
 1818SOL     OW17089   3.655   4.181   2.291  0.5791  0.5433 -0.0113
 1818SOL    HW117090   3.592   4.126   2.244  1.2390  0.0214 -0.2770
 1818SOL    HW217091   3.734   4.169   2.238  0.9184 -1.4298  0.9680
 1819SOL     OW17092   2.666   3.305   6.165  0.2366  0.2125 -0.2051
 1819SOL    HW117093   2.727   3.271   6.231 -0.6193  0.5691  0.7660
 1819SOL    HW217094   2.611   3.227   6.160 -0.6692  0.8375  0.0003
 1820SOL     OW17095   0.999   3.933   7.293 -0.3697  0.1857  0.4321
 1820SOL    HW117096   0.961   3.998   7.234 -1.2354 -1.1253 -0.4723
 1820SOL    HW217097   0.965   3.851   7.256 -0.1756  0.5882 -0.6366
 1821SOL     OW17098   0.524   2.398   9.122  0.2765 -0.1479 -0.2434
 1821SOL    HW117099   0.448   2.395   9.065 -2.4665  2.4679  3.3602
 1821SOL    HW217100   0.553   2.307   9.117 -2.8132 -1.2811  2.7758
 1822SOL     OW17101   0.969   0.308   4.728  0.0935  0.0315 -0.1212
 1822SOL    HW117102   1.060   0.283   4.741 -0.0485  0.2189  1.1556
 1822SOL    HW217103   0.934   0.226   4.692  4.1348 -0.7997 -2.1687
 1823SOL     OW17104   0.069   2.919   7.467 -0.0606  0.1856  0.2031
 1823SOL    HW117105   0.095   2.859   7.537  1.1341  0.2669 -0.1774
 1823SOL    HW217106   0.129   2.993   7.477 -0.6345  0.1232  3.9405
 1824SOL     OW17107   1.010   3.979   9.245 -0.2716 -0.6043 -0.0293
 1824SOL    HW117108   0.960   3.898   9.231 -0.1250 -0.9199  1.2124
 1824SOL    HW217109   0.961   4.016   9.319 -0.6919 -1.3320  0.0591
 1825SOL     OW17110   1.715   2.850  12.946 -0.1101  0.4194  0.0005
 1825SOL    HW117111   1.629   2.826  12.982 -0.3654  0.2239 -0.7430
 1825SOL    HW217112   1.748   2.901  13.020 -1.7427  2.1326 -0.4652
 1826SOL     OW17113   0.674   3.801   2.780 -0.5783 -0.3757  0.3186
 1826SOL    HW117114   0.630   3.759   2.707  0.0030 -0.4137 -0.0140
 1826SOL    HW217115   0.733   3.854   2.726 -1.5233  1.4942  1.1459
 1827SOL     OW17116   0.376   1.367   2.477  0.6191 -0.4374  0.5292
 1827SOL    HW117117   0.335   1.351   2.392  2.3924  0.6849 -0.5242
 1827SOL    HW217118   0.417   1.452   2.463  0.3709 -0.4820 -0.5184
 1828SOL     OW17119   2.913   4.179   1.679  0.2743  0.5713  0.2068
 1828SOL    HW117120   2.908   4.204   1.771 -0.2012 -1.7857  0.8352
 1828SOL    HW217121   2.986   4.228   1.643  0.2191  0.9752  0.6518
 1829SOL     OW17122   0.920   1.528   4.544  0.6812 -0.1468  0.6112
 1829SOL    HW117123   0.905   1.449   4.493 -1.3334  1.0314 -0.6562
 1829SOL    HW217124   0.997   1.506   4.596 -0.7898  0.1860  2.9252
 1830SOL     OW17125   0.786   0.774   8.261  0.3284 -0.2438 -0.0442
 1830SOL    HW117126   0.837   0.694   8.276  0.6352 -0.1083 -0.3759
 1830SOL    HW217127   0.856   0.839   8.261 -0.6712  0.8388  0.6639
 1831SOL     OW17128   2.094   3.899   0.179  0.0715  0.2246 -0.4669
 1831SOL    HW117129   2.017   3.955   0.180  0.0737  0.2393 -1.8189
 1831SOL    HW217130   2.164   3.963   0.186 -1.1345  1.7344 -2.4200
 1832SOL     OW17131   2.593   0.025   2.291  0.4928  0.1472 -1.0912
 1832SOL    HW117132   2.612   4.671   2.305  2.3656  0.5327 -1.0810
 1832SOL    HW217133   2.500   0.031   2.315  0.8152  0.3388  0.0960
 1833SOL     OW17134   4.228   4.335   6.633  0.1923  0.3599  0.2815
 1833SOL    HW117135   4.282   4.282   6.691 -1.2238  0.7163  1.9491
 1833SOL    HW217136   4.290   4.371   6.570  0.1930 -5.3650 -2.9039
 1834SOL     OW17137   3.678   0.670   2.979 -0.6100 -0.1531 -0.8252
 1834SOL    HW117138   3.668   0.576   2.990 -3.9046  0.2370 -0.5766
 1834SOL    HW217139   3.590   0.697   3.005 -0.3504  0.0424 -0.1493
 1835SOL     OW17140   1.219   2.918   6.248  0.0412  0.2935  0.4594
 1835SOL    HW117141   1.154   2.855   6.219 -0.1673  0.2997  0.9290
 1835SOL    HW217142   1.293   2.864   6.275  1.1777  0.2888 -2.6816
 1836SOL     OW17143   0.247   3.991   9.985  0.0615  0.1306  0.0315
 1836SOL    HW117144   0.229   3.958  10.073 -0.4202  0.0428 -0.1008
 1836SOL    HW217145   0.159   4.007   9.951 -0.6282  1.6997  2.5761
 1837SOL     OW17146   3.950   3.124   4.890  0.4059  0.3385 -0.3794
 1837SOL    HW117147   4.031   3.092   4.849  1.1351  0.3790  0.9999
 1837SOL    HW217148   3.953   3.081   4.976 -0.3358  2.6491  0.8212
 1838SOL     OW17149   3.128   0.180   4.794 -0.1407 -0.1873  0.2497
 1838SOL    HW117150   3.099   0.271   4.782  0.2912 -0.1368 -0.4259
 1838SOL    HW217151   3.136   0.153   4.702 -3.3988  1.3571 -0.4775
 1839SOL     OW17152   0.971   1.598   7.072  0.2422  0.0727 -0.0068
 1839SOL    HW117153   1.062   1.591   7.102  0.7357 -0.0038 -1.5445
 1839SOL    HW217154   0.933   1.603   7.160  0.0707  1.3983 -0.1536
 1840SOL     OW17155   1.780   1.427   4.505 -0.2591 -0.2735  0.6405
 1840SOL    HW117156   1.758   1.517   4.528 -0.7716 -0.0324 -0.7838
 1840SOL    HW217157   1.868   1.416   4.542  0.1398 -3.5151 -1.2942
 1841SOL     OW17158   3.618   0.239   3.535  0.3338  0.0092  0.1607
 1841SOL    HW117159   3.622   0.147   3.561  2.5253  0.3165  0.9543
 1841SOL    HW217160   3.588   0.281   3.615  0.0969 -0.3963  0.2858
 1842SOL     OW17161   3.520   0.340   2.789 -0.0861 -0.1004  0.8159
 1842SOL    HW117162   3.535   0.366   2.880  1.9814  0.4806  0.2991
 1842SOL    HW217163   3.523   0.245   2.797  5.1453 -0.0677 -0.3583
 1843SOL     OW17164   2.685   1.692  10.479 -0.3739 -0.0961 -0.5136
 1843SOL    HW117165   2.702   1.615  10.425  2.6948 -0.3940  0.8924
 1843SOL    HW217166   2.605   1.669  10.528 -1.2853 -0.3776 -2.1429
 1844SOL     OW17167   1.239   3.937   7.834  0.2947 -0.2936  0.0947
 1844SOL    HW117168   1.219   3.843   7.827  0.9529 -0.4779  0.7026
 1844SOL    HW217169   1.335   3.933   7.838  0.4837  1.8054 -2.4273
 1845SOL     OW17170   2.783   3.667   5.139 -0.1362  1.3593  0.1519
 1845SOL    HW117171   2.807   3.672   5.231  0.5330 -1.2254  0.1272
 1845SOL    HW217172   2.846   3.724   5.095 -0.5358  1.0470 -0.8310
 1846SOL     OW17173   1.351   4.413   5.014 -0.5045 -0.1093  0.4428
 1846SOL    HW117174   1.306   4.347   5.067  1.3155 -1.0798  0.7865
 1846SOL    HW217175   1.280   4.444   4.957  0.7460  1.2879 -0.3697
 1847SOL     OW17176   4.108   1.288   2.916 -0.0903 -0.0854  0.0719
 1847SOL    HW117177   4.109   1.308   2.823 -1.2388 -1.1266 -0.1821
 1847SOL    HW217178   4.021   1.250   2.934  1.2256 -2.6872  0.9804
 1848SOL     OW17179   0.517   2.131  12.510 -0.0178  0.0138 -0.6452
 1848SOL    HW117180   0.604   2.097  12.491 -0.1058 -0.8944  0.5164
 1848SOL    HW217181   0.483   2.043  12.526  0.9952  0.0177  1.4731
 1849SOL     OW17182   0.908   3.097   4.025  0.2351 -0.1661 -0.0315
 1849SOL    HW117183   0.895   3.071   4.116 -1.4631  1.2151  0.1191
 1849SOL    HW217184   0.840   3.044   3.984  1.1974 -1.1647 -0.3553
 1850SOL     OW17185   2.474   4.504   4.029  0.0339 -0.3842  0.3526
 1850SOL    HW117186   2.381   4.523   4.036  0.1430  0.2522  0.0762
 1850SOL    HW217187   2.481   4.424   3.977  0.8926  1.3779 -2.3030
 1851SOL     OW17188   1.048   3.009   8.371 -0.4508  0.0987 -0.0378
 1851SOL    HW117189   1.096   3.067   8.430 -1.0658 -0.5652  1.1124
 1851SOL    HW217190   1.114   3.008   8.301 -1.9203  1.5488 -1.4285
 1852SOL     OW17191   0.402   1.980   8.365 -0.6295 -0.7586  0.3727
 1852SOL    HW117192   0.424   1.991   8.273 -0.8666 -1.1871  0.2646
 1852SOL    HW217193   0.404   2.071   8.395 -0.3308 -0.6631  0.0691
 1853SOL     OW17194   3.225   1.433   3.047 -0.4613 -0.6315 -0.2477
 1853SOL    HW117195   3.138   1.454   3.013 -0.1907  0.1475 -0.4703
 1853SOL    HW217196   3.202   1.361   3.105  2.0454 -1.7868 -0.6705
 1854SOL     OW17197   3.767   1.112  13.509  0.4018  0.0286 -0.1076
 1854SOL    HW117198   3.722   1.188  13.473  1.2567  0.5885  0.0100
 1854SOL    HW217199   3.786   1.143  13.598 -0.4689  0.0877  0.0615
 1855SOL     OW17200   1.079   4.042   3.290  0.4915 -0.0883  0.0168
 1855SOL    HW117201   1.036   4.010   3.211 -1.4108 -1.7545  1.7423
 1855SOL    HW217202   1.170   4.031   3.262  0.6171 -1.6727  1.0923
 1856SOL     OW17203   0.003   2.993   1.575 -0.0060  0.5833 -0.4020
 1856SOL    HW117204   4.708   2.924   1.632 -2.5337  0.8553 -1.5919
 1856SOL    HW217205   4.725   2.944   1.495 -0.9872 -0.8776  0.6956
 1857SOL     OW17206   4.449   4.438   2.915  0.1580  0.8244  0.4304
 1857SOL    HW117207   4.475   4.462   2.826  0.8246  1.7019  0.8544
 1857SOL    HW217208   4.497   4.356   2.925 -1.2003  0.2568  2.3212
 1858SOL     OW17209   3.741   3.979   3.004 -0.1450 -0.4858 -0.2241
 1858SOL    HW117210   3.798   3.948   3.074  0.5939 -0.7622 -0.9472
 1858SOL    HW217211   3.750   3.899   2.952 -1.2784 -0.2499 -0.7883
 1859SOL     OW17212   4.119   4.108   3.213  0.1524  0.0502  0.4344
 1859SOL    HW117213   4.095   4.170   3.144 -0.4168 -1.5846 -0.8531
 1859SOL    HW217214   4.137   4.167   3.286 -0.2164  1.2281 -0.4335
 1860SOL     OW17215   3.514   4.363  12.758  0.1784 -0.3488  0.1173
 1860SOL    HW117216   3.540   4.349  12.848  0.0347 -4.2025 -0.4535
 1860SOL    HW217217   3.593   4.406  12.727 -0.8788  1.4307 -0.1067
 1861SOL     OW17218   3.859   4.682  13.772 -0.1545  0.0890 -0.3234
 1861SOL    HW117219   3.918   4.609  13.753  0.6245  0.7074 -0.2727
 1861SOL    HW217220   3.890   0.002  13.703 -0.6322  0.2167 -0.4278
 1862SOL     OW17221   1.282   3.592   7.154  0.3908 -0.0387  0.6345
 1862SOL    HW117222   1.281   3.540   7.233 -0.0790  1.2079  1.4527
 1862SOL    HW217223   1.244   3.676   7.182  1.3107  1.2574 -1.9674
 1863SOL     OW17224   2.333   4.636   2.379  0.0803 -0.5625 -0.9186
 1863SOL    HW117225   2.292   4.566   2.431  0.3547  0.2702  0.3865
 1863SOL    HW217226   2.346   4.700   2.448 -0.5153 -0.9219 -0.4671
 1864SOL     OW17227   3.092   0.938  12.731  0.2386  0.0088 -0.0829
 1864SOL    HW117228   3.075   1.032  12.725 -2.7741 -0.4660  0.7527
 1864SOL    HW217229   3.049   0.912  12.813 -4.4296 -1.9274 -3.1318
 1865SOL     OW17230   0.024   4.325   4.389 -0.3107 -0.4159 -0.0473
 1865SOL    HW117231   4.723   4.348   4.473  0.4047  2.5823 -0.5012
 1865SOL    HW217232   0.073   4.249   4.419 -1.0791 -0.8950 -0.0199
 1866SOL     OW17233   2.474   4.412   6.195  0.2273  0.0895 -0.0065
 1866SOL    HW117234   2.432   4.418   6.109 -0.0173 -1.7892 -0.0315
 1866SOL    HW217235   2.465   4.501   6.228  1.0067  0.3114 -0.4017
 1867SOL     OW17236   2.046   2.117   9.498 -0.0463  0.4456 -0.4649
 1867SOL    HW117237   2.039   2.147   9.407  0.2283 -0.0323 -0.6413
 1867SOL    HW217238   2.053   2.202   9.542 -0.9189  0.9296 -1.2402
 1868SOL     OW17239   4.685   0.426   4.478 -0.3477  0.0901  0.4130
 1868SOL    HW117240   4.594   0.414   4.451  0.1732 -0.3464 -1.2044
 1868SOL    HW217241   4.712   0.334   4.481  0.6123  0.3980  1.2392
 1869SOL     OW17242   3.932   4.634  11.665  0.3701 -0.2369  0.1624
 1869SOL    HW117243   3.907   4.588  11.586  3.9227  0.0084 -1.0744
 1869SOL    HW217244   3.969   4.709  11.619 -0.0685  0.5794  1.1250
 1870SOL     OW17245   2.323   3.122  16.495 -0.5147  0.5530 -0.3822
 1870SOL    HW117246   2.282   3.146  16.412 -0.1779 -0.9268 -0.9631
 1870SOL    HW217247   2.260   3.112  16.566  0.7686  1.5133  0.8983
 1871SOL     OW17248   3.778   4.309   1.828  0.2214 -0.1352  0.8338
 1871SOL    HW117249   3.866   4.314   1.866  0.3777 -1.8747  0.7163
 1871SOL    HW217250   3.746   4.398   1.839 -3.2005 -1.1418 -1.1084
 1872SOL     OW17251   2.574   2.507   5.363  0.3174  0.1200  0.2736
 1872SOL    HW117252   2.489   2.505   5.319 -0.2274 -2.6589  1.4169
 1872SOL    HW217253   2.632   2.509   5.286 -1.7831  0.4241 -1.2971
 1873SOL     OW17254   2.108   3.646   0.751 -0.0600  0.3122 -0.2276
 1873SOL    HW117255   2.099   3.705   0.677 -0.2031 -1.6457 -1.7590
 1873SOL    HW217256   2.134   3.707   0.821  0.8466  0.9771 -1.1447
 1874SOL     OW17257   0.927   1.307   4.407  0.1425  0.5903 -0.1662
 1874SOL    HW117258   0.869   1.239   4.440 -2.2247  2.7484  0.1363
 1874SOL    HW217259   0.991   1.258   4.355  0.7609  0.0148  1.1411
 1875SOL     OW17260   3.461   1.172  12.237 -0.7637 -0.0781 -0.2564
 1875SOL    HW117261   3.406   1.199  12.311  0.2323 -1.4394  0.9694
 1875SOL    HW217262   3.501   1.099  12.285  1.6567  1.7271  0.4661
 1876SOL     OW17263   2.675   0.369  14.354  0.2987  0.3189 -0.3626
 1876SOL    HW117264   2.714   0.433  14.294  1.1963 -0.4706 -0.6274
 1876SOL    HW217265   2.641   0.304  14.292  0.4049 -0.3557  0.2776
 1877SOL     OW17266   3.718   2.072   9.977 -0.0516 -0.1174  0.2049
 1877SOL    HW117267   3.701   2.127   9.901  1.4904 -0.5855 -0.4850
 1877SOL    HW217268   3.752   1.993   9.935 -0.0124 -0.1780  0.3494
 1878SOL     OW17269   0.438   1.966   9.280 -0.3186 -0.3946 -0.0038
 1878SOL    HW117270   0.473   1.886   9.241  0.8188 -0.2806  0.7657
 1878SOL    HW217271   0.347   1.944   9.261 -1.4680  2.4437  2.3243
 1879SOL     OW17272   0.997   0.740  11.588  0.1742 -0.0694 -0.4874
 1879SOL    HW117273   0.933   0.683  11.631  1.0931 -1.9790 -1.6216
 1879SOL    HW217274   1.025   0.692  11.510 -2.6322 -1.2726 -0.7482
 1880SOL     OW17275   2.485   4.413   7.863  0.4250  0.3810 -0.4397
 1880SOL    HW117276   2.390   4.424   7.869  0.3798 -0.4244  0.3057
 1880SOL    HW217277   2.497   4.352   7.935 -3.4282  2.0503  1.6000
 1881SOL     OW17278   4.154   2.065   6.475  0.4401  0.4041 -0.4888
 1881SOL    HW117279   4.170   2.145   6.425  2.2790 -0.1392 -0.7574
 1881SOL    HW217280   4.111   2.101   6.553 -1.2389 -1.5741 -0.4698
 1882SOL     OW17281   2.918   3.375  13.908  0.2785 -0.0087 -0.4707
 1882SOL    HW117282   2.921   3.462  13.947 -0.8413 -0.2840  0.2228
 1882SOL    HW217283   2.922   3.402  13.817 -0.3967 -1.4328 -0.9200
 1883SOL     OW17284   0.090   0.731   5.699 -0.2099  0.2847 -0.4510
 1883SOL    HW117285   0.097   0.825   5.718  2.9732  0.3011 -1.7594
 1883SOL    HW217286   0.150   0.690   5.761 -1.7758 -2.0741 -0.4972
 1884SOL     OW17287   2.697   2.445   5.108 -0.4658  0.2708  0.7968
 1884SOL    HW117288   2.651   2.403   5.035  2.5612  1.9759 -2.0703
 1884SOL    HW217289   2.750   2.372   5.140 -2.3369 -0.4436  2.2876
 1885SOL     OW17290   1.516   3.377   3.337 -0.2987 -0.0360  0.2838
 1885SOL    HW117291   1.500   3.416   3.251  0.6542 -0.4918 -0.0979
 1885SOL    HW217292   1.432   3.332   3.349 -0.5810  0.5773  0.6140
 1886SOL     OW17293   0.056   2.533   8.435  0.4655  0.5128 -0.2788
 1886SOL    HW117294   0.143   2.497   8.454  0.5960  2.0872  2.1841
 1886SOL    HW217295   0.021   2.561   8.520  1.3460  1.5897 -0.2623
 1887SOL     OW17296   4.529   2.875   6.529 -0.2790 -0.1165  0.8407
 1887SOL    HW117297   4.455   2.821   6.557 -0.3304 -0.1622  0.6177
 1887SOL    HW217298   4.497   2.898   6.442  0.9383 -0.5996  0.2652
 1888SOL     OW17299   4.295   1.193   3.317  0.4902 -0.0822 -0.1711
 1888SOL    HW117300   4.323   1.247   3.242 -2.7604  1.6532 -0.1158
 1888SOL    HW217301   4.378   1.158   3.350 -0.4520 -0.7562  1.4241
 1889SOL     OW17302   1.075   0.411   0.178  0.0695 -0.0428  0.6305
 1889SOL    HW117303   1.155   0.447   0.217  0.8930 -0.5616 -0.5823
 1889SOL    HW217304   1.022   0.429   0.256 -1.0980 -3.4177  0.5982
 1890SOL     OW17305   2.903   4.622   4.179  0.3963 -0.0185 -0.1060
 1890SOL    HW117306   2.977   4.624   4.240  0.7807 -0.1859 -0.5644
 1890SOL    HW217307   2.917   4.711   4.144 -0.7167  0.1238 -0.1815
 1891SOL     OW17308   4.695   4.239  16.180  0.5699 -0.0666 -0.2735
 1891SOL    HW117309   4.641   4.209  16.107 -2.1783  0.1037  1.6861
 1891SOL    HW217310   4.734   4.156  16.206  1.5159  0.5843  0.3767
 1892SOL     OW17311   3.059   2.947  11.100 -0.4019 -0.7416 -0.2340
 1892SOL    HW117312   3.123   2.879  11.121 -0.3531 -0.2040  1.3349
 1892SOL    HW217313   2.995   2.885  11.064 -1.8924  1.3717 -1.1887
 1893SOL     OW17314   3.137   3.978   9.472 -0.2151 -0.3797  0.0895
 1893SOL    HW117315   3.062   4.026   9.438  0.6592  0.8541 -0.0804
 1893SOL    HW217316   3.196   4.047   9.501  0.4077 -1.5676  1.6306
 1894SOL     OW17317   0.319   1.462  17.180 -0.2826 -0.1875  0.4476
 1894SOL    HW117318   0.298   1.387  17.125  1.1511 -0.3491  0.1393
 1894SOL    HW217319   0.408   1.451  17.214 -0.7790 -1.8564  1.2406
 1895SOL     OW17320   2.847   3.238   6.368 -0.1589  0.2163  0.5386
 1895SOL    HW117321   2.929   3.228   6.415  0.6710  1.0139 -0.7418
 1895SOL    HW217322   2.793   3.175   6.417  0.2004  0.4946  1.2856
 1896SOL     OW17323   1.461   0.135   2.470  0.0483  0.2995 -0.0262
 1896SOL    HW117324   1.541   0.175   2.435 -1.3020  1.6785 -1.5263
 1896SOL    HW217325   1.421   0.212   2.511  0.1564 -0.1434  0.9232
 1897SOL     OW17326   1.268   0.276   1.203 -0.2533  0.5447 -0.0138
 1897SOL    HW117327   1.356   0.249   1.174  0.8687  3.5049  0.6051
 1897SOL    HW217328   1.270   0.366   1.173  1.5771  0.4819 -0.1277
 1898SOL     OW17329   0.727   4.503   7.768  0.3139 -0.0618 -0.0909
 1898SOL    HW117330   0.671   4.538   7.838  0.7152  1.0951 -0.3521
 1898SOL    HW217331   0.804   4.471   7.815 -0.2980  0.0074  0.9704
 1899SOL     OW17332   1.586   4.545  13.928 -0.7582 -0.1698 -0.3168
 1899SOL    HW117333   1.665   4.564  13.877 -0.2220  1.4090  1.0793
 1899SOL    HW217334   1.604   4.458  13.965  0.8922  0.5263  0.5423
 1900SOL     OW17335   4.062   4.302   5.894  0.1418 -0.9830 -0.5659
 1900SOL    HW117336   4.150   4.336   5.876 -0.1026  1.2124  2.3538
 1900SOL    HW217337   4.016   4.386   5.887 -0.0724 -0.9701  1.1690
 1901SOL     OW17338   0.930   1.836  12.619  0.0938 -0.4949  0.0912
 1901SOL    HW117339   1.024   1.833  12.602  0.2233 -2.5044  1.2088
 1901SOL    HW217340   0.941   1.846  12.713 -0.0355  0.9882 -0.0503
 1902SOL     OW17341   4.461   0.755   1.398  0.5412 -0.1065  0.0755
 1902SOL    HW117342   4.529   0.715   1.453 -1.0153 -1.2219  1.1596
 1902SOL    HW217343   4.502   0.836   1.367 -2.0852  0.7343 -1.2298
 1903SOL     OW17344   0.261   0.117   5.669  0.6413  0.1986  0.6372
 1903SOL    HW117345   0.335   0.153   5.719  0.8571  1.1216 -0.3607
 1903SOL    HW217346   0.297   0.071   5.593  0.3028 -0.9397  1.1625
 1904SOL     OW17347   4.408   4.231   8.256  0.1229 -0.4810  0.3541
 1904SOL    HW117348   4.394   4.140   8.283 -1.5457 -0.6828 -1.1807
 1904SOL    HW217349   4.324   4.248   8.213 -1.0254 -0.6791  2.5410
 1905SOL     OW17350   1.919   0.194   6.330 -0.1385  0.1502  0.6666
 1905SOL    HW117351   1.894   0.228   6.244 -1.6210  1.2248  1.5215
 1905SOL    HW217352   1.851   0.229   6.387 -0.6635 -0.2885  0.3133
 1906SOL     OW17353   0.302   0.278  16.913 -0.0546 -0.1269 -0.8124
 1906SOL    HW117354   0.344   0.265  16.998 -0.2351 -0.9097 -0.8451
 1906SOL    HW217355   0.296   0.192  16.871  2.1469 -1.3839  1.4430
 1907SOL     OW17356   0.085   3.941   7.588 -0.0535  0.3235 -0.5514
 1907SOL    HW117357   0.157   3.997   7.618 -0.1082 -1.0826  2.1829
 1907SOL    HW217358   0.012   4.002   7.581  0.3329  0.7831 -0.5394
 1908SOL     OW17359   0.899   4.296   2.619 -0.2597 -0.2321 -0.1365
 1908SOL    HW117360   0.814   4.289   2.661 -0.1433  1.4465  0.3765
 1908SOL    HW217361   0.884   4.335   2.533  1.2075  0.2092 -0.1955
 1909SOL     OW17362   3.813   0.843   8.024 -0.0883 -0.0930  0.3063
 1909SOL    HW117363   3.764   0.763   8.042  1.0178 -0.9324 -0.3978
 1909SOL    HW217364   3.794   0.848   7.931 -3.9755 -0.7324  1.0840
 1910SOL     OW17365   2.322   3.979  17.390  0.1891 -0.5916  0.1932
 1910SOL    HW117366   2.277   3.926  17.324 -0.5365  0.3211 -0.0412
 1910SOL    HW217367   2.386   4.027  17.338 -1.3845  0.7552 -0.4862
 1911SOL     OW17368   1.508   1.482   5.041  0.3343  0.0689  0.2081
 1911SOL    HW117369   1.504   1.492   5.136  1.4106  0.1317  0.2447
 1911SOL    HW217370   1.461   1.400   5.030 -2.0438  1.4636 -0.2372
 1912SOL     OW17371   3.646   1.457   4.559 -0.2035 -0.2299  0.4534
 1912SOL    HW117372   3.731   1.468   4.602 -1.1524  2.2951  1.6533
 1912SOL    HW217373   3.650   1.524   4.491  2.4177 -0.2371  0.6037
 1913SOL     OW17374   2.287   1.242   4.472 -0.1081 -0.4039 -0.0282
 1913SOL    HW117375   2.254   1.153   4.487 -1.1741  0.4400  2.4966
 1913SOL    HW217376   2.284   1.278   4.560 -0.0774  1.6724 -0.8812
 1914SOL     OW17377   1.385   4.557   7.699 -0.1404 -0.4661 -0.1909
 1914SOL    HW117378   1.394   4.638   7.749 -1.4273 -0.2475 -0.3022
 1914SOL    HW217379   1.290   4.551   7.691  0.0218 -1.5312 -1.2106
 1915SOL     OW17380   2.915   3.079   8.499  0.2179 -0.0064  0.1002
 1915SOL    HW117381   2.845   3.139   8.474  1.0313 -0.4129 -3.0685
 1915SOL    HW217382   2.903   2.992   8.462  0.5192  0.4496 -1.0427
 1916SOL     OW17383   4.207   0.565   4.987 -0.6650  0.3875 -0.0549
 1916SOL    HW117384   4.299   0.567   5.015 -0.7235 -0.7518  0.2106
 1916SOL    HW217385   4.169   0.641   5.030 -2.5307 -0.0992 -0.8724
 1917SOL     OW17386   2.189   4.543   4.371  0.2154  0.3138 -0.1557
 1917SOL    HW117387   2.205   4.524   4.464 -1.2673 -1.7206 -0.3189
 1917SOL    HW217388   2.116   4.604   4.383 -0.7135 -1.0497  1.1949
 1918SOL     OW17389   4.018   3.667   0.373  0.0541 -0.5055  0.2752
 1918SOL    HW117390   4.101   3.714   0.383 -0.3964  0.4667 -0.6197
 1918SOL    HW217391   4.002   3.630   0.460 -1.1070 -0.4511  0.0884
 1919SOL     OW17392   1.063   4.561  13.248  0.6437  0.5123 -0.3900
 1919SOL    HW117393   1.072   4.558  13.153  2.9540  2.0891 -0.2061
 1919SOL    HW217394   1.009   4.484  13.265  1.3090 -0.2606 -1.7769
 1920SOL     OW17395   2.685   4.467   4.201  0.0650 -0.0617  0.3386
 1920SOL    HW117396   2.618   4.499   4.140  0.1248 -0.3017  0.1478
 1920SOL    HW217397   2.756   4.530   4.186 -1.4050  1.1925 -1.4486
 1921SOL     OW17398   4.057   1.726  12.884  0.7091  0.1263 -0.5446
 1921SOL    HW117399   4.093   1.765  12.963 -0.9916 -0.8638  0.7089
 1921SOL    HW217400   4.081   1.799  12.827 -0.0046  2.4510  2.1255
 1922SOL     OW17401   0.346   4.049  11.433  0.1962 -0.1455 -0.5404
 1922SOL    HW117402   0.384   4.029  11.518  4.4769  1.0399 -2.1389
 1922SOL    HW217403   0.401   4.009  11.366 -0.6212 -2.0658 -0.0658
 1923SOL     OW17404   1.787   1.625  14.893 -0.2356  0.0746  0.2538
 1923SOL    HW117405   1.745   1.683  14.957  2.7734  2.6827 -0.1472
 1923SOL    HW217406   1.709   1.593  14.849  0.8714 -2.8649  0.4728
 1924SOL     OW17407   1.127   2.650   6.220 -0.4028  0.1752  0.1905
 1924SOL    HW117408   1.192   2.658   6.289 -1.1153  1.5023  0.7094
 1924SOL    HW217409   1.184   2.629   6.145 -0.7833  1.6639 -0.5244
 1925SOL     OW17410   0.575   4.135   9.068 -0.2583 -0.5933  0.3797
 1925SOL    HW117411   0.554   4.073   9.137  1.7938 -2.9325 -1.0762
 1925SOL    HW217412   0.664   4.158   9.094 -0.4826 -0.7996  1.3034
 1926SOL     OW17413   3.902   0.728  10.278 -0.1007 -0.0172 -0.2439
 1926SOL    HW117414   3.811   0.710  10.255 -0.1309 -0.5818  0.3091
 1926SOL    HW217415   3.902   0.669  10.354  1.3692 -0.3840 -0.5314
 1927SOL     OW17416   1.198   2.963   9.007 -0.2898  0.5226 -0.5163
 1927SOL    HW117417   1.164   3.047   9.039 -0.9870  0.1076 -0.1672
 1927SOL    HW217418   1.143   2.955   8.929  1.0076 -4.4733 -0.8475
 1928SOL     OW17419   3.446   2.734  10.954  0.1951  0.0471 -0.1928
 1928SOL    HW117420   3.435   2.653  11.003  1.8514 -0.7603 -1.1229
 1928SOL    HW217421   3.368   2.726  10.900 -0.3728  0.1816  0.6060
 1929SOL     OW17422   1.097   1.553   2.370  0.0043  0.0138  0.0347
 1929SOL    HW117423   1.146   1.482   2.328  0.9151  0.0730  0.9956
 1929SOL    HW217424   1.056   1.598   2.297  0.7957  1.5233  0.5139
 1930SOL     OW17425   2.407   3.414   5.926  0.4726  0.4773 -0.3291
 1930SOL    HW117426   2.312   3.410   5.923  0.3484  1.5154  2.1326
 1930SOL    HW217427   2.423   3.410   6.020  3.1800  4.2560 -0.6493
 1931SOL     OW17428   3.995   1.643   9.925  0.1554 -0.6220  0.0536
 1931SOL    HW117429   4.072   1.624   9.979  1.5353  0.0946 -1.6439
 1931SOL    HW217430   3.963   1.555   9.907 -0.3510 -0.4713  0.2343
 1932SOL     OW17431   0.565   0.625   1.792  0.1203 -0.2521 -0.5475
 1932SOL    HW117432   0.542   0.717   1.777 -3.1768 -1.0682 -0.5198
 1932SOL    HW217433   0.547   0.611   1.885  3.1278  0.1409  0.1185
 1933SOL     OW17434   3.325   1.682   0.911 -0.7186 -0.0394 -0.3623
 1933SOL    HW117435   3.381   1.747   0.956 -0.4930 -0.7207  0.3418
 1933SOL    HW217436   3.355   1.609   0.966 -3.1133 -0.3735  0.4720
 1934SOL     OW17437   0.077   3.982  16.164 -0.8050 -0.0136  0.1266
 1934SOL    HW117438   0.085   3.928  16.085  2.6009  3.2125 -1.7314
 1934SOL    HW217439   0.152   3.960  16.220 -0.5642  0.2021 -0.1099
 1935SOL     OW17440   0.766   4.639   5.288 -0.1134 -0.5065  0.1058
 1935SOL    HW117441   0.688   4.588   5.269 -0.9408  0.6966  0.2738
 1935SOL    HW217442   0.722   4.723   5.276  0.4043 -0.1431  0.7559
 1936SOL     OW17443   1.725   2.854   8.796  0.4095 -0.2032  0.2064
 1936SOL    HW117444   1.695   2.909   8.724 -1.2279 -0.4118  0.7475
 1936SOL    HW217445   1.662   2.878   8.864 -1.0239 -0.0372 -1.1987
 1937SOL     OW17446   3.494   2.946   2.090  0.4582  0.3155 -0.1513
 1937SOL    HW117447   3.571   3.002   2.084 -0.2122  1.0595 -1.5575
 1937SOL    HW217448   3.430   3.001   2.136  1.3671  0.3347  1.0958
 1938SOL     OW17449   4.130   1.530   5.887 -0.2166  0.0620  0.2616
 1938SOL    HW117450   4.216   1.489   5.898 -0.1618  0.3285  0.8472
 1938SOL    HW217451   4.157   1.592   5.819 -1.9430  0.8428  0.3005
 1939SOL     OW17452   3.781   4.114   3.301 -0.1558  0.1764 -0.2794
 1939SOL    HW117453   3.807   4.145   3.388  0.6556 -0.4891 -0.2903
 1939SOL    HW217454   3.848   4.048   3.281 -0.6231 -0.2971 -0.3005
 1940SOL     OW17455   2.100   3.004   2.839  0.3076  0.1785  0.2406
 1940SOL    HW117456   2.054   3.038   2.762  0.4721 -0.8494 -0.3117
 1940SOL    HW217457   2.033   2.998   2.908  1.3985  0.3757  1.3128
 1941SOL     OW17458   2.996   4.165  17.560  0.1097  0.6070 -0.1280
 1941SOL    HW117459   2.910   4.198  17.534 -0.6852  0.2023  2.0464
 1941SOL    HW217460   3.001   4.082  17.513  1.1441  0.8405 -0.4416
 1942SOL     OW17461   1.522   2.379   3.881  0.4829  0.3880 -0.1239
 1942SOL    HW117462   1.462   2.383   3.807  0.8500  3.0784 -0.2479
 1942SOL    HW217463   1.553   2.289   3.870  0.5867  0.4661 -0.4679
 1943SOL     OW17464   4.391   1.003  15.409  0.6869  0.0975 -0.4228
 1943SOL    HW117465   4.385   0.939  15.480  0.1594 -2.2257 -2.5583
 1943SOL    HW217466   4.331   0.967  15.344 -0.4617 -2.5617  2.1363
 1944SOL     OW17467   2.571   2.517  10.961 -0.1341  0.2868  0.2346
 1944SOL    HW117468   2.529   2.484  11.041  0.4680  0.6601  0.7014
 1944SOL    HW217469   2.511   2.589  10.944  2.4891  2.7269  1.3618
 1945SOL     OW17470   0.710   0.913   5.100 -0.4551  0.7392  0.9040
 1945SOL    HW117471   0.678   1.003   5.109 -2.1631  0.1549  0.7343
 1945SOL    HW217472   0.656   0.858   5.157 -2.1180  0.4887 -0.8972
 1946SOL     OW17473   3.076   2.438   9.868  0.4712 -0.1976 -0.0261
 1946SOL    HW117474   2.998   2.445   9.813  0.6076 -1.4676 -0.3721
 1946SOL    HW217475   3.091   2.524   9.907 -3.1128  0.7823 -0.8332
 1947SOL     OW17476   1.333   3.653   9.719 -0.2646  0.3186  0.7353
 1947SOL    HW117477   1.343   3.731   9.774 -1.9738  2.4963 -2.0234
 1947SOL    HW217478   1.267   3.599   9.764  1.3619  0.7719  3.6422
 1948SOL     OW17479   0.356   2.366   8.938 -0.0908  0.4718 -0.1548
 1948SOL    HW117480   0.281   2.378   8.880 -0.1867 -0.9408 -0.3111
 1948SOL    HW217481   0.400   2.292   8.897  1.4515 -0.2411  2.7766
 1949SOL     OW17482   4.667   0.873   4.926 -0.3573 -0.0948  0.1424
 1949SOL    HW117483   4.576   0.863   4.954 -0.4754  0.7999  0.1011
 1949SOL    HW217484   4.657   0.891   4.832  1.0474  1.5231  0.2933
 1950SOL     OW17485   4.547   1.522  11.523 -0.0061 -0.1769  0.4558
 1950SOL    HW117486   4.459   1.544  11.490  0.2334 -0.0645 -0.1125
 1950SOL    HW217487   4.530   1.450  11.584 -0.6809 -0.3337  0.0902
 1951SOL     OW17488   3.288   3.151   6.042 -0.2489 -0.1664 -0.1370
 1951SOL    HW117489   3.264   3.244   6.049 -2.1298 -0.6851  0.4803
 1951SOL    HW217490   3.202   3.113   6.023 -0.1285 -0.2478 -0.4998
 1952SOL     OW17491   0.408   0.157   2.349 -0.3953  0.3829  0.2296
 1952SOL    HW117492   0.318   0.166   2.380 -0.6639  0.7449 -0.6582
 1952SOL    HW217493   0.432   0.249   2.339  0.1405  0.1181 -0.8215
 1953SOL     OW17494   1.415   3.489   8.111  0.6400 -0.0722  0.3579
 1953SOL    HW117495   1.468   3.517   8.037 -0.1749 -0.0308 -0.2160
 1953SOL    HW217496   1.490   3.459   8.161  2.5661  2.3705 -1.0598
 1954SOL     OW17497   1.019   4.310   3.718  0.1904  0.2055 -0.0690
 1954SOL    HW117498   1.074   4.311   3.797 -1.5554 -0.9274  1.1636
 1954SOL    HW217499   1.056   4.230   3.682  0.6679  1.3506 -2.1404
 1955SOL     OW17500   1.180   2.542   4.806  0.1786  0.2472 -0.1203
 1955SOL    HW117501   1.269   2.572   4.824  0.8555 -0.7147 -1.8325
 1955SOL    HW217502   1.173   2.465   4.862 -0.0015  1.9883  2.2088
 1956SOL     OW17503   2.439   4.667   5.255  0.2466  0.0130  0.4628
 1956SOL    HW117504   2.438   4.654   5.160 -1.0682  1.9063  0.2270
 1956SOL    HW217505   2.402   4.582   5.278  0.0913 -0.2822 -0.8838
 1957SOL     OW17506   3.323   0.235  15.268 -0.1410 -0.4738 -0.3750
 1957SOL    HW117507   3.342   0.149  15.231  0.1587 -0.9351  0.8586
 1957SOL    HW217508   3.326   0.286  15.187  0.5675  0.2573  0.1053
 1958SOL     OW17509   0.300   1.002   4.093  0.0984 -0.1625 -0.1451
 1958SOL    HW117510   0.302   1.015   4.188 -2.0070  1.9963 -0.3834
 1958SOL    HW217511   0.340   0.917   4.079  1.1609  0.5385 -1.3656
 1959SOL     OW17512   1.926   1.569  13.572 -0.2605  0.0765 -0.2007
 1959SOL    HW117513   1.954   1.603  13.657  0.8797  0.9620 -0.9249
 1959SOL    HW217514   1.942   1.475  13.585  0.5159  0.4582  1.7011
 1960SOL     OW17515   3.149   0.104  17.382 -0.0202 -0.0859  0.0835
 1960SOL    HW117516   3.135   0.190  17.419  0.2556 -0.6022  1.3916
 1960SOL    HW217517   3.164   0.122  17.289  1.1034  0.0438  0.2859
 1961SOL     OW17518   3.415   4.339  17.453  0.4539  0.1331  0.0385
 1961SOL    HW117519   3.503   4.356  17.418  0.6653 -0.6386  0.1835
 1961SOL    HW217520   3.406   4.247  17.427  0.9818  0.2158 -0.4415
 1962SOL     OW17521   0.516   4.564  15.136  0.6679 -0.3100  0.0015
 1962SOL    HW117522   0.601   4.606  15.144 -0.3568  1.9644 -1.0942
 1962SOL    HW217523   0.461   4.603  15.204 -0.9847 -3.6708  0.5864
 1963SOL     OW17524   2.665   1.604   2.239 -0.4735  0.8036 -0.6760
 1963SOL    HW117525   2.707   1.585   2.156  0.8066 -1.1352  0.4158
 1963SOL    HW217526   2.600   1.534   2.234  0.4786 -0.0574 -0.9691
 1964SOL     OW17527   3.120   2.287   4.657  0.4001 -0.3725 -0.7276
 1964SOL    HW117528   3.034   2.254   4.633 -0.3980  0.2815  1.2926
 1964SOL    HW217529   3.100   2.348   4.728 -0.0116 -0.4618 -0.7721
 1965SOL     OW17530   4.611   4.375  10.058  0.3596 -0.1416  0.7548
 1965SOL    HW117531   4.597   4.469  10.061  1.6982  0.0902 -0.1507
 1965SOL    HW217532   4.550   4.343   9.992  0.8602  0.7649 -0.1540
 1966SOL     OW17533   1.211   1.848  13.432 -0.5746 -0.1780 -0.5834
 1966SOL    HW117534   1.280   1.901  13.393 -1.0237  1.3330  0.6959
 1966SOL    HW217535   1.145   1.915  13.452  0.5651  0.4146  1.1444
 1967SOL     OW17536   3.125   3.459  15.549  0.1895  0.0552  0.4334
 1967SOL    HW117537   3.068   3.494  15.618 -1.6233  1.0336 -1.5318
 1967SOL    HW217538   3.208   3.452  15.596  0.5412  1.6680  0.0677
 1968SOL     OW17539   3.967   3.633  11.714 -0.3100  0.2506 -0.1392
 1968SOL    HW117540   4.025   3.557  11.715  0.2672  0.7195  1.6172
 1968SOL    HW217541   3.958   3.632  11.618 -1.9539 -1.1906  0.0204
 1969SOL     OW17542   1.680   4.106   2.584  0.0930  0.5032 -0.4042
 1969SOL    HW117543   1.760   4.068   2.621  0.8645  0.3369 -2.2801
 1969SOL    HW217544   1.657   4.184   2.633 -4.5368 -1.3721  0.4294
 1970SOL     OW17545   3.599   4.509   3.103  0.3090 -0.2385 -0.3057
 1970SOL    HW117546   3.596   4.414   3.089 -1.0888  0.3777 -4.1403
 1970SOL    HW217547   3.631   4.535   3.017  0.0065 -2.4854 -1.0949
 1971SOL     OW17548   1.364   0.662  11.610  0.9372 -0.0783  0.4666
 1971SOL    HW117549   1.365   0.703  11.524 -2.2312  0.5645  0.7344
 1971SOL    HW217550   1.402   0.731  11.665 -1.4075  1.9914 -0.5312
 1972SOL     OW17551   2.307   4.082   0.658  0.0025  0.0559 -0.1765
 1972SOL    HW117552   2.318   4.017   0.588 -0.3364  0.5936 -0.7297
 1972SOL    HW217553   2.245   4.143   0.620  0.9673  0.1956 -1.5191
 1973SOL     OW17554   3.826   0.588  16.916  0.1918  0.4336  0.2253
 1973SOL    HW117555   3.786   0.675  16.913 -0.0728  0.2963 -0.3244
 1973SOL    HW217556   3.918   0.611  16.931  0.7332 -0.4942 -1.7234
 1974SOL     OW17557   4.086   0.361   3.385 -0.2294  0.1071 -0.3031
 1974SOL    HW117558   4.095   0.333   3.293  1.2599 -4.3475  1.1877
 1974SOL    HW217559   3.993   0.349   3.401 -0.0224 -0.7567  0.2273
 1975SOL     OW17560   2.677   1.505  13.274  0.2039 -0.3938  0.2775
 1975SOL    HW117561   2.603   1.453  13.243 -0.7454  2.2738 -1.9936
 1975SOL    HW217562   2.644   1.591  13.245  1.8952 -0.3350 -1.4805
 1976SOL     OW17563   3.639   0.072  12.567  0.1490  0.0295  0.0621
 1976SOL    HW117564   3.623   0.121  12.647  1.3386 -1.2454  1.0902
 1976SOL    HW217565   3.564   0.102  12.515  0.0363  0.8026  0.6836
 1977SOL     OW17566   2.265   2.655   3.683  0.1036 -0.0122  0.2248
 1977SOL    HW117567   2.232   2.742   3.704 -0.4317 -0.4827  1.3156
 1977SOL    HW217568   2.187   2.613   3.646  0.4104  0.3135 -0.8006
 1978SOL     OW17569   2.716   3.023  15.021 -0.6938 -0.3672 -0.3058
 1978SOL    HW117570   2.801   2.992  14.990  0.9988  1.5664  2.3459
 1978SOL    HW217571   2.665   2.946  14.997 -1.4654 -0.4658  1.6180
 1979SOL     OW17572   2.468   0.448  17.714 -0.0069  0.2901  0.1180
 1979SOL    HW117573   2.451   0.417  17.625  0.9484 -1.2145  0.4606
 1979SOL    HW217574   2.562   0.432  17.722 -0.2128 -1.3439 -0.7809
 1980SOL     OW17575   0.683   3.703   8.403  0.5195 -0.1221  0.5770
 1980SOL    HW117576   0.633   3.630   8.440 -1.9326  0.2607 -1.9601
 1980SOL    HW217577   0.675   3.769   8.472 -0.4202  0.9370 -0.5488
 1981SOL     OW17578   4.572   3.622  10.958  0.6222  0.1999  0.1802
 1981SOL    HW117579   4.661   3.639  10.989  1.3722 -1.8240 -0.8929
 1981SOL    HW217580   4.540   3.710  10.937 -0.7992 -0.8700 -2.0840
 1982SOL     OW17581   3.865   4.384   6.296  0.2762 -0.0738  0.6134
 1982SOL    HW117582   3.778   4.363   6.330  0.8864 -1.6580  1.1819
 1982SOL    HW217583   3.880   4.297   6.259 -0.7685  0.1898 -0.4130
 1983SOL     OW17584   4.288   3.705   1.765  0.0274 -0.2868 -0.4622
 1983SOL    HW117585   4.255   3.671   1.682  0.4011 -1.5536 -0.0923
 1983SOL    HW217586   4.219   3.769   1.780  1.7832  1.8972 -1.7654
 1984SOL     OW17587   2.412   1.806   7.347 -0.1536 -0.0249  0.2783
 1984SOL    HW117588   2.362   1.874   7.301 -0.7643 -1.5188 -1.2304
 1984SOL    HW217589   2.398   1.737   7.283  1.2032  0.5523 -0.6407
 1985SOL     OW17590   4.552   3.486   4.165 -0.3235  0.5116  0.1537
 1985SOL    HW117591   4.588   3.574   4.162  0.9063 -0.0073 -0.1242
 1985SOL    HW217592   4.626   3.441   4.125  0.4766  2.4186 -0.5210
 1986SOL     OW17593   0.016   1.112   0.857  0.1722 -0.3863 -0.2528
 1986SOL    HW117594   4.738   1.072   0.771 -0.2771 -3.1111  1.1345
 1986SOL    HW217595   0.038   1.202   0.831  1.4043 -1.7543 -3.9807
 1987SOL     OW17596   4.072   2.096  15.880  0.7015  0.2393 -0.3045
 1987SOL    HW117597   4.092   2.173  15.935  1.3650 -0.1233 -0.0273
 1987SOL    HW217598   3.980   2.077  15.897  1.2803  1.0395  3.8037
 1988SOL     OW17599   2.526   4.116  17.207  0.3309  0.0727 -0.2410
 1988SOL    HW117600   2.506   4.210  17.206  1.1473  0.2541 -0.1079
 1988SOL    HW217601   2.559   4.102  17.118  2.5615 -0.0914  0.5932
 1989SOL     OW17602   3.933   0.771  14.250 -0.0282 -0.0652 -0.5661
 1989SOL    HW117603   3.842   0.746  14.268  0.2824 -0.5897  0.2387
 1989SOL    HW217604   3.941   0.844  14.311 -0.1836 -0.7251  0.2288
 1990SOL     OW17605   2.119   1.833   5.220  0.6485  0.6887 -0.0554
 1990SOL    HW117606   2.083   1.817   5.133 -0.6629 -0.3330  0.6821
 1990SOL    HW217607   2.194   1.774   5.218  0.0861 -0.0058 -0.4994
 1991SOL     OW17608   4.365   4.668  14.563 -0.6783  0.0390 -0.1279
 1991SOL    HW117609   4.354   4.645  14.470 -3.2132  0.7935  0.0066
 1991SOL    HW217610   4.461   4.661  14.559 -0.8483 -1.3289 -1.8890
 1992SOL     OW17611   4.572   0.137   0.605  0.5545 -0.2203 -0.1177
 1992SOL    HW117612   4.551   0.062   0.549  2.2354 -0.4339 -0.4536
 1992SOL    HW217613   4.661   0.158   0.578  1.0304 -3.2295 -0.9804
 1993SOL     OW17614   2.156   4.561   6.180 -0.0247 -0.0171  0.4351
 1993SOL    HW117615   2.164   4.505   6.103 -0.0361 -0.1734  0.5499
 1993SOL    HW217616   2.089   4.621   6.147  0.5414 -0.0786 -0.8502
 1994SOL     OW17617   1.759   2.907   7.472  0.4364  0.0215 -0.2728
 1994SOL    HW117618   1.711   2.939   7.395 -0.9369  0.7563  0.8890
 1994SOL    HW217619   1.687   2.860   7.514  0.7595  0.0994  0.3734
 1995SOL     OW17620   0.436   3.220   3.381 -0.3471  0.0263 -0.6731
 1995SOL    HW117621   0.403   3.302   3.343  0.1944  0.6587  0.2046
 1995SOL    HW217622   0.401   3.226   3.470  1.0326  2.1157 -0.2729
 1996SOL     OW17623   0.633   0.464   9.637 -0.6719 -0.2708 -0.2877
 1996SOL    HW117624   0.603   0.513   9.561  1.1457  0.3650 -0.5766
 1996SOL    HW217625   0.666   0.536   9.690 -1.9517  0.3707 -0.3483
 1997SOL     OW17626   1.988   1.405   6.960  0.9846  0.0129  0.0917
 1997SOL    HW117627   2.017   1.353   6.885  0.5506  0.1345 -0.1636
 1997SOL    HW217628   1.971   1.489   6.917 -1.6242 -0.1617  0.7763
 1998SOL     OW17629   3.365   0.421   6.930 -0.2669 -0.1908 -0.1700
 1998SOL    HW117630   3.382   0.476   6.853 -1.6634  2.3401  1.3107
 1998SOL    HW217631   3.295   0.462   6.981  0.1236  0.1624  0.0885
 1999SOL     OW17632   3.290   0.910   7.550  0.3632 -0.0329  0.3312
 1999SOL    HW117633   3.243   0.894   7.632 -0.5826  2.3364  0.2210
 1999SOL    HW217634   3.316   1.002   7.557 -0.1319 -0.1430  3.8269
 2000SOL     OW17635   3.045   3.493   6.511  0.5803 -0.0007 -0.0712
 2000SOL    HW117636   2.982   3.553   6.472 -0.5040 -0.0561  1.5889
 2000SOL    HW217637   3.068   3.444   6.432 -0.8549  0.7634 -0.9525
 2001SOL     OW17638   0.967   4.582   1.818  0.0840 -0.2054  0.4778
 2001SOL    HW117639   0.921   4.502   1.793 -0.2864 -0.4279  1.8803
 2001SOL    HW217640   0.983   4.556   1.909 -0.6015  0.5138  0.7979
 2002SOL     OW17641   1.896   2.071  12.182 -0.3598  0.0075 -0.5926
 2002SOL    HW117642   1.832   2.097  12.116 -0.8752  3.3921  1.2300
 2002SOL    HW217643   1.856   2.079  12.269 -2.2938  0.7114 -1.5370
 2003SOL     OW17644   1.519   1.989   7.419  0.2778  0.2871 -0.1829
 2003SOL    HW117645   1.533   1.985   7.513  1.7669  0.6765 -0.4028
 2003SOL    HW217646   1.516   2.082   7.398 -1.5194  0.5246  1.1446
 2004SOL     OW17647   2.997   3.932  17.410  0.2638  0.1149  0.2617
 2004SOL    HW117648   2.914   3.924  17.364  1.1175  1.2000 -1.4751
 2004SOL    HW217649   3.049   3.961  17.335 -1.5669 -1.9009 -1.7769
 2005SOL     OW17650   1.949   1.811  14.183  0.7041 -0.3300 -0.5750
 2005SOL    HW117651   1.879   1.789  14.121  1.4800  0.0454 -1.5876
 2005SOL    HW217652   1.940   1.731  14.234 -0.7548 -0.5015 -1.0965
 2006SOL     OW17653   2.797   0.287   4.727 -0.2780 -0.6926  0.2972
 2006SOL    HW117654   2.815   0.374   4.764  1.7076  0.3393 -2.9901
 2006SOL    HW217655   2.732   0.246   4.784 -0.6067  0.3038  0.6383
 2007SOL     OW17656   3.730   2.384   9.343  0.2718 -0.0830  0.1007
 2007SOL    HW117657   3.752   2.393   9.250  0.0060  0.9759  0.1331
 2007SOL    HW217658   3.808   2.417   9.387 -1.2852  1.7963  1.4847
 2008SOL     OW17659   4.449   0.787  14.316  0.0812 -0.3443  0.2947
 2008SOL    HW117660   4.529   0.806  14.267  1.0062  0.7627  2.2383
 2008SOL    HW217661   4.463   0.694  14.334  0.9334 -0.5926 -1.6719
 2009SOL     OW17662   3.011   1.482   3.527  0.3917  0.1662 -0.1315
 2009SOL    HW117663   3.065   1.429   3.468  0.1378  0.3433 -0.5222
 2009SOL    HW217664   3.081   1.543   3.551  0.8345 -0.3546 -0.1076
 2010SOL     OW17665   0.540   2.799   8.728 -0.1197  0.1443 -0.4160
 2010SOL    HW117666   0.607   2.805   8.660 -2.4099 -0.3548 -2.7425
 2010SOL    HW217667   0.551   2.709   8.761  1.1200  0.3445 -0.2924
 2011SOL     OW17668   2.118   2.614   1.398 -0.2062 -0.1301  0.1510
 2011SOL    HW117669   2.160   2.572   1.473 -0.5783 -0.7222  0.0290
 2011SOL    HW217670   2.040   2.660   1.429  0.2406  0.9770 -0.3513
 2012SOL     OW17671   0.131   2.946   6.114  0.0054  0.2340  0.0949
 2012SOL    HW117672   0.053   2.972   6.066  0.4884  2.8027  0.6987
 2012SOL    HW217673   0.197   3.014   6.098  1.3299 -0.9440  0.6050
 2013SOL     OW17674   1.022   1.322  16.450 -0.3429 -0.5691  0.1534
 2013SOL    HW117675   1.005   1.372  16.530  1.9569 -1.2000  1.0389
 2013SOL    HW217676   0.937   1.348  16.412 -0.5028 -2.0439 -0.4823
 2014SOL     OW17677   1.039   4.326  10.282  0.3036 -0.2685  0.4268
 2014SOL    HW117678   0.944   4.339  10.289  0.2827 -0.0929 -0.1841
 2014SOL    HW217679   1.057   4.369  10.198 -2.2002 -1.5939 -0.7981
 2015SOL     OW17680   4.254   2.122   7.606 -0.2264  0.2085 -0.2666
 2015SOL    HW117681   4.303   2.068   7.545  1.5137  0.6453  0.7329
 2015SOL    HW217682   4.215   2.061   7.669  0.2816 -0.8472 -0.9816
 2016SOL     OW17683   1.172   2.612   5.435 -0.2337  0.5142  0.1032
 2016SOL    HW117684   1.189   2.600   5.342 -0.4719 -2.5064  0.4344
 2016SOL    HW217685   1.145   2.523   5.460  0.9624  0.2369  0.4066
 2017SOL     OW17686   0.240   1.298  10.075 -0.2852 -0.3604  0.2292
 2017SOL    HW117687   0.145   1.306  10.069 -0.1470  0.3093 -0.9565
 2017SOL    HW217688   0.257   1.207  10.050  1.1570 -0.1638  0.4942
 2018SOL     OW17689   0.181   4.455   1.980 -0.9944  0.2401 -0.2821
 2018SOL    HW117690   0.192   4.487   2.070  0.8351 -1.8657  0.2303
 2018SOL    HW217691   0.119   4.517   1.940 -1.3984  0.0386  0.0332
 2019SOL     OW17692   1.955   1.163   6.704 -0.0738 -0.2356  0.4494
 2019SOL    HW117693   1.914   1.094   6.757  0.5744  0.0087  1.2543
 2019SOL    HW217694   2.039   1.125   6.680  0.9569  2.8063 -0.7656
 2020SOL     OW17695   0.907   2.751  17.720 -0.0145 -0.1320  0.3773
 2020SOL    HW117696   0.940   2.684   0.027  0.8020 -0.4798 -0.4721
 2020SOL    HW217697   0.904   2.826   0.026 -1.4264  0.1722 -0.0686
 2021SOL     OW17698   4.625   0.330   6.425  0.1359 -0.1555 -0.3464
 2021SOL    HW117699   4.539   0.332   6.468  0.6288 -0.0328  0.6257
 2021SOL    HW217700   4.648   0.237   6.422  0.6030 -0.0408 -0.2785
 2022SOL     OW17701   3.712   3.112   2.115 -0.3933 -0.1616 -0.3015
 2022SOL    HW117702   3.720   3.117   2.211 -1.4985 -0.9124 -0.1785
 2022SOL    HW217703   3.740   3.200   2.091 -0.2794  0.0075  0.4416
 2023SOL     OW17704   2.983   1.926   5.981  0.2784  0.3824 -0.0121
 2023SOL    HW117705   3.010   1.836   6.000  0.1824  0.5380  0.8244
 2023SOL    HW217706   2.888   1.922   5.992  0.4035  2.2014  1.6059
 2024SOL     OW17707   3.283   4.392  11.117  0.6288  0.0043 -0.1530
 2024SOL    HW117708   3.249   4.469  11.162 -0.3143  0.0881 -1.0111
 2024SOL    HW217709   3.200   4.354  11.085  1.1845  0.9184 -2.7117
 2025SOL     OW17710   2.126   2.005   7.702  0.1404 -0.3384 -0.2282
 2025SOL    HW117711   2.074   2.032   7.627 -0.8911  0.1162  0.6672
 2025SOL    HW217712   2.219   2.008   7.678  0.7191 -1.9011  1.8168
 2026SOL     OW17713   0.089   4.099   9.284 -0.5864  0.0599  0.3908
 2026SOL    HW117714   0.136   4.038   9.341 -1.7084 -1.4289 -0.2709
 2026SOL    HW217715   0.083   4.180   9.335 -0.3084  0.6191 -0.4778
 2027SOL     OW17716   0.096   4.349   0.073  0.0372 -0.0552 -0.0471
 2027SOL    HW117717   0.059   4.319  17.743  0.4807  0.1467 -0.3162
 2027SOL    HW217718   0.189   4.331   0.059  0.2842  0.9083  0.3393
 2028SOL     OW17719   0.859   3.221   7.056  0.5852  0.2157 -0.4389
 2028SOL    HW117720   0.782   3.277   7.048  0.1938 -0.0815  1.1154
 2028SOL    HW217721   0.854   3.169   6.976 -1.4080 -0.1588 -0.0799
 2029SOL     OW17722   3.645   1.598  17.306 -0.1388 -0.0065 -0.4644
 2029SOL    HW117723   3.561   1.556  17.291 -0.3378  0.4859 -0.7432
 2029SOL    HW217724   3.695   1.517  17.317  0.2721  0.7268  3.0364
 2030SOL     OW17725   3.757   3.889  11.639  0.4280  0.5904  1.1333
 2030SOL    HW117726   3.665   3.862  11.639  0.2826  1.1024  0.5407
 2030SOL    HW217727   3.800   3.812  11.602 -0.1991  0.9638 -0.3768
 2031SOL     OW17728   1.251   3.657   7.813  0.3013  0.3289 -0.3299
 2031SOL    HW117729   1.222   3.569   7.839  1.4196  0.1495  0.2760
 2031SOL    HW217730   1.287   3.629   7.729 -1.4498  1.7438 -1.5582
 2032SOL     OW17731   1.373   1.576   6.458  0.4525  0.4848  0.3428
 2032SOL    HW117732   1.336   1.655   6.418 -0.0707  0.7932  1.4224
 2032SOL    HW217733   1.353   1.511   6.391  0.8210  0.9056 -0.1682
 2033SOL     OW17734   0.291   1.096   6.607 -0.1962 -0.1147  0.3044
 2033SOL    HW117735   0.313   1.176   6.559 -2.2335 -0.5217 -1.2858
 2033SOL    HW217736   0.288   1.130   6.697  2.1239  1.7171 -0.3045
 2034SOL     OW17737   3.932   1.993   3.072 -0.1543  0.2348  0.0590
 2034SOL    HW117738   3.839   1.993   3.051 -0.4968 -0.2216  1.5538
 2034SOL    HW217739   3.944   1.917   3.130 -2.7121  0.4626  0.8716
 2035SOL     OW17740   4.610   1.585   6.035  0.0617  0.1769  0.1435
 2035SOL    HW117741   4.673   1.587   6.108  2.5250 -0.0333 -1.9793
 2035SOL    HW217742   4.666   1.633   5.975 -0.2091 -1.0535 -1.0874
 2036SOL     OW17743   1.940   2.966   3.073  0.2783 -0.0956  0.0246
 2036SOL    HW117744   2.006   2.984   3.141 -0.0504 -0.8596  0.5445
 2036SOL    HW217745   1.921   2.875   3.095  0.6098  0.1614  1.3973
 2037SOL     OW17746   1.144   1.221   7.009  0.0047  0.2443  0.0748
 2037SOL    HW117747   1.067   1.204   7.064 -1.1927  0.5116 -1.5144
 2037SOL    HW217748   1.200   1.147   7.030 -3.1848 -1.7068  1.8023
 2038SOL     OW17749   1.540   2.688  15.889 -0.2765  0.1634  0.1418
 2038SOL    HW117750   1.462   2.744  15.889 -0.8921 -0.7045 -0.4382
 2038SOL    HW217751   1.606   2.754  15.868  0.6775 -0.5192  1.0366
 2039SOL     OW17752   0.780   0.849   7.203  0.2546 -0.0044 -0.4068
 2039SOL    HW117753   0.797   0.940   7.230 -3.3588  1.4751 -3.1465
 2039SOL    HW217754   0.687   0.851   7.181  0.2644 -1.2548 -0.5602
 2040SOL     OW17755   0.671   0.546   1.530 -0.0562  0.0022  0.2940
 2040SOL    HW117756   0.630   0.540   1.616 -1.8043 -2.7859 -0.7168
 2040SOL    HW217757   0.624   0.473   1.490 -2.3540  0.6658  1.7979
 2041SOL     OW17758   1.760   1.341  10.604  0.4089 -0.3605  0.4149
 2041SOL    HW117759   1.773   1.391  10.523 -0.2508  0.8631  1.0667
 2041SOL    HW217760   1.735   1.412  10.663  3.1512  1.1554 -0.2351
 2042SOL     OW17761   0.334   2.448   9.696  0.0707  0.6453  0.5030
 2042SOL    HW117762   0.346   2.354   9.709  1.5043  0.7046 -0.3596
 2042SOL    HW217763   0.415   2.481   9.736 -1.1638  2.6225  1.3482
 2043SOL     OW17764   4.704   4.381  13.289  0.1767  0.5169 -1.2076
 2043SOL    HW117765   4.716   4.344  13.202 -0.8215 -0.7820 -0.7970
 2043SOL    HW217766   0.008   4.465  13.273  0.7980  0.4795  0.1825
 2044SOL     OW17767   0.699   2.773   2.209  0.2592  0.2404  0.3972
 2044SOL    HW117768   0.743   2.849   2.172  0.4717 -0.0252  0.1025
 2044SOL    HW217769   0.687   2.789   2.302  0.8301  3.3547 -0.0752
 2045SOL     OW17770   1.564   4.302   8.448 -0.4159 -0.7865 -0.0457
 2045SOL    HW117771   1.479   4.267   8.476 -0.9192 -0.7944 -1.5464
 2045SOL    HW217772   1.597   4.222   8.405 -1.5269 -1.4173  0.2752
 2046SOL     OW17773   2.547   3.698   4.992 -0.8879  0.0523  0.2357
 2046SOL    HW117774   2.604   3.699   5.069  2.6355 -1.5275 -2.3839
 2046SOL    HW217775   2.519   3.789   4.983 -1.5215 -0.2592 -0.9431
 2047SOL     OW17776   0.773   2.290  13.846  0.8776 -0.0169  0.1064
 2047SOL    HW117777   0.738   2.341  13.773  0.7041  0.5139  0.5613
 2047SOL    HW217778   0.703   2.294  13.910 -0.6767 -1.7908 -1.4708
 2048SOL     OW17779   1.240   2.854   0.046  0.3215  0.0411 -0.1698
 2048SOL    HW117780   1.219   2.763   0.023  2.4522 -0.5063  0.1242
 2048SOL    HW217781   1.192   2.862   0.129 -0.4731 -0.7629 -0.5463
 2049SOL     OW17782   3.139   0.684  16.978  0.2245 -0.2025 -0.8717
 2049SOL    HW117783   3.182   0.640  16.905  0.4875  1.4010 -1.6691
 2049SOL    HW217784   3.076   0.737  16.929  0.4953 -1.2290 -2.3054
 2050SOL     OW17785   4.597   2.358   7.414  0.1562 -0.0817  0.3550
 2050SOL    HW117786   4.673   2.393   7.460  0.0518  0.8240 -0.1519
 2050SOL    HW217787   4.522   2.390   7.465 -0.8577 -1.9773  0.0409
 2051SOL     OW17788   1.284   3.049  14.580 -0.0909 -0.3370  0.9386
 2051SOL    HW117789   1.229   3.099  14.520  1.5966  0.7500  0.3025
 2051SOL    HW217790   1.315   2.975  14.528 -0.4040 -0.8062  1.4192
 2052SOL     OW17791   2.809   1.951  11.531 -0.2914 -0.1310 -0.0076
 2052SOL    HW117792   2.897   1.989  11.536 -0.5603  0.0344  3.4541
 2052SOL    HW217793   2.820   1.870  11.582 -3.4903 -0.0431  0.8204
 2053SOL     OW17794   0.974   2.169   4.445  0.3407 -0.7374 -0.0007
 2053SOL    HW117795   1.055   2.198   4.487  0.6020  0.0898 -1.0845
 2053SOL    HW217796   0.921   2.132   4.516 -1.4173  1.4501 -0.1881
 2054SOL     OW17797   4.632   0.243  14.493 -0.0207 -0.0536 -0.3619
 2054SOL    HW117798   4.680   0.248  14.576 -0.4697  1.3848 -0.1917
 2054SOL    HW217799   4.545   0.264  14.528  0.4626 -3.5035  2.8301
 2055SOL     OW17800   3.715   4.556  12.578 -0.1015  0.1368  0.1642
 2055SOL    HW117801   3.689   4.647  12.566  0.1162  0.1139 -0.4951
 2055SOL    HW217802   3.655   4.504  12.525 -1.4858  0.8075  1.0695
 2056SOL     OW17803   3.631   4.544   8.069  0.4462 -0.4024 -0.4268
 2056SOL    HW117804   3.620   4.638   8.062 -0.9937 -0.5242  0.1558
 2056SOL    HW217805   3.636   4.530   8.164 -1.4542 -0.1172 -0.2908
 2057SOL     OW17806   2.609   2.979   5.378  0.4579 -0.2772  1.0227
 2057SOL    HW117807   2.676   2.978   5.446 -0.4685  1.5247  1.9646
 2057SOL    HW217808   2.551   3.048   5.410  0.5551  0.3186 -0.0592
 2058SOL     OW17809   2.489   2.362   9.667 -0.3516  0.0206 -0.7478
 2058SOL    HW117810   2.424   2.348   9.599  0.0430 -1.4708 -0.8179
 2058SOL    HW217811   2.525   2.274   9.678  1.3041  0.8377  0.5529
 2059SOL     OW17812   2.417   4.488   4.568 -0.1287  0.1065  0.0757
 2059SOL    HW117813   2.483   4.555   4.585  0.4311  0.8123 -4.8672
 2059SOL    HW217814   2.470   4.418   4.529  2.3291  0.8019  2.1712
 2060SOL     OW17815   4.297   3.166  12.973  0.4118  0.4010  0.3496
 2060SOL    HW117816   4.379   3.212  12.995  1.2476 -0.1884 -1.5790
 2060SOL    HW217817   4.339   3.105  12.912 -0.7753  0.9597 -1.0148
 2061SOL     OW17818   2.481   0.907   7.344  0.1961  0.2269  0.1885
 2061SOL    HW117819   2.405   0.849   7.354  1.3231 -1.2708  0.1262
 2061SOL    HW217820   2.474   0.956   7.426 -0.0801  0.1907  0.1844
 2062SOL     OW17821   1.672   1.800  15.075 -0.5124 -0.8769 -0.2491
 2062SOL    HW117822   1.641   1.859  15.006  2.0633 -0.0015 -0.6929
 2062SOL    HW217823   1.589   1.772  15.112 -0.4991 -1.2693 -0.5121
 2063SOL     OW17824   2.422   1.082   1.444  0.3583 -0.0145  0.0994
 2063SOL    HW117825   2.448   1.174   1.433  0.9034 -0.2870 -0.9122
 2063SOL    HW217826   2.347   1.067   1.386 -1.6775  3.0509  1.9199
 2064SOL     OW17827   3.050   1.479  14.567  0.2743 -0.3822 -0.2940
 2064SOL    HW117828   3.112   1.471  14.639  0.1342 -1.6098 -0.3157
 2064SOL    HW217829   3.097   1.531  14.502  0.4087 -0.0266  0.0858
 2065SOL     OW17830   3.020   0.871  15.049 -0.1795  0.2074 -0.0019
 2065SOL    HW117831   2.934   0.895  15.013  0.0346  2.0076  0.6652
 2065SOL    HW217832   3.056   0.815  14.980 -0.8186 -0.8899  0.5492
 2066SOL     OW17833   1.635   4.713   1.473 -0.7552 -0.3825 -0.7000
 2066SOL    HW117834   1.711   4.660   1.499 -1.1270 -2.0401 -3.0444
 2066SOL    HW217835   1.661   0.019   1.393  0.5892  0.2626  0.0876
 2067SOL     OW17836   3.948   4.116  15.897 -0.0604 -0.1269  0.0501
 2067SOL    HW117837   3.946   4.207  15.927 -2.3504 -0.5023  1.0387
 2067SOL    HW217838   4.008   4.124  15.823  1.7863 -0.9988  1.4490
 2068SOL     OW17839   4.284   1.143   4.536 -0.2491  0.3362  0.0589
 2068SOL    HW117840   4.330   1.064   4.562  1.7962  0.6177 -2.7883
 2068SOL    HW217841   4.233   1.107   4.464  1.0815 -1.8356  0.2220
 2069SOL     OW17842   2.396   0.856   6.681  0.1910 -0.5410  0.2839
 2069SOL    HW117843   2.382   0.793   6.751  0.1929 -1.3677 -0.4560
 2069SOL    HW217844   2.439   0.804   6.612  0.1828 -0.2624  0.0685
 2070SOL     OW17845   1.194   3.301  11.337 -0.3118  0.0843 -0.0011
 2070SOL    HW117846   1.268   3.264  11.384  0.7564  3.2211  0.7905
 2070SOL    HW217847   1.239   3.340  11.263 -0.9565 -0.6540 -0.7744
 2071SOL     OW17848   2.208   2.912   0.171 -0.1440  0.0428  0.2415
 2071SOL    HW117849   2.216   2.906   0.266 -2.9437 -0.6709  0.4207
 2071SOL    HW217850   2.129   2.963   0.154  0.1293  0.2913 -0.3139
 2072SOL     OW17851   1.916   4.035   2.728 -0.3534  0.3566 -0.2552
 2072SOL    HW117852   1.995   4.073   2.689 -0.1198 -1.7175 -1.8017
 2072SOL    HW217853   1.922   4.090   2.807 -2.0438  0.2023 -0.0078
 2073SOL     OW17854   3.644   4.393  17.326  0.0585  0.2389 -0.2728
 2073SOL    HW117855   3.661   4.339  17.249 -0.6846  0.6083 -0.6907
 2073SOL    HW217856   3.646   4.478  17.281 -0.9897 -0.9479 -2.5112
 2074SOL     OW17857   1.715   0.338  15.026 -0.2361  0.5827 -0.7541
 2074SOL    HW117858   1.781   0.404  15.047 -0.7010  1.1535 -1.0650
 2074SOL    HW217859   1.651   0.349  15.097 -0.2773  2.3837 -1.0705
 2075SOL     OW17860   2.004   0.801   8.468  0.4577  0.2999 -0.1191
 2075SOL    HW117861   2.079   0.802   8.528 -0.7204  0.3794  1.3517
 2075SOL    HW217862   1.944   0.783   8.540  1.1982 -0.1190  0.3950
 2076SOL     OW17863   2.201   0.162   8.500 -0.1450 -0.1684  0.0437
 2076SOL    HW117864   2.191   0.107   8.423 -1.5684  0.5973 -0.3289
 2076SOL    HW217865   2.267   0.112   8.547 -0.7790  1.3923  2.6298
 2077SOL     OW17866   1.996   3.235  17.409 -0.0155 -0.7432  0.1337
 2077SOL    HW117867   1.926   3.235  17.474  0.8165  0.0164  1.0299
 2077SOL    HW217868   2.029   3.147  17.421 -0.5631 -0.8555  0.7904
 2078SOL     OW17869   2.635   1.062  14.526  0.0906 -0.4998 -0.5777
 2078SOL    HW117870   2.578   0.991  14.555 -1.1018  1.0940  1.0330
 2078SOL    HW217871   2.725   1.035  14.542  0.4320 -0.9377 -3.2511
 2079SOL     OW17872   4.389   3.160   3.229  0.3780  0.7194  0.1377
 2079SOL    HW117873   4.302   3.153   3.269 -0.5591  0.1414 -1.9656
 2079SOL    HW217874   4.449   3.151   3.303  1.0788  2.2375 -0.2411
 2080SOL     OW17875   0.022   1.455  16.354 -0.5224 -0.1894 -0.2932
 2080SOL    HW117876   4.731   1.532  16.305 -1.4197 -0.0500  0.4769
 2080SOL    HW217877   0.018   1.387  16.286 -0.5763  1.9580 -2.4166
 2081SOL     OW17878   1.555   3.207   3.069 -0.2532  0.3807  0.1779
 2081SOL    HW117879   1.480   3.159   3.106  0.0082 -0.2752 -0.1394
 2081SOL    HW217880   1.536   3.298   3.092  1.5637  0.3972  1.5645
 2082SOL     OW17881   4.000   3.335   2.494  0.0559 -0.6735  0.2718
 2082SOL    HW117882   4.016   3.379   2.577 -0.9611  0.0759  0.0641
 2082SOL    HW217883   4.030   3.400   2.430  3.2132 -0.1841  2.2711
 2083SOL     OW17884   1.061   0.747   1.916 -0.1420 -0.2922  0.1995
 2083SOL    HW117885   1.126   0.680   1.897  0.7751  1.1036 -1.6742
 2083SOL    HW217886   0.986   0.695   1.944 -0.1481 -0.4555 -0.1217
 2084SOL     OW17887   2.751   0.533   5.179  0.1742  0.1840  0.5725
 2084SOL    HW117888   2.845   0.545   5.188  0.7946 -3.8661 -0.7483
 2084SOL    HW217889   2.753   0.439   5.164 -1.2676 -0.0333  1.7363
 2085SOL     OW17890   0.808   2.194   1.646 -0.0988  0.2699 -0.0490
 2085SOL    HW117891   0.827   2.248   1.723  1.8438  0.2080 -0.4740
 2085SOL    HW217892   0.784   2.117   1.697 -1.2366  0.0280 -0.9418
 2086SOL     OW17893   0.617   1.649   4.813 -0.0197 -0.4188  0.4573
 2086SOL    HW117894   0.534   1.603   4.797  0.1144 -0.6537  0.4435
 2086SOL    HW217895   0.653   1.644   4.725  1.3236  1.8497  0.9055
 2087SOL     OW17896   1.106   1.340   2.988  0.3260  0.5410 -0.2302
 2087SOL    HW117897   1.106   1.330   3.083 -3.4301  0.7205 -0.2256
 2087SOL    HW217898   1.122   1.434   2.984  0.2178  0.5998  0.9494
 2088SOL     OW17899   1.328   2.634   8.839  0.0594 -0.2230 -0.2912
 2088SOL    HW117900   1.251   2.687   8.815 -0.9837 -1.6445 -0.0716
 2088SOL    HW217901   1.280   2.557   8.870 -0.1315  0.4015  0.9600
 2089SOL     OW17902   2.339   3.766  14.793 -0.4104 -0.4350  0.3182
 2089SOL    HW117903   2.389   3.777  14.874 -0.8072  2.5755  0.1517
 2089SOL    HW217904   2.385   3.820  14.728 -0.7915  0.7137  1.0045
 2090SOL     OW17905   1.700   2.886   1.630 -0.0315 -0.5822 -0.0778
 2090SOL    HW117906   1.687   2.861   1.722  1.8200 -1.4657 -0.0587
 2090SOL    HW217907   1.785   2.849   1.608  0.3847  1.0546 -1.1878
 2091SOL     OW17908   0.974   0.005   0.404 -0.1412  0.1121  0.2756
 2091SOL    HW117909   1.053   4.696   0.428  1.4693  1.3509 -2.6152
 2091SOL    HW217910   1.007   0.095   0.413 -0.9614  0.5395 -0.9565
 2092SOL     OW17911   2.449   2.658   5.686 -0.9307 -0.3305  1.2047
 2092SOL    HW117912   2.526   2.602   5.671  0.2394  1.3416  0.9874
 2092SOL    HW217913   2.395   2.623   5.616 -2.5293  0.6494  1.9570
 2093SOL     OW17914   3.178   2.465   3.803 -0.1943  0.7241  0.3507
 2093SOL    HW117915   3.125   2.544   3.815 -1.9655 -0.3776 -0.1125
 2093SOL    HW217916   3.234   2.470   3.880 -1.4262  3.2221  1.0767
 2094SOL     OW17917   4.465   0.108   3.088  0.3176  0.1249 -0.0644
 2094SOL    HW117918   4.489   0.198   3.110  0.5936 -0.1107  0.5988
 2094SOL    HW217919   4.397   0.134   3.025 -1.4693 -0.1177  1.7790
 2095SOL     OW17920   1.328   3.569   0.623 -0.5196  0.1725 -0.2939
 2095SOL    HW117921   1.265   3.555   0.694 -0.9554  0.0825 -0.6980
 2095SOL    HW217922   1.314   3.656   0.586 -0.7341 -0.7378 -2.3593
 2096SOL     OW17923   2.379   2.307   6.962  0.4261  0.0559 -0.5148
 2096SOL    HW117924   2.410   2.292   7.051  3.2912 -0.8649 -1.6510
 2096SOL    HW217925   2.296   2.260   6.967  0.4981 -0.0785 -0.5973
 2097SOL     OW17926   3.485   3.470   7.852  0.4040  0.0302 -0.4459
 2097SOL    HW117927   3.506   3.548   7.903  1.7138 -0.1231 -0.7357
 2097SOL    HW217928   3.401   3.447   7.890  0.2096 -0.1923 -1.0055
 2098SOL     OW17929   0.919   4.423   2.342 -0.1089 -0.1656  0.4411
 2098SOL    HW117930   0.953   4.335   2.325  3.0510  0.7432  1.9892
 2098SOL    HW217931   0.864   4.438   2.265 -0.1908 -2.1921  0.1176
 2099SOL     OW17932   1.069   3.648  17.029 -0.0064 -0.7501  0.1108
 2099SOL    HW117933   1.036   3.702  16.957 -0.3200 -2.4025 -1.0039
 2099SOL    HW217934   0.991   3.622  17.077  1.5201 -0.3046  2.8155
 2100SOL     OW17935   2.911   0.026   5.533 -0.0996 -0.2012 -0.8063
 2100SOL    HW117936   2.902   0.087   5.460 -1.2506  0.2519 -0.2967
 2100SOL    HW217937   2.857   4.699   5.490 -1.9309 -0.4532  1.8459
 2101SOL     OW17938   2.532   0.588  10.713  0.1805  0.0843 -0.5763
 2101SOL    HW117939   2.616   0.630  10.691  0.1646  0.1538 -0.5025
 2101SOL    HW217940   2.485   0.663  10.748 -1.0305 -2.4591  3.2213
 2102SOL     OW17941   4.379   4.726   9.495 -0.1201 -0.5823  0.0998
 2102SOL    HW117942   4.326   4.647   9.479 -0.6403  0.0824 -1.3772
 2102SOL    HW217943   4.304   0.039   9.524  0.8642 -0.4314  2.4026
 2103SOL     OW17944   4.097   1.507  13.048  0.3270  0.5169 -0.0770
 2103SOL    HW117945   4.071   1.561  12.973 -0.1008 -0.5426 -0.6821
 2103SOL    HW217946   4.143   1.579  13.091 -0.0902  1.6001 -1.4526
 2104SOL     OW17947   1.372   2.166   1.306 -0.6448 -0.0184  0.3137
 2104SOL    HW117948   1.458   2.205   1.316 -1.1191  0.3647  2.7728
 2104SOL    HW217949   1.388   2.103   1.235  3.1409 -0.1555  1.3342
 2105SOL     OW17950   3.610   3.616   3.555 -0.0626 -0.0995  0.3333
 2105SOL    HW117951   3.626   3.617   3.649 -2.0087 -0.8592  0.6801
 2105SOL    HW217952   3.662   3.692   3.532 -2.1093  1.6305  1.4021
 2106SOL     OW17953   1.684   1.811   9.737 -0.6017 -0.0167  0.1928
 2106SOL    HW117954   1.591   1.794   9.725 -0.7072  0.1481  0.7418
 2106SOL    HW217955   1.698   1.829   9.830 -0.9585  1.6323 -0.0726
 2107SOL     OW17956   4.365   0.455   4.629 -0.2193  0.1868 -0.2133
 2107SOL    HW117957   4.371   0.413   4.543 -0.5373  1.3224 -0.7900
 2107SOL    HW217958   4.286   0.413   4.661 -0.9085  0.1818 -1.8728
 2108SOL     OW17959   4.538   1.111   8.416 -0.4577  0.1632 -0.1549
 2108SOL    HW117960   4.535   1.080   8.506 -0.7507 -1.3226 -0.6614
 2108SOL    HW217961   4.573   1.036   8.368 -0.2041  0.0216  0.2503
 2109SOL     OW17962   2.698   4.122  14.951 -0.3043  0.0226  0.7028
 2109SOL    HW117963   2.635   4.181  14.992 -2.1993  0.4111 -2.7435
 2109SOL    HW217964   2.774   4.145  15.004  0.2733 -0.5510  0.1213
 2110SOL     OW17965   4.594   3.781   4.224  0.3110  0.1655  0.5536
 2110SOL    HW117966   4.672   3.833   4.207  0.4940 -0.3212 -0.1107
 2110SOL    HW217967   4.600   3.778   4.319  0.1262  3.4987  0.6575
 2111SOL     OW17968   0.057   0.603   9.097  0.1287 -0.5855  0.1696
 2111SOL    HW117969   4.716   0.619   9.047 -0.1899  1.7971  1.4228
 2111SOL    HW217970   0.120   0.600   9.025  0.1490  1.7945  0.0755
 2112SOL     OW17971   4.043   0.985   2.923 -0.5651 -0.0768  0.2725
 2112SOL    HW117972   3.992   0.957   2.847 -1.1616  0.0214  0.6358
 2112SOL    HW217973   3.967   0.975   2.982 -1.0040 -4.5504 -1.0213
 2113SOL     OW17974   2.489   2.900   2.565  0.1204 -0.2118 -0.6093
 2113SOL    HW117975   2.571   2.875   2.609  0.0677  1.6938  0.5982
 2113SOL    HW217976   2.514   2.971   2.506 -0.7852  0.3949 -0.2672
 2114SOL     OW17977   3.893   1.356   5.906  0.4076 -0.4041  0.3633
 2114SOL    HW117978   3.977   1.396   5.929  0.1790  0.0882  0.3373
 2114SOL    HW217979   3.872   1.406   5.827  2.0760 -0.0618  0.1158
 2115SOL     OW17980   3.135   1.011  15.258 -0.2960 -0.1744 -0.0480
 2115SOL    HW117981   3.085   0.957  15.197 -0.3141  0.2407 -0.4039
 2115SOL    HW217982   3.061   1.072  15.259 -0.6827 -0.6054 -2.1329
 2116SOL     OW17983   3.167   2.385  16.799 -0.7297  0.8640 -0.3948
 2116SOL    HW117984   3.106   2.427  16.738 -2.5124  0.3169  1.0421
 2116SOL    HW217985   3.103   2.367  16.867 -0.1443  0.8685  0.1506
 2117SOL     OW17986   0.287   3.127   8.178  0.1216  0.6320 -1.0686
 2117SOL    HW117987   0.368   3.085   8.210 -1.3278  0.0894  1.9279
 2117SOL    HW217988   0.271   3.092   8.091  0.4516  0.0964 -0.9188
 2118SOL     OW17989   3.314   3.789  11.738 -0.2195 -0.2647 -0.4441
 2118SOL    HW117990   3.385   3.762  11.680 -0.4493  0.4437 -1.0600
 2118SOL    HW217991   3.320   3.726  11.809 -0.1557 -0.2749 -0.4590
 2119SOL     OW17992   2.086   4.693  13.099 -0.0638  0.4162  0.9287
 2119SOL    HW117993   2.138   4.615  13.117 -0.8430  0.1047  1.8823
 2119SOL    HW217994   2.033   4.696  13.179 -0.0516 -0.9667  0.9792
 2120SOL     OW17995   3.477   0.635  17.651 -0.1626 -0.2616 -0.3418
 2120SOL    HW117996   3.444   0.662  17.565 -2.7266  0.3754  0.8650
 2120SOL    HW217997   3.552   0.693  17.666  0.3628 -0.7257 -1.1470
 2121SOL     OW17998   3.325   4.049   3.291 -0.1309  0.1057  0.8347
 2121SOL    HW117999   3.262   3.987   3.329 -1.4837  0.5830 -0.6326
 2121SOL    HW218000   3.280   4.130   3.314 -0.6433  0.6343 -2.0361
 2122SOL     OW18001   2.654   2.808   7.954 -0.0169  0.1360 -0.1325
 2122SOL    HW118002   2.567   2.821   7.917 -1.5374  0.7375  3.6057
 2122SOL    HW218003   2.699   2.890   7.934  2.4492 -1.1501  0.1431
 2123SOL     OW18004   3.815   1.147   8.290 -0.2461 -0.1635 -0.5615
 2123SOL    HW118005   3.867   1.069   8.307  3.1142  1.9512 -1.0906
 2123SOL    HW218006   3.725   1.116   8.302 -0.0431  0.2464  1.9758
 2124SOL     OW18007   4.326   2.437   2.564 -0.0035 -0.0433 -0.3236
 2124SOL    HW118008   4.370   2.517   2.537  1.1273 -0.0883  1.3577
 2124SOL    HW218009   4.303   2.453   2.656 -1.0568 -0.9760 -0.4152
 2125SOL     OW18010   0.890   4.147  13.494 -0.5322 -0.7903  0.4298
 2125SOL    HW118011   0.831   4.095  13.440 -1.0001 -2.6179  2.7009
 2125SOL    HW218012   0.868   4.233  13.459  0.7791 -0.9363 -0.7940
 2126SOL     OW18013   3.648   4.339   6.859  0.1372  0.2293 -0.0316
 2126SOL    HW118014   3.577   4.304   6.914  1.9509 -2.6002  0.5141
 2126SOL    HW218015   3.629   4.294   6.776  1.8003  0.3312 -0.4584
 2127SOL     OW18016   1.162   4.232   7.160 -0.1276  0.2579  0.0188
 2127SOL    HW118017   1.161   4.250   7.254 -0.3086  2.1136 -0.3385
 2127SOL    HW218018   1.073   4.200   7.147  0.0453 -0.0126 -0.5087
 2128SOL     OW18019   0.951   2.807   7.130  0.1889  0.2372 -0.3597
 2128SOL    HW118020   0.861   2.775   7.142 -0.0479  1.3605  0.7825
 2128SOL    HW218021   0.961   2.807   7.034  1.4186 -0.8160 -0.2239
 2129SOL     OW18022   4.364   0.540   9.667 -0.2602  0.3743 -0.4036
 2129SOL    HW118023   4.432   0.563   9.603  0.9412 -0.6271  0.5150
 2129SOL    HW218024   4.371   0.622   9.717  0.7256  0.2491 -0.3361
 2130SOL     OW18025   1.361   0.499   0.784  0.4205 -0.8355 -0.0018
 2130SOL    HW118026   1.344   0.527   0.694 -0.8805 -1.4115  0.0529
 2130SOL    HW218027   1.368   0.583   0.830 -1.1415 -1.0405  0.6074
 2131SOL     OW18028   4.731   0.524   4.892  0.0432  0.1318 -0.1354
 2131SOL    HW118029   0.042   0.552   4.815 -2.1915  3.1849 -0.4975
 2131SOL    HW218030   0.012   0.431   4.884 -0.5825 -0.2033  2.3050
 2132SOL     OW18031   3.111   3.667  12.182 -0.5935  0.3132  0.2372
 2132SOL    HW118032   3.149   3.755  12.175 -1.3048  0.5835 -0.2589
 2132SOL    HW218033   3.175   3.623  12.126 -1.5886 -0.4584 -0.2855
 2133SOL     OW18034   3.004   3.255  17.708 -0.4459 -0.2866  1.2279
 2133SOL    HW118035   2.954   3.176  17.729 -2.1582 -0.0327 -2.0128
 2133SOL    HW218036   2.984   3.308   0.032  1.3012  1.3704  0.5241
 2134SOL     OW18037   1.153   1.036   3.860 -0.7446  0.2622  0.5283
 2134SOL    HW118038   1.242   1.004   3.872 -1.0606 -1.0252 -0.5592
 2134SOL    HW218039   1.154   1.131   3.844 -0.9830 -0.0848 -1.5786
 2135SOL     OW18040   0.467   1.904   4.651 -0.2715 -0.4285  0.6241
 2135SOL    HW118041   0.428   1.922   4.736 -0.1686 -1.3282  0.8595
 2135SOL    HW218042   0.559   1.877   4.660 -0.1304 -0.2705 -0.2977
 2136SOL     OW18043   0.181   0.748   9.300  0.2367 -0.1278 -0.1968
 2136SOL    HW118044   0.108   0.805   9.275  0.1694 -1.3221 -2.7219
 2136SOL    HW218045   0.166   0.684   9.231  2.4953 -0.0257 -0.7720
 2137SOL     OW18046   3.410   1.610   5.461 -0.4578 -0.2452 -0.8168
 2137SOL    HW118047   3.443   1.658   5.537  0.9966 -1.2431 -0.8081
 2137SOL    HW218048   3.316   1.627   5.470 -0.0451  1.5757  0.1979
 2138SOL     OW18049   2.694   2.362   7.898 -0.5336  0.6209  0.4160
 2138SOL    HW118050   2.764   2.391   7.957  0.2486 -0.1270 -0.1415
 2138SOL    HW218051   2.630   2.327   7.959  0.5108  0.6641  1.5424
 2139SOL     OW18052   3.593   4.203   5.754 -0.0422 -0.3160 -0.0980
 2139SOL    HW118053   3.530   4.211   5.683 -0.1271 -0.6359 -0.0568
 2139SOL    HW218054   3.600   4.294   5.786  1.0023 -0.7192  0.8516
 2140SOL     OW18055   3.613   4.053  17.082  0.1537  0.3073  1.0015
 2140SOL    HW118056   3.601   3.965  17.117 -0.8471  0.7647  1.8084
 2140SOL    HW218057   3.695   4.040  17.034  0.3153 -2.0376  1.9305
 2141SOL     OW18058   3.351   0.667   5.903 -0.2429  0.4027 -0.4817
 2141SOL    HW118059   3.286   0.607   5.938  1.3905 -1.3170 -0.3987
 2141SOL    HW218060   3.433   0.617   5.906 -0.1735  0.6100  1.1111
 2142SOL     OW18061   3.926   2.956  10.797  0.0049 -0.0330 -0.3598
 2142SOL    HW118062   3.939   2.862  10.811 -1.7355 -0.1729  0.3133
 2142SOL    HW218063   3.845   2.951  10.746  0.2382 -1.9580 -0.5407
 2143SOL     OW18064   4.246   0.212   7.295 -0.4884 -0.2996  0.2064
 2143SOL    HW118065   4.231   0.285   7.355 -4.0303 -0.3076 -0.6784
 2143SOL    HW218066   4.312   0.160   7.342 -1.6029 -1.0664  0.9041
 2144SOL     OW18067   1.391   0.626   2.276 -0.0388 -0.2851 -0.6219
 2144SOL    HW118068   1.355   0.678   2.349  0.4469 -2.1398  0.9259
 2144SOL    HW218069   1.306   0.613   2.233 -0.6777 -3.6983  1.6962
 2145SOL     OW18070   3.112   4.670   4.369  0.0231  0.1138 -0.3726
 2145SOL    HW118071   3.190   4.682   4.315  0.1017 -1.6988 -0.6545
 2145SOL    HW218072   3.131   0.011   4.418  0.1833  0.4605 -0.9999
 2146SOL     OW18073   0.194   4.437   4.802  0.0364  0.1067 -0.2044
 2146SOL    HW118074   0.139   4.362   4.828 -0.8089  1.0396  0.7133
 2146SOL    HW218075   0.275   4.401   4.838 -0.7673  0.5438  2.0541
 2147SOL     OW18076   2.534   1.663   1.878  0.4678  0.0458 -0.2023
 2147SOL    HW118077   2.443   1.647   1.853  0.1351  0.9963  0.4423
 2147SOL    HW218078   2.522   1.752   1.910 -1.5311 -0.4771  0.5313
 2148SOL     OW18079   2.634   2.302   9.056  0.2260  0.5336 -0.6216
 2148SOL    HW118080   2.647   2.396   9.046  2.0220  0.1581 -1.7854
 2148SOL    HW218081   2.539   2.294   9.062  0.2257  0.3329 -0.8940
 2149SOL     OW18082   0.557   3.285   6.720 -0.9414 -0.2634 -0.4345
 2149SOL    HW118083   0.531   3.356   6.661  0.0706 -0.8859 -1.6403
 2149SOL    HW218084   0.542   3.321   6.807 -0.0902 -0.8914 -0.0309
 2150SOL     OW18085   3.135   3.633  14.601 -0.2027 -0.0025  0.7116
 2150SOL    HW118086   3.142   3.607  14.509  1.9334  0.4325  0.7347
 2150SOL    HW218087   3.154   3.546  14.636 -1.3326 -0.3792  0.3913
 2151SOL     OW18088   0.037   1.502   2.702  1.0101  0.4793  0.0339
 2151SOL    HW118089   4.685   1.473   2.711  0.8270  0.5679 -1.6415
 2151SOL    HW218090   0.025   1.580   2.649 -1.1809  0.7596  0.9578
 2152SOL     OW18091   1.728   2.104   4.695 -0.2574  0.2610 -0.3166
 2152SOL    HW118092   1.640   2.137   4.675  0.7762  1.6738 -2.5889
 2152SOL    HW218093   1.761   2.068   4.612  0.0105  0.3864 -0.2629
 2153SOL     OW18094   2.579   3.259  15.116 -0.1664 -0.0736  0.1692
 2153SOL    HW118095   2.649   3.199  15.092  0.1534  0.4038 -0.0850
 2153SOL    HW218096   2.559   3.232  15.206  0.8340  1.2550  0.7884
 2154SOL     OW18097   0.114   4.436   2.774 -0.0262  0.7118  0.7416
 2154SOL    HW118098   0.041   4.468   2.720  0.4312  0.1638 -0.2024
 2154SOL    HW218099   0.163   4.401   2.699  1.3754  1.6666  1.2087
 2155SOL     OW18100   3.007   2.145   9.541  0.0648 -0.3284  1.0469
 2155SOL    HW118101   2.944   2.073   9.546 -1.4567  0.9321  0.1705
 2155SOL    HW218102   2.968   2.194   9.468 -0.1807 -2.8435 -0.5503
 2156SOL     OW18103   0.205   0.058   3.646  0.3107 -0.4841  0.0484
 2156SOL    HW118104   0.167   4.725   3.696 -1.2001  0.2355 -0.0751
 2156SOL    HW218105   0.265   0.098   3.710 -0.5671  2.1621 -0.7621
 2157SOL     OW18106   2.701   0.662   1.800 -0.0247 -0.2034 -0.0571
 2157SOL    HW118107   2.661   0.586   1.759  0.2225 -0.7400  0.6996
 2157SOL    HW218108   2.743   0.613   1.871 -0.6499 -1.4621 -0.5643
 2158SOL     OW18109   0.622   1.578  10.960  0.4768  0.0747 -0.1471
 2158SOL    HW118110   0.583   1.528  11.032 -0.7168 -0.4269 -1.1590
 2158SOL    HW218111   0.685   1.516  10.923  0.4725  1.0522 -1.7820
 2159SOL     OW18112   3.599   3.760   8.309 -0.2259 -0.1505  0.0303
 2159SOL    HW118113   3.562   3.819   8.243 -0.7732 -1.5805 -0.9408
 2159SOL    HW218114   3.543   3.777   8.384 -0.8477  1.5532 -0.8209
 2160SOL     OW18115   4.410   1.017  17.255  0.5051 -0.9181  0.4651
 2160SOL    HW118116   4.436   1.088  17.315  0.0803 -0.4974  0.1514
 2160SOL    HW218117   4.448   0.944  17.303 -1.1137 -2.2926 -0.3757
 2161SOL     OW18118   2.998   2.024   5.198 -0.1428 -0.5276 -0.2905
 2161SOL    HW118119   2.965   1.939   5.170  0.0729 -1.3550  2.0114
 2161SOL    HW218120   3.086   1.995   5.221 -1.1897 -2.0570  1.7309
 2162SOL     OW18121   1.204   4.691   1.742 -0.1382  0.4699  0.1773
 2162SOL    HW118122   1.193   4.683   1.647  2.7031  0.3787 -0.1265
 2162SOL    HW218123   1.117   4.664   1.772 -0.3078  0.7340 -0.0755
 2163SOL     OW18124   4.087   1.795   9.525 -0.2812  0.0815  0.2117
 2163SOL    HW118125   4.044   1.856   9.465 -0.3471 -0.3427 -0.1652
 2163SOL    HW218126   4.089   1.848   9.605 -2.2538  1.9011 -0.9535
 2164SOL     OW18127   2.866   0.303   2.728  0.0129  0.3690 -0.7386
 2164SOL    HW118128   2.802   0.240   2.695  1.2805 -1.8680  1.0444
 2164SOL    HW218129   2.815   0.378   2.697 -1.0998 -0.2850 -0.4952
 2165SOL     OW18130   2.575   2.473  16.058 -0.5727  0.0404 -0.0148
 2165SOL    HW118131   2.482   2.455  16.075  0.0387 -2.2289  0.9430
 2165SOL    HW218132   2.591   2.436  15.971  1.8942  1.3218 -0.0958
 2166SOL     OW18133   2.752   2.675   4.540  0.0241 -0.1069 -0.3981
 2166SOL    HW118134   2.669   2.722   4.531 -1.0555 -1.7081  0.9796
 2166SOL    HW218135   2.787   2.712   4.621 -1.6473  0.2731  0.1506
 2167SOL     OW18136   4.144   4.322  15.767 -0.2691  0.3121 -0.2591
 2167SOL    HW118137   4.082   4.388  15.799 -0.9912 -0.2370 -0.5067
 2167SOL    HW218138   4.091   4.282  15.697  3.5892 -2.8023 -1.3821
 2168SOL     OW18139   4.149   4.689  11.940  0.2418 -0.0837  1.3308
 2168SOL    HW118140   4.150   4.614  11.880 -1.2023  0.8127  0.1736
 2168SOL    HW218141   4.113   4.650  12.020  2.4798 -0.5727  2.0948
 2169SOL     OW18142   2.850   1.197   7.093  0.3474  0.5193  0.0096
 2169SOL    HW118143   2.861   1.104   7.072  2.3580  0.6620  0.4081
 2169SOL    HW218144   2.776   1.223   7.038  0.8160  1.0988 -0.3359
 2170SOL     OW18145   3.705   2.941   2.479 -0.1500 -0.3586  0.3027
 2170SOL    HW118146   3.620   2.934   2.521  0.5719  2.5405  2.1997
 2170SOL    HW218147   3.750   2.862   2.509  2.4037  0.9189 -0.1066
 2171SOL     OW18148   0.104   4.655   3.866 -0.3036  0.6886  0.0466
 2171SOL    HW118149   0.009   4.660   3.866 -0.3236  0.2685  0.8035
 2171SOL    HW218150   0.132   4.733   3.915 -2.2349  1.1498  0.3980
 2172SOL     OW18151   3.923   4.397   8.616 -0.0762  0.5050  0.0670
 2172SOL    HW118152   3.975   4.423   8.692  0.6774 -0.2482 -0.1858
 2172SOL    HW218153   3.979   4.426   8.543 -0.3556  0.2042 -0.2677
 2173SOL     OW18154   2.188   1.785   2.942  0.1217 -0.1828 -0.0360
 2173SOL    HW118155   2.213   1.865   2.895  0.9443 -0.3720  0.0868
 2173SOL    HW218156   2.161   1.826   3.025 -0.0642  0.0832 -0.2263
 2174SOL     OW18157   1.611   3.115   0.153 -0.2016  1.0902 -0.0719
 2174SOL    HW118158   1.530   3.089   0.109  1.2562  2.1016 -3.3636
 2174SOL    HW218159   1.635   3.196   0.109 -2.7701  1.5116 -0.6960
 2175SOL     OW18160   0.673   1.509   3.573 -0.2652  0.3518 -0.2546
 2175SOL    HW118161   0.593   1.554   3.543 -0.2797 -0.3691 -1.2915
 2175SOL    HW218162   0.738   1.579   3.580 -0.0739 -0.0105  1.3928
 2176SOL     OW18163   0.525   0.635   4.338 -0.2620  0.2792 -0.4027
 2176SOL    HW118164   0.444   0.682   4.354  0.0947  0.8892 -0.3990
 2176SOL    HW218165   0.565   0.681   4.264  3.1383 -3.0024 -0.6058
 2177SOL     OW18166   1.361   0.638   7.391 -0.9955 -0.0121  0.4097
 2177SOL    HW118167   1.331   0.577   7.323  1.4730  0.3439 -0.9850
 2177SOL    HW218168   1.402   0.706   7.337  2.5909  0.1750  3.3869
 2178SOL     OW18169   2.549   4.239  13.033 -0.0400 -0.0813 -0.5201
 2178SOL    HW118170   2.511   4.307  13.088  0.3332  0.5936 -1.0975
 2178SOL    HW218171   2.476   4.217  12.974 -2.7632  0.8724  2.4650
 2179SOL     OW18172   2.914   3.601   7.929  0.0594  0.1485  0.3779
 2179SOL    HW118173   2.834   3.643   7.896 -1.4542 -1.5800  1.8473
 2179SOL    HW218174   2.945   3.567   7.845 -1.4491  0.5496 -0.3360
 2180SOL     OW18175   1.010   1.241   3.422 -0.5839  0.0285 -0.1650
 2180SOL    HW118176   0.919   1.264   3.441 -1.6833 -2.2783 -2.7086
 2180SOL    HW218177   1.019   1.161   3.473 -0.9116 -0.2498 -0.5445
 2181SOL     OW18178   3.280   2.496  10.509  0.0860  0.1866  0.1101
 2181SOL    HW118179   3.227   2.432  10.555  0.6591  0.0338  0.5511
 2181SOL    HW218180   3.287   2.449  10.426 -0.5565 -0.1458  0.2467
 2182SOL     OW18181   1.487   3.602   3.481  0.4162 -0.5524 -0.2080
 2182SOL    HW118182   1.532   3.529   3.437  0.7402  0.0207 -0.8350
 2182SOL    HW218183   1.403   3.604   3.436  1.3974 -0.5374 -2.0640
 2183SOL     OW18184   2.043   1.967   5.772  0.5452 -0.2118  0.2099
 2183SOL    HW118185   1.982   1.894   5.783 -0.4930  0.4587 -0.9886
 2183SOL    HW218186   2.062   1.972   5.678 -3.1916  1.1934 -0.5050
 2184SOL     OW18187   1.093   3.986  11.519 -0.3265  0.2094 -0.0528
 2184SOL    HW118188   1.107   4.054  11.454 -1.5417 -0.8314 -1.4092
 2184SOL    HW218189   1.182   3.952  11.529 -1.3573 -2.3719  0.3255
 2185SOL     OW18190   1.848   0.877   7.890  0.1881 -0.6832  0.0219
 2185SOL    HW118191   1.821   0.928   7.814 -0.9520 -0.5923  0.4907
 2185SOL    HW218192   1.855   0.947   7.954  2.7157 -0.4979 -0.4325
 2186SOL     OW18193   0.540   0.726  11.564  0.2354  0.0608 -0.7937
 2186SOL    HW118194   0.617   0.777  11.590  0.4820  0.1025 -1.6118
 2186SOL    HW218195   0.478   0.758  11.630 -0.6313 -1.8098 -0.6949
 2187SOL     OW18196   2.581   2.547   1.329 -0.4519 -0.2827  0.1293
 2187SOL    HW118197   2.571   2.504   1.414 -3.8477  0.7130  0.2173
 2187SOL    HW218198   2.532   2.629   1.333  2.1505  1.3478 -1.4952
 2188SOL     OW18199   1.529   0.437  11.838  0.3951 -0.4081  0.7689
 2188SOL    HW118200   1.600   0.481  11.791 -0.3959  0.3358  0.2711
 2188SOL    HW218201   1.458   0.431  11.773  0.1275 -3.5246  1.3556
 2189SOL     OW18202   0.811   3.422   4.860  0.0188  0.0241  0.1687
 2189SOL    HW118203   0.789   3.468   4.941 -0.9205  2.1007 -1.2510
 2189SOL    HW218204   0.836   3.495   4.803  1.0872 -0.6378 -0.2089
 2190SOL     OW18205   4.274   0.337  13.462  0.2942 -0.2611 -0.4048
 2190SOL    HW118206   4.352   0.326  13.516 -0.0733  1.9160  0.5983
 2190SOL    HW218207   4.212   0.301  13.526  0.7708 -2.2709 -1.1071
 2191SOL     OW18208   1.728   2.872  15.832  0.2959  0.1136  0.2737
 2191SOL    HW118209   1.807   2.837  15.873 -0.2658  0.1950  1.4476
 2191SOL    HW218210   1.741   2.967  15.839  2.0752 -0.0700 -0.6998
 2192SOL     OW18211   3.090   1.210  12.529  1.1592 -0.0146  0.0548
 2192SOL    HW118212   3.178   1.247  12.530  1.0038  0.3451  0.2732
 2192SOL    HW218213   3.068   1.204  12.622  0.9819  3.2489  0.2122
 2193SOL     OW18214   1.257   1.573  14.378  0.2411  0.0049 -0.0584
 2193SOL    HW118215   1.196   1.606  14.312 -2.9794 -0.9499  2.4845
 2193SOL    HW218216   1.272   1.483  14.350 -2.3227 -0.5473  0.3348
 2194SOL     OW18217   4.496   2.393   4.338  0.0660  0.1763 -0.3606
 2194SOL    HW118218   4.543   2.419   4.259  2.9152 -2.0287  0.5835
 2194SOL    HW218219   4.540   2.309   4.354 -0.8447 -0.0886  0.7743
 2195SOL     OW18220   1.793   1.336   2.772 -0.3103 -0.5328 -0.3838
 2195SOL    HW118221   1.824   1.390   2.845 -0.2944 -1.5483  0.3643
 2195SOL    HW218222   1.865   1.273   2.771 -0.5334 -0.7647 -2.2750
 2196SOL     OW18223   4.598   4.260   5.626  0.7221 -0.5397  0.9377
 2196SOL    HW118224   4.622   4.348   5.658 -1.0622  0.3421 -0.1492
 2196SOL    HW218225   4.520   4.243   5.679 -0.0236 -0.4744 -0.1385
 2197SOL     OW18226   3.346   2.061   4.670 -0.0469  0.7117  0.3641
 2197SOL    HW118227   3.275   2.057   4.734 -0.3550 -1.7909 -0.1419
 2197SOL    HW218228   3.305   2.036   4.587  0.0368 -0.5391  0.6950
 2198SOL     OW18229   0.472   3.391   4.310  0.3497  0.5925  0.5756
 2198SOL    HW118230   0.565   3.380   4.290 -0.1690 -0.5869 -1.0574
 2198SOL    HW218231   0.482   3.346   4.394 -0.5349  1.5816  1.2181
 2199SOL     OW18232   3.290   3.176   4.484 -0.3126 -0.0285 -0.2415
 2199SOL    HW118233   3.288   3.249   4.546  0.5668 -1.1460  1.0933
 2199SOL    HW218234   3.199   3.147   4.493 -0.0478 -1.5724 -2.6261
 2200SOL     OW18235   1.158   2.894   3.914  0.3646 -0.0563 -0.4735
 2200SOL    HW118236   1.223   2.964   3.917 -0.1183  0.2997  1.7198
 2200SOL    HW218237   1.111   2.930   3.839  1.3849 -0.7612 -1.4542
 2201SOL     OW18238   1.009   2.288  15.571 -0.0667  0.1556 -1.0102
 2201SOL    HW118239   0.935   2.253  15.521  0.9026 -1.3628 -1.4038
 2201SOL    HW218240   1.020   2.224  15.642 -0.4281 -0.5786 -1.6143
 2202SOL     OW18241   4.635   3.195   5.980  0.0957  0.2530 -0.4047
 2202SOL    HW118242   4.604   3.104   5.984  1.6620 -0.3340 -1.6050
 2202SOL    HW218243   4.585   3.237   6.049  0.2435 -0.0687 -0.1052
 2203SOL     OW18244   2.120   1.848   8.015 -0.0973  0.4273  0.5164
 2203SOL    HW118245   2.082   1.848   8.103 -1.7379 -0.4490 -0.1726
 2203SOL    HW218246   2.053   1.805   7.961  1.7284  0.3174 -1.6435
 2204SOL     OW18247   3.015   4.600   9.085 -0.2093  0.5485  0.2166
 2204SOL    HW118248   3.059   4.682   9.105  1.7345 -0.2443 -0.8438
 2204SOL    HW218249   3.026   4.543   9.161 -0.2473  2.2604  1.5035
 2205SOL     OW18250   4.577   1.853   8.944 -0.0832 -0.7614  0.6078
 2205SOL    HW118251   4.524   1.918   8.989 -1.8921 -3.1871  1.9756
 2205SOL    HW218252   4.510   1.789   8.919 -0.0206 -0.9586  0.9384
 2206SOL     OW18253   2.932   2.077   2.253  0.4776  0.0160  0.5516
 2206SOL    HW118254   2.942   2.009   2.186  2.5807  0.9077 -0.0358
 2206SOL    HW218255   2.905   2.149   2.196 -1.8413 -0.9363  0.4403
 2207SOL     OW18256   2.936   2.002   8.135  0.2608 -0.6011  0.3930
 2207SOL    HW118257   3.008   1.993   8.072 -0.6545  0.7696 -0.8505
 2207SOL    HW218258   2.946   1.929   8.197 -1.1196 -0.8318  0.3327
 2208SOL     OW18259   1.020   1.889   2.221 -0.1924 -0.3442  0.3917
 2208SOL    HW118260   1.032   1.981   2.197  2.1417 -1.2103 -1.7316
 2208SOL    HW218261   1.032   1.849   2.135 -1.7462 -0.4002  0.1990
 2209SOL     OW18262   3.096   4.347   1.542 -0.0385 -0.5994 -0.8107
 2209SOL    HW118263   3.115   4.393   1.624  0.3845 -0.3796 -1.0345
 2209SOL    HW218264   3.175   4.373   1.494  0.3450 -1.6790 -0.7624
 2210SOL     OW18265   3.032   1.890   7.511 -0.3235 -0.0434 -0.6232
 2210SOL    HW118266   2.983   1.808   7.499 -2.9137  1.3774  0.2888
 2210SOL    HW218267   3.007   1.917   7.600  0.2358  1.6613 -0.9865
 2211SOL     OW18268   1.690   0.612  17.312  0.1784 -0.5895 -0.2431
 2211SOL    HW118269   1.621   0.671  17.281  0.5121  0.2190  0.5464
 2211SOL    HW218270   1.722   0.581  17.228  1.2666 -0.8534  0.2665
 2212SOL     OW18271   2.371   2.286   9.111 -0.2908 -0.1341 -0.2454
 2212SOL    HW118272   2.390   2.193   9.107  1.7100  0.1735  1.7201
 2212SOL    HW218273   2.310   2.309   9.041 -0.3759 -1.0214 -0.4549
 2213SOL     OW18274   2.531   4.622   2.999 -0.4398  0.0462  0.1437
 2213SOL    HW118275   2.600   4.624   3.066  1.3286  1.4083 -1.7005
 2213SOL    HW218276   2.558   4.551   2.942 -0.8051  1.8141 -2.2489
 2214SOL     OW18277   3.495   4.531   5.500 -0.3449  0.2163  0.4417
 2214SOL    HW118278   3.526   4.441   5.491 -0.2383  0.4519 -1.6243
 2214SOL    HW218279   3.410   4.519   5.542 -0.6120 -0.1218 -0.1953
 2215SOL     OW18280   4.148   1.016   8.393  1.1044  0.4118  0.4187
 2215SOL    HW118281   4.191   0.954   8.334 -1.2733 -2.6872  1.9486
 2215SOL    HW218282   4.059   0.987   8.377  0.4721  1.0541  2.8215
 2216SOL     OW18283   3.047   3.712   9.364 -0.0926 -0.1035  0.0107
 2216SOL    HW118284   3.053   3.635   9.420 -0.3015 -1.8902 -2.3980
 2216SOL    HW218285   3.098   3.778   9.412 -2.0961  0.2743  1.6185
 2217SOL     OW18286   1.774   0.809   6.183 -0.5171  0.0778 -0.5292
 2217SOL    HW118287   1.850   0.817   6.125  0.5459  0.5776  0.9460
 2217SOL    HW218288   1.734   0.735   6.138 -0.8969  0.3706 -0.6670
 2218SOL     OW18289   2.316   4.354   4.776 -0.1140  0.2932  0.1031
 2218SOL    HW118290   2.281   4.288   4.716  0.0727  0.1427  0.1606
 2218SOL    HW218291   2.389   4.384   4.720  0.3360 -1.6047 -0.3222
 2219SOL     OW18292   1.238   1.293   3.901 -0.3624  0.8119  0.0859
 2219SOL    HW118293   1.327   1.312   3.873 -0.5834 -1.1526 -1.9595
 2219SOL    HW218294   1.214   1.373   3.947 -0.3783  0.2860  1.0060
 2220SOL     OW18295   2.652   3.989   4.793 -0.5968  0.1433 -0.0640
 2220SOL    HW118296   2.615   4.023   4.711 -0.6970  1.6402  0.6098
 2220SOL    HW218297   2.575   3.969   4.847  0.2068 -1.6912  0.4132
 2221SOL     OW18298   4.462   0.037  17.361  0.1785  0.0921  0.0280
 2221SOL    HW118299   4.387   4.717  17.369 -0.5452  1.0207  0.0374
 2221SOL    HW218300   4.419   0.122  17.353  1.8727  0.9331 -0.1452
 2222SOL     OW18301   3.047   2.694   7.073  0.3923  0.5125  0.2267
 2222SOL    HW118302   2.982   2.701   7.004  2.8392 -0.0458 -2.1065
 2222SOL    HW218303   3.115   2.653   7.020 -0.4333 -0.5484 -0.0185
 2223SOL     OW18304   3.198   0.700   1.449 -0.3480 -0.1083  0.6627
 2223SOL    HW118305   3.155   0.714   1.365 -1.6655  0.5041  1.4555
 2223SOL    HW218306   3.117   0.705   1.499 -1.1015 -0.8027 -0.4950
 2224SOL     OW18307   2.069   0.005   9.071 -0.4080 -0.6606 -0.2104
 2224SOL    HW118308   2.110   4.729   9.157 -0.1541  0.3069 -0.1741
 2224SOL    HW218309   2.109   4.669   9.027  1.1002  0.2272 -0.3291
 2225SOL     OW18310   4.003   1.236   9.603 -0.0749  0.8005  0.0302
 2225SOL    HW118311   4.020   1.326   9.633 -0.3404  1.7616 -2.6242
 2225SOL    HW218312   3.981   1.196   9.686 -2.6073  0.5678 -0.7738
 2226SOL     OW18313   4.279   3.127  14.525 -0.3018 -0.6396  0.4623
 2226SOL    HW118314   4.344   3.102  14.459 -0.0600 -2.4851  1.3886
 2226SOL    HW218315   4.276   3.216  14.491 -0.0492 -0.2504  1.4699
 2227SOL     OW18316   2.945   2.234   8.263 -0.3352 -0.3862  0.3320
 2227SOL    HW118317   2.942   2.160   8.203  0.1392  0.0299 -0.2059
 2227SOL    HW218318   3.006   2.196   8.326 -1.4187 -0.3090  1.4432
 2228SOL     OW18319   1.557   3.329   5.695 -0.6280 -0.6213  0.2787
 2228SOL    HW118320   1.639   3.323   5.647 -0.3255  0.4623  0.6545
 2228SOL    HW218321   1.565   3.247   5.745 -0.0108 -0.9859 -0.4204
 2229SOL     OW18322   3.636   3.816  17.280 -0.0120 -0.1216  0.0957
 2229SOL    HW118323   3.542   3.796  17.273  0.2335 -0.8057 -1.2878
 2229SOL    HW218324   3.660   3.795  17.370  1.2196  1.0077  0.0245
 2230SOL     OW18325   3.429   0.139   9.299  0.1682 -0.4525  1.0677
 2230SOL    HW118326   3.473   0.064   9.260  0.8326  0.2169  0.5227
 2230SOL    HW218327   3.433   0.198   9.224 -0.9781 -0.2245  1.1881
 2231SOL     OW18328   2.616   0.876   8.604 -0.3496  0.6021  0.4521
 2231SOL    HW118329   2.711   0.877   8.616 -0.4332  1.6339  1.0094
 2231SOL    HW218330   2.594   0.788   8.635  1.5643 -0.1926 -0.4940
 2232SOL     OW18331   0.605   3.873   8.605  0.1038 -0.2696 -0.1967
 2232SOL    HW118332   0.589   3.964   8.630  0.1683 -0.1460 -0.5969
 2232SOL    HW218333   0.516   3.845   8.582  0.8288 -1.5664 -1.4224
 2233SOL     OW18334   1.594   4.372  11.940 -0.4220 -0.3085  0.0213
 2233SOL    HW118335   1.687   4.396  11.936 -0.4450 -0.2158  0.0419
 2233SOL    HW218336   1.581   4.328  11.856 -3.1167  0.8259 -0.1687
 2234SOL     OW18337   2.984   1.610   7.461  0.1984  0.5933  0.0656
 2234SOL    HW118338   2.932   1.617   7.541  0.5165  1.0996  0.2279
 2234SOL    HW218339   2.929   1.568   7.396  2.3853  0.9370 -2.0043
 2235SOL     OW18340   1.591   1.780   5.797 -0.2498 -0.2517 -0.5191
 2235SOL    HW118341   1.531   1.849   5.771 -2.0636 -0.6389  2.5659
 2235SOL    HW218342   1.543   1.701   5.771 -0.8763 -0.0693  0.0740
 2236SOL     OW18343   1.296   3.266  12.527 -0.1659  0.3680  0.1006
 2236SOL    HW118344   1.256   3.327  12.466  1.1037 -0.8733 -1.9653
 2236SOL    HW218345   1.220   3.209  12.544 -0.4521  1.0651  1.1111
 2237SOL     OW18346   2.025   2.951   8.091  0.7483  0.1949  0.2000
 2237SOL    HW118347   2.051   2.864   8.060 -3.0832 -0.4337 -1.3003
 2237SOL    HW218348   2.084   2.949   8.166 -1.2748 -1.4890  1.7564
 2238SOL     OW18349   2.386   4.459   0.674  0.2893 -0.1849  0.8752
 2238SOL    HW118350   2.373   4.482   0.582  0.2400  0.1426  0.9617
 2238SOL    HW218351   2.387   4.364   0.672 -1.3723 -0.1810 -0.2015
 2239SOL     OW18352   0.465   3.297  16.631 -0.5019 -0.3585 -0.0461
 2239SOL    HW118353   0.383   3.247  16.623  0.2661 -1.4202 -1.1614
 2239SOL    HW218354   0.525   3.231  16.663  0.3467  0.1592 -0.5760
 2240SOL     OW18355   1.448   4.707   4.908 -0.0648  0.0904  0.3983
 2240SOL    HW118356   1.515   4.649   4.873 -2.6508 -1.7533 -1.5735
 2240SOL    HW218357   1.464   0.047   4.855  0.5981 -0.8588 -0.8118
 2241SOL     OW18358   3.209   2.234   2.841 -0.2322 -0.6574  0.1274
 2241SOL    HW118359   3.115   2.225   2.832 -0.4342  1.6456  0.0283
 2241SOL    HW218360   3.245   2.179   2.771  1.4497  0.7275 -0.1114
 2242SOL     OW18361   3.483   2.364   4.624 -0.5551 -0.3665 -0.2359
 2242SOL    HW118362   3.449   2.302   4.688 -0.5916 -2.2919 -2.0978
 2242SOL    HW218363   3.443   2.325   4.546  0.3679  0.7695 -1.2763
 2243SOL     OW18364   2.690   0.214   0.919  0.7589  0.2804  0.1749
 2243SOL    HW118365   2.622   0.250   0.976 -1.1962 -0.7125 -1.5296
 2243SOL    HW218366   2.663   0.250   0.834  0.4807  1.0469  0.5886
 2244SOL     OW18367   1.403   1.989   6.480 -0.5745 -0.4350  0.0207
 2244SOL    HW118368   1.360   1.987   6.565 -0.4979 -1.8897  0.0230
 2244SOL    HW218369   1.356   1.921   6.432  0.7040 -1.3337  0.0565
 2245SOL     OW18370   3.108   0.987  13.147 -0.2360 -0.8686  0.2016
 2245SOL    HW118371   3.024   0.976  13.102  0.2360 -0.9873 -0.6612
 2245SOL    HW218372   3.141   0.897  13.147  0.0916 -0.7484 -1.9551
 2246SOL     OW18373   4.148   4.266   9.398 -0.1455 -0.2052 -0.4692
 2246SOL    HW118374   4.054   4.248   9.398  0.5011 -3.6081 -1.0402
 2246SOL    HW218375   4.181   4.191   9.349 -0.9983 -0.6313 -0.4060
 2247SOL     OW18376   1.639   3.124  10.404 -0.0894  0.3465  0.1011
 2247SOL    HW118377   1.673   3.123  10.493 -0.2601 -2.6153  0.1242
 2247SOL    HW218378   1.562   3.076  10.433 -0.1083  0.3539  0.0635
 2248SOL     OW18379   3.799   2.583  16.421 -0.2525  0.5512 -0.2551
 2248SOL    HW118380   3.846   2.500  16.415  0.3827  0.9043 -0.0663
 2248SOL    HW218381   3.708   2.552  16.418 -0.0474  0.0466 -1.0763
 2249SOL     OW18382   0.520   0.796   3.605 -0.1724 -0.6909  0.2961
 2249SOL    HW118383   0.614   0.784   3.593 -0.2256 -0.0427 -0.7760
 2249SOL    HW218384   0.513   0.725   3.669 -0.2809 -0.4564  0.5422
 2250SOL     OW18385   3.135   1.224  12.246  0.0850  0.1657 -0.3562
 2250SOL    HW118386   3.139   1.216  12.342 -1.5613  0.6545 -0.2447
 2250SOL    HW218387   3.053   1.178  12.225  0.4528 -0.6209 -0.0603
 2251SOL     OW18388   1.841   0.492  11.912 -0.8995 -0.1347  0.3927
 2251SOL    HW118389   1.826   0.557  11.980  0.5099 -0.5974  1.1391
 2251SOL    HW218390   1.796   0.533  11.838  0.3404  0.4351 -0.0428
 2252SOL     OW18391   2.546   3.122   3.060  0.6443 -0.7656 -0.3389
 2252SOL    HW118392   2.473   3.080   3.014 -0.1993  1.1287 -0.7174
 2252SOL    HW218393   2.583   3.039   3.090  1.5898 -0.3278 -0.3186
 2253SOL     OW18394   4.441   4.565   0.866  0.3729  0.3829  0.2640
 2253SOL    HW118395   4.413   4.656   0.882  0.5001  0.8180 -1.9481
 2253SOL    HW218396   4.446   4.564   0.770 -1.2773 -0.7378  0.1822
 2254SOL     OW18397   1.988   3.744   8.504 -0.5270  0.3452  0.4958
 2254SOL    HW118398   1.915   3.744   8.442  0.5826  0.5059 -0.8173
 2254SOL    HW218399   1.935   3.737   8.584  2.1441 -1.3325  2.1094
 2255SOL     OW18400   1.560   2.801  13.947  0.0421  0.0885  0.5960
 2255SOL    HW118401   1.521   2.777  13.863 -0.4918  1.6921  0.3759
 2255SOL    HW218402   1.518   2.743  14.011 -1.2045 -0.1635 -0.4483
 2256SOL     OW18403   3.020   1.645   6.055  0.2096 -0.3240  0.1099
 2256SOL    HW118404   3.001   1.564   6.008  1.4146  0.2709 -1.4097
 2256SOL    HW218405   2.940   1.664   6.104  0.5755  0.8437  0.2773
 2257SOL     OW18406   4.391   2.599   3.312  0.1973 -0.0430 -0.0304
 2257SOL    HW118407   4.303   2.603   3.273  1.1089  3.3727 -1.6600
 2257SOL    HW218408   4.358   2.581   3.400  0.6932  0.8275  0.3335
 2258SOL     OW18409   4.433   0.414   2.108  0.2274  0.3265  0.2190
 2258SOL    HW118410   4.489   0.383   2.037 -0.5634 -1.6780  0.4803
 2258SOL    HW218411   4.452   0.508   2.111  0.1955  0.3102  1.1572
 2259SOL     OW18412   1.422   3.986   5.337 -0.2111 -0.9336 -0.0795
 2259SOL    HW118413   1.371   4.062   5.364  0.6693 -0.7689  1.1197
 2259SOL    HW218414   1.351   3.923   5.341  0.0386 -1.1645  0.7104
 2260SOL     OW18415   0.371   0.135  16.584  0.0207  0.0644 -0.0621
 2260SOL    HW118416   0.424   0.214  16.580 -1.7958  1.3634  1.2330
 2260SOL    HW218417   0.351   0.121  16.491  0.4554  1.2724 -0.3361
 2261SOL     OW18418   4.455   0.941  15.844  0.1582  0.2926 -0.0349
 2261SOL    HW118419   4.478   0.861  15.796 -1.6957  0.1215 -0.6250
 2261SOL    HW218420   4.370   0.962  15.805  0.0749  1.5246  0.8345
 2262SOL     OW18421   3.968   3.262   6.442  0.2747 -0.7142  0.3830
 2262SOL    HW118422   3.876   3.252   6.419  0.4068  0.5245 -0.6304
 2262SOL    HW218423   3.985   3.297   6.530 -0.0048 -0.3370  0.2814
 2263SOL     OW18424   3.676   4.415   8.955 -0.4999  0.4094 -0.5545
 2263SOL    HW118425   3.624   4.362   8.894  0.1805  1.0323 -1.6616
 2263SOL    HW218426   3.642   4.503   8.940  1.1034  1.0058 -0.6356
 2264SOL     OW18427   3.877   0.264   7.060 -0.4798  0.5017 -0.2668
 2264SOL    HW118428   3.850   0.239   7.149 -2.4677 -0.0700 -1.0430
 2264SOL    HW218429   3.789   0.269   7.022 -1.0805  0.6517  1.1403
 2265SOL     OW18430   1.665   4.528   6.323 -0.0543 -0.1460  0.0811
 2265SOL    HW118431   1.689   4.454   6.266  1.9615  0.8197 -0.3273
 2265SOL    HW218432   1.573   4.544   6.300  0.1018 -0.6461 -0.9326
 2266SOL     OW18433   3.384   0.023   6.880 -0.1659 -0.4727 -0.2715
 2266SOL    HW118434   3.398   4.717   6.964  1.6901 -0.9911 -0.8692
 2266SOL    HW218435   3.288   0.022   6.878 -0.1621  0.7821 -1.3427
 2267SOL     OW18436   2.897   0.881   5.021  0.2541 -0.0143  0.3155
 2267SOL    HW118437   2.968   0.825   4.989 -1.5267 -1.6911 -0.6708
 2267SOL    HW218438   2.878   0.936   4.945  1.0196  0.1224  0.2193
 2268SOL     OW18439   1.080   2.739   8.706  0.0649  0.2658 -0.1652
 2268SOL    HW118440   1.008   2.678   8.692 -1.3416  2.1653 -1.3186
 2268SOL    HW218441   1.043   2.822   8.737  0.1508  0.7171 -1.2519
 2269SOL     OW18442   1.180   0.459   2.156  0.3236  0.0200  0.0899
 2269SOL    HW118443   1.126   0.469   2.235  0.4235 -1.5608  0.3657
 2269SOL    HW218444   1.227   0.377   2.172  2.7120  1.9702  3.1683
 2270SOL     OW18445   2.009   3.213  15.749 -0.1363  0.3066 -0.2102
 2270SOL    HW118446   2.052   3.294  15.776 -1.8121  0.4840  1.8627
 2270SOL    HW218447   2.043   3.201  15.660  0.5558 -0.0748  0.1042
 2271SOL     OW18448   0.810   4.598   4.118  0.0391 -0.6720  0.1781
 2271SOL    HW118449   0.851   4.669   4.068 -1.0395  1.1917  1.9006
 2271SOL    HW218450   0.730   4.640   4.151  0.3968 -0.5703  0.9269
 2272SOL     OW18451   2.403   1.332  17.029  0.1450 -0.2448  0.3790
 2272SOL    HW118452   2.363   1.268  16.970 -0.6534  1.6310 -1.1050
 2272SOL    HW218453   2.496   1.331  17.010  0.2529 -2.2898  0.9285
 2273SOL     OW18454   0.721   3.516   5.133  0.0009  0.0429 -0.0282
 2273SOL    HW118455   0.697   3.585   5.194  1.9086  1.1593 -0.5452
 2273SOL    HW218456   0.796   3.562   5.096 -0.4255 -1.8660 -3.3223
 2274SOL     OW18457   3.862   0.648   4.934  0.0534  0.4737 -0.3207
 2274SOL    HW118458   3.878   0.734   4.896 -0.4186  1.9075  2.7183
 2274SOL    HW218459   3.952   0.616   4.947 -0.6029 -1.3162 -0.1903
 2275SOL     OW18460   4.087   4.240   0.278  0.1706 -0.3180  0.3228
 2275SOL    HW118461   4.164   4.290   0.252 -1.4861  2.3287  0.5306
 2275SOL    HW218462   4.059   4.277   0.362  1.2066  1.3498 -0.0619
 2276SOL     OW18463   2.522   1.600   7.524 -0.2684  0.2600 -0.5844
 2276SOL    HW118464   2.561   1.614   7.611 -0.3041  2.3835 -0.9082
 2276SOL    HW218465   2.438   1.646   7.523 -0.2922  0.2041 -1.1884
 2277SOL     OW18466   1.865   1.300   4.845 -0.0420 -0.2279  0.0682
 2277SOL    HW118467   1.776   1.304   4.809  0.0322  0.3976 -0.0507
 2277SOL    HW218468   1.861   1.358   4.921 -3.3950  0.3713 -0.5509
 2278SOL     OW18469   3.832   4.606   4.122 -0.6344  0.2026  0.5868
 2278SOL    HW118470   3.854   4.550   4.047 -0.3960 -0.5654  1.2280
 2278SOL    HW218471   3.914   4.654   4.138 -0.3948  0.6708 -1.9111
 2279SOL     OW18472   1.177   4.595   8.829  0.3084  0.0956 -0.3190
 2279SOL    HW118473   1.203   4.512   8.789  2.6601  2.1429 -3.0416
 2279SOL    HW218474   1.096   4.564   8.869  0.2193 -1.9688 -2.1260
 2280SOL     OW18475   0.666   0.639   3.058  0.2311  0.3561 -0.8369
 2280SOL    HW118476   0.660   0.695   3.136 -0.3976 -1.8490  0.7136
 2280SOL    HW218477   0.735   0.581   3.091 -0.8571 -0.8601 -0.6766
 2281SOL     OW18478   4.289   1.107   9.664  0.4561 -0.3533 -0.8073
 2281SOL    HW118479   4.244   1.189   9.644  0.6859  0.5700  2.4971
 2281SOL    HW218480   4.265   1.072   9.578 -2.5066 -0.7888  0.1905
 2282SOL     OW18481   1.707   3.430   7.174  0.6095  0.2367 -0.1984
 2282SOL    HW118482   1.678   3.387   7.255 -2.5743  0.6924 -1.0708
 2282SOL    HW218483   1.647   3.504   7.189 -1.8389 -1.7016 -0.3534
 2283SOL     OW18484   3.873   3.016  10.474  0.1400  0.2355 -0.0067
 2283SOL    HW118485   3.966   3.033  10.489  0.1467  0.4061 -0.2288
 2283SOL    HW218486   3.846   2.927  10.498 -1.8570  0.6405 -0.7183
 2284SOL     OW18487   2.622   2.182   8.553  0.9964  0.1527  0.2921
 2284SOL    HW118488   2.560   2.247   8.588 -0.6093 -0.5119 -1.3280
 2284SOL    HW218489   2.694   2.229   8.512  0.9971 -0.4069 -0.3416
 2285SOL     OW18490   2.211   3.239   1.833  0.2375  0.3275  0.4749
 2285SOL    HW118491   2.186   3.167   1.891 -2.4133  1.3481  0.5780
 2285SOL    HW218492   2.125   3.280   1.828 -0.5893 -1.5985 -1.1552
 2286SOL     OW18493   1.278   3.934   0.206  0.1315  0.6336  0.4716
 2286SOL    HW118494   1.243   3.943   0.118  0.3503 -1.6802  0.1369
 2286SOL    HW218495   1.271   4.020   0.247  2.4206  0.2583  1.6508
 2287SOL     OW18496   4.481   3.873  13.328 -0.5438 -0.1277 -0.3534
 2287SOL    HW118497   4.495   3.943  13.264 -0.7499 -0.5500 -0.8623
 2287SOL    HW218498   4.481   3.931  13.404 -2.1569 -2.1967  1.2370
 2288SOL     OW18499   3.943   2.675  16.927  0.0169  0.1293 -0.4508
 2288SOL    HW118500   3.984   2.612  16.986 -0.4027  0.4509  0.1821
 2288SOL    HW218501   3.854   2.662  16.958  0.0704  0.1301 -0.2967
 2289SOL     OW18502   2.184   1.522   8.813 -0.1507 -0.2511  0.2005
 2289SOL    HW118503   2.217   1.601   8.856  2.6342 -1.1005 -0.3402
 2289SOL    HW218504   2.100   1.511   8.857  0.0991  3.5848  1.5818
 2290SOL     OW18505   1.353   2.193  15.412  0.4750 -0.6002  0.4794
 2290SOL    HW118506   1.370   2.285  15.391  0.2873 -0.1963  2.0939
 2290SOL    HW218507   1.265   2.174  15.377  0.8777  0.1355 -0.9179
 2291SOL     OW18508   0.295   0.489   3.407 -0.6279  0.7287 -0.0771
 2291SOL    HW118509   0.370   0.481   3.349  0.1365 -0.4098  1.0735
 2291SOL    HW218510   0.318   0.442   3.487  0.6983  1.0722 -0.2587
 2292SOL     OW18511   1.568   2.515   8.738  0.0246  0.1133 -0.1921
 2292SOL    HW118512   1.489   2.536   8.788 -0.8069 -0.6463 -1.2000
 2292SOL    HW218513   1.550   2.538   8.647 -0.9921 -0.9335 -0.2560
 2293SOL     OW18514   4.399   4.365  12.732 -0.1002  0.6995 -0.1533
 2293SOL    HW118515   4.307   4.392  12.723 -0.0693  0.4257 -1.2730
 2293SOL    HW218516   4.437   4.443  12.772  0.8211 -0.6907  1.6716
 2294SOL     OW18517   3.778   2.268   4.405  0.2159  0.4804  0.4979
 2294SOL    HW118518   3.714   2.198   4.404  0.3199  0.3679  1.4067
 2294SOL    HW218519   3.798   2.279   4.313  0.8503 -0.1282  0.5642
 2295SOL     OW18520   4.149   0.225  14.948 -0.0290 -0.3803  0.4614
 2295SOL    HW118521   4.129   0.184  14.864 -1.9683 -1.4083  1.4390
 2295SOL    HW218522   4.244   0.238  14.939 -0.2767  0.8102 -0.4104
 2296SOL     OW18523   0.708   2.292  11.827  0.1661  0.1723 -0.0320
 2296SOL    HW118524   0.655   2.285  11.748  0.8077  0.4765 -0.4868
 2296SOL    HW218525   0.659   2.256  11.901  2.0223  1.2821  1.7428
 2297SOL     OW18526   1.168   3.373   4.708 -0.3952 -0.3707  0.2750
 2297SOL    HW118527   1.246   3.331   4.671  0.0912  1.1131 -0.3823
 2297SOL    HW218528   1.116   3.404   4.634 -0.7932 -1.6809  0.0132
 2298SOL     OW18529   3.878   3.601   4.815  0.1652  0.2151 -0.2301
 2298SOL    HW118530   3.812   3.668   4.796  0.6954  0.3182 -1.7061
 2298SOL    HW218531   3.852   3.512   4.789 -0.7771 -0.2741  2.3078
 2299SOL     OW18532   1.179   0.304   5.657 -0.5129  0.0095  0.4293
 2299SOL    HW118533   1.181   0.211   5.635 -0.4530  0.1594 -0.1918
 2299SOL    HW218534   1.105   0.337   5.605 -1.4632  0.6627  2.2115
 2300SOL     OW18535   3.308   1.917   5.649 -0.2130 -0.1376  0.0579
 2300SOL    HW118536   3.382   1.970   5.619 -0.7688  0.4300 -0.3104
 2300SOL    HW218537   3.358   1.853   5.700  0.7563  0.4335 -0.1777
 2301SOL     OW18538   0.768   3.907   3.352  0.1641 -0.2296  0.1181
 2301SOL    HW118539   0.851   3.951   3.369 -0.2124  1.0864 -1.4408
 2301SOL    HW218540   0.750   3.870   3.438  0.8695 -0.0224  0.3485
 2302SOL     OW18541   2.376   4.468   0.939 -0.7681  0.0580  0.1279
 2302SOL    HW118542   2.381   4.479   0.844  1.2211 -0.0131  0.2283
 2302SOL    HW218543   2.414   4.551   0.969  0.5658 -0.4266 -0.2413
 2303SOL     OW18544   0.898   3.776  14.434 -0.5906 -0.4210 -0.3511
 2303SOL    HW118545   0.921   3.688  14.464  1.8889  0.9380  1.6989
 2303SOL    HW218546   0.823   3.799  14.488 -0.4279  0.6998 -0.5993
 2304SOL     OW18547   3.899   3.489   9.864 -0.2950  0.5796 -0.3503
 2304SOL    HW118548   3.944   3.455   9.787 -1.6498  0.0082 -0.9013
 2304SOL    HW218549   3.812   3.451   9.852  0.1255 -0.1174 -1.2382
 2305SOL     OW18550   4.287   1.674   4.668  0.1960  0.5460 -0.2046
 2305SOL    HW118551   4.292   1.660   4.573 -1.6420 -0.2190 -0.2009
 2305SOL    HW218552   4.218   1.620   4.706 -0.0903  2.1302  1.4894
 2306SOL     OW18553   2.584   0.207   4.857 -0.5409  0.1946 -0.0280
 2306SOL    HW118554   2.568   0.233   4.948  1.7135 -0.7672  0.6528
 2306SOL    HW218555   2.586   0.113   4.876  1.9623 -0.1126 -1.7409
 2307SOL     OW18556   1.000   4.189   0.748  0.2279  0.4883 -0.1320
 2307SOL    HW118557   0.969   4.161   0.834  2.2284 -1.7706 -0.1346
 2307SOL    HW218558   0.986   4.282   0.762  1.6040  0.4239  1.7492
 2308SOL     OW18559   1.149   2.828   4.180 -0.5779 -0.1077  0.0671
 2308SOL    HW118560   1.083   2.888   4.213 -1.7624 -1.0472 -0.6065
 2308SOL    HW218561   1.152   2.849   4.087 -0.1207 -2.1037 -0.3798
 2309SOL     OW18562   4.189   4.133   0.694 -0.9709  0.4481  0.0003
 2309SOL    HW118563   4.210   4.208   0.638 -1.5820  0.8345  0.2917
 2309SOL    HW218564   4.116   4.092   0.647 -1.7165 -1.5171  2.8951
 2310SOL     OW18565   0.896   2.391   4.761  0.0302 -0.2269  0.3509
 2310SOL    HW118566   0.812   2.377   4.803 -1.1539 -1.4061 -2.4502
 2310SOL    HW218567   0.879   2.463   4.700  1.8793  0.4398  0.6086
 2311SOL     OW18568   0.245   3.692   9.178 -0.3248 -0.4728 -0.1473
 2311SOL    HW118569   0.210   3.697   9.089 -1.6105  0.1179  0.3884
 2311SOL    HW218570   0.242   3.600   9.206  0.2700 -1.0147 -1.8651
 2312SOL     OW18571   1.810   3.348   3.014  0.4712  0.0900  0.4473
 2312SOL    HW118572   1.739   3.293   3.043 -0.0172 -0.0702 -1.0288
 2312SOL    HW218573   1.772   3.406   2.948  0.5573 -1.6499 -1.1200
 2313SOL     OW18574   2.846   4.223  17.117  0.0598 -0.2610  0.2041
 2313SOL    HW118575   2.822   4.312  17.141  2.0643  0.3476 -0.0023
 2313SOL    HW218576   2.938   4.240  17.093 -0.2274  1.2016  0.1415
 2314SOL     OW18577   3.656   3.375  13.576 -0.1527  0.6596 -0.5105
 2314SOL    HW118578   3.615   3.366  13.662  1.7721  1.4436  0.4924
 2314SOL    HW218579   3.745   3.398  13.603 -0.2858  0.5927  0.0007
 2315SOL     OW18580   4.547   2.950   2.992 -0.0816  0.0888 -0.2376
 2315SOL    HW118581   4.591   2.975   3.074  0.1291  0.5484 -0.4896
 2315SOL    HW218582   4.573   3.023   2.937  0.5166  0.2042  0.1934
 2316SOL     OW18583   3.253   2.994   6.340  0.7679 -0.1387  0.1920
 2316SOL    HW118584   3.313   3.063   6.310 -0.6237  2.0962  2.5027
 2316SOL    HW218585   3.273   2.938   6.265 -0.5389  0.6607 -0.7637
 2317SOL     OW18586   3.015   4.514  12.304 -0.0916  0.4429  0.0983
 2317SOL    HW118587   2.965   4.589  12.273  1.3172  1.9559  1.4468
 2317SOL    HW218588   3.001   4.511  12.399  0.8368 -1.5042  0.1815
 2318SOL     OW18589   3.401   2.884   6.631 -0.0388  0.2838 -0.5756
 2318SOL    HW118590   3.478   2.830   6.614  1.3635  2.3387 -0.7112
 2318SOL    HW218591   3.330   2.828   6.599 -0.7793  0.5091  0.7048
 2319SOL     OW18592   4.044   0.678  12.158  0.3562  0.1925  0.7237
 2319SOL    HW118593   3.950   0.695  12.158  0.0538 -1.4652 -0.6177
 2319SOL    HW218594   4.045   0.597  12.108  0.8024  0.2351  0.6665
 2320SOL     OW18595   4.707   3.084  10.069 -0.1046 -0.4441 -0.6394
 2320SOL    HW118596   0.037   3.018  10.061  0.7543  0.3505  0.1039
 2320SOL    HW218597   4.730   3.134  10.148 -1.7173  1.4637 -1.3732
 2321SOL     OW18598   0.644   3.595   5.485 -0.1622 -0.3325  0.0565
 2321SOL    HW118599   0.621   3.503   5.471 -0.8218 -0.4036  1.5986
 2321SOL    HW218600   0.575   3.627   5.543  2.1019  1.5872  1.7013
 2322SOL     OW18601   3.743   2.149  11.269  0.5273 -0.7944 -0.1683
 2322SOL    HW118602   3.766   2.057  11.258  1.5898 -0.5183 -0.2051
 2322SOL    HW218603   3.819   2.186  11.313 -1.0903  1.7668  0.5038
 2323SOL     OW18604   3.257   4.189   7.915 -0.9421 -0.3293 -0.0501
 2323SOL    HW118605   3.282   4.241   7.991 -0.5535 -1.4444  0.5923
 2323SOL    HW218606   3.312   4.113   7.933  0.0016  0.3046 -0.2646
 2324SOL     OW18607   1.034   4.088  11.881  0.1463 -0.0067 -0.2246
 2324SOL    HW118608   1.030   4.075  11.976 -1.3282  0.4152 -0.2268
 2324SOL    HW218609   1.069   4.001  11.864 -1.5597 -0.6657 -0.4399
 2325SOL     OW18610   0.252   0.651   0.292 -0.2340 -0.1347  0.2930
 2325SOL    HW118611   0.326   0.681   0.238 -1.1517  0.6369 -0.5343
 2325SOL    HW218612   0.258   0.694   0.377  0.2848 -0.2540  0.3187
 2326SOL     OW18613   1.678   0.864   0.305 -0.1161 -0.2763 -0.5476
 2326SOL    HW118614   1.741   0.890   0.238 -1.5724  1.6267 -1.1474
 2326SOL    HW218615   1.617   0.937   0.312 -0.5691 -0.5305 -1.9878
 2327SOL     OW18616   1.397   1.434   8.433 -0.1762 -0.3394  0.4219
 2327SOL    HW118617   1.396   1.515   8.484 -0.9212  0.3901 -0.7758
 2327SOL    HW218618   1.398   1.364   8.499  2.0307 -0.7689 -0.0644
 2328SOL     OW18619   3.509   4.721   3.759 -0.2154  0.9286  0.1655
 2328SOL    HW118620   3.523   4.687   3.671 -0.4313 -0.8300  0.8140
 2328SOL    HW218621   3.413   4.718   3.762 -0.1648  0.2457  1.0658
 2329SOL     OW18622   2.940   3.616  17.569 -0.9840  0.6043 -0.5945
 2329SOL    HW118623   2.912   3.673  17.641  0.4193 -1.4250  1.5405
 2329SOL    HW218624   2.903   3.529  17.583 -0.7558  0.5484 -0.3330
 2330SOL     OW18625   2.817   1.266   6.280  0.7939  0.5666  0.0998
 2330SOL    HW118626   2.909   1.265   6.252  0.5927 -0.8075 -0.5453
 2330SOL    HW218627   2.819   1.193   6.342 -0.0786  0.2115 -0.2843
 2331SOL     OW18628   4.047   3.379   9.020 -0.1553 -0.0212  0.3255
 2331SOL    HW118629   4.037   3.287   8.995  0.3665  0.2382 -0.8561
 2331SOL    HW218630   4.124   3.367   9.076 -0.5703  0.7839  1.0645
 2332SOL     OW18631   3.242   1.440   4.412  0.1556 -0.2627 -0.2804
 2332SOL    HW118632   3.202   1.518   4.374  0.4665  0.7611  1.5513
 2332SOL    HW218633   3.197   1.435   4.496  1.2675  0.2856  0.3481
 2333SOL     OW18634   0.022   0.748   7.019  0.3837 -0.0521  0.0145
 2333SOL    HW118635   0.062   0.801   6.949  1.8454 -1.5750 -0.3049
 2333SOL    HW218636   0.094   0.686   7.028  0.0965 -0.5581 -1.1088
 2334SOL     OW18637   3.747   2.917   6.882 -0.4880 -0.2354  0.3052
 2334SOL    HW118638   3.684   2.951   6.819 -0.4897 -1.0048 -0.1099
 2334SOL    HW218639   3.705   2.835   6.907  0.6636 -0.7324  0.6022
 2335SOL     OW18640   4.277   0.459   0.663 -0.3374 -0.4472 -0.1450
 2335SOL    HW118641   4.271   0.437   0.570 -0.2761  0.9524 -0.4807
 2335SOL    HW218642   4.284   0.554   0.652 -1.6918 -0.5078 -1.6297
 2336SOL     OW18643   4.643   1.457   6.833 -0.2178  0.0300  0.1288
 2336SOL    HW118644   4.654   1.382   6.774  3.6732  0.3572  0.4436
 2336SOL    HW218645   4.701   1.421   6.901  1.9738 -0.3891 -1.9388
 2337SOL     OW18646   1.193   3.733   3.720 -0.2027  0.2172  0.2104
 2337SOL    HW118647   1.184   3.768   3.631  0.5818  0.9351  0.4142
 2337SOL    HW218648   1.149   3.807   3.763  0.9514  1.9739 -1.6167
 2338SOL     OW18649   0.557   3.235   4.531 -0.0319  0.0167  0.1448
 2338SOL    HW118650   0.554   3.141   4.516  0.2249  0.0089  0.1384
 2338SOL    HW218651   0.588   3.234   4.622 -0.0758 -3.1670  0.1278
 2339SOL     OW18652   3.895   2.992  11.088  0.5138 -0.5998  0.1551
 2339SOL    HW118653   3.839   2.915  11.082  1.7583 -1.3713 -1.4203
 2339SOL    HW218654   3.902   2.997  10.993  0.7395  0.2031  0.2145
 2340SOL     OW18655   2.241   0.279   4.438 -0.4743  0.1889  0.0957
 2340SOL    HW118656   2.193   0.220   4.497 -1.3919  0.8353 -0.0044
 2340SOL    HW218657   2.326   0.235   4.441 -0.6790 -0.3278 -1.7695
 2341SOL     OW18658   0.763   4.175   1.824  1.0262  0.2081  0.2718
 2341SOL    HW118659   0.762   4.156   1.730  1.2199  2.2914 -0.1509
 2341SOL    HW218660   0.731   4.265   1.819  2.3070  0.5467 -1.8185
 2342SOL     OW18661   4.022   4.064   0.899 -0.1661 -0.1171 -0.5863
 2342SOL    HW118662   4.027   4.159   0.886  3.2897 -0.6522 -3.1940
 2342SOL    HW218663   4.050   4.038   0.812 -0.3425 -0.5507 -0.5110
 2343SOL     OW18664   4.471   0.520  14.409 -0.0733  0.8612 -0.4289
 2343SOL    HW118665   4.518   0.441  14.380  1.0580  1.7129 -0.9319
 2343SOL    HW218666   4.429   0.491  14.490  2.3433  0.0694  0.5491
 2344SOL     OW18667   3.539   1.810  13.932 -0.1030 -0.5843  0.5552
 2344SOL    HW118668   3.499   1.894  13.909  1.4811  0.4043  1.4173
 2344SOL    HW218669   3.576   1.837  14.016  0.2952  1.0643 -0.1380
 2345SOL     OW18670   1.286   0.101   8.763  0.2957  0.1455 -0.2965
 2345SOL    HW118671   1.243   0.021   8.792 -2.9068  1.3143 -1.7687
 2345SOL    HW218672   1.277   0.142   8.849 -0.5665  0.5291 -0.5736
 2346SOL     OW18673   1.353   3.675   6.755 -0.4634  0.1179 -0.7606
 2346SOL    HW118674   1.283   3.681   6.820  1.4367 -1.4477  1.3959
 2346SOL    HW218675   1.416   3.632   6.812 -0.0246  0.4282 -1.0085
 2347SOL     OW18676   1.356   0.739   9.264  0.5157 -0.0011  0.5521
 2347SOL    HW118677   1.443   0.697   9.262  0.8582  0.6885  1.0546
 2347SOL    HW218678   1.374   0.827   9.230 -0.1225  0.1480  0.6122
 2348SOL     OW18679   2.475   3.375   3.928  0.0296 -0.7067 -0.2868
 2348SOL    HW118680   2.431   3.384   4.012  0.1174 -1.4929 -0.1563
 2348SOL    HW218681   2.394   3.381   3.877  0.4803 -0.4694 -0.9756
 2349SOL     OW18682   4.321   3.524  10.724  0.2386 -0.3384 -0.0402
 2349SOL    HW118683   4.314   3.439  10.767  0.9915 -1.3958 -1.9921
 2349SOL    HW218684   4.304   3.588  10.793  2.9024  1.3380 -0.9488
 2350SOL     OW18685   1.713   1.745   3.725 -0.1270  0.0569  0.0783
 2350SOL    HW118686   1.639   1.733   3.666  0.3945  1.6973 -0.9312
 2350SOL    HW218687   1.730   1.838   3.710  0.1474  0.0831  0.5214
 2351SOL     OW18688   4.300   4.022  14.629  0.2319  0.1204  0.2017
 2351SOL    HW118689   4.226   4.038  14.687 -0.0213  0.1506 -0.1283
 2351SOL    HW218690   4.366   4.087  14.653  0.0741  1.3938 -2.8381
 2352SOL     OW18691   0.116   2.216  10.353  0.0451 -0.0093 -0.0149
 2352SOL    HW118692   0.107   2.249  10.264 -0.3536  1.9820  0.7755
 2352SOL    HW218693   0.211   2.224  10.362 -0.0596  1.0987  0.0505
 2353SOL     OW18694   3.163   2.705  15.299  0.0068  0.0054  0.0756
 2353SOL    HW118695   3.159   2.609  15.302  2.3081 -0.2242 -4.8752
 2353SOL    HW218696   3.257   2.720  15.290  0.2605 -1.1584  0.6996
 2354SOL     OW18697   3.994   4.632   1.564  0.0752  0.5086  0.5218
 2354SOL    HW118698   4.007   4.665   1.475  1.7232 -1.9028 -0.1404
 2354SOL    HW218699   4.078   4.663   1.600 -1.1728  1.0920  2.9142
 2355SOL     OW18700   3.987   1.822  16.229 -0.0930 -0.3696 -0.3146
 2355SOL    HW118701   4.035   1.817  16.312 -0.5089 -1.1341 -0.1204
 2355SOL    HW218702   4.064   1.831  16.173  0.4186 -3.3878 -0.0808
 2356SOL     OW18703   2.718   4.446   1.236 -0.1293 -0.0485 -0.5131
 2356SOL    HW118704   2.770   4.383   1.285  0.0689  0.3820 -0.1693
 2356SOL    HW218705   2.687   4.502   1.307 -1.3836 -2.0045  0.4984
 2357SOL     OW18706   2.593   1.313   8.948 -0.2763 -0.2435  0.5907
 2357SOL    HW118707   2.516   1.282   8.997  0.6080 -1.1017  1.4594
 2357SOL    HW218708   2.552   1.379   8.892 -1.7604 -1.4492  0.2574
 2358SOL     OW18709   2.225   2.474   7.338  0.3165  0.4496  0.1242
 2358SOL    HW118710   2.150   2.505   7.287 -1.1946  0.1583  2.1706
 2358SOL    HW218711   2.263   2.407   7.281  0.8544  0.7082  0.1785
 2359SOL     OW18712   0.273   0.160  15.188 -0.4133  0.3528 -0.4516
 2359SOL    HW118713   0.306   0.070  15.184 -1.0353  0.1092 -0.1430
 2359SOL    HW218714   0.291   0.185  15.279  0.1623  1.5955 -0.9009
 2360SOL     OW18715   0.083   2.390   7.541  0.0473  0.6566 -0.4742
 2360SOL    HW118716   0.085   2.455   7.611 -1.2594  0.4590 -0.2476
 2360SOL    HW218717   0.173   2.391   7.509  0.5558 -1.7731  0.8711
 2361SOL     OW18718   4.071   0.821  13.355 -0.1512  0.3706 -0.2407
 2361SOL    HW118719   4.066   0.862  13.441  0.7002 -2.5027  1.1900
 2361SOL    HW218720   4.110   0.891  13.303  1.3176 -0.4026 -0.1709
 2362SOL     OW18721   1.734   0.255  17.037 -0.0564  0.4548  0.1302
 2362SOL    HW118722   1.724   0.329  17.097 -1.7954 -0.2262  0.6967
 2362SOL    HW218723   1.683   0.292  16.965 -1.4257 -1.8191 -0.0588
 2363SOL     OW18724   2.844   1.022   2.749 -0.2854  0.2089 -0.2908
 2363SOL    HW118725   2.881   1.046   2.663  1.0683  1.0711  0.5284
 2363SOL    HW218726   2.900   0.946   2.766 -0.5451  0.6476  2.4937
 2364SOL     OW18727   3.268   1.795   5.932  0.9831  0.2094 -0.3831
 2364SOL    HW118728   3.210   1.869   5.949  0.7262  0.0834 -0.7173
 2364SOL    HW218729   3.257   1.748   6.015 -0.1778  0.1289 -0.5788
 2365SOL     OW18730   1.880   3.320   7.466  0.1070  0.5729  0.1059
 2365SOL    HW118731   1.790   3.340   7.490  0.2683  1.4723 -0.0378
 2365SOL    HW218732   1.910   3.255   7.529  0.2000 -0.7275 -1.2838
 2366SOL     OW18733   4.087   2.895   7.761 -0.1211 -0.3429  0.1824
 2366SOL    HW118734   4.152   2.898   7.832 -1.2813 -2.7578  1.3372
 2366SOL    HW218735   4.037   2.975   7.776  0.1960  0.1360 -1.2771
 2367SOL     OW18736   2.354   3.833  14.421 -0.0006 -0.3375 -0.1776
 2367SOL    HW118737   2.417   3.829  14.493 -0.0432 -1.3569 -0.1927
 2367SOL    HW218738   2.286   3.771  14.446  0.1625 -0.3350  0.2662
 2368SOL     OW18739   0.154   4.624   7.227 -0.0410 -0.2000  0.5363
 2368SOL    HW118740   0.184   4.653   7.314 -0.8837 -0.6026  0.9595
 2368SOL    HW218741   0.081   4.567   7.252  0.2692 -0.9283 -0.2219
 2369SOL     OW18742   3.903   1.930   6.787 -0.4808  0.0347  0.0381
 2369SOL    HW118743   3.981   1.985   6.792  1.0424 -2.1925  0.8287
 2369SOL    HW218744   3.919   1.868   6.859 -2.5021 -2.2046 -1.4399
 2370SOL     OW18745   2.133   0.099  15.632  0.1674  0.1081  0.0984
 2370SOL    HW118746   2.219   0.062  15.613  0.2187  0.7480 -0.9444
 2370SOL    HW218747   2.088   0.028  15.678  2.5834  0.2798  2.7581
 2371SOL     OW18748   1.308   2.173   4.146  0.0740 -0.5081  0.1180
 2371SOL    HW118749   1.233   2.216   4.105  0.0344 -0.4034  0.3045
 2371SOL    HW218750   1.310   2.223   4.227 -1.3478 -0.1949 -0.0255
 2372SOL     OW18751   0.835   1.637   4.117 -0.4600 -0.0223  0.0290
 2372SOL    HW118752   0.919   1.622   4.161 -0.2637 -1.1587 -0.7449
 2372SOL    HW218753   0.793   1.704   4.171 -0.6084 -1.1396  1.3240
 2373SOL     OW18754   1.110   1.510   3.692 -0.2468 -0.6030 -0.0158
 2373SOL    HW118755   1.050   1.436   3.703 -0.6518 -0.0915  1.2940
 2373SOL    HW218756   1.157   1.517   3.775 -1.9441 -0.4153  0.9419
 2374SOL     OW18757   3.070   4.373  15.084 -0.5800  0.2252  0.4577
 2374SOL    HW118758   3.101   4.283  15.083 -1.8894 -0.1993 -1.3130
 2374SOL    HW218759   3.069   4.390  15.179  0.2638  2.3711  0.0969
 2375SOL     OW18760   0.719   0.480   5.203  0.2817  0.2867  0.6687
 2375SOL    HW118761   0.637   0.439   5.176 -0.4828  1.7786  0.6978
 2375SOL    HW218762   0.760   0.472   5.116 -0.3739 -2.8202  0.6674
 2376SOL     OW18763   1.875   4.447   1.744 -0.1614 -0.1149  0.1904
 2376SOL    HW118764   1.907   4.519   1.798  0.0325 -0.5429  0.6439
 2376SOL    HW218765   1.874   4.488   1.657  0.4609 -1.4890 -0.4619
 2377SOL     OW18766   3.278   4.099  12.856 -1.0508 -0.2411  0.1760
 2377SOL    HW118767   3.269   4.088  12.761  0.4396 -2.0213  0.2321
 2377SOL    HW218768   3.192   4.136  12.876 -0.1391  2.5892 -1.2526
 2378SOL     OW18769   2.929   0.816  12.531 -0.5491 -0.2085  0.5050
 2378SOL    HW118770   2.989   0.840  12.602  0.0685  0.2641 -0.1782
 2378SOL    HW218771   2.848   0.815  12.583 -1.0013 -1.4539 -0.2346
 2379SOL     OW18772   2.381   1.427   4.306  0.4573  0.0519 -0.0614
 2379SOL    HW118773   2.370   1.486   4.380  2.7069 -1.2799  1.3535
 2379SOL    HW218774   2.350   1.347   4.348  2.2464  0.3135  1.7624
 2380SOL     OW18775   1.625   2.134   3.815 -0.4484 -0.2688 -0.2598
 2380SOL    HW118776   1.651   2.086   3.736  1.1118  0.1795 -0.0193
 2380SOL    HW218777   1.566   2.069   3.853 -0.3978 -0.5920 -0.7346
 2381SOL     OW18778   1.238   0.919   6.013  0.1594 -0.1269 -0.4075
 2381SOL    HW118779   1.150   0.909   6.050  1.1663  0.1509  2.1105
 2381SOL    HW218780   1.264   0.833   5.979 -1.3750 -1.1215  0.9390
 2382SOL     OW18781   2.672   3.372   1.642  0.2494  0.2731  0.2404
 2382SOL    HW118782   2.723   3.297   1.674 -1.5555 -0.9590  0.2067
 2382SOL    HW218783   2.615   3.323   1.583  0.8255  1.0459 -0.9641
 2383SOL     OW18784   3.607   4.248   8.658  0.4789  0.4343  0.4032
 2383SOL    HW118785   3.525   4.211   8.689  0.9087 -2.0470 -1.3675
 2383SOL    HW218786   3.643   4.175   8.606 -5.0744 -0.1770 -2.5877
 2384SOL     OW18787   3.843   3.145   1.727  0.4334 -0.1120  0.0120
 2384SOL    HW118788   3.874   3.167   1.640 -0.1047 -0.5784 -0.2913
 2384SOL    HW218789   3.924   3.147   1.778  1.0031 -2.5226 -0.8232
 2385SOL     OW18790   1.896   2.154  16.005  0.0578 -0.2896 -0.6031
 2385SOL    HW118791   1.845   2.203  16.070  0.2389 -1.2069  0.2337
 2385SOL    HW218792   1.819   2.116  15.963  0.2761 -0.0570 -1.2095
 2386SOL     OW18793   1.011   2.588   2.557 -0.1150  0.0963 -0.0298
 2386SOL    HW118794   0.938   2.527   2.548  0.0859 -0.2346  0.5988
 2386SOL    HW218795   1.042   2.549   2.638  1.7661 -0.7499 -1.1438
 2387SOL     OW18796   1.643   2.983   2.686  0.0705  0.2945 -0.5029
 2387SOL    HW118797   1.667   2.987   2.779 -0.2859  1.8288 -0.4665
 2387SOL    HW218798   1.601   3.068   2.670 -0.6266  0.4612  2.2196
 2388SOL     OW18799   0.087   2.772   8.138  0.1421  0.4803  0.3053
 2388SOL    HW118800   0.014   2.722   8.172 -1.5432  3.1084  0.5770
 2388SOL    HW218801   0.152   2.702   8.132 -0.5293 -0.0267 -0.8467
 2389SOL     OW18802   4.060   2.434   1.505 -0.3457 -0.3604 -0.0801
 2389SOL    HW118803   4.118   2.503   1.536 -3.0586  2.6138 -1.5640
 2389SOL    HW218804   3.973   2.473   1.508  0.2597  0.8683  1.1604
 2390SOL     OW18805   4.626   4.369   4.627  0.2933  0.2301 -0.8928
 2390SOL    HW118806   4.530   4.375   4.634  0.4203 -0.0172  0.9119
 2390SOL    HW218807   4.648   4.338   4.714  2.0351  2.5798 -0.5080
 2391SOL     OW18808   3.585   0.591   9.350 -0.0180 -0.7510 -0.4236
 2391SOL    HW118809   3.525   0.525   9.383  0.6565 -0.8375  0.6413
 2391SOL    HW218810   3.655   0.526   9.348  0.2891 -0.3377 -3.0127
 2392SOL     OW18811   4.402   1.203   6.737  0.1389 -0.0759 -0.3132
 2392SOL    HW118812   4.337   1.133   6.726 -0.0131  0.0859 -0.4587
 2392SOL    HW218813   4.467   1.156   6.788 -1.0863 -0.0359  1.2910
 2393SOL     OW18814   2.435   2.553   9.868  0.1773  0.4991 -0.2806
 2393SOL    HW118815   2.478   2.496   9.803  0.4825  1.8829 -1.2976
 2393SOL    HW218816   2.358   2.510   9.904  1.0000  1.4407  2.5588
 2394SOL     OW18817   1.594   0.854   3.355 -0.2924 -1.1958  0.1110
 2394SOL    HW118818   1.531   0.885   3.290  2.1986  4.0016  0.2051
 2394SOL    HW218819   1.571   0.907   3.431 -1.3346  1.1504 -1.8423
 2395SOL     OW18820   4.056   2.092   7.971  0.1231 -0.3135  0.2712
 2395SOL    HW118821   4.023   2.168   7.923 -1.2034 -1.2480 -0.3211
 2395SOL    HW218822   4.052   2.031   7.897  1.2291  1.3502 -1.1545
 2396SOL     OW18823   4.146   3.743   7.943  0.6543 -0.5031 -0.6256
 2396SOL    HW118824   4.188   3.668   7.902  2.4039 -0.2188  0.6606
 2396SOL    HW218825   4.190   3.761   8.026 -1.9537 -0.2767  0.7090
 2397SOL     OW18826   3.369   0.834   1.614 -0.1687 -0.4448  0.7326
 2397SOL    HW118827   3.323   0.801   1.691 -0.1564 -2.1402  0.0183
 2397SOL    HW218828   3.339   0.770   1.550 -0.0272  1.1007 -0.8909
 2398SOL     OW18829   0.319   0.314   6.000  0.1618 -0.1640 -0.0229
 2398SOL    HW118830   0.357   0.376   5.939  1.2400 -3.0748 -2.2833
 2398SOL    HW218831   0.230   0.321   5.965  0.6498 -0.0665 -1.2311
 2399SOL     OW18832   3.748   0.999   4.079 -0.4223 -0.0262 -0.1304
 2399SOL    HW118833   3.670   1.037   4.119 -1.3235 -2.1970  0.1428
 2399SOL    HW218834   3.711   0.938   4.015 -1.0437  0.0425  0.1725
 2400SOL     OW18835   1.467   2.706  13.721  0.1224 -0.0536  0.5444
 2400SOL    HW118836   1.374   2.724  13.735  0.1785 -1.2110  2.3396
 2400SOL    HW218837   1.479   2.715  13.626 -0.7271 -1.5846  0.2928
 2401SOL     OW18838   3.889   1.833  11.059 -0.2754  0.3262  0.1870
 2401SOL    HW118839   3.890   1.755  11.113 -0.7233 -0.7659 -1.3995
 2401SOL    HW218840   3.902   1.889  11.135  2.5580 -0.1083  0.0329
 2402SOL     OW18841   2.242   0.244   5.307  0.0339  0.1096 -0.5896
 2402SOL    HW118842   2.306   0.211   5.370 -0.3736 -0.1286 -0.3041
 2402SOL    HW218843   2.259   0.188   5.231 -0.4347 -0.1927 -0.4684
 2403SOL     OW18844   4.226   2.000  16.367 -0.1407 -0.0143 -0.3001
 2403SOL    HW118845   4.207   1.954  16.448  1.3692  2.8115  1.6718
 2403SOL    HW218846   4.189   2.086  16.384  1.8637  0.7740  0.1637
 2404SOL     OW18847   3.884   2.035   3.414  0.6658 -0.1296  0.3752
 2404SOL    HW118848   3.864   1.946   3.385 -2.2204 -0.4537  3.3175
 2404SOL    HW218849   3.823   2.089   3.363 -1.8634 -2.5004  0.8919
 2405SOL     OW18850   4.323   3.034   6.766  0.9146  0.1682 -0.6056
 2405SOL    HW118851   4.362   3.109   6.810  0.1885 -0.5029  1.1968
 2405SOL    HW218852   4.393   2.972   6.788 -1.4936 -2.4708 -0.3078
 2406SOL     OW18853   2.603   4.503  10.191  0.2274  0.3352 -0.2139
 2406SOL    HW118854   2.597   4.516  10.286 -1.2313  0.1694 -0.2874
 2406SOL    HW218855   2.517   4.468  10.167 -1.0053  1.5276  2.4686
 2407SOL     OW18856   2.966   3.364   9.244 -0.6107  0.1401  0.4278
 2407SOL    HW118857   2.926   3.365   9.157  1.5429 -1.3430 -0.5928
 2407SOL    HW218858   3.034   3.431   9.239 -0.8411  0.3863  0.6486
 2408SOL     OW18859   1.368   2.692   1.282  0.1781 -0.1236  0.3936
 2408SOL    HW118860   1.310   2.724   1.214 -2.0903 -0.5692  2.0947
 2408SOL    HW218861   1.408   2.617   1.239 -0.0837  0.2877 -0.5560
 2409SOL     OW18862   1.631   3.130   3.456 -0.0889 -0.2621  0.3009
 2409SOL    HW118863   1.637   3.205   3.397 -1.1702  0.1913  0.7581
 2409SOL    HW218864   1.538   3.108   3.446 -0.5074  1.1108  1.1645
 2410SOL     OW18865   2.550   2.793   9.490  0.1018 -0.2257  0.1563
 2410SOL    HW118866   2.614   2.733   9.528 -1.5192 -1.5880  0.7022
 2410SOL    HW218867   2.563   2.776   9.397 -0.0918 -0.3998  0.1622
 2411SOL     OW18868   1.637   3.351   4.486  0.3380  0.0324 -0.3897
 2411SOL    HW118869   1.679   3.320   4.566  2.3552 -1.4543 -1.9961
 2411SOL    HW218870   1.680   3.293   4.423  0.1141  0.0647 -0.5727
 2412SOL     OW18871   4.055   0.706  12.643 -0.2001 -0.0513  0.3040
 2412SOL    HW118872   4.030   0.622  12.681 -1.1879 -0.4356 -1.1869
 2412SOL    HW218873   4.045   0.678  12.552  0.3924 -0.4971  0.3799
 2413SOL     OW18874   1.434   3.039   4.004  0.1119  0.9084 -0.2036
 2413SOL    HW118875   1.376   3.068   4.075 -0.7320  2.1037 -1.3867
 2413SOL    HW218876   1.518   3.027   4.048 -0.1275  0.9696  0.2722
 2414SOL     OW18877   1.963   1.205  12.338  0.2583 -0.0241 -0.2977
 2414SOL    HW118878   1.868   1.213  12.346  0.2624 -2.0771  1.7251
 2414SOL    HW218879   1.960   1.226  12.244  0.8313 -0.1656 -0.3445
 2415SOL     OW18880   0.550   1.043   6.160 -0.2442 -0.4081  0.1457
 2415SOL    HW118881   0.600   1.031   6.241 -0.0347 -2.0365 -0.2430
 2415SOL    HW218882   0.568   1.136   6.141  1.4770 -0.6193  0.7006
 2416SOL     OW18883   1.352   0.887   3.241  0.1409  0.2003 -0.1102
 2416SOL    HW118884   1.257   0.886   3.245  0.0780  3.5726 -0.8733
 2416SOL    HW218885   1.359   0.809   3.186 -1.1368 -1.0601  1.5130
 2417SOL     OW18886   0.933   4.146   2.985 -0.0751  0.0608 -0.1576
 2417SOL    HW118887   0.843   4.125   2.963  0.1021  0.1277 -0.9385
 2417SOL    HW218888   0.933   4.235   2.951  0.2421  0.0022 -0.3079
 2418SOL     OW18889   1.517   3.001   6.710  0.1499  0.0107 -0.1101
 2418SOL    HW118890   1.511   2.932   6.776 -0.3415 -1.2192 -1.4558
 2418SOL    HW218891   1.543   3.076   6.763  0.0451  0.1906 -0.3133
 2419SOL     OW18892   2.218   1.533   3.299  0.1793  0.3395 -0.1318
 2419SOL    HW118893   2.195   1.440   3.290  2.0924 -0.0676 -0.7002
 2419SOL    HW218894   2.284   1.516   3.366 -1.1170  1.7613  1.5010
 2420SOL     OW18895   3.645   1.275   1.674 -0.2716 -0.0242  0.5033
 2420SOL    HW118896   3.666   1.191   1.715  0.6278 -0.4323 -0.8023
 2420SOL    HW218897   3.565   1.294   1.724 -1.7328  0.8443 -2.1652
 2421SOL     OW18898   3.059   4.233   0.720 -0.2996  0.1169  0.8393
 2421SOL    HW118899   3.105   4.262   0.641 -1.0015  1.6890  1.0088
 2421SOL    HW218900   3.119   4.173   0.765  1.0166  0.1729 -0.8670
 2422SOL     OW18901   2.227   2.992   0.670  0.4782  0.4273 -0.3225
 2422SOL    HW118902   2.205   3.085   0.665 -1.0141  0.0796 -0.3502
 2422SOL    HW218903   2.182   2.947   0.599  0.9474  0.7977 -0.8542
 2423SOL     OW18904   1.029   0.288   7.212  0.3908  0.7454 -0.1425
 2423SOL    HW118905   0.995   0.343   7.141  1.2409  3.7330  1.7540
 2423SOL    HW218906   1.008   0.197   7.194 -2.5011  1.4188 -0.1567
 2424SOL     OW18907   1.068   2.424   5.896 -0.5421  0.1533  0.5568
 2424SOL    HW118908   1.092   2.344   5.943 -1.4066 -0.3145  0.1975
 2424SOL    HW218909   1.016   2.472   5.960  0.5344  0.9914  0.8171
 2425SOL     OW18910   3.750   3.559   5.482  0.5349 -0.3699  0.2297
 2425SOL    HW118911   3.819   3.613   5.520 -0.3496  0.4685  0.6510
 2425SOL    HW218912   3.783   3.472   5.505 -1.1476 -1.4516 -1.4081
 2426SOL     OW18913   2.814   4.434   0.166 -0.4838  0.2117 -0.7326
 2426SOL    HW118914   2.863   4.362   0.127 -0.1993 -0.3475  0.6594
 2426SOL    HW218915   2.874   4.507   0.155 -0.7006  0.4912 -0.0991
 2427SOL     OW18916   0.470   0.593   3.755  0.1224 -0.1541  0.2772
 2427SOL    HW118917   0.422   0.517   3.721 -1.3291  0.5538  0.7461
 2427SOL    HW218918   0.539   0.548   3.803 -0.6138 -2.0090 -0.4028
 2428SOL     OW18919   4.403   4.391   1.633  0.0123 -0.3576 -0.4279
 2428SOL    HW118920   4.470   4.420   1.694 -0.9161  3.7847 -1.3983
 2428SOL    HW218921   4.384   4.297   1.642  0.6985 -0.3102  1.4700
 2429SOL     OW18922   2.023   0.120   5.404  0.3662  0.0833  0.0876
 2429SOL    HW118923   2.086   0.175   5.358  1.3591  0.9013  2.4600
 2429SOL    HW218924   2.073   0.038   5.406 -0.3405 -0.3768 -1.0143
 2430SOL     OW18925   1.005   1.592   2.129  0.0259  0.0778  0.5774
 2430SOL    HW118926   1.016   1.653   2.055  2.0881  0.2788  1.0548
 2430SOL    HW218927   1.001   1.508   2.083  0.0626 -0.1810  1.0580
 2431SOL     OW18928   1.110   0.342   3.661 -0.3057  0.1609 -0.0034
 2431SOL    HW118929   1.114   0.247   3.644 -1.3596 -0.1104  1.2635
 2431SOL    HW218930   1.056   0.322   3.738  1.6460  2.1199  1.8814
 2432SOL     OW18931   4.392   0.775   9.782 -0.5784  0.2328  0.2135
 2432SOL    HW118932   4.325   0.843   9.794 -0.8397  0.2199 -1.1533
 2432SOL    HW218933   4.463   0.813   9.832  0.4418 -0.4722 -0.7023
 2433SOL     OW18934   4.189   0.655   8.891  0.5577  0.3744 -0.4136
 2433SOL    HW118935   4.282   0.671   8.877  0.4807 -0.4028 -1.8115
 2433SOL    HW218936   4.151   0.714   8.827  3.0048  0.7620 -1.4885
 2434SOL     OW18937   4.407   2.128   4.473  0.8279  0.0090  0.0749
 2434SOL    HW118938   4.388   2.219   4.449  1.3650  0.0464 -0.2001
 2434SOL    HW218939   4.318   2.107   4.503  1.1725 -0.4858  0.7591
 2435SOL     OW18940   1.591   3.242   6.860 -0.5621 -0.4558 -0.1254
 2435SOL    HW118941   1.671   3.247   6.912  1.7023 -1.8018 -3.5155
 2435SOL    HW218942   1.566   3.333   6.844 -0.3673 -0.1458  1.3213
 2436SOL     OW18943   0.665   0.984   4.225  0.0263 -0.1774  0.3384
 2436SOL    HW118944   0.570   0.979   4.219 -0.1008  0.2773  1.8190
 2436SOL    HW218945   0.688   0.900   4.185 -1.2263  0.0183 -0.7896
 2437SOL     OW18946   2.225   1.389   7.702 -0.3622  0.2730 -0.0208
 2437SOL    HW118947   2.201   1.296   7.704 -0.4522  0.3322  1.4819
 2437SOL    HW218948   2.142   1.434   7.686  0.1946  1.2160 -0.2492
 2438SOL     OW18949   2.117   3.002   7.445  0.0355 -0.5820  0.1108
 2438SOL    HW118950   2.207   2.980   7.421  0.3880  1.1744 -0.1649
 2438SOL    HW218951   2.118   2.979   7.538  0.0990 -2.3427 -0.3208
 2439SOL     OW18952   1.170   2.251   1.841  0.8120 -0.6806 -0.2612
 2439SOL    HW118953   1.142   2.332   1.799 -0.1764  0.3919  2.4493
 2439SOL    HW218954   1.175   2.181   1.776 -0.5950 -0.6273 -0.4205
 2440SOL     OW18955   4.417   4.294   4.022 -0.6374 -0.1510 -0.0289
 2440SOL    HW118956   4.465   4.260   4.098  2.2361  1.8788 -0.9859
 2440SOL    HW218957   4.411   4.216   3.967 -1.8102 -1.2180  1.5721
 2441SOL     OW18958   1.297   4.225   5.364  0.1633  0.2754 -0.3142
 2441SOL    HW118959   1.332   4.236   5.453 -0.3791 -2.5653  0.2609
 2441SOL    HW218960   1.301   4.313   5.326 -2.0529  0.0846 -0.9697
 2442SOL     OW18961   1.631   4.479   5.118 -0.2047  0.5870  0.1823
 2442SOL    HW118962   1.559   4.442   5.066 -1.1046 -0.4562  2.1875
 2442SOL    HW218963   1.687   4.509   5.046 -2.1970 -0.4344 -1.8016
 2443SOL     OW18964   0.642   1.038   7.554 -0.1387  0.0527 -0.0062
 2443SOL    HW118965   0.556   1.067   7.586 -0.2275 -0.7597  0.4918
 2443SOL    HW218966   0.634   0.948   7.584 -3.4455  0.5160  0.4788
 2444SOL     OW18967   1.908   2.698   8.910 -0.1429 -0.2761  0.5161
 2444SOL    HW118968   1.844   2.753   8.864  1.7388  1.4264 -0.0895
 2444SOL    HW218969   1.867   2.612   8.907 -1.6060  0.3453  2.4612
 2445SOL     OW18970   3.609   3.066   6.701  0.0897 -0.1135  0.1359
 2445SOL    HW118971   3.640   3.123   6.631 -1.3697 -0.0131 -0.4297
 2445SOL    HW218972   3.550   3.014   6.647  0.0268  0.9991 -0.8792
 2446SOL     OW18973   3.497   3.328   3.510 -0.6339 -0.0164  0.4485
 2446SOL    HW118974   3.522   3.419   3.527  1.7590 -0.2917 -1.6189
 2446SOL    HW218975   3.525   3.277   3.586 -1.1385 -0.8938  0.0355
 2447SOL     OW18976   0.754   0.297  13.240  0.3457 -0.6067  0.9304
 2447SOL    HW118977   0.790   0.245  13.311 -0.9489 -1.8489  0.6790
 2447SOL    HW218978   0.685   0.240  13.207  1.0832  0.1571 -1.9300
 2448SOL     OW18979   1.774   0.718   8.157  0.0607  0.2058  0.1686
 2448SOL    HW118980   1.748   0.768   8.235  1.6584  0.8335  0.3111
 2448SOL    HW218981   1.806   0.790   8.103 -1.0401  0.0202 -0.7217
 2449SOL     OW18982   2.206   0.075   5.111 -0.4529  0.1746  0.2415
 2449SOL    HW118983   2.159   0.097   5.030  1.5169 -2.3088 -1.5671
 2449SOL    HW218984   2.142   0.022   5.158 -0.9932 -0.8327 -1.6421
 2450SOL     OW18985   0.284   0.761   4.342 -0.0736  0.4037 -0.6159
 2450SOL    HW118986   0.204   0.768   4.394  0.4287 -0.9018  0.3285
 2450SOL    HW218987   0.310   0.853   4.337 -0.5648  0.5767  0.0462
 2451SOL     OW18988   3.305   0.171   4.041 -0.2398 -0.0373  0.1667
 2451SOL    HW118989   3.262   0.157   3.956 -0.4610 -1.7064  0.5412
 2451SOL    HW218990   3.332   0.082   4.064 -2.2477 -0.7939 -0.3760
 2452SOL     OW18991   4.049   4.698   8.735  0.0619 -0.3385  0.3375
 2452SOL    HW118992   4.043   4.620   8.791  0.6515 -0.3615  0.3772
 2452SOL    HW218993   4.103   4.667   8.662  0.4584  0.5357  0.2608
 2453SOL     OW18994   3.349   0.094   3.099  0.1256 -0.0624 -0.1565
 2453SOL    HW118995   3.373   0.148   3.023 -1.9765  0.3085 -0.5439
 2453SOL    HW218996   3.264   0.128   3.126  0.3265  0.5110 -0.2341
 2454SOL     OW18997   0.262   2.936   2.608  0.1591  0.2511  0.5777
 2454SOL    HW118998   0.348   2.924   2.567  0.0841 -2.0063  1.1249
 2454SOL    HW218999   0.207   2.876   2.559  0.9720 -1.6494  1.9753
 2455SOL     OW19000   3.149   1.831   1.967  0.0118  0.6159 -0.0879
 2455SOL    HW119001   3.217   1.772   1.935 -0.9266 -1.0951  1.0930
 2455SOL    HW219002   3.157   1.905   1.906  1.2347 -1.4325 -2.4330
 2456SOL     OW19003   2.932   2.325   7.534  0.1018  0.0270 -0.1389
 2456SOL    HW119004   2.996   2.258   7.557  0.2453  0.1708 -0.1174
 2456SOL    HW219005   2.976   2.401   7.498  1.6030 -0.1130  1.4039
 2457SOL     OW19006   2.874   1.076   7.634 -0.3558  0.2784  0.7247
 2457SOL    HW119007   2.936   1.035   7.694 -0.6654 -2.5391 -0.8574
 2457SOL    HW219008   2.893   1.162   7.670  0.4363  0.1803  0.5403
 2458SOL     OW19009   3.019   2.295   8.807  0.0071  0.5579 -0.1565
 2458SOL    HW119010   3.049   2.386   8.808 -1.8441  1.1787 -0.7645
 2458SOL    HW219011   3.079   2.252   8.746 -1.3808 -0.2505 -0.9356
 2459SOL     OW19012   4.528   3.172   2.096 -0.0905  0.3443  0.1785
 2459SOL    HW119013   4.527   3.080   2.124 -1.8715 -0.3248 -2.0476
 2459SOL    HW219014   4.538   3.164   2.001  1.8330 -3.2198  0.6841
 2460SOL     OW19015   0.949   3.596   6.630 -0.4088 -0.2260 -0.8267
 2460SOL    HW119016   0.888   3.554   6.569  0.2643  1.5792 -2.7384
 2460SOL    HW219017   1.016   3.527   6.632  0.5054  0.7590  2.9598
 2461SOL     OW19018   4.506   2.116  14.649  0.2450  0.6568  0.4243
 2461SOL    HW119019   4.429   2.172  14.661 -0.1570  0.3875 -0.9203
 2461SOL    HW219020   4.469   2.036  14.687 -0.4853  0.5784 -0.4574
 2462SOL     OW19021   3.698   2.325   5.255  0.1914  0.2145 -0.0469
 2462SOL    HW119022   3.609   2.345   5.226  0.2570  0.7283  0.1044
 2462SOL    HW219023   3.728   2.403   5.302  0.2796 -0.3487  0.8363
 2463SOL     OW19024   4.305   1.163   6.393 -0.8205 -0.0055  0.8082
 2463SOL    HW119025   4.249   1.189   6.320 -0.0700 -0.3206  0.1099
 2463SOL    HW219026   4.238   1.137   6.456 -1.9231 -0.6917 -0.6268
 2464SOL     OW19027   3.020   1.992   2.757 -0.5097 -0.0256  0.4861
 2464SOL    HW119028   2.967   1.919   2.726 -1.3063  0.8836 -0.2947
 2464SOL    HW219029   3.051   2.016   2.670 -0.6740 -0.3789  0.3321
 2465SOL     OW19030   2.240   2.085  10.838  0.3489 -0.6309 -0.6410
 2465SOL    HW119031   2.209   2.136  10.913  0.7206 -2.0842  0.4952
 2465SOL    HW219032   2.300   2.157  10.820 -1.5543  1.5816  1.7380
 2466SOL     OW19033   4.248   0.548   3.551  0.2002  0.5212 -0.0041
 2466SOL    HW119034   4.298   0.574   3.474 -0.5237  1.0680 -0.3014
 2466SOL    HW219035   4.168   0.514   3.511  1.3105 -1.7574 -0.2420
 2467SOL     OW19036   4.630   1.742   5.796 -0.0189 -0.4374 -0.0281
 2467SOL    HW119037   4.562   1.793   5.841 -0.3660 -1.0404  0.1299
 2467SOL    HW219038   4.686   1.812   5.761 -1.4300  0.8710  0.2847
 2468SOL     OW19039   3.662   2.617  13.794 -0.2621 -0.4870  0.5062
 2468SOL    HW119040   3.757   2.616  13.785 -0.3310 -1.3795 -0.0903
 2468SOL    HW219041   3.637   2.693  13.742 -1.6242  0.1476  2.0556
 2469SOL     OW19042   3.257   0.315   6.593  0.0235  0.9435 -0.3316
 2469SOL    HW119043   3.320   0.380   6.625  1.1461 -0.9551  1.2423
 2469SOL    HW219044   3.245   0.344   6.502 -1.4098  0.0216 -0.4253
 2470SOL     OW19045   0.707   3.945   3.771  0.2383  0.2709  0.3617
 2470SOL    HW119046   0.646   3.875   3.753 -1.0078  1.8628 -1.6356
 2470SOL    HW219047   0.733   3.921   3.860 -1.0908 -0.7601  0.4577
 2471SOL     OW19048   1.535   0.710   4.425 -0.8282 -0.5079  0.2858
 2471SOL    HW119049   1.564   0.729   4.514  1.3072 -1.4302 -0.2009
 2471SOL    HW219050   1.601   0.755   4.373 -2.8723  1.3640 -0.6689
 2472SOL     OW19051   1.414   2.749   8.093 -0.2841  0.2648  0.1133
 2472SOL    HW119052   1.340   2.777   8.039 -1.6525  1.4367  2.6102
 2472SOL    HW219053   1.391   2.661   8.124 -3.1192  0.4030 -1.5940
 2473SOL     OW19054   3.522   2.545   9.140  0.4782  0.1441  0.0301
 2473SOL    HW119055   3.439   2.564   9.184  0.4676  0.4736 -0.1306
 2473SOL    HW219056   3.511   2.593   9.058  0.8094  0.5469  0.2248
 2474SOL     OW19057   1.447   4.092   4.171  0.0141  0.6606  0.2894
 2474SOL    HW119058   1.493   4.150   4.233  1.0620 -1.8535  1.8653
 2474SOL    HW219059   1.516   4.031   4.145 -2.2832 -1.3085 -1.1388
 2475SOL     OW19060   1.203   1.803   8.032 -0.0878  0.1806 -0.3924
 2475SOL    HW119061   1.240   1.840   7.952 -1.6609  1.8534 -0.3532
 2475SOL    HW219062   1.115   1.839   8.026  0.2698  1.2154  0.4975
 2476SOL     OW19063   0.164   0.868   3.674 -0.3587  0.3560 -0.2678
 2476SOL    HW119064   0.095   0.826   3.725  0.9611 -1.5222 -0.0636
 2476SOL    HW219065   0.198   0.782   3.648 -0.1378 -0.5319  3.0199
 2477SOL     OW19066   2.269   3.300   6.540  0.6623  0.3310  0.5067
 2477SOL    HW119067   2.190   3.336   6.580  0.0414  1.3456 -1.6678
 2477SOL    HW219068   2.260   3.208   6.567 -0.3405  0.0551 -0.7958
 2478SOL     OW19069   4.674   3.912   6.851  0.2610 -0.1356  0.5363
 2478SOL    HW119070   4.711   3.985   6.801  0.3481 -0.3960  0.2212
 2478SOL    HW219071   4.612   3.956   6.909 -0.0120  0.2295 -0.0232
 2479SOL     OW19072   3.324   2.947   8.906 -0.2384 -0.3440  0.0751
 2479SOL    HW119073   3.260   2.914   8.969  0.8952  0.4489  1.6320
 2479SOL    HW219074   3.341   3.037   8.935  0.1588 -0.2966 -0.3047
 2480SOL     OW19075   4.218   2.415   9.525 -0.0952  0.2199  0.7393
 2480SOL    HW119076   4.271   2.491   9.501  0.0792 -0.0321  0.3137
 2480SOL    HW219077   4.285   2.350   9.547 -1.2943 -1.5364 -0.7591
 2481SOL     OW19078   2.666   0.446  14.805 -0.5716  0.1588 -0.8861
 2481SOL    HW119079   2.625   0.488  14.881  2.5579  1.8240 -0.1275
 2481SOL    HW219080   2.598   0.457  14.738 -3.2475 -0.0387  1.8181
 2482SOL     OW19081   4.175   4.364   1.411 -0.0957 -0.4129  0.4149
 2482SOL    HW119082   4.104   4.301   1.419  1.0939 -2.0484 -1.9588
 2482SOL    HW219083   4.209   4.374   1.500  0.3103  3.1440 -0.1616
 2483SOL     OW19084   2.382   0.872   2.153  0.2733 -0.1563  0.6687
 2483SOL    HW119085   2.419   0.855   2.066  1.2425  0.0034  1.0513
 2483SOL    HW219086   2.346   0.956   2.124  1.7990 -0.7522 -2.9336
 2484SOL     OW19087   0.277   1.124   8.748 -0.3191  0.6996  0.3807
 2484SOL    HW119088   0.236   1.155   8.829  0.3365 -2.0259  1.7494
 2484SOL    HW219089   0.221   1.171   8.687  1.5220 -1.2681 -2.7750
 2485SOL     OW19090   0.330   2.872   4.196  0.1010  0.2738  0.4192
 2485SOL    HW119091   0.253   2.922   4.168  0.6486  0.0885 -1.3678
 2485SOL    HW219092   0.314   2.860   4.290  0.9474 -1.6910  0.3037
 2486SOL     OW19093   4.530   4.028   1.122  0.4704  0.2059  0.0882
 2486SOL    HW119094   4.467   4.060   1.186 -2.3468 -1.8667 -1.6406
 2486SOL    HW219095   4.487   4.049   1.039  1.5721  1.1062 -0.2559
 2487SOL     OW19096   4.675   3.602   5.869  0.6054 -0.0506  0.4721
 2487SOL    HW119097   4.591   3.560   5.885  0.3056  1.0496  1.8109
 2487SOL    HW219098   4.696   3.623   5.960 -0.8456 -1.4788  1.1292
 2488SOL     OW19099   1.380   1.664   9.004  0.0469  0.1363 -0.0514
 2488SOL    HW119100   1.376   1.696   9.094 -0.0855  0.8712 -0.3214
 2488SOL    HW219101   1.308   1.709   8.961  0.5508  1.6983  0.7107
 2489SOL     OW19102   3.832   3.777   7.957  0.1305  0.3501  0.1575
 2489SOL    HW119103   3.798   3.828   7.884 -1.5303  0.7422  1.1890
 2489SOL    HW219104   3.911   3.731   7.928 -0.7248 -1.1863  0.2354
 2490SOL     OW19105   1.728   2.221   5.946 -0.1432  0.8323 -0.2498
 2490SOL    HW119106   1.635   2.236   5.933  0.3437  2.0434 -2.3061
 2490SOL    HW219107   1.732   2.149   6.010  1.6088  0.4779 -0.7593
 2491SOL     OW19108   1.482   4.533   8.066  0.6457  0.6372  0.0218
 2491SOL    HW119109   1.539   4.504   8.137  0.6651 -0.9981 -0.6575
 2491SOL    HW219110   1.447   4.611   8.110 -1.6488  0.6846 -1.8458
 2492SOL     OW19111   0.091   4.088  12.654  0.2877 -0.1130 -0.2352
 2492SOL    HW119112   0.079   4.128  12.568  2.0949 -0.5619 -0.6953
 2492SOL    HW219113   0.012   4.037  12.672 -0.6859  1.0888 -1.0737
 2493SOL     OW19114   4.589   4.560   8.777 -0.7616 -0.2303 -0.3351
 2493SOL    HW119115   4.519   4.496   8.765  0.2934 -1.4236 -0.0552
 2493SOL    HW219116   4.554   4.609   8.851 -0.9717 -1.0747  0.1214
 2494SOL     OW19117   2.206   0.096   4.158 -0.1553 -0.4010  0.0092
 2494SOL    HW119118   2.284   0.115   4.212 -2.0411 -0.7145  2.8550
 2494SOL    HW219119   2.145   0.136   4.219  1.0733  0.9960  0.3470
 2495SOL     OW19120   3.229   3.375   7.985  0.1851  0.2428  0.6414
 2495SOL    HW119121   3.190   3.320   7.917 -2.0262  1.5939  0.8497
 2495SOL    HW219122   3.290   3.318   8.032  0.9475  0.6590  0.1585
 2496SOL     OW19123   2.850   0.424   4.490  0.3334 -0.0037 -0.4835
 2496SOL    HW119124   2.822   0.389   4.574  1.1185 -0.9256 -0.6130
 2496SOL    HW219125   2.785   0.394   4.427  1.0209 -3.3187  0.3845
 2497SOL     OW19126   2.036   1.341   3.031  0.3317  0.0283 -0.2015
 2497SOL    HW119127   1.953   1.295   3.022 -1.0666  1.8078  3.4816
 2497SOL    HW219128   2.050   1.327   3.125  0.6158 -1.1014 -0.4081
 2498SOL     OW19129   3.846   1.910   8.395  0.0310 -0.1104  0.2722
 2498SOL    HW119130   3.853   1.825   8.352  0.1648 -0.7068  1.4604
 2498SOL    HW219131   3.763   1.928   8.352  0.8168 -1.4344 -1.7773
 2499SOL     OW19132   4.102   4.695   9.348  0.1022 -0.0569 -0.3109
 2499SOL    HW119133   4.137   4.623   9.400 -2.4380 -0.9214  0.2327
 2499SOL    HW219134   4.054   4.734   9.421  0.7152  1.1745 -0.5835
 2500SOL     OW19135   4.012   2.311   7.546 -0.1380  0.9151  0.1706
 2500SOL    HW119136   4.086   2.263   7.510 -1.3953 -0.4637 -0.5703
 2500SOL    HW219137   4.027   2.278   7.635 -0.3232  1.7983  0.5293
 2501SOL     OW19138   1.840   0.689  14.375  0.2640 -1.0474  0.1172
 2501SOL    HW119139   1.838   0.599  14.342  0.4656 -2.5181  4.0606
 2501SOL    HW219140   1.766   0.683  14.436  0.6385 -1.4569  0.5332
 2502SOL     OW19141   1.723   1.886   6.385 -0.3142  0.0441  0.0596
 2502SOL    HW119142   1.670   1.928   6.318 -1.1263  0.4322  0.9510
 2502SOL    HW219143   1.661   1.871   6.456  0.9283 -0.0201  1.1361
 2503SOL     OW19144   4.702   3.026   3.747  0.4048  0.1325 -0.7196
 2503SOL    HW119145   4.637   2.972   3.703 -0.1874 -0.9776  1.5429
 2503SOL    HW219146   4.672   3.021   3.838  0.2843  1.7192 -0.6752
 2504SOL     OW19147   0.782   4.153   7.713 -0.8167  0.4241  0.0299
 2504SOL    HW119148   0.707   4.208   7.689 -1.3747 -0.7907 -1.0297
 2504SOL    HW219149   0.814   4.204   7.787 -0.4450  0.8065 -0.3945
 2505SOL     OW19150   0.573   4.637   1.963 -0.3504 -0.1808 -0.0943
 2505SOL    HW119151   0.520   4.704   2.006  1.2493  1.5959 -0.8978
 2505SOL    HW219152   0.507   4.570   1.945 -0.8182  0.3585 -0.4017
 2506SOL     OW19153   2.076   4.155   9.349 -0.6127 -0.7200  0.0468
 2506SOL    HW119154   2.078   4.242   9.387 -0.1105 -0.8626  0.3488
 2506SOL    HW219155   2.047   4.104   9.425 -1.6743 -1.9010 -1.1287
 2507SOL     OW19156   4.700   1.810  16.901 -0.0157  0.4207  0.5271
 2507SOL    HW119157   0.008   1.839  16.979  0.0457  0.4986  0.4619
 2507SOL    HW219158   4.666   1.896  16.875 -1.2884 -0.1871  0.1637
 2508SOL     OW19159   1.690   2.035  11.687  0.3439 -1.1937  0.4902
 2508SOL    HW119160   1.754   2.107  11.688  0.9790 -1.7366 -0.5843
 2508SOL    HW219161   1.711   1.998  11.601  0.3366 -1.8968  0.7898
 2509SOL     OW19162   2.870   1.100  12.403 -0.2296 -0.2390 -0.0247
 2509SOL    HW119163   2.942   1.146  12.446 -0.4898  0.5731 -0.4471
 2509SOL    HW219164   2.806   1.170  12.418  0.5394  0.9364 -2.1825
 2510SOL     OW19165   1.607   2.350   3.119 -0.0439 -0.3264 -0.0623
 2510SOL    HW119166   1.596   2.289   3.046 -0.9360  0.0840 -0.2726
 2510SOL    HW219167   1.590   2.431   3.071  2.2738  0.3475  0.2831
 2511SOL     OW19168   0.055   1.825   7.011 -0.3671 -0.4894  0.0084
 2511SOL    HW119169   0.069   1.904   6.959 -1.1632 -1.7960 -2.1809
 2511SOL    HW219170   0.011   1.773   6.944  0.0516  0.0161 -0.6616
 2512SOL     OW19171   1.167   1.956   3.313  0.0413  0.0838  0.0600
 2512SOL    HW119172   1.098   1.890   3.307 -1.5346  1.8600 -1.6166
 2512SOL    HW219173   1.191   1.979   3.223 -1.9692  1.4872 -0.1393
 2513SOL     OW19174   3.148   3.604   9.143  0.7581 -0.4426 -0.3399
 2513SOL    HW119175   3.107   3.650   9.217  0.7147 -0.1596 -0.5384
 2513SOL    HW219176   3.240   3.632   9.146  0.7970 -0.6165  0.1042
 2514SOL     OW19177   1.181   3.849   3.471 -0.2447  0.0234  0.3385
 2514SOL    HW119178   1.133   3.897   3.404 -0.9160  1.2482  1.7156
 2514SOL    HW219179   1.223   3.778   3.421 -0.0645  0.2264  0.2025
 2515SOL     OW19180   0.974   2.841   5.330 -0.2793 -0.9650 -0.3001
 2515SOL    HW119181   1.062   2.841   5.368 -0.6626  0.5739  0.5965
 2515SOL    HW219182   1.001   2.888   5.251  0.0111 -1.3244 -0.4163
 2516SOL     OW19183   2.105   2.371   6.694 -0.2164 -0.1016 -0.2584
 2516SOL    HW119184   2.149   2.286   6.689  0.9055  0.7239 -4.3053
 2516SOL    HW219185   2.181   2.426   6.678  0.4689 -1.0900 -0.4487
 2517SOL     OW19186   1.546   0.776   2.494 -0.0954  0.2843  0.3610
 2517SOL    HW119187   1.541   0.686   2.463  2.2185 -0.5164  2.3295
 2517SOL    HW219188   1.456   0.785   2.526  0.0377 -2.3292  1.4086
 2518SOL     OW19189   0.472   4.678   7.459  0.7102 -0.4540 -0.0400
 2518SOL    HW119190   0.487   4.708   7.549 -1.5234  1.6796 -0.3547
 2518SOL    HW219191   0.557   4.661   7.419 -0.2221  2.0119 -3.1431
 2519SOL     OW19192   4.250   3.721   2.424 -0.0205  0.2300 -0.1576
 2519SOL    HW119193   4.249   3.727   2.520  0.3211 -0.2307 -0.1230
 2519SOL    HW219194   4.342   3.735   2.402 -0.2881  2.2341 -0.0738
 2520SOL     OW19195   1.778   3.454  12.381  0.2370  0.3768 -0.2136
 2520SOL    HW119196   1.779   3.514  12.456 -1.4683  0.3428 -0.1624
 2520SOL    HW219197   1.714   3.393  12.419  0.6998 -0.2978 -0.5215
 2521SOL     OW19198   1.792   3.002   2.426 -0.0327  0.0169 -0.3994
 2521SOL    HW119199   1.749   2.920   2.401 -2.5787  1.1300  0.2942
 2521SOL    HW219200   1.727   3.017   2.495  0.2000  2.4579 -0.7152
 2522SOL     OW19201   1.885   1.604   5.354  0.5342 -0.3221  0.1174
 2522SOL    HW119202   1.978   1.623   5.372  0.1484  1.9922 -0.3462
 2522SOL    HW219203   1.859   1.592   5.445  4.6181 -1.2145  1.1833
 2523SOL     OW19204   0.423   3.595   0.858  0.0811 -0.9388  0.3481
 2523SOL    HW119205   0.483   3.595   0.933 -1.4405 -1.8826  1.5620
 2523SOL    HW219206   0.454   3.527   0.798  1.4286 -0.9863  1.0979
 2524SOL     OW19207   3.309   1.010   8.240  0.1791 -0.0872 -0.0407
 2524SOL    HW119208   3.248   1.028   8.312 -0.3013 -0.7893 -0.2776
 2524SOL    HW219209   3.268   0.933   8.202  1.6307 -1.2433  0.7408
 2525SOL     OW19210   3.176   0.233  12.836  0.5059  0.1889  0.1112
 2525SOL    HW119211   3.106   0.209  12.775  0.5413 -0.3714  0.2996
 2525SOL    HW219212   3.186   0.325  12.811  2.0083  0.6277  2.3213
 2526SOL     OW19213   2.803   1.338   2.413  0.3251  0.4210  0.2374
 2526SOL    HW119214   2.726   1.321   2.359  0.5349 -1.2231  0.4648
 2526SOL    HW219215   2.779   1.415   2.465 -3.1142 -0.2013 -0.4240
 2527SOL     OW19216   4.388   1.944   7.404  0.1642 -0.0628  0.3488
 2527SOL    HW119217   4.404   1.997   7.326 -0.8369 -0.7716 -0.3356
 2527SOL    HW219218   4.334   1.881   7.356 -0.6630 -1.4983  3.1617
 2528SOL     OW19219   0.758   3.816   1.578  0.2535 -0.4459  0.3496
 2528SOL    HW119220   0.846   3.827   1.541  0.1400  1.0785  0.5141
 2528SOL    HW219221   0.752   3.898   1.627 -0.1132 -0.4670  0.3414
 2529SOL     OW19222   0.572   4.697  16.562 -0.3806 -0.0040 -0.0131
 2529SOL    HW119223   0.509   0.030  16.570  0.5805  0.9198 -0.7837
 2529SOL    HW219224   0.633   0.002  16.503  0.7423 -1.2150  0.2362
 2530SOL     OW19225   1.063   1.093  14.356 -0.1163 -0.1119  0.4433
 2530SOL    HW119226   1.004   1.093  14.432  0.9436  0.6859  1.2695
 2530SOL    HW219227   1.061   1.001  14.330  1.3904 -0.6038  2.0530
 2531SOL     OW19228   1.973   1.620   3.232 -0.3865  0.3354 -0.0002
 2531SOL    HW119229   1.971   1.714   3.217  1.1315  0.4764  0.6915
 2531SOL    HW219230   2.065   1.612   3.255 -1.3867 -2.8412  2.9985
 2532SOL     OW19231   3.153   3.620   1.670 -0.1417 -0.3604  0.1379
 2532SOL    HW119232   3.145   3.564   1.747 -0.3675 -1.0937 -0.4256
 2532SOL    HW219233   3.069   3.614   1.625 -0.5883  3.1483  0.5031
 2533SOL     OW19234   2.139   3.170  14.549  0.3559  0.1286 -0.0514
 2533SOL    HW119235   2.112   3.239  14.609 -0.8759  0.7140 -1.2835
 2533SOL    HW219236   2.063   3.177  14.491  1.5370 -1.2134 -1.7624
 2534SOL     OW19237   0.591   1.612   9.571  1.0229  0.0474 -0.2935
 2534SOL    HW119238   0.667   1.645   9.523 -0.7074  3.7058 -0.5313
 2534SOL    HW219239   0.558   1.540   9.517  0.4643 -0.4056  0.6518
 2535SOL     OW19240   2.567   2.509   1.599  0.5764 -0.5099 -0.1002
 2535SOL    HW119241   2.589   2.595   1.634 -1.9276  0.3966 -0.7450
 2535SOL    HW219242   2.474   2.511   1.621  0.8439  0.9494  0.9074
 2536SOL     OW19243   1.775   0.922   4.927  0.4633 -0.0683 -0.2083
 2536SOL    HW119244   1.823   0.899   5.007  1.4265 -3.7898 -1.8314
 2536SOL    HW219245   1.692   0.948   4.967  1.4028 -0.4673  2.0079
 2537SOL     OW19246   1.433   2.942   0.941  0.1392 -0.1720 -0.4136
 2537SOL    HW119247   1.505   2.966   0.999  0.1097 -1.2304  0.0653
 2537SOL    HW219248   1.383   3.024   0.943 -1.0769 -0.9296  0.3385
 2538SOL     OW19249   2.309   1.749   8.897 -0.1203  0.2356  0.2531
 2538SOL    HW119250   2.276   1.745   8.987  0.3232 -2.1276  0.3015
 2538SOL    HW219251   2.384   1.807   8.909  0.0942  0.6061 -3.0169
 2539SOL     OW19252   0.214   0.256  15.981  0.6963 -0.1461  0.1178
 2539SOL    HW119253   0.123   0.226  15.979  0.2813  1.1616 -0.2640
 2539SOL    HW219254   0.263   0.177  15.957 -2.3509 -1.6333 -1.2796
 2540SOL     OW19255   3.450   4.054   4.589 -0.2491  0.6826  0.2573
 2540SOL    HW119256   3.535   4.091   4.613 -0.5767  1.5008  0.1622
 2540SOL    HW219257   3.423   4.096   4.507  0.3752 -0.9921 -0.8234
 2541SOL     OW19258   2.043   2.710  16.271  0.9571 -0.4489 -0.4151
 2541SOL    HW119259   2.113   2.679  16.329  1.4524  0.7759 -0.3671
 2541SOL    HW219260   2.003   2.624  16.257 -0.4115  0.0557  0.4333
 2542SOL     OW19261   1.157   4.441   4.641  0.1147 -0.0006 -0.1175
 2542SOL    HW119262   1.143   4.468   4.731 -1.1460 -0.0478 -0.3019
 2542SOL    HW219263   1.197   4.518   4.600 -0.7464  0.9945  0.9153
 2543SOL     OW19264   0.037   3.642   6.392  0.0291 -0.2683  0.0491
 2543SOL    HW119265   4.719   3.620   6.466  0.9384 -1.7990  0.2890
 2543SOL    HW219266   0.092   3.703   6.442 -0.8017 -0.1875  0.8555
 2544SOL     OW19267   0.117   4.297  11.268  0.2329 -0.1283  0.3762
 2544SOL    HW119268   0.124   4.288  11.363  1.2930 -1.7003  0.1526
 2544SOL    HW219269   0.184   4.362  11.246  0.3998 -0.8723 -1.3138
 2545SOL     OW19270   1.117   0.129   4.181 -0.3740 -0.3188 -0.0939
 2545SOL    HW119271   1.109   0.063   4.250  0.5993 -1.6281 -1.2377
 2545SOL    HW219272   1.201   0.104   4.142  0.0232  1.5531 -0.4373
 2546SOL     OW19273   2.744   2.799   0.743 -0.3971  0.3302  0.3901
 2546SOL    HW119274   2.709   2.712   0.764  0.7585 -0.3602 -0.5652
 2546SOL    HW219275   2.833   2.781   0.772 -0.6284  0.4891  1.2157
 2547SOL     OW19276   2.142   4.720   1.104 -0.6433 -0.0182 -0.4279
 2547SOL    HW119277   2.159   4.682   1.018  2.0313 -0.0388  0.1288
 2547SOL    HW219278   2.111   4.648   1.158  1.0981 -0.6846 -0.3294
 2548SOL     OW19279   3.767   4.549  15.723 -0.4370 -0.0942  0.4938
 2548SOL    HW119280   3.691   4.567  15.668  0.4532 -0.2377 -0.7783
 2548SOL    HW219281   3.839   4.588  15.673  0.0716 -1.0804  0.4556
 2549SOL     OW19282   3.553   1.587  16.832 -0.3781 -0.3244  0.8038
 2549SOL    HW119283   3.630   1.608  16.885 -0.1111 -2.4575  1.2811
 2549SOL    HW219284   3.557   1.651  16.762 -0.0426  0.2025  1.3065
 2550SOL     OW19285   2.262   0.578  15.527 -0.3191 -0.2164  0.1979
 2550SOL    HW119286   2.285   0.486  15.540 -1.8093 -0.6491 -0.2608
 2550SOL    HW219287   2.349   0.615  15.539 -1.7058  3.3365 -0.8194
 2551SOL     OW19288   1.001   3.205   2.906  0.8184 -0.1048  0.6531
 2551SOL    HW119289   1.058   3.129   2.916 -1.4751 -1.8010  0.9728
 2551SOL    HW219290   0.920   3.166   2.872 -0.0449  3.4779 -1.3980
 2552SOL     OW19291   1.930   3.092   7.658 -0.1175 -0.2902  0.1781
 2552SOL    HW119292   1.942   3.054   7.571 -1.6187 -0.9209  0.2442
 2552SOL    HW219293   1.998   3.053   7.713  1.9124  1.1642 -1.2899
 2553SOL     OW19294   4.584   0.215   8.931 -0.3456  0.1421 -0.3837
 2553SOL    HW119295   4.678   0.228   8.942 -0.2223 -1.1278  0.0681
 2553SOL    HW219296   4.553   0.287   8.876  0.5684  0.5817 -0.3349
 2554SOL     OW19297   2.312   2.150   4.815 -0.1397  0.2088  0.0880
 2554SOL    HW119298   2.258   2.224   4.842  1.5229  1.6912 -0.6936
 2554SOL    HW219299   2.269   2.137   4.730  0.2801 -0.0251 -0.0922
 2555SOL     OW19300   3.810   2.608   8.262  0.0996 -0.1287 -0.6172
 2555SOL    HW119301   3.814   2.669   8.336  3.4981 -0.9274 -0.1400
 2555SOL    HW219302   3.715   2.597   8.256  0.1134 -1.1006  1.0616
 2556SOL     OW19303   1.961   0.289   8.858  0.0482  0.4632  0.0877
 2556SOL    HW119304   1.977   0.195   8.846 -3.3025 -0.0894  0.1407
 2556SOL    HW219305   1.884   0.297   8.913  0.4016  1.5444  0.4322
 2557SOL     OW19306   3.676   3.083   8.817  0.1626  0.1060 -0.9099
 2557SOL    HW119307   3.615   3.030   8.766 -0.6357 -0.0877  0.2425
 2557SOL    HW219308   3.642   3.166   8.784 -0.5985 -0.0161 -0.4284
 2558SOL     OW19309   1.582   0.913   5.784  0.0868  0.0379 -0.0844
 2558SOL    HW119310   1.544   0.832   5.751 -0.7565 -0.5317  2.3084
 2558SOL    HW219311   1.593   0.906   5.879  0.5843 -0.4116 -0.1769
 2559SOL     OW19312   1.249   0.005   2.339 -0.1463 -0.5739 -0.5578
 2559SOL    HW119313   1.310   0.069   2.376 -0.6663  0.0915 -0.8452
 2559SOL    HW219314   1.303   4.666   2.324 -1.3665 -1.2385 -1.5258
 2560SOL     OW19315   3.821   4.395   2.685 -0.4636  0.3124 -0.3954
 2560SOL    HW119316   3.797   4.412   2.594 -0.6794 -0.7230 -0.5294
 2560SOL    HW219317   3.778   4.469   2.726 -0.0956 -0.7895  2.0014
 2561SOL     OW19318   3.620   4.409   9.463  0.2283 -0.4069 -0.4588
 2561SOL    HW119319   3.536   4.454   9.453  0.1559 -0.0357  1.7655
 2561SOL    HW219320   3.681   4.483   9.450 -0.6470  0.5417  0.8292
 2562SOL     OW19321   2.039   0.260   5.899  0.1278  0.0025 -0.3500
 2562SOL    HW119322   2.096   0.289   5.828  1.1407  2.3041  1.4134
 2562SOL    HW219323   2.010   0.343   5.937 -0.3944 -0.5143  0.3875
 2563SOL     OW19324   2.371   0.936   4.221 -0.1691 -0.1757 -0.3953
 2563SOL    HW119325   2.428   0.986   4.280 -1.6210  1.4037 -0.3400
 2563SOL    HW219326   2.433   0.870   4.189 -0.1495  1.7379 -4.2724
 2564SOL     OW19327   4.569   3.028   2.483  0.0549 -0.2069  0.1824
 2564SOL    HW119328   4.588   3.118   2.509  1.2850 -0.2984 -0.3647
 2564SOL    HW219329   4.477   3.040   2.462  0.2115  1.2839  0.3679
 2565SOL     OW19330   3.902   3.851   7.205  0.5806 -0.3796 -0.1095
 2565SOL    HW119331   3.823   3.803   7.182 -1.9715  2.9539  1.7140
 2565SOL    HW219332   3.974   3.813   7.155  0.5647  0.4415 -0.7620
 2566SOL     OW19333   4.283   1.028  10.542  0.6029  0.1437  0.7341
 2566SOL    HW119334   4.301   1.103  10.597 -0.6377  0.1666  1.1024
 2566SOL    HW219335   4.246   0.969  10.608 -0.2336  0.8872  0.9268
 2567SOL     OW19336   3.444   2.019  10.229  0.1154 -0.0250 -0.6324
 2567SOL    HW119337   3.414   2.038  10.318  0.7165 -0.0888 -0.4124
 2567SOL    HW219338   3.539   2.006  10.234 -0.2716 -2.6543 -0.2460
 2568SOL     OW19339   0.313   2.458   3.893 -0.0494 -0.2872  0.0756
 2568SOL    HW119340   0.251   2.406   3.842 -0.8083  0.9264 -0.2322
 2568SOL    HW219341   0.315   2.544   3.851  1.3457 -1.3145 -1.9954
 2569SOL     OW19342   3.494   2.052   6.815 -0.6451 -0.0667 -0.2522
 2569SOL    HW119343   3.555   2.067   6.888  1.0905 -1.4213 -1.4017
 2569SOL    HW219344   3.426   2.111   6.846  0.9633 -0.3490  3.9157
 2570SOL     OW19345   0.051   4.317  12.078 -0.0337 -0.2315  0.2772
 2570SOL    HW119346   0.052   4.412  12.087 -0.3262 -0.1638 -0.4244
 2570SOL    HW219347   4.702   4.308  12.040  0.0145 -0.0695  0.1276
 2571SOL     OW19348   3.330   1.318   2.046 -0.2186  0.0580  0.0778
 2571SOL    HW119349   3.308   1.258   2.117  0.7061 -2.1826 -1.5373
 2571SOL    HW219350   3.285   1.395   2.082  1.3092  0.5719  0.8875
 2572SOL     OW19351   0.062   1.556   6.235 -0.5322  0.0987 -0.2634
 2572SOL    HW119352   0.097   1.589   6.318 -2.2542 -1.8804  1.2556
 2572SOL    HW219353   0.028   1.473   6.269  1.2102  0.4977  2.4873
 2573SOL     OW19354   2.700   4.536  16.663 -0.9429 -0.3821 -0.1718
 2573SOL    HW119355   2.794   4.523  16.650 -0.4744  1.3528  1.4743
 2573SOL    HW219356   2.700   4.537  16.759 -0.1003 -3.2133 -0.1505
 2574SOL     OW19357   3.722   0.773   2.256  0.3517  0.1105 -0.1520
 2574SOL    HW119358   3.700   0.865   2.269  0.0869  0.1595 -0.9173
 2574SOL    HW219359   3.809   0.777   2.216  0.8673 -2.0642  0.8067
 2575SOL     OW19360   2.780   4.257  12.448  0.6731 -0.1286  0.7712
 2575SOL    HW119361   2.726   4.226  12.520 -1.7707 -0.9248 -1.3942
 2575SOL    HW219362   2.723   4.330  12.425 -1.5360 -1.8108  0.9314
 2576SOL     OW19363   2.330   4.285   1.168  0.8383 -0.2332  0.1496
 2576SOL    HW119364   2.418   4.250   1.174  0.4808 -1.3541 -1.0399
 2576SOL    HW219365   2.336   4.339   1.089 -2.5689  0.7494  0.5470
 2577SOL     OW19366   3.510   0.716   5.035  0.2314 -0.3303 -0.3020
 2577SOL    HW119367   3.548   0.662   5.104 -1.8853  0.1937  1.2663
 2577SOL    HW219368   3.565   0.684   4.963  0.2771 -3.4978  1.1608
 2578SOL     OW19369   1.733   1.464   3.720  0.0140  0.3068  0.1850
 2578SOL    HW119370   1.732   1.559   3.715 -1.1090  0.2719 -0.0963
 2578SOL    HW219371   1.771   1.450   3.633  0.7032 -0.8594  0.6665
 2579SOL     OW19372   3.809   1.897   4.862 -0.1655  0.8346  0.1892
 2579SOL    HW119373   3.820   1.942   4.946 -0.4020  0.5802  0.3580
 2579SOL    HW219374   3.720   1.920   4.833  0.2944 -1.1045 -2.7751
 2580SOL     OW19375   1.039   3.937   4.533 -0.5107  0.3097 -0.3754
 2580SOL    HW119376   1.119   3.938   4.480 -0.2861  1.8927 -0.0083
 2580SOL    HW219377   1.019   3.844   4.530 -1.9742  0.6332 -1.2149
 2581SOL     OW19378   0.861   4.126   2.324 -0.2681  0.2433  0.0475
 2581SOL    HW119379   0.822   4.069   2.258 -1.2704 -0.3546  1.1585
 2581SOL    HW219380   0.802   4.202   2.328  0.8359  1.0635  0.7688
 2582SOL     OW19381   2.004   0.020   7.905 -0.4660  0.0922 -0.4552
 2582SOL    HW119382   2.066   4.686   7.903 -2.4746 -1.6035 -0.9240
 2582SOL    HW219383   1.931   4.709   7.943  1.8445 -1.7591  1.5263
 2583SOL     OW19384   4.494   1.291   9.233 -0.7531  0.7077  0.3290
 2583SOL    HW119385   4.520   1.207   9.272  0.3629  0.3663 -1.1398
 2583SOL    HW219386   4.516   1.358   9.298 -2.5098  0.7495  0.8814
 2584SOL     OW19387   0.815   3.986   2.579 -0.3557  0.7098 -0.0959
 2584SOL    HW119388   0.850   3.952   2.496  2.9959  1.6617  0.9175
 2584SOL    HW219389   0.838   4.079   2.582 -1.2224  0.9358 -0.4457
 2585SOL     OW19390   1.136   1.703   4.581 -0.4947 -0.0943  0.1639
 2585SOL    HW119391   1.060   1.653   4.550  0.0636 -1.0853  0.4002
 2585SOL    HW219392   1.163   1.754   4.505 -0.0045  0.7034  0.8811
 2586SOL     OW19393   3.700   3.937  10.164  0.8132 -0.3049  0.0163
 2586SOL    HW119394   3.673   3.957  10.254 -0.7757  0.3630 -0.6114
 2586SOL    HW219395   3.788   3.969  10.145  0.8844 -0.3244  0.3066
 2587SOL     OW19396   2.050   2.537   0.682 -0.1704  0.0061 -0.0120
 2587SOL    HW119397   2.071   2.601   0.750  1.4980  1.0014 -1.4789
 2587SOL    HW219398   1.959   2.553   0.655  0.3513  0.8908 -1.2649
 2588SOL     OW19399   4.004   2.356  14.453 -0.3964 -0.6291 -0.3312
 2588SOL    HW119400   4.089   2.398  14.448 -0.4362 -0.6152 -0.8814
 2588SOL    HW219401   3.953   2.409  14.514  0.4970  0.9902 -1.0033
 2589SOL     OW19402   1.128   1.743  16.090 -0.0219  0.3924  0.5783
 2589SOL    HW119403   1.056   1.784  16.041 -1.5135 -2.1715  0.6295
 2589SOL    HW219404   1.085   1.675  16.141 -0.4104  1.9832  2.3500
 2590SOL     OW19405   0.340   4.374  16.436 -0.4686 -0.1794  0.0023
 2590SOL    HW119406   0.254   4.414  16.450 -0.2118  0.1805  0.5630
 2590SOL    HW219407   0.383   4.422  16.365 -0.2970 -4.4880 -2.8304
 2591SOL     OW19408   0.857   2.797   4.777 -0.4869 -0.1924 -0.5188
 2591SOL    HW119409   0.881   2.724   4.719  1.7230  0.7378 -0.7605
 2591SOL    HW219410   0.917   2.863   4.743 -1.3499  0.7086 -0.2771
 2592SOL     OW19411   1.171   1.071   4.788 -0.5645  0.3541  0.2372
 2592SOL    HW119412   1.143   1.043   4.701  0.8710  1.6371 -0.6320
 2592SOL    HW219413   1.085   1.085   4.828 -0.7758 -0.0938 -0.0566
 2593SOL     OW19414   2.506   1.349   1.778 -0.2318 -0.4070  0.1762
 2593SOL    HW119415   2.539   1.399   1.703  0.5947 -0.2991  0.6034
 2593SOL    HW219416   2.510   1.420   1.842  1.0793  0.7375 -1.1879
 2594SOL     OW19417   2.945   1.749  14.334 -0.1638 -0.2339  0.3435
 2594SOL    HW119418   2.931   1.709  14.249  1.3260  0.6012 -0.2950
 2594SOL    HW219419   2.909   1.836  14.316 -0.7360 -0.6341 -0.4071
 2595SOL     OW19420   3.676   0.492  16.709  0.4076 -0.9177  0.5477
 2595SOL    HW119421   3.698   0.518  16.798  0.0866  3.1120 -0.5185
 2595SOL    HW219422   3.764   0.465  16.682  1.0138  1.6959 -0.1496
 2596SOL     OW19423   1.053   3.092   5.116 -0.2354 -0.0994  0.1194
 2596SOL    HW119424   1.115   3.034   5.072  1.3296  0.7813  1.1818
 2596SOL    HW219425   1.040   3.135   5.031 -2.8526  0.5493  0.8316
 2597SOL     OW19426   1.375   4.409  11.642 -0.3899  0.0986  0.2792
 2597SOL    HW119427   1.363   4.497  11.677  1.1015 -0.2150  1.5889
 2597SOL    HW219428   1.301   4.369  11.689 -1.7637 -0.5990 -2.4988
 2598SOL     OW19429   0.932   0.308   8.891 -0.1645 -0.2935 -0.0113
 2598SOL    HW119430   1.015   0.264   8.908 -1.1370 -2.1026  0.0970
 2598SOL    HW219431   0.927   0.350   8.977 -1.6562 -1.9028  0.6929
 2599SOL     OW19432   2.631   2.018   1.840 -0.3382  0.5378  0.0669
 2599SOL    HW119433   2.696   2.071   1.795  0.0086 -1.3900 -1.7193
 2599SOL    HW219434   2.573   2.004   1.765  1.8875  2.2158 -1.9378
 2600SOL     OW19435   1.573   1.217  10.237  0.1323  0.0031  0.6347
 2600SOL    HW119436   1.655   1.169  10.223 -1.6734 -2.0932 -2.6482
 2600SOL    HW219437   1.584   1.304  10.198  1.6313 -0.4277  0.0755
 2601SOL     OW19438   3.254   2.699   5.082 -0.1054  0.2607  0.3788
 2601SOL    HW119439   3.334   2.726   5.127 -0.9664  1.3246  1.2847
 2601SOL    HW219440   3.251   2.757   5.006 -2.8100  0.2937  0.5251
 2602SOL     OW19441   0.071   1.739   1.973  0.0916 -0.1363 -0.0650
 2602SOL    HW119442   0.145   1.696   1.930  1.2704  1.7979  0.0444
 2602SOL    HW219443   0.075   1.826   1.934 -1.3006  0.0011  0.1065
 2603SOL     OW19444   0.595   0.923   9.202  0.1705  0.0225 -0.6813
 2603SOL    HW119445   0.688   0.940   9.197 -0.0590  0.7361 -2.6123
 2603SOL    HW219446   0.600   0.827   9.207  1.0844  0.0641 -0.8261
 2604SOL     OW19447   1.852   2.515  13.944 -0.0308  0.5304 -0.8581
 2604SOL    HW119448   1.897   2.554  13.869 -0.0069  4.8171  1.3897
 2604SOL    HW219449   1.759   2.516  13.921  0.3190 -0.3086 -2.3136
 2605SOL     OW19450   2.938   2.257   4.914  0.3155 -0.1224  0.2094
 2605SOL    HW119451   2.932   2.277   4.821  2.2995  1.2946  0.3905
 2605SOL    HW219452   2.847   2.263   4.943  1.0678  2.9479  1.9573
 2606SOL     OW19453   4.245   4.287   2.812 -0.1970  0.6454  0.1928
 2606SOL    HW119454   4.329   4.323   2.842 -0.0983 -0.5481  1.3638
 2606SOL    HW219455   4.198   4.367   2.788  1.0970  0.1439 -4.1293
 2607SOL     OW19456   0.304   1.856   7.411  0.3509  0.5952 -0.0331
 2607SOL    HW119457   0.329   1.809   7.491  2.9993  0.4467 -0.9646
 2607SOL    HW219458   0.211   1.874   7.428  0.1285 -0.1954 -0.4029
 2608SOL     OW19459   1.726   3.041  12.406  0.5272 -0.0595  0.0760
 2608SOL    HW119460   1.787   3.023  12.477  1.4842 -0.7685 -0.9249
 2608SOL    HW219461   1.685   3.125  12.429 -0.2732 -0.2140 -0.7717
 2609SOL     OW19462   3.406   4.471  14.317 -0.5648 -0.1800  0.3316
 2609SOL    HW119463   3.404   4.499  14.226  1.3593 -0.1559  0.3016
 2609SOL    HW219464   3.355   4.390  14.312  0.0755 -0.7078  2.4226
 2610SOL     OW19465   3.354   1.640   2.744  0.6823  0.3394 -0.3261
 2610SOL    HW119466   3.300   1.564   2.720  2.5651 -0.9859 -0.4083
 2610SOL    HW219467   3.389   1.669   2.659  2.9922  1.6528  1.0902
 2611SOL     OW19468   0.098   1.637  10.077  0.3429  0.1411 -0.1285
 2611SOL    HW119469   0.119   1.648  10.170  1.0839 -0.0300 -0.2737
 2611SOL    HW219470   0.090   1.541  10.073  0.7773  0.1241 -0.6595
 2612SOL     OW19471   4.413   0.063   8.690  0.3346  0.3011  0.9224
 2612SOL    HW119472   4.477   0.034   8.625  1.3187  0.3379  1.8886
 2612SOL    HW219473   4.425   4.735   8.757  1.1498 -2.1206 -1.6503
 2613SOL     OW19474   3.171   4.340   8.451  0.6328  0.4631  0.2919
 2613SOL    HW119475   3.154   4.254   8.490  0.2727 -0.5502 -2.0828
 2613SOL    HW219476   3.262   4.351   8.476  0.5012  1.1733  0.4691
 2614SOL     OW19477   2.606   1.205  14.759 -0.1428 -0.0336  0.5358
 2614SOL    HW119478   2.545   1.134  14.778 -0.4633 -0.2293 -1.2444
 2614SOL    HW219479   2.633   1.179  14.671 -1.2978  2.5542 -0.5906
 2615SOL     OW19480   1.797   3.873   3.238 -0.1464 -0.1635 -0.1034
 2615SOL    HW119481   1.806   3.817   3.160  0.5391  1.6215 -1.3009
 2615SOL    HW219482   1.850   3.823   3.300  0.5921  1.0936  0.2652
 2616SOL     OW19483   3.150   4.473   1.775  0.3156  0.1982  0.3676
 2616SOL    HW119484   3.201   4.407   1.822  2.8441  1.5610 -0.4693
 2616SOL    HW219485   3.087   4.488   1.846 -1.9082 -2.5207 -1.0391
 2617SOL     OW19486   2.698   1.082   2.109  0.0208 -0.6441 -0.3836
 2617SOL    HW119487   2.668   1.057   2.022 -0.3668  0.8803 -0.6861
 2617SOL    HW219488   2.787   1.112   2.092  0.7156 -1.4956  1.7192
 2618SOL     OW19489   3.737   0.571  11.259  0.2837  0.1466 -0.4023
 2618SOL    HW119490   3.806   0.512  11.289  0.2635 -0.0833 -0.8096
 2618SOL    HW219491   3.676   0.557  11.332 -0.4139 -0.2612 -1.0669
 2619SOL     OW19492   3.118   3.903  14.719 -0.2025  0.0260  0.0906
 2619SOL    HW119493   3.111   3.993  14.750 -0.5992 -0.2005  0.6484
 2619SOL    HW219494   3.028   3.882  14.692  0.0206  0.4083 -0.9795
 2620SOL     OW19495   3.893   0.609   9.256 -1.1902 -0.0697 -0.0791
 2620SOL    HW119496   3.910   0.651   9.172  0.9317 -2.1718 -0.7182
 2620SOL    HW219497   3.925   0.520   9.240  0.3939  0.5723 -0.5240
 2621SOL     OW19498   4.232   3.946   5.210 -0.0454  0.4170 -0.2593
 2621SOL    HW119499   4.186   3.951   5.294  0.8509  0.1786  0.2516
 2621SOL    HW219500   4.194   4.021   5.165  0.3504 -0.1631 -1.5599
 2622SOL     OW19501   0.616   0.078   9.411 -0.2850 -0.1686 -0.0913
 2622SOL    HW119502   0.611   0.123   9.327  1.5089  0.1374 -0.0406
 2622SOL    HW219503   0.522   0.063   9.419 -0.9179  1.8369 -3.8904
 2623SOL     OW19504   1.712   4.708   2.829  0.4382 -0.2081  0.4040
 2623SOL    HW119505   1.736   4.681   2.740 -2.0843 -1.8713  0.2088
 2623SOL    HW219506   1.641   0.033   2.822  0.9451  0.1859 -1.3328
 2624SOL     OW19507   2.514   2.069   7.079 -0.3595 -0.2035  0.1795
 2624SOL    HW119508   2.564   1.988   7.079 -1.4069 -0.8444 -0.2347
 2624SOL    HW219509   2.548   2.115   7.002 -2.1182  0.7095 -0.0790
 2625SOL     OW19510   2.978   1.867   3.895 -0.2737 -0.0963 -0.3640
 2625SOL    HW119511   3.015   1.924   3.828  0.6314 -0.2550 -0.0018
 2625SOL    HW219512   3.060   1.872   3.945  0.3104  0.1422 -1.3315
 2626SOL     OW19513   2.677   0.157   3.683 -0.0527 -0.4438  0.0877
 2626SOL    HW119514   2.642   0.246   3.682 -1.0186 -0.8349 -0.8462
 2626SOL    HW219515   2.637   0.114   3.759 -0.6520 -1.3098 -0.7262
 2627SOL     OW19516   2.382   1.566   3.544  0.4419  0.3056 -0.0148
 2627SOL    HW119517   2.443   1.496   3.567 -0.2112 -0.4040 -0.4279
 2627SOL    HW219518   2.397   1.634   3.609 -1.2938 -1.3255  2.0591
 2628SOL     OW19519   2.134   2.072   7.417  0.7864 -0.3714  0.0338
 2628SOL    HW119520   2.167   2.035   7.335  1.2657  1.5628 -0.6576
 2628SOL    HW219521   2.159   2.164   7.408 -1.4014  0.4408  2.3456
 2629SOL     OW19522   3.203   1.420   2.666 -0.2167 -0.0750 -0.2344
 2629SOL    HW119523   3.122   1.468   2.683 -0.9148 -2.0001  1.8895
 2629SOL    HW219524   3.173   1.365   2.593  1.9746 -3.4124  1.3874
 2630SOL     OW19525   2.970   0.392   2.966  0.9846  0.3076  0.4600
 2630SOL    HW119526   2.937   0.341   2.892  1.3215  0.8260 -0.0566
 2630SOL    HW219527   2.891   0.427   3.006 -0.1705 -1.3600 -0.3649
 2631SOL     OW19528   4.675   1.707   4.061  0.2746 -0.7184  0.3405
 2631SOL    HW119529   0.017   1.683   4.015 -0.0615  1.1889 -1.2711
 2631SOL    HW219530   4.622   1.743   3.989  2.4515 -2.1587 -1.9947
 2632SOL     OW19531   3.951   3.965  13.812 -0.0643  0.7084 -0.1615
 2632SOL    HW119532   3.968   3.876  13.780  0.9095  0.7794  0.1586
 2632SOL    HW219533   3.856   3.969  13.807  0.0225  2.9441 -0.1348
 2633SOL     OW19534   4.567   1.732   8.589 -0.3156  0.4622 -0.4492
 2633SOL    HW119535   4.606   1.766   8.509  0.0142 -0.5895 -0.7391
 2633SOL    HW219536   4.504   1.803   8.602 -1.5664 -0.9202  1.0678
 2634SOL     OW19537   0.945   0.844  11.937  0.6022  0.1261  0.1404
 2634SOL    HW119538   0.904   0.918  11.980  0.1543 -1.0209  1.6612
 2634SOL    HW219539   0.923   0.774  11.999 -1.5354 -1.0551 -1.9116
 2635SOL     OW19540   2.792   0.563   0.838  0.2060 -0.0495 -0.0425
 2635SOL    HW119541   2.699   0.588   0.841  0.2928  0.1703  0.7191
 2635SOL    HW219542   2.796   0.527   0.749  0.2884 -0.2464  0.0431
 2636SOL     OW19543   4.010   2.781   8.169 -0.1490 -0.0174  0.0738
 2636SOL    HW119544   3.922   2.744   8.158  0.4866 -1.0738 -1.5280
 2636SOL    HW219545   3.985   2.857   8.221 -0.9666 -1.6892  2.1070
 2637SOL     OW19546   0.670   3.137  11.875 -0.4908 -0.4017  0.3431
 2637SOL    HW119547   0.653   3.057  11.926 -0.4109  0.0504  1.0853
 2637SOL    HW219548   0.605   3.194  11.915  0.0024  0.3248  0.1077
 2638SOL     OW19549   3.851   2.301   6.336  0.5095 -0.3783 -0.0749
 2638SOL    HW119550   3.777   2.336   6.287  0.1373  1.0752  1.5188
 2638SOL    HW219551   3.857   2.361   6.410  1.4989  1.0023 -1.2868
 2639SOL     OW19552   1.907   4.180   4.979  0.1798 -0.1383  0.2944
 2639SOL    HW119553   1.929   4.273   4.981 -1.3060  0.2319 -1.0267
 2639SOL    HW219554   1.895   4.158   5.072 -2.9443 -0.0938 -0.1214
 2640SOL     OW19555   0.294   0.996   6.111 -0.0589  0.1903  0.8330
 2640SOL    HW119556   0.385   1.018   6.132  0.5792  0.0243 -1.8022
 2640SOL    HW219557   0.259   1.077   6.073 -2.5323 -1.2828  0.0213
 2641SOL     OW19558   1.062   4.534   5.637 -0.2342  0.8774  0.0894
 2641SOL    HW119559   1.136   4.489   5.677 -0.2270  0.3837 -0.4750
 2641SOL    HW219560   1.080   4.506   5.547 -0.2517  2.8908 -0.5311
 2642SOL     OW19561   4.584   0.581   9.455 -0.2193 -0.0175  0.0232
 2642SOL    HW119562   4.522   0.629   9.401 -1.4562 -0.9184  0.6443
 2642SOL    HW219563   4.632   0.531   9.389  0.0500  0.1869  0.0630
 2643SOL     OW19564   3.699   3.253   6.373 -0.0675  0.2797 -0.1127
 2643SOL    HW119565   3.618   3.296   6.399  0.6436  1.3385  0.3428
 2643SOL    HW219566   3.676   3.160   6.367 -1.1217  0.5318  0.1184
 2644SOL     OW19567   2.557   2.763   3.888 -0.0145  0.1201  0.0255
 2644SOL    HW119568   2.560   2.750   3.794  0.7578  0.4814  0.0033
 2644SOL    HW219569   2.477   2.717   3.916  1.0689 -1.7775  0.0101
 2645SOL     OW19570   0.016   4.175   3.413  0.1989 -0.1519 -0.1506
 2645SOL    HW119571   4.710   4.246   3.460  0.3783 -1.7470  2.4585
 2645SOL    HW219572   0.038   4.226   3.335 -0.7028  0.6851  0.1350
 2646SOL     OW19573   3.097   3.486   8.897  0.0182 -0.2212  0.1183
 2646SOL    HW119574   3.005   3.474   8.920  0.7907  0.3919  3.5005
 2646SOL    HW219575   3.116   3.551   8.964 -1.5205 -1.0604  1.3815
 2647SOL     OW19576   1.258   1.860  14.843  0.0389 -0.7707 -0.1471
 2647SOL    HW119577   1.206   1.798  14.793 -1.0408  2.7727 -3.4071
 2647SOL    HW219578   1.319   1.879  14.771  1.7206  0.9633  1.7210
 2648SOL     OW19579   3.541   4.249   6.611  0.5800 -0.5046 -0.5272
 2648SOL    HW119580   3.559   4.277   6.521  1.5371  1.7293  0.3780
 2648SOL    HW219581   3.449   4.223   6.599  0.7545 -1.0461 -0.6909
 2649SOL     OW19582   3.042   4.083   5.205  0.1326 -0.1582 -0.3007
 2649SOL    HW119583   3.017   4.035   5.126 -1.3428 -1.9943  1.2885
 2649SOL    HW219584   2.991   4.163   5.197 -1.3223 -0.8975  1.5565
 2650SOL     OW19585   2.607   4.098   3.341 -0.2933 -0.5689 -0.2571
 2650SOL    HW119586   2.536   4.156   3.316 -1.7455 -2.8034 -1.2905
 2650SOL    HW219587   2.678   4.143   3.295 -0.7016  2.0186  1.6703
 2651SOL     OW19588   1.589   3.858   3.455  0.0269  1.1353 -0.3868
 2651SOL    HW119589   1.658   3.851   3.389  1.3550  2.5828  0.8683
 2651SOL    HW219590   1.555   3.768   3.452  1.7625  0.5082 -0.9635
 2652SOL     OW19591   2.058   3.411   8.014 -0.6085 -0.2787  0.5243
 2652SOL    HW119592   2.131   3.466   8.044  0.3561 -2.2651  1.7675
 2652SOL    HW219593   1.987   3.475   8.028 -0.2147  0.1249  0.6821
 2653SOL     OW19594   4.637   0.659  10.387 -0.5931  0.1417 -0.2302
 2653SOL    HW119595   4.565   0.721  10.394  1.4148  2.3930  0.8739
 2653SOL    HW219596   4.675   0.686  10.303 -3.4333  2.2917 -0.8283
 2654SOL     OW19597   2.056   0.091   3.912  0.5398 -0.1043  0.4506
 2654SOL    HW119598   2.114   0.088   3.988 -0.3442 -0.1201  1.1207
 2654SOL    HW219599   1.974   0.051   3.942 -0.5640  1.2440 -0.7913
 2655SOL     OW19600   0.309   0.834   6.597 -0.0011 -0.5906  0.0369
 2655SOL    HW119601   0.320   0.927   6.577  1.9682 -1.0814 -1.1339
 2655SOL    HW219602   0.217   0.818   6.572  0.1337 -0.0502 -0.8035
 2656SOL     OW19603   1.867   3.909   8.231 -0.0685  0.3516 -0.5113
 2656SOL    HW119604   1.859   3.814   8.237  2.1237  0.2555  0.8190
 2656SOL    HW219605   1.961   3.926   8.227  0.3300 -1.1909  1.9937
 2657SOL     OW19606   4.461   1.913   3.993  0.2195 -0.1775  0.8391
 2657SOL    HW119607   4.452   1.870   4.078 -3.3012  1.1123  1.1164
 2657SOL    HW219608   4.368   1.909   3.973  0.5194 -1.2979 -0.3515
 2658SOL     OW19609   3.924   2.717   5.242 -0.1698  0.7523 -0.3490
 2658SOL    HW119610   3.965   2.673   5.168  1.1318 -0.9945  1.3802
 2658SOL    HW219611   3.877   2.643   5.281  1.2693 -0.0447 -0.1316
 2659SOL     OW19612   3.059   4.603   7.490  0.0513 -0.1310 -0.0883
 2659SOL    HW119613   3.027   4.514   7.506 -0.0995 -0.0478  0.0838
 2659SOL    HW219614   3.081   4.629   7.580  1.4752  0.8333 -0.7224
 2660SOL     OW19615   2.558   3.250   1.416  0.2894 -0.1987  0.0623
 2660SOL    HW119616   2.594   3.200   1.343 -1.4365 -1.3035 -0.0183
 2660SOL    HW219617   2.463   3.256   1.403  0.2137 -0.1004  0.6667
 2661SOL     OW19618   1.923   4.732  12.882 -0.0233  0.3957  0.0679
 2661SOL    HW119619   1.966   0.011  12.966 -1.2463 -2.0817  1.2125
 2661SOL    HW219620   1.904   4.641  12.905  0.2021 -0.3218 -2.5672
 2662SOL     OW19621   1.481   2.229   8.942  0.6034  0.1020 -0.4639
 2662SOL    HW119622   1.404   2.265   8.898 -0.7553  1.6790  3.2061
 2662SOL    HW219623   1.540   2.232   8.867  1.8168 -1.5603  0.4349
 2663SOL     OW19624   2.391   3.265   8.589  0.4094 -0.2011  0.4839
 2663SOL    HW119625   2.299   3.263   8.561  0.4782 -2.1234  0.3647
 2663SOL    HW219626   2.389   3.340   8.648  1.2186  1.2532 -1.3266
 2664SOL     OW19627   2.820   0.131   7.230  0.1349  0.1188 -0.4051
 2664SOL    HW119628   2.838   0.218   7.265  2.6596 -0.5622  0.0273
 2664SOL    HW219629   2.725   0.131   7.244  0.1217  3.0402 -0.4858
 2665SOL     OW19630   0.813   4.559   5.755  0.4323 -0.4013  0.3150
 2665SOL    HW119631   0.902   4.558   5.722  0.2349 -0.9537 -0.2195
 2665SOL    HW219632   0.801   4.472   5.793  0.7144 -0.0231  1.2662
 2666SOL     OW19633   3.662   0.786   9.557 -0.3017 -0.7233 -0.3034
 2666SOL    HW119634   3.745   0.739   9.552 -0.3301 -0.7867 -0.1720
 2666SOL    HW219635   3.613   0.730   9.497 -3.6758  1.5161  0.3463
 2667SOL     OW19636   3.531   0.618   7.368 -0.0390  0.0121 -0.0770
 2667SOL    HW119637   3.613   0.597   7.324  0.7006  1.7963  0.4488
 2667SOL    HW219638   3.487   0.536   7.347  1.4975 -1.0441  0.8498
 2668SOL     OW19639   0.367   1.588   6.088  0.5893 -0.1279  0.0082
 2668SOL    HW119640   0.281   1.616   6.058  1.7222  1.4111 -1.8536
 2668SOL    HW219641   0.341   1.546   6.170 -0.1245  0.1827 -0.0657
 2669SOL     OW19642   0.208   2.626  11.433  0.1651 -0.4971 -0.5205
 2669SOL    HW119643   0.276   2.560  11.418 -0.3486 -0.6527 -2.0942
 2669SOL    HW219644   0.234   2.696  11.374 -1.7054 -0.4408 -1.2964
 2670SOL     OW19645   1.090   2.456   8.456  0.3449 -0.2366 -0.0761
 2670SOL    HW119646   1.069   2.454   8.362  1.7728 -2.0928 -0.3546
 2670SOL    HW219647   1.153   2.528   8.451  1.5986 -1.5469 -3.2957
 2671SOL     OW19648   1.730   4.612   0.201 -0.7248 -0.2862 -0.0532
 2671SOL    HW119649   1.791   4.684   0.220 -0.9250 -0.0113 -0.4694
 2671SOL    HW219650   1.660   4.657   0.155 -0.3098 -0.8529 -1.2362
 2672SOL     OW19651   3.720   0.018   7.449 -0.1308  0.2540 -0.1604
 2672SOL    HW119652   3.679   4.732   7.366  0.6236 -3.2388  0.4893
 2672SOL    HW219653   3.715   0.113   7.459  0.0369  0.4596 -2.2056
 2673SOL     OW19654   2.710   1.229   1.298  0.0810  0.4081 -0.4720
 2673SOL    HW119655   2.729   1.306   1.244 -0.7436  2.6622  2.4527
 2673SOL    HW219656   2.726   1.262   1.386 -4.6177  2.4528 -0.4113
 2674SOL     OW19657   1.961   2.177   3.991  0.0335 -0.4242  0.1823
 2674SOL    HW119658   1.916   2.204   3.911 -1.5507 -2.1586  0.4944
 2674SOL    HW219659   2.015   2.105   3.959  0.7415 -0.0012  0.4395
 2675SOL     OW19660   3.099   3.756  15.944 -0.1896 -0.2347  0.4777
 2675SOL    HW119661   3.149   3.676  15.961  1.1306  0.9148  2.0117
 2675SOL    HW219662   3.037   3.744  16.016  1.6659 -1.2813  1.9045
 2676SOL     OW19663   0.932   2.168   5.626 -0.0156 -0.6512 -0.2218
 2676SOL    HW119664   0.885   2.091   5.659 -0.2483 -1.7446 -3.1115
 2676SOL    HW219665   0.876   2.185   5.551  1.2395 -0.3684 -1.0919
 2677SOL     OW19666   1.269   1.933   5.229  0.3172  0.1350  0.3888
 2677SOL    HW119667   1.357   1.927   5.265  0.8148  1.6581 -0.5688
 2677SOL    HW219668   1.237   1.850   5.195  0.5075  0.0697  0.3722
 2678SOL     OW19669   4.519   4.710   8.123 -0.4519  0.0133 -0.4571
 2678SOL    HW119670   4.495   4.639   8.181 -0.8974  1.4589  1.1332
 2678SOL    HW219671   4.458   4.687   8.053 -1.0756  0.6455 -0.1201
 2679SOL     OW19672   2.297   1.909   2.655 -0.4476 -0.3509 -0.1871
 2679SOL    HW119673   2.367   1.963   2.620 -1.5876  0.8815 -0.5948
 2679SOL    HW219674   2.242   1.974   2.699 -2.2229 -2.8144  1.2585
 2680SOL     OW19675   4.597   2.544   9.719 -0.7863 -0.2010 -0.0625
 2680SOL    HW119676   4.690   2.535   9.739 -1.4224 -0.6037  2.6942
 2680SOL    HW219677   4.601   2.521   9.626 -1.6685  0.0933 -0.1694
 2681SOL     OW19678   4.730   3.731   0.110  0.4026  0.1056 -0.3060
 2681SOL    HW119679   0.062   3.753   0.049 -0.3468 -0.8869 -1.5507
 2681SOL    HW219680   4.737   3.635   0.114  0.3844  0.1308  0.3175
 2682SOL     OW19681   3.738   2.271   7.410  0.3515 -0.4526  0.4847
 2682SOL    HW119682   3.828   2.293   7.435 -0.2195  1.1121  1.1762
 2682SOL    HW219683   3.703   2.260   7.499  0.1635 -0.6025  0.3935
 2683SOL     OW19684   0.483   3.203   7.251 -0.0105 -0.6750 -0.3026
 2683SOL    HW119685   0.423   3.200   7.176 -1.8763  0.8988  1.1073
 2683SOL    HW219686   0.440   3.262   7.313 -0.0776 -0.2349 -0.7589
 2684SOL     OW19687   3.390   0.747   1.096  0.0184 -0.1224 -0.0040
 2684SOL    HW119688   3.304   0.774   1.066 -0.1478 -0.9236 -0.2430
 2684SOL    HW219689   3.397   0.656   1.067  0.0006 -0.2537  0.4046
 2685SOL     OW19690   0.325   2.356  10.573 -0.3402  0.4194  0.1311
 2685SOL    HW119691   0.385   2.361  10.647  1.1579 -0.2030 -1.0437
 2685SOL    HW219692   0.326   2.264  10.548 -0.1459  0.4630 -0.0138
 2686SOL     OW19693   2.050   2.827   5.762  0.0187  0.5149  0.5464
 2686SOL    HW119694   2.099   2.818   5.844  0.6355 -0.0409  0.1120
 2686SOL    HW219695   2.069   2.919   5.747 -1.9110  0.9041  0.4804
 2687SOL     OW19696   0.057   2.235   4.412  0.0958 -0.4043 -0.5612
 2687SOL    HW119697   0.067   2.146   4.379 -1.0559 -0.3079 -1.1883
 2687SOL    HW219698   0.033   2.282   4.331 -1.0554  0.4771  0.2900
 2688SOL     OW19699   0.133   0.359   5.621 -0.8005  0.0425  0.2676
 2688SOL    HW119700   0.174   0.293   5.677 -1.7259 -0.6707  0.1003
 2688SOL    HW219701   0.037   0.352   5.623 -0.7006 -1.1411  0.5305
 2689SOL     OW19702   1.747   0.325   8.055 -0.6158 -0.3372 -0.0835
 2689SOL    HW119703   1.822   0.350   8.001  0.4215 -0.6542  1.2015
 2689SOL    HW219704   1.772   0.355   8.142 -2.3023 -0.4614  0.4471
 2690SOL     OW19705   2.735   4.011   3.704 -0.0442  0.1566  0.2604
 2690SOL    HW119706   2.770   3.922   3.716 -1.4279 -0.6147 -1.3930
 2690SOL    HW219707   2.664   3.979   3.649 -1.1617  0.4634  1.5377
 2691SOL     OW19708   3.136   0.564   8.942  0.6308  0.2157 -0.0430
 2691SOL    HW119709   3.224   0.558   8.903  0.4492  1.9648 -0.7208
 2691SOL    HW219710   3.078   0.533   8.873  0.5183  1.0747 -0.3349
 2692SOL     OW19711   3.048   2.868   2.780  0.3440 -0.5104 -0.1786
 2692SOL    HW119712   3.116   2.863   2.847 -0.4220  1.9190  0.7419
 2692SOL    HW219713   3.072   2.797   2.720 -0.9717 -1.2415  0.1644
 2693SOL     OW19714   4.494   4.367  14.988 -0.1680 -0.3391  0.4499
 2693SOL    HW119715   4.460   4.452  14.962  1.7050  0.4684  0.6496
 2693SOL    HW219716   4.439   4.340  15.061 -0.2217  3.9163  1.9502
 2694SOL     OW19717   2.830   2.792   6.472 -0.1973  0.0725 -0.2546
 2694SOL    HW119718   2.771   2.722   6.500 -0.3403  1.0521  1.9433
 2694SOL    HW219719   2.775   2.855   6.425  1.3104  1.4906 -0.1252
 2695SOL     OW19720   1.128   2.214  10.693 -0.1948 -0.0818  0.1130
 2695SOL    HW119721   1.194   2.202  10.761 -0.2415  0.9451  0.3467
 2695SOL    HW219722   1.045   2.169  10.712  1.0157 -2.8290 -1.2632
 2696SOL     OW19723   0.074   1.599   9.475  0.0566 -0.0164 -0.4958
 2696SOL    HW119724   0.084   1.663   9.546 -1.7085  1.0612 -1.2469
 2696SOL    HW219725   0.097   1.515   9.516  0.4192  0.0131 -0.6412
 2697SOL     OW19726   0.963   3.545   8.165 -0.8488  0.3928 -0.5610
 2697SOL    HW119727   1.050   3.522   8.200 -0.2981 -0.4976 -2.4769
 2697SOL    HW219728   0.975   3.639   8.153  0.6426  0.0124 -2.2008
 2698SOL     OW19729   3.817   2.822   3.341 -0.6006 -0.7659 -0.0288
 2698SOL    HW119730   3.768   2.892   3.298  1.1618 -0.4162 -1.4671
 2698SOL    HW219731   3.884   2.796   3.277  1.1800  1.0632  1.1115
 2699SOL     OW19732   4.629   4.525   7.253  0.1727 -0.0604  0.1776
 2699SOL    HW119733   4.563   4.510   7.185 -1.0310 -2.6356  1.9223
 2699SOL    HW219734   4.594   4.589   7.316  1.3982  0.8187 -0.0365
 2700SOL     OW19735   4.117   1.311  10.164  0.1910  0.3503 -0.6142
 2700SOL    HW119736   4.119   1.335  10.072  2.5778  3.3954  0.2448
 2700SOL    HW219737   4.200   1.270  10.187 -0.3805 -0.9607 -0.8670
 2701SOL     OW19738   4.254   3.329   2.922  0.7484  0.1384 -0.2632
 2701SOL    HW119739   4.331   3.335   2.865  0.9392 -1.4405 -0.1843
 2701SOL    HW219740   4.224   3.245   2.885  2.1356 -0.9940  1.1803
 2702SOL     OW19741   1.429   2.967  10.493 -0.0963 -0.1546  0.1186
 2702SOL    HW119742   1.343   2.929  10.474 -1.3876  2.3527  0.9364
 2702SOL    HW219743   1.418   3.027  10.567 -0.6445 -0.7577  0.5263
 2703SOL     OW19744   1.460   1.493  13.709  0.3463  0.4021 -0.0372
 2703SOL    HW119745   1.414   1.557  13.655  0.5050  0.1289 -0.4964
 2703SOL    HW219746   1.525   1.551  13.749  1.4694 -2.1953  1.8550
 2704SOL     OW19747   1.948   1.446   1.584  0.0997 -0.0106  0.0706
 2704SOL    HW119748   2.029   1.485   1.550  1.2113 -0.0763  2.6332
 2704SOL    HW219749   1.916   1.517   1.639 -1.8264 -1.1076  0.3644
 2705SOL     OW19750   0.590   3.560   7.969 -0.2394 -0.1597  0.3369
 2705SOL    HW119751   0.603   3.644   8.013  0.7268  0.0276 -0.2924
 2705SOL    HW219752   0.556   3.582   7.882  0.2994 -0.2662  0.0927
 2706SOL     OW19753   1.565   0.363  12.744 -0.0879 -0.4164  0.2789
 2706SOL    HW119754   1.477   0.333  12.719  0.3417 -1.6679  0.2631
 2706SOL    HW219755   1.598   0.274  12.756 -3.3570 -1.7838 -0.6956
 2707SOL     OW19756   0.308   4.166   4.689 -0.1960  0.0873 -0.4074
 2707SOL    HW119757   0.231   4.165   4.745  1.1804 -0.1921  1.5101
 2707SOL    HW219758   0.369   4.132   4.755  0.0014  1.1464 -0.0485
 2708SOL     OW19759   1.796   1.538  11.289 -0.1636 -0.1674 -0.6125
 2708SOL    HW119760   1.771   1.616  11.239  1.2198  0.6111 -0.0979
 2708SOL    HW219761   1.773   1.476  11.219  1.6006 -3.0567  1.3685
 2709SOL     OW19762   1.322   1.921   7.094  0.0644  0.2245 -0.3716
 2709SOL    HW119763   1.362   2.008   7.093  0.2815  0.1284 -0.2472
 2709SOL    HW219764   1.291   1.915   7.004  0.8162  1.1768 -0.6992
 2710SOL     OW19765   4.544   2.503   6.910 -0.0968  0.2600  0.2338
 2710SOL    HW119766   4.543   2.409   6.931 -2.9761  0.3600  0.6265
 2710SOL    HW219767   4.461   2.507   6.862 -1.4474 -0.0802  2.4853
 2711SOL     OW19768   2.657   1.477   2.607  0.1795  0.3304 -0.0381
 2711SOL    HW119769   2.590   1.424   2.562  2.7117 -2.3883 -0.5984
 2711SOL    HW219770   2.603   1.554   2.624  0.9605  0.4215  2.0242
 2712SOL     OW19771   4.609   0.768   4.081  0.4598 -0.4554  0.3884
 2712SOL    HW119772   4.545   0.819   4.131  0.2559  1.3360 -1.7111
 2712SOL    HW219773   4.649   0.838   4.031  1.3058 -1.2123  0.0094
 2713SOL     OW19774   0.836   2.782   1.540 -0.6699  0.7011  0.5616
 2713SOL    HW119775   0.907   2.724   1.514 -2.3564 -1.3056  0.4699
 2713SOL    HW219776   0.873   2.836   1.610  1.4422 -1.5490  1.1764
 2714SOL     OW19777   1.024   4.061   5.350 -0.2986  0.2278  0.0540
 2714SOL    HW119778   1.118   4.056   5.332 -0.3191 -4.2808  1.3060
 2714SOL    HW219779   0.990   3.971   5.350 -1.2187  0.5757 -1.4952
 2715SOL     OW19780   2.505   0.193   6.126 -0.1771 -0.2205 -0.5526
 2715SOL    HW119781   2.518   0.196   6.221 -1.0095 -0.8790 -0.4067
 2715SOL    HW219782   2.593   0.204   6.091  0.8435 -1.6294  1.5363
 2716SOL     OW19783   3.604   0.998  12.456 -0.8651  0.1273  0.0152
 2716SOL    HW119784   3.641   0.984  12.543 -0.5642 -0.3169 -0.1802
 2716SOL    HW219785   3.679   1.047  12.422 -0.4754 -0.7190 -0.3461
 2717SOL     OW19786   3.138   3.656   2.620 -0.3318 -1.0579 -0.4256
 2717SOL    HW119787   3.075   3.723   2.593  1.7825  0.5701 -1.3433
 2717SOL    HW219788   3.121   3.661   2.714  1.6905  3.4221 -0.2948
 2718SOL     OW19789   0.292   3.005   2.938  0.2958 -0.1844  0.0468
 2718SOL    HW119790   0.249   3.051   2.866  0.8740  3.3040  1.9031
 2718SOL    HW219791   0.257   2.917   2.927  0.9598 -0.3421 -0.8527
 2719SOL     OW19792   4.168   2.500   7.721  0.1514  0.2052 -0.2400
 2719SOL    HW119793   4.128   2.580   7.689 -0.4021  0.5974  1.4256
 2719SOL    HW219794   4.234   2.535   7.781  1.5678 -0.5318 -1.3550
 2720SOL     OW19795   2.798   0.267   5.120 -1.1356 -0.5853  0.7115
 2720SOL    HW119796   2.709   0.244   5.093 -0.0874 -0.9239 -2.4516
 2720SOL    HW219797   2.855   0.195   5.094 -2.0452 -0.2869 -2.0484
 2721SOL     OW19798   0.456   3.661   7.486  0.1369  0.2108 -0.1218
 2721SOL    HW119799   0.525   3.719   7.455 -0.5237  1.2166  0.2771
 2721SOL    HW219800   0.375   3.693   7.445  0.4822 -0.3081 -1.2125
 2722SOL     OW19801   3.393   2.693   4.179  0.1807 -0.5619 -0.0036
 2722SOL    HW119802   3.394   2.743   4.097 -0.9898 -0.2029  0.2060
 2722SOL    HW219803   3.478   2.649   4.171  1.6082  1.6896  2.6757
 2723SOL     OW19804   2.974   4.635  16.962 -0.2307 -0.2160  0.6198
 2723SOL    HW119805   2.952   4.546  16.933 -1.4957  0.8898 -1.7659
 2723SOL    HW219806   3.012   4.630  17.050 -0.5506  1.1289  0.8243
 2724SOL     OW19807   1.499   1.913   1.873 -0.0747 -0.2105  0.4004
 2724SOL    HW119808   1.461   1.899   1.786  0.1354  0.1459  0.2502
 2724SOL    HW219809   1.582   1.955   1.852 -0.4468  0.3532  0.0251
 2725SOL     OW19810   0.581   1.555   6.867 -0.2549  0.4252  0.2496
 2725SOL    HW119811   0.513   1.496   6.834 -0.1701  0.5001 -0.0654
 2725SOL    HW219812   0.588   1.607   6.786 -0.5005 -0.3323 -0.2579
 2726SOL     OW19813   1.473   3.180   7.600 -0.3439 -0.1007 -0.2084
 2726SOL    HW119814   1.390   3.191   7.647  1.4064 -0.1101  2.9097
 2726SOL    HW219815   1.524   3.122   7.657  1.8245  1.2174 -0.8033
 2727SOL     OW19816   2.350   3.070   2.073 -0.3441 -0.2638  0.2966
 2727SOL    HW119817   2.409   3.094   2.144 -0.0560  0.3026 -0.1353
 2727SOL    HW219818   2.298   2.997   2.108  1.2875 -1.7373 -0.3666
 2728SOL     OW19819   1.027   0.338   9.626  0.6178 -0.2329 -0.2346
 2728SOL    HW119820   0.960   0.270   9.628  0.4569 -0.0831 -0.5478
 2728SOL    HW219821   1.023   0.362   9.534 -1.3295 -1.6523 -0.5034
 2729SOL     OW19822   0.752   0.127   7.242 -0.4268  0.3474 -0.0936
 2729SOL    HW119823   0.699   0.203   7.265 -1.3304  0.1943 -1.7102
 2729SOL    HW219824   0.699   0.106   7.166 -3.3190 -0.2498  2.1033
 2730SOL     OW19825   4.610   3.321   2.299 -0.0316  0.2306  0.2429
 2730SOL    HW119826   4.577   3.256   2.237 -1.4734 -0.8841  2.1679
 2730SOL    HW219827   4.669   3.369   2.241  2.0371  0.3652  2.4428
 2731SOL     OW19828   4.165   3.156  11.750  0.0033 -0.2285  0.2869
 2731SOL    HW119829   4.251   3.185  11.782 -0.1367  1.3581 -0.7792
 2731SOL    HW219830   4.158   3.075  11.800 -2.3835 -0.1892  0.0194
 2732SOL     OW19831   0.605   2.970  16.350 -0.1036  0.2077  0.0441
 2732SOL    HW119832   0.592   2.896  16.290  0.4322  0.4841 -0.4033
 2732SOL    HW219833   0.556   2.936  16.426  0.4095  1.3379  0.8871
 2733SOL     OW19834   2.069   1.564  13.225  0.0809  0.1063  0.4941
 2733SOL    HW119835   2.080   1.480  13.180  0.3036  0.1338  0.4979
 2733SOL    HW219836   2.046   1.624  13.153  0.2226 -0.3901  0.0359
 2734SOL     OW19837   0.977   0.481   7.027  0.3050 -0.1363 -0.4217
 2734SOL    HW119838   1.051   0.492   6.968 -0.4272  1.2175 -1.0803
 2734SOL    HW219839   0.937   0.566   7.009  0.8177 -0.0112 -0.9349
 2735SOL     OW19840   0.753   0.258   8.680  0.6153  0.2107 -0.1354
 2735SOL    HW119841   0.782   0.172   8.650  2.2215 -0.6025  3.7683
 2735SOL    HW219842   0.813   0.270   8.752  4.0655 -0.2994 -2.9401
 2736SOL     OW19843   4.177   1.494  15.040  0.1234 -0.2352 -0.6466
 2736SOL    HW119844   4.120   1.529  15.108  0.6203  1.5913 -1.1673
 2736SOL    HW219845   4.144   1.407  15.016 -1.9080  0.2470  0.3799
 2737SOL     OW19846   3.657   0.983   4.808 -0.2829  0.1866 -0.3725
 2737SOL    HW119847   3.637   0.941   4.724  0.4641 -0.6535 -0.1248
 2737SOL    HW219848   3.744   0.944   4.805 -0.6288 -0.8210  3.4193
 2738SOL     OW19849   2.891   3.559   1.915  0.1507  0.0275  0.2129
 2738SOL    HW119850   2.947   3.632   1.942  1.7770 -1.5847  1.2878
 2738SOL    HW219851   2.809   3.605   1.930  0.6930  1.7704 -2.1355
 2739SOL     OW19852   0.462   0.457  12.883  0.3478  0.2094  0.9532
 2739SOL    HW119853   0.435   0.366  12.872 -1.4528  0.7748  0.5400
 2739SOL    HW219854   0.548   0.459  12.843  1.5418 -0.6729  3.4714
 2740SOL     OW19855   4.175   1.633   5.602  0.1839 -0.4965 -0.3011
 2740SOL    HW119856   4.101   1.635   5.541  0.2373 -0.5085 -0.3655
 2740SOL    HW219857   4.195   1.721   5.632  1.5002 -0.2575 -1.9544
 2741SOL     OW19858   1.607   0.943   2.289 -0.6707  0.2239  0.2256
 2741SOL    HW119859   1.685   0.999   2.290 -1.3785  1.2140 -1.5152
 2741SOL    HW219860   1.617   0.893   2.370 -0.1393 -0.8110 -0.4930
 2742SOL     OW19861   4.538   3.163   3.984  0.3083  0.0445  0.1187
 2742SOL    HW119862   4.548   3.121   4.070  0.0565 -2.1468 -0.9173
 2742SOL    HW219863   4.620   3.213   3.985  0.9034 -0.9354  0.3904
 2743SOL     OW19864   4.397   0.970   2.670  0.7092  0.1816 -0.2447
 2743SOL    HW119865   4.319   0.960   2.615  1.2038 -0.6656 -0.7872
 2743SOL    HW219866   4.393   1.059   2.706 -1.6683  0.8052 -2.0393
 2744SOL     OW19867   3.880   1.099   9.802 -0.1069 -0.5393 -0.6882
 2744SOL    HW119868   3.870   1.044   9.879 -0.8956 -3.1385 -2.6430
 2744SOL    HW219869   3.796   1.087   9.757  1.1259 -0.5130 -2.9933
 2745SOL     OW19870   3.355   0.185   8.770  0.2394  0.2679 -0.4014
 2745SOL    HW119871   3.378   0.118   8.706  2.8101  0.8072 -0.0333
 2745SOL    HW219872   3.376   0.257   8.711  2.4166  1.5525  1.9839
 2746SOL     OW19873   0.718   3.174   5.989  0.6698 -0.6944 -0.4099
 2746SOL    HW119874   0.668   3.120   6.051 -1.4644  1.8474  0.1002
 2746SOL    HW219875   0.780   3.113   5.950 -0.9126 -1.2604 -2.0290
 2747SOL     OW19876   0.593   1.933   8.916  0.3945  0.2584  0.1792
 2747SOL    HW119877   0.523   1.867   8.909 -0.9147  1.8735 -2.2882
 2747SOL    HW219878   0.665   1.891   8.869  1.3455 -1.0986  2.8526
 2748SOL     OW19879   4.171   1.044  11.564 -0.1971 -0.1909  0.0183
 2748SOL    HW119880   4.114   1.104  11.613 -1.9795 -1.9896  0.1230
 2748SOL    HW219881   4.110   0.974  11.541 -1.2073  0.3973  0.8836
 2749SOL     OW19882   0.412   0.003   7.733 -0.0015 -0.9436 -0.3259
 2749SOL    HW119883   0.471   4.723   7.806 -1.5265 -0.9235  0.9380
 2749SOL    HW219884   0.334   4.692   7.760  1.1501 -3.5638 -1.8796
 2750SOL     OW19885   3.584   1.320   7.090 -0.2642  0.0951 -0.4165
 2750SOL    HW119886   3.553   1.284   7.006 -0.1262 -1.2085  0.0947
 2750SOL    HW219887   3.571   1.414   7.078 -1.0812 -0.0402 -0.6066
 2751SOL     OW19888   1.980   3.495  17.620 -0.0609  0.2594  0.2273
 2751SOL    HW119889   1.923   3.422  17.642 -0.6524  0.2505 -1.3648
 2751SOL    HW219890   1.932   3.577  17.634  1.5719  1.3018 -0.3197
 2752SOL     OW19891   0.767   0.725   5.653  0.1705  0.3113  0.1999
 2752SOL    HW119892   0.845   0.755   5.698  1.5267 -1.8911 -0.6976
 2752SOL    HW219893   0.757   0.641   5.698 -0.7997  0.3857  0.1288
 2753SOL     OW19894   0.512   3.117  13.368  0.0351 -0.4374 -0.2956
 2753SOL    HW119895   0.470   3.042  13.326 -3.3259  0.8981  0.6640
 2753SOL    HW219896   0.449   3.140  13.436 -0.3412  0.9201 -1.0967
 2754SOL     OW19897   1.540   2.816   6.085 -0.1930  0.1115  0.3544
 2754SOL    HW119898   1.539   2.903   6.123  1.7289  0.1541  0.3486
 2754SOL    HW219899   1.602   2.821   6.012 -0.6724 -4.0760 -0.3384
 2755SOL     OW19900   4.201   2.095   5.973 -0.3263 -0.6716  0.2496
 2755SOL    HW119901   4.166   2.065   5.890 -2.6468 -1.1837  1.4017
 2755SOL    HW219902   4.123   2.127   6.018  0.0527  1.3915 -0.5951
 2756SOL     OW19903   0.052   0.280   4.843 -0.8257  0.0005  0.4257
 2756SOL    HW119904   0.097   0.255   4.762  1.1790 -1.8188  2.1107
 2756SOL    HW219905   0.064   0.203   4.898 -1.7994  1.3746  2.5658
 2757SOL     OW19906   0.968   2.126   9.622  0.2788 -0.1070 -0.9504
 2757SOL    HW119907   1.048   2.177   9.636 -0.8534  1.0842  1.2481
 2757SOL    HW219908   0.908   2.198   9.601  2.0968  0.9815 -2.4161
 2758SOL     OW19909   2.295   2.097   2.955 -0.3120 -0.4095  0.6352
 2758SOL    HW119910   2.282   2.185   2.990 -2.0782 -0.5846  0.3845
 2758SOL    HW219911   2.386   2.105   2.925 -0.1542  2.5246  1.8537
 2759SOL     OW19912   4.601   4.593  17.521  0.0595  0.5701  0.0172
 2759SOL    HW119913   4.577   4.638  17.440  0.8706  0.8472 -0.0744
 2759SOL    HW219914   4.617   4.668  17.578 -0.6967 -1.1427  2.5290
 2760SOL     OW19915   2.041   2.873   6.493 -0.1458  0.4388 -0.0459
 2760SOL    HW119916   1.952   2.895   6.522  0.6173  0.8002  2.0285
 2760SOL    HW219917   2.024   2.828   6.410  0.3356 -0.3933  0.3134
 2761SOL     OW19918   3.618   3.390   1.906  0.1492 -0.2263 -1.0486
 2761SOL    HW119919   3.589   3.471   1.947  3.0171  0.7738 -0.9910
 2761SOL    HW219920   3.703   3.379   1.949 -0.3376  1.5797  0.3422
 2762SOL     OW19921   1.633   3.897   4.552  0.4840  0.2279 -0.1403
 2762SOL    HW119922   1.629   3.802   4.557  2.4636  0.0952 -1.4608
 2762SOL    HW219923   1.546   3.920   4.586  0.9719  2.5338 -0.4818
 2763SOL     OW19924   3.524   1.381   5.371  0.4254  0.2432  0.2955
 2763SOL    HW119925   3.500   1.471   5.391  0.3532  1.1244 -3.6919
 2763SOL    HW219926   3.452   1.340   5.419 -0.0531  0.5649 -0.1471
 2764SOL     OW19927   0.208   2.813   6.827  0.3816  0.1107  0.1402
 2764SOL    HW119928   0.144   2.878   6.857 -1.0529 -0.4179 -1.7669
 2764SOL    HW219929   0.164   2.734   6.858  0.4483  0.7057  1.7069
 2765SOL     OW19930   1.463   0.448   8.498 -0.5962 -0.0049  0.2266
 2765SOL    HW119931   1.443   0.357   8.517  0.4099 -0.1864  0.4158
 2765SOL    HW219932   1.377   0.488   8.486 -0.4462  0.0503 -0.6121
 2766SOL     OW19933   1.327   2.475  16.909 -0.0159  0.3967 -0.5589
 2766SOL    HW119934   1.341   2.551  16.853  0.6423  0.2392 -0.5991
 2766SOL    HW219935   1.233   2.461  16.895  0.1951 -1.7198  0.0866
 2767SOL     OW19936   0.944   3.663  12.265  0.2879 -0.2091 -0.0181
 2767SOL    HW119937   0.925   3.739  12.319 -2.4138  0.7817 -2.3143
 2767SOL    HW219938   1.039   3.665  12.272  0.2811  0.1922 -0.0475
 2768SOL     OW19939   3.409   3.797   8.547 -0.2763  0.0728  0.6610
 2768SOL    HW119940   3.327   3.780   8.500  0.9304  0.1894 -1.5316
 2768SOL    HW219941   3.365   3.839   8.620  0.6840  0.5150  0.9927
 2769SOL     OW19942   0.407   4.307   6.867 -0.1880 -0.0097 -0.0490
 2769SOL    HW119943   0.353   4.380   6.837 -1.5819 -1.0956 -0.1628
 2769SOL    HW219944   0.474   4.350   6.921  0.8607  0.8359 -2.0184
 2770SOL     OW19945   3.293   1.267   0.096  0.5645  0.3048  0.0191
 2770SOL    HW119946   3.304   1.179   0.059  1.8257  1.5315 -2.5686
 2770SOL    HW219947   3.374   1.304   0.131  0.1704  1.1112  0.0850
 2771SOL     OW19948   1.520   4.571   6.641  0.2242  0.3209 -0.3638
 2771SOL    HW119949   1.439   4.580   6.691  0.3162  0.7101 -0.2862
 2771SOL    HW219950   1.478   4.594   6.558  0.1130  0.4424 -0.2732
 2772SOL     OW19951   4.450   3.986   4.002 -0.6171  0.3203 -1.1569
 2772SOL    HW119952   4.465   3.895   4.029  1.1860  0.9296 -0.1266
 2772SOL    HW219953   4.368   3.978   3.954 -1.6796 -1.2661  0.8814
 2773SOL     OW19954   4.290   1.523   2.483  0.1147 -0.6729  0.3956
 2773SOL    HW119955   4.308   1.615   2.463  1.6043 -0.5093  2.4646
 2773SOL    HW219956   4.284   1.494   2.393  1.1557 -1.8037  0.7023
 2774SOL     OW19957   4.304   2.045   8.346  0.2421  0.0804 -0.4359
 2774SOL    HW119958   4.315   2.068   8.254  1.2453 -1.2679 -0.6603
 2774SOL    HW219959   4.262   1.959   8.336 -0.9885  0.4832  1.3125
 2775SOL     OW19960   2.109   3.816  10.324 -0.5198 -0.3463 -0.3457
 2775SOL    HW119961   2.186   3.761  10.312 -0.1603  0.1015 -0.1294
 2775SOL    HW219962   2.124   3.845  10.414  2.1611 -2.2733 -0.1516
 2776SOL     OW19963   2.494   0.797   7.714  0.2222 -0.7622 -0.0575
 2776SOL    HW119964   2.406   0.760   7.716  0.3514 -1.1085 -0.9985
 2776SOL    HW219965   2.529   0.713   7.688  0.4382 -0.5548 -0.4284
 2777SOL     OW19966   4.700   2.503   5.956  0.8244 -0.1544  0.4220
 2777SOL    HW119967   0.036   2.472   5.906  1.2088  0.7534  0.4338
 2777SOL    HW219968   0.016   2.534   6.027  2.6952 -2.0800 -0.1844
 2778SOL     OW19969   0.551   3.685   0.562 -0.4782 -0.2174  0.4551
 2778SOL    HW119970   0.543   3.604   0.510 -0.2169  0.2119 -0.2563
 2778SOL    HW219971   0.461   3.690   0.594 -0.2847 -0.6819  1.0818
 2779SOL     OW19972   3.513   1.388   8.655 -0.0865  0.9895 -0.3020
 2779SOL    HW119973   3.548   1.443   8.584  1.3313 -1.0594 -1.1798
 2779SOL    HW219974   3.467   1.454   8.707  0.8785  1.9434 -0.6606
 2780SOL     OW19975   2.971   4.712   0.136 -0.4072 -0.5045  0.3617
 2780SOL    HW119976   3.011   4.703   0.050 -2.2746 -0.6689 -0.4757
 2780SOL    HW219977   2.879   4.715   0.111 -0.3245  1.7720  0.3560
 2781SOL     OW19978   3.351   4.019  15.361  0.5371 -0.2758  0.1377
 2781SOL    HW119979   3.438   3.999  15.327  0.5966 -0.7285  0.5505
 2781SOL    HW219980   3.348   3.968  15.442  3.2521  1.6427  1.4280
 2782SOL     OW19981   3.146   2.390   1.514  0.2299 -1.1824 -0.0152
 2782SOL    HW119982   3.169   2.299   1.534  0.2119 -0.8752  1.3943
 2782SOL    HW219983   3.206   2.396   1.439 -0.5479  1.2911 -0.4366
 2783SOL     OW19984   3.810   1.913   5.163 -0.0887 -0.8701 -0.4753
 2783SOL    HW119985   3.846   1.998   5.139 -0.2408 -0.9637 -1.0299
 2783SOL    HW219986   3.882   1.882   5.219  2.0621  0.8436 -2.2677
 2784SOL     OW19987   1.558   3.028  12.737  0.5109 -0.5908  0.1065
 2784SOL    HW119988   1.647   2.994  12.748  1.2882  1.4037  0.0026
 2784SOL    HW219989   1.528   2.988  12.655 -0.3919  0.3871 -0.0405
 2785SOL     OW19990   2.739   0.591   5.449 -0.1142  0.6262 -0.1780
 2785SOL    HW119991   2.804   0.658   5.466  1.4861 -0.3750 -2.3644
 2785SOL    HW219992   2.739   0.592   5.353 -2.9603 -1.3023 -0.2057
 2786SOL     OW19993   0.827   3.579   3.272  0.0353  0.3043  0.7707
 2786SOL    HW119994   0.830   3.619   3.186 -0.9223 -4.2170 -1.3980
 2786SOL    HW219995   0.752   3.519   3.263 -0.0316  0.9931 -3.1930
 2787SOL     OW19996   1.582   0.463   4.574 -0.7251  0.5655 -0.0035
 2787SOL    HW119997   1.568   0.525   4.503 -1.4386 -2.5874 -2.5928
 2787SOL    HW219998   1.562   0.521   4.648  1.6581  1.3965 -0.0103
 2788SOL     OW19999   0.470   0.276  14.326 -0.2216  0.3699 -0.3500
 2788SOL    HW120000   0.505   0.252  14.240  1.3393 -0.6040  0.5288
 2788SOL    HW220001   0.515   0.360  14.326 -0.5592  0.5374  2.1251
 2789SOL     OW20002   0.140   1.389   8.265 -0.5399 -0.1499  0.1564
 2789SOL    HW120003   0.194   1.363   8.340  1.0435  3.4471  0.2698
 2789SOL    HW220004   0.073   1.443   8.309 -2.1386 -0.5659 -1.7793
 2790SOL     OW20005   2.831   2.753   3.343  0.3505 -0.4002  0.1783
 2790SOL    HW120006   2.839   2.683   3.278 -2.2873  1.6406 -2.3064
 2790SOL    HW220007   2.916   2.748   3.387  0.8309 -0.3078 -0.7390
 2791SOL     OW20008   3.336   0.097  10.207 -0.5401 -0.0299 -0.1585
 2791SOL    HW120009   3.348   0.133  10.119 -1.1295 -0.5265 -0.4376
 2791SOL    HW220010   3.422   0.061  10.230 -0.7003 -2.0680 -2.7748
 2792SOL     OW20011   0.202   1.286   5.399 -0.0823  0.1887  0.2279
 2792SOL    HW120012   0.142   1.219   5.431  0.5302 -1.6476 -2.4699
 2792SOL    HW220013   0.165   1.304   5.313  0.2341 -1.4080 -0.2311
 2793SOL     OW20014   4.725   4.289  16.452  0.0995 -0.0306 -0.1445
 2793SOL    HW120015   4.718   4.194  16.461 -1.2913  0.1543  0.8175
 2793SOL    HW220016   4.704   4.290  16.358 -0.3781  1.3898 -0.0311
 2794SOL     OW20017   4.324   4.048   2.711 -0.2758 -0.0006  0.5142
 2794SOL    HW120018   4.270   3.984   2.759  0.3864  0.3337  1.7063
 2794SOL    HW220019   4.293   4.132   2.744 -2.0401 -0.6752  0.6162
 2795SOL     OW20020   0.444   0.727  14.578  0.3150  0.2276 -0.0852
 2795SOL    HW120021   0.491   0.644  14.579 -1.0324 -0.5416 -0.1572
 2795SOL    HW220022   0.516   0.769  14.532  2.4164  1.2795  4.1071
 2796SOL     OW20023   2.984   3.804  15.198  0.2484  0.6307 -0.5588
 2796SOL    HW120024   3.034   3.724  15.212  0.4751  1.1009  1.3148
 2796SOL    HW220025   2.912   3.796  15.260 -0.2637  2.2658 -0.9426
 2797SOL     OW20026   1.923   2.576   6.141 -0.5905 -0.3487 -0.6415
 2797SOL    HW120027   1.839   2.562   6.099  0.6547 -1.6863 -2.6637
 2797SOL    HW220028   1.904   2.580   6.235 -0.2824 -0.4497 -0.5754
 2798SOL     OW20029   1.768   2.983   3.923  0.5589  0.1217 -0.1001
 2798SOL    HW120030   1.818   3.049   3.972  0.5343  0.3530 -0.3858
 2798SOL    HW220031   1.757   2.915   3.989  1.3098 -1.8791 -2.0286
 2799SOL     OW20032   1.503   1.854   2.889  0.5201  0.1521  0.3025
 2799SOL    HW120033   1.589   1.814   2.882  0.6287  0.1840  1.4465
 2799SOL    HW220034   1.505   1.938   2.844  1.2511  0.6550  1.2925
 2800SOL     OW20035   4.090   1.505   9.600  0.3514 -0.9185 -0.2444
 2800SOL    HW120036   4.040   1.526   9.521 -0.0701 -0.4570  0.1455
 2800SOL    HW220037   4.032   1.541   9.667 -0.0379  2.3427 -2.3500
 2801SOL     OW20038   2.775   3.541   4.275 -0.2341 -0.2709  0.0012
 2801SOL    HW120039   2.795   3.603   4.344 -0.0796  0.4344 -0.6808
 2801SOL    HW220040   2.854   3.488   4.270  0.2087  0.3084  0.9733
 2802SOL     OW20041   3.961   2.679   7.173  0.0543  0.2384  0.3235
 2802SOL    HW120042   3.875   2.704   7.206  0.4146  2.6133 -0.5350
 2802SOL    HW220043   4.004   2.645   7.251 -1.6751 -2.7670 -0.0074
 2803SOL     OW20044   4.421   1.936   9.627  0.6938 -0.4449 -0.2243
 2803SOL    HW120045   4.460   1.914   9.711 -0.7863 -0.4347  0.4756
 2803SOL    HW220046   4.493   1.926   9.565  0.5442  1.1568 -0.6434
 2804SOL     OW20047   2.452   1.391  17.285 -0.1514  0.0301 -0.4745
 2804SOL    HW120048   2.534   1.441  17.285  0.7562 -1.4697 -2.0365
 2804SOL    HW220049   2.433   1.402  17.192 -0.2270  1.0544 -0.3461
 2805SOL     OW20050   3.203   0.273  17.156  0.0024 -0.0784  0.2919
 2805SOL    HW120051   3.223   0.366  17.147 -1.1899  0.2721  1.3671
 2805SOL    HW220052   3.136   0.269  17.088  0.4874  1.2493 -0.2687
 2806SOL     OW20053   1.217   1.346   3.244  0.0725  0.5735  0.1583
 2806SOL    HW120054   1.288   1.330   3.306  0.4619 -2.9259 -1.2225
 2806SOL    HW220055   1.151   1.298   3.294  0.4037 -0.6583 -0.5951
 2807SOL     OW20056   0.589   4.688   2.732 -0.3999  0.5531  0.2115
 2807SOL    HW120057   0.524   4.736   2.783 -1.1753 -1.8069  1.4516
 2807SOL    HW220058   0.666   4.691   2.789  0.2181  0.3701 -0.6084
 2808SOL     OW20059   2.550   2.505   5.933  0.2154  0.3972 -0.0794
 2808SOL    HW120060   2.551   2.588   5.885  1.5002  1.2020  1.3133
 2808SOL    HW220061   2.475   2.471   5.884 -0.8814  1.9977  0.4868
 2809SOL     OW20062   4.087   2.362  14.969  0.0582 -0.0771  0.6684
 2809SOL    HW120063   4.065   2.378  15.061 -0.7335  0.2824  0.4189
 2809SOL    HW220064   4.071   2.445  14.925  1.4465  1.3858  2.9142
 2810SOL     OW20065   1.323   2.151   2.290  0.2841  0.2906  0.3272
 2810SOL    HW120066   1.397   2.115   2.241  1.2633 -0.7137  2.5404
 2810SOL    HW220067   1.311   2.080   2.353 -0.7929 -0.2223 -0.4480
 2811SOL     OW20068   3.810   0.522   8.633  0.2042 -0.4796 -0.4481
 2811SOL    HW120069   3.883   0.581   8.613  0.0200 -0.2425 -0.4236
 2811SOL    HW220070   3.762   0.579   8.692 -1.3312 -1.1983 -1.0004
 2812SOL     OW20071   1.595   3.041   5.516  0.4624 -0.4510  0.1768
 2812SOL    HW120072   1.561   3.034   5.605 -1.1926 -1.5098 -0.5421
 2812SOL    HW220073   1.522   3.086   5.471  0.7668 -1.4900 -1.3503
 2813SOL     OW20074   0.263   3.790  10.602  0.0308 -0.1048  0.4900
 2813SOL    HW120075   0.174   3.779  10.567 -0.0965 -1.1616  1.1495
 2813SOL    HW220076   0.251   3.840  10.683  0.5210  2.2912 -0.9155
 2814SOL     OW20077   0.096   1.036   1.291 -0.2745 -0.3144  0.2331
 2814SOL    HW120078   0.072   1.021   1.382 -1.2245 -0.9804 -0.1216
 2814SOL    HW220079   0.172   1.094   1.292 -1.0450  0.7152 -0.0540
 2815SOL     OW20080   2.386   2.959   7.392 -0.3370  0.4649 -0.7695
 2815SOL    HW120081   2.393   2.891   7.325 -1.1842  0.7188 -1.1212
 2815SOL    HW220082   2.418   2.918   7.472 -1.1251  0.9344 -0.2020
 2816SOL     OW20083   1.694   4.247   7.131 -0.3648  1.1332 -0.1524
 2816SOL    HW120084   1.600   4.240   7.149 -0.6411  1.7394 -1.3383
 2816SOL    HW220085   1.719   4.322   7.185  3.0717 -0.4729  0.4164
 2817SOL     OW20086   4.129   0.722  10.395 -0.8865  0.2028 -0.5999
 2817SOL    HW120087   4.129   0.627  10.402 -0.5405  0.1561 -1.2491
 2817SOL    HW220088   4.051   0.738  10.342 -0.3545  1.5588 -0.9759
 2818SOL     OW20089   3.796   1.270   1.418 -0.2879  0.0823 -0.1109
 2818SOL    HW120090   3.733   1.247   1.487 -0.6770  2.5635  0.3428
 2818SOL    HW220091   3.786   1.194   1.360  3.0031 -0.3771 -0.0842
 2819SOL     OW20092   4.019   0.658  17.470 -0.3183 -0.4268  0.2020
 2819SOL    HW120093   4.068   0.731  17.431  0.0680 -0.5755  0.4020
 2819SOL    HW220094   3.989   0.691  17.555  0.6011  0.0688  0.3417
 2820SOL     OW20095   4.489   1.018   3.729 -0.1110 -0.1886 -0.2521
 2820SOL    HW120096   4.576   1.042   3.697 -0.1083  4.2019  3.0204
 2820SOL    HW220097   4.477   0.927   3.700  1.4629 -0.9898  1.5465
 2821SOL     OW20098   3.725   2.567   5.391  0.0841  0.9726  0.4883
 2821SOL    HW120099   3.776   2.545   5.469  0.4964 -0.5594 -0.2227
 2821SOL    HW220100   3.656   2.626   5.422 -1.0749 -0.6639  1.0699
 2822SOL     OW20101   1.345   4.032  16.128  0.3924  0.2125 -0.2064
 2822SOL    HW120102   1.355   4.058  16.036  0.1809 -0.2042 -0.3512
 2822SOL    HW220103   1.400   3.954  16.124 -1.7822 -1.3301 -0.2349
 2823SOL     OW20104   2.519   4.141   6.264 -0.1325  0.1076 -0.9368
 2823SOL    HW120105   2.609   4.161   6.288 -0.2668  0.3834 -0.6620
 2823SOL    HW220106   2.475   4.226   6.258  0.1421  0.3250  0.3050
 2824SOL     OW20107   2.346   4.248   9.033  0.0160 -0.0262  0.4433
 2824SOL    HW120108   2.310   4.196   8.961 -0.3067  0.5703  0.1797
 2824SOL    HW220109   2.356   4.169   9.087  0.9696  0.9360  1.6907
 2825SOL     OW20110   4.356   1.654   9.511  0.0253 -0.2044  0.9572
 2825SOL    HW120111   4.264   1.626   9.513 -0.2498  0.4821 -1.6729
 2825SOL    HW220112   4.354   1.735   9.561 -0.7524  0.9784 -1.0076
 2826SOL     OW20113   4.579   1.868   9.860 -0.3735  0.1491 -0.0348
 2826SOL    HW120114   4.585   1.782   9.902  3.3749  2.0924  3.4510
 2826SOL    HW220115   4.670   1.877   9.834 -0.7203  0.6590 -1.0674
 2827SOL     OW20116   2.980   3.898   7.780 -0.8408  0.0931 -0.6375
 2827SOL    HW120117   2.915   3.874   7.714 -1.7070  1.4151 -0.2768
 2827SOL    HW220118   2.975   3.993   7.769  1.7530  0.3945  0.8043
 2828SOL     OW20119   1.018   1.109   2.252  0.2391  0.3375 -0.0374
 2828SOL    HW120120   0.983   1.198   2.247 -0.5331  0.0186 -0.2624
 2828SOL    HW220121   1.022   1.090   2.158 -0.9907 -1.3052  0.2478
 2829SOL     OW20122   1.826   1.485   3.403  0.7035 -0.4485  0.0420
 2829SOL    HW120123   1.735   1.515   3.409  0.8747 -0.2870  1.8678
 2829SOL    HW220124   1.872   1.543   3.342  0.7645 -1.0147 -0.4507
 2830SOL     OW20125   2.147   1.855   6.967 -0.3990 -0.5289 -0.1357
 2830SOL    HW120126   2.055   1.832   6.958 -0.4387  0.5615 -2.5223
 2830SOL    HW220127   2.186   1.768   6.962  0.4256 -0.2519  1.5047
 2831SOL     OW20128   3.513   1.340   9.428  0.1094  0.1522 -0.0006
 2831SOL    HW120129   3.578   1.270   9.436 -3.0251 -2.5237  1.9223
 2831SOL    HW220130   3.490   1.329   9.336 -1.9158  0.9724  0.4125
 2832SOL     OW20131   4.295   3.345   5.085  0.5902 -0.0033  0.1146
 2832SOL    HW120132   4.267   3.436   5.089  1.4905  0.1822  2.0494
 2832SOL    HW220133   4.322   3.317   5.173 -0.1583 -0.4421  0.2025
 2833SOL     OW20134   0.925   2.909   6.264  0.4045 -0.2031 -0.5470
 2833SOL    HW120135   0.957   2.983   6.315 -1.0578 -2.0005  2.9431
 2833SOL    HW220136   0.839   2.938   6.233 -0.4390 -1.2810  0.8152
 2834SOL     OW20137   4.224   3.429   4.477  0.0366 -1.0276 -0.0442
 2834SOL    HW120138   4.205   3.517   4.446 -0.5137 -1.0009  0.3582
 2834SOL    HW220139   4.151   3.405   4.535 -0.7524 -0.0245 -0.6219
 2835SOL     OW20140   3.573   0.766   8.180  0.3419  0.1176  0.2976
 2835SOL    HW120141   3.511   0.775   8.107 -0.3761 -1.6180  0.6915
 2835SOL    HW220142   3.558   0.842   8.237 -1.1332 -1.8504  2.5917
 2836SOL     OW20143   3.152   0.319  17.655 -0.0489 -0.0564 -0.0459
 2836SOL    HW120144   3.059   0.316  17.678  0.0597  1.1373  0.5494
 2836SOL    HW220145   3.186   0.331  17.743  0.8598  2.5944 -0.7413
 2837SOL     OW20146   3.495   3.328  15.507 -0.0300  0.2075 -0.2588
 2837SOL    HW120147   3.585   3.360  15.517  0.1817 -0.9243  1.5318
 2837SOL    HW220148   3.462   3.322  15.596 -0.2959 -0.2489 -0.3871
 2838SOL     OW20149   4.052   4.501  13.676  0.0600 -0.0022 -0.1813
 2838SOL    HW120150   4.038   4.420  13.627 -0.8501  1.1996 -1.8934
 2838SOL    HW220151   4.059   4.568  13.608  2.5851 -1.7355 -1.6246
 2839SOL     OW20152   4.644   2.145   2.611 -0.7185  0.3306 -0.5423
 2839SOL    HW120153   4.602   2.104   2.687 -1.0058  0.7461 -0.4728
 2839SOL    HW220154   4.580   2.163   2.542 -0.7618 -1.4804 -0.9781
 2840SOL     OW20155   0.959   2.105   3.113  0.5070  0.2701  0.3617
 2840SOL    HW120156   1.018   2.163   3.161  0.4861 -0.4733  1.2795
 2840SOL    HW220157   1.027   2.054   3.068 -2.6104 -3.4376 -0.1550
 2841SOL     OW20158   1.035   0.405  17.111  0.3934 -0.1332 -0.1461
 2841SOL    HW120159   1.122   0.423  17.145  0.3085  0.9078 -0.4962
 2841SOL    HW220160   0.982   0.432  17.186 -1.2956 -0.6687 -1.1385
 2842SOL     OW20161   2.277   2.153  16.041  0.2209 -0.3645 -0.0305
 2842SOL    HW120162   2.247   2.216  15.975 -0.7899 -2.4790 -1.5769
 2842SOL    HW220163   2.290   2.214  16.113 -1.8079  0.0370  0.0084
 2843SOL     OW20164   4.254   1.586  11.520  0.0649  0.5499  0.2878
 2843SOL    HW120165   4.221   1.582  11.609 -0.1166  0.5644  0.2208
 2843SOL    HW220166   4.180   1.616  11.467  0.5918  0.3405 -0.5789
 2844SOL     OW20167   4.410   4.418   8.560  0.2759 -0.0760 -0.0293
 2844SOL    HW120168   4.345   4.355   8.591 -0.9210  1.0103 -0.3220
 2844SOL    HW220169   4.479   4.353   8.546  0.1860 -0.4174  1.1243
 2845SOL     OW20170   4.375   3.135   4.891 -0.1376  0.3691 -0.2405
 2845SOL    HW120171   4.336   3.199   4.951  0.8505 -0.2017  0.9984
 2845SOL    HW220172   4.363   3.171   4.803 -1.8354  1.4324  0.4204
 2846SOL     OW20173   0.357   1.792   8.894  0.0148 -0.4309 -0.1910
 2846SOL    HW120174   0.292   1.862   8.886 -0.3709 -0.8205 -0.4762
 2846SOL    HW220175   0.342   1.737   8.817  1.2287 -1.5177  0.3515
 2847SOL     OW20176   3.089   4.599   6.693  0.0934 -0.4331  0.3972
 2847SOL    HW120177   3.119   4.554   6.771  3.2039 -0.4625 -0.8227
 2847SOL    HW220178   3.120   4.683   6.725 -1.1993 -0.1962  1.0455
 2848SOL     OW20179   4.408   1.770   2.388 -0.4109 -0.3104  0.5534
 2848SOL    HW120180   4.489   1.721   2.371 -1.0743 -1.5731  1.0221
 2848SOL    HW220181   4.434   1.861   2.373 -0.6359 -0.7659 -2.5352
 2849SOL     OW20182   0.054   1.422  11.114 -0.5366  0.2975 -0.5013
 2849SOL    HW120183   0.088   1.429  11.203  0.0245  0.1634 -0.7073
 2849SOL    HW220184   0.066   1.328  11.096 -1.1628 -0.2506  1.9333
 2850SOL     OW20185   0.918   2.956   4.319 -0.0045  0.2971  0.5256
 2850SOL    HW120186   0.824   2.951   4.334 -0.2022  3.0508  0.3182
 2850SOL    HW220187   0.940   2.865   4.338  0.2276  0.3990  0.7445
 2851SOL     OW20188   4.249   0.175   2.443  0.5843  0.1143  0.1279
 2851SOL    HW120189   4.196   0.186   2.522  0.1153  1.8216 -0.4321
 2851SOL    HW220190   4.279   0.266   2.438  0.2725  0.1626 -0.8347
 2852SOL     OW20191   4.423   0.640   3.355  0.2438 -0.1132  0.8054
 2852SOL    HW120192   4.510   0.672   3.335 -0.4129  3.1704  3.1972
 2852SOL    HW220193   4.372   0.673   3.281 -0.1893  2.7203  2.3704
 2853SOL     OW20194   3.046   3.233   9.614 -0.1302 -0.8070 -0.0742
 2853SOL    HW120195   3.076   3.202   9.529 -0.6837  1.0219 -0.9314
 2853SOL    HW220196   2.968   3.277   9.580 -0.7889 -2.2040 -0.3753
 2854SOL     OW20197   1.063   3.747   5.678 -0.0470  0.3742  0.4744
 2854SOL    HW120198   0.983   3.797   5.663  0.0446  0.3878  0.0209
 2854SOL    HW220199   1.016   3.665   5.696  0.3380 -0.2467 -1.2947
 2855SOL     OW20200   2.148   3.906   1.894 -0.4361 -0.0001 -0.3252
 2855SOL    HW120201   2.163   4.001   1.898 -0.7200  0.0379 -0.0974
 2855SOL    HW220202   2.109   3.895   1.981  0.7527  0.1095  0.2163
 2856SOL     OW20203   2.822   3.971   6.283  0.4623  0.0798 -0.8188
 2856SOL    HW120204   2.778   4.017   6.354  4.3409  0.9655  1.0310
 2856SOL    HW220205   2.917   3.980   6.286  0.6014 -0.8834 -2.5681
 2857SOL     OW20206   3.876   1.787   3.250 -0.4198  0.4432 -0.2446
 2857SOL    HW120207   3.823   1.729   3.196 -0.4658 -0.0570  0.3397
 2857SOL    HW220208   3.939   1.719   3.273  0.5321  1.5078  0.2889
 2858SOL     OW20209   1.948   2.645   7.547 -0.1478  0.1310  0.5380
 2858SOL    HW120210   1.971   2.674   7.459 -1.1256  3.4185  1.3879
 2858SOL    HW220211   1.986   2.706   7.610 -0.8389  0.6699  0.4226
 2859SOL     OW20212   0.930   2.430   7.381 -0.2097  0.5193  0.6347
 2859SOL    HW120213   0.872   2.383   7.441  0.8677 -2.9491 -1.0467
 2859SOL    HW220214   0.898   2.391   7.300 -0.7092  4.0460 -0.8820
 2860SOL     OW20215   0.334   0.467   1.547  0.6812  0.8508  0.0307
 2860SOL    HW120216   0.337   0.522   1.468  1.6570 -0.6299 -0.9624
 2860SOL    HW220217   0.389   0.392   1.525 -2.8792 -1.7109 -0.1852
 2861SOL     OW20218   1.669   0.197   7.271 -0.1019  0.2228  0.6061
 2861SOL    HW120219   1.712   0.194   7.186  0.6383  0.6189  0.9680
 2861SOL    HW220220   1.730   0.153   7.330 -0.0300 -1.9224 -1.0596
 2862SOL     OW20221   0.600   0.725   5.272 -0.0958 -0.5227  0.2931
 2862SOL    HW120222   0.515   0.693   5.302  0.1165 -1.5842 -0.2144
 2862SOL    HW220223   0.643   0.645   5.242  1.9272  0.7392 -0.1845
 2863SOL     OW20224   0.055   0.443   7.295  0.5915  0.1766 -0.4955
 2863SOL    HW120225   0.008   0.382   7.352  2.0250 -0.4140  0.0443
 2863SOL    HW220226   4.726   0.459   7.229  0.7237 -0.9852 -0.9061
 2864SOL     OW20227   3.273   2.215   5.746  0.0083 -0.3366 -0.4459
 2864SOL    HW120228   3.207   2.201   5.815 -0.8259 -0.1840 -1.2144
 2864SOL    HW220229   3.312   2.128   5.737 -3.2766 -1.8978  0.3596
 2865SOL     OW20230   3.799   0.305   4.485  0.1517 -0.5567 -0.5967
 2865SOL    HW120231   3.734   0.352   4.537  1.6486  0.3903  0.3976
 2865SOL    HW220232   3.754   0.270   4.407 -0.5050  0.7901 -0.8385
 2866SOL     OW20233   0.715   0.872   2.184  0.2090 -0.1733 -0.2949
 2866SOL    HW120234   0.683   0.782   2.183  0.0499 -0.1373  0.8686
 2866SOL    HW220235   0.678   0.902   2.101 -0.1370 -2.0032 -0.8059
 2867SOL     OW20236   1.360   3.317   9.582  0.1288  0.1052 -0.0455
 2867SOL    HW120237   1.447   3.345   9.552  0.3252  0.1908  0.6148
 2867SOL    HW220238   1.368   3.222   9.575 -0.5152  0.1206 -0.9970
 2868SOL     OW20239   3.744   2.129   2.047  0.0342 -0.1884  0.0010
 2868SOL    HW120240   3.817   2.081   2.088  1.2292 -0.1541 -2.0867
 2868SOL    HW220241   3.728   2.189   2.120  2.5457  0.8934 -0.3493
 2869SOL     OW20242   0.965   1.269  11.566  0.1715  0.7417  0.2947
 2869SOL    HW120243   0.927   1.185  11.541  1.2058  0.4799 -0.4207
 2869SOL    HW220244   1.054   1.257  11.532 -0.1512 -0.5050 -0.1325
 2870SOL     OW20245   3.118   3.829   8.486 -0.1169  0.1348 -0.2755
 2870SOL    HW120246   3.062   3.802   8.413  0.4968 -0.7571 -0.4208
 2870SOL    HW220247   3.070   3.774   8.548  2.1414 -1.3450  0.1750
 2871SOL     OW20248   1.563   2.469  13.896 -0.0070  0.9920 -0.0963
 2871SOL    HW120249   1.528   2.551  13.862 -2.4236 -0.1079 -0.2246
 2871SOL    HW220250   1.505   2.465  13.971 -0.5593  0.2902 -0.5660
 2872SOL     OW20251   4.275   2.258  14.686 -0.4600 -0.2435 -0.3559
 2872SOL    HW120252   4.207   2.316  14.721  1.3113  1.8166 -0.2861
 2872SOL    HW220253   4.296   2.313  14.610  1.7465  0.5826  0.8298
 2873SOL     OW20254   4.405   3.377   6.491 -0.4203  0.4574  0.4171
 2873SOL    HW120255   4.351   3.302   6.514  1.8844 -1.2793  0.1642
 2873SOL    HW220256   4.351   3.446   6.531 -0.4139  1.3443 -1.1253
 2874SOL     OW20257   0.279   3.149   4.074  0.6967  0.0806 -0.4692
 2874SOL    HW120258   0.300   3.153   3.981 -0.0740 -0.3805 -0.6690
 2874SOL    HW220259   0.360   3.109   4.107  1.1193  3.0302  2.0017
 2875SOL     OW20260   2.327   3.409   2.421  0.8370  0.1113 -0.1833
 2875SOL    HW120261   2.299   3.351   2.492  0.2151  1.9096  1.0207
 2875SOL    HW220262   2.262   3.390   2.353  1.3899  1.1055 -0.9962
 2876SOL     OW20263   2.877   4.303   9.197  0.2746  0.0387 -0.1151
 2876SOL    HW120264   2.922   4.222   9.224 -0.3407 -0.3634 -0.2974
 2876SOL    HW220265   2.803   4.295   9.257  1.3695 -1.4188  1.0555
 2877SOL     OW20266   0.365   2.539   3.153  0.2529 -0.2678 -0.3064
 2877SOL    HW120267   0.273   2.518   3.173  0.3287  0.8947  1.2423
 2877SOL    HW220268   0.379   2.613   3.212 -1.4103 -1.0332  1.0680
 2878SOL     OW20269   3.561   2.300   9.036  0.4324  0.4638  0.0076
 2878SOL    HW120270   3.656   2.286   9.045  0.2125  1.4425  3.8287
 2878SOL    HW220271   3.542   2.379   9.087  0.2851  1.5567 -1.7342
 2879SOL     OW20272   4.037   4.313   1.926  0.0859 -0.0629  0.1144
 2879SOL    HW120273   4.076   4.298   1.840  1.4314  1.8155  0.3967
 2879SOL    HW220274   4.112   4.341   1.978 -0.3333 -1.9207  1.7305
 2880SOL     OW20275   1.121   4.272  14.559  0.3681  0.0594 -0.0032
 2880SOL    HW120276   1.107   4.202  14.496  2.0967 -0.0106 -0.3131
 2880SOL    HW220277   1.053   4.330  14.527  0.6051  0.9795  1.1600
 2881SOL     OW20278   3.701   2.785  11.027 -1.1789  0.5092  0.4417
 2881SOL    HW120279   3.607   2.769  11.012 -1.0622 -1.4224  1.6879
 2881SOL    HW220280   3.738   2.752  10.945 -1.6759  0.5768  0.1894
 2882SOL     OW20281   3.403   0.230  14.777 -0.1494  0.2888  0.3874
 2882SOL    HW120282   3.431   0.180  14.700 -0.0327 -0.4879  0.9380
 2882SOL    HW220283   3.309   0.215  14.783 -0.5050  2.5159  0.6069
 2883SOL     OW20284   0.610   0.107   5.155  0.2399 -0.1839 -0.1982
 2883SOL    HW120285   0.541   0.157   5.198  1.3843 -0.2852  1.7695
 2883SOL    HW220286   0.679   0.174   5.158  1.5670 -1.5201 -1.5190
 2884SOL     OW20287   3.710   2.059  13.745 -0.3435 -0.5964  0.1078
 2884SOL    HW120288   3.668   2.145  13.747  0.6729 -0.1458  1.7951
 2884SOL    HW220289   3.657   2.011  13.809 -1.1012 -0.5458 -0.4816
 2885SOL     OW20290   3.965   2.725   4.830 -0.2924 -0.2817 -0.6538
 2885SOL    HW120291   4.014   2.646   4.850  0.4972  0.7476  1.4848
 2885SOL    HW220292   3.909   2.684   4.764 -2.0574  0.4826  0.3787
 2886SOL     OW20293   3.980   2.690   7.675 -0.2052  0.3580 -0.6217
 2886SOL    HW120294   4.018   2.771   7.709  0.4772 -0.1352 -0.2258
 2886SOL    HW220295   3.900   2.681   7.727  0.5280 -0.4898  0.3299
 2887SOL     OW20296   2.236   4.713   5.670  0.0164  0.4159  0.0853
 2887SOL    HW120297   2.250   4.721   5.764  1.1166  5.2437 -0.5008
 2887SOL    HW220298   2.171   4.643   5.660  0.4470 -0.0078  0.2241
 2888SOL     OW20299   1.904   2.076   7.903 -0.4421 -0.7699 -0.2618
 2888SOL    HW120300   1.975   2.058   7.841 -0.9457 -0.5132 -0.9108
 2888SOL    HW220301   1.846   2.001   7.894 -1.0539 -0.3007 -0.2548
 2889SOL     OW20302   0.891   1.962   6.158 -0.0091 -0.0994 -0.0644
 2889SOL    HW120303   0.817   1.920   6.202 -0.9814 -0.5595 -2.1352
 2889SOL    HW220304   0.857   2.002   6.079 -2.5045 -0.4103  0.8516
 2890SOL     OW20305   1.269   0.596   4.736  0.4479  0.0768  0.4526
 2890SOL    HW120306   1.265   0.651   4.658  0.3676 -0.8871 -0.2246
 2890SOL    HW220307   1.174   0.587   4.747  0.1199  1.0718 -1.5295
 2891SOL     OW20308   1.636   0.552  14.056  0.5149  0.3605 -0.1986
 2891SOL    HW120309   1.599   0.483  14.111 -3.0410  1.2915 -1.4543
 2891SOL    HW220310   1.559   0.575  14.003  0.5470  0.7037 -0.0967
 2892SOL     OW20311   3.679   0.894   6.507  0.0344  0.4947  0.5627
 2892SOL    HW120312   3.711   0.828   6.446 -1.2609  1.2365 -0.9038
 2892SOL    HW220313   3.603   0.924   6.457 -1.6003 -3.4568  0.6641
 2893SOL     OW20314   3.044   3.530  17.079 -0.3494 -0.0245  0.6893
 2893SOL    HW120315   2.965   3.523  17.132 -0.5004  0.2016  0.4962
 2893SOL    HW220316   3.101   3.514  17.154  1.3635 -1.0407 -0.8164
 2894SOL     OW20317   1.129   0.734   8.363 -0.3846  0.1912 -0.3487
 2894SOL    HW120318   1.195   0.709   8.298 -0.1789 -1.7519  0.6112
 2894SOL    HW220319   1.094   0.808   8.312  0.6573  0.1278 -1.1793
 2895SOL     OW20320   0.981   4.605   6.274  0.3016  0.3080  0.4739
 2895SOL    HW120321   0.888   4.588   6.257 -0.3537  1.9866  2.4397
 2895SOL    HW220322   1.006   4.513   6.265 -2.0265 -0.3627  0.7933
 2896SOL     OW20323   0.485   0.101   1.262 -0.0248  0.0420  0.5089
 2896SOL    HW120324   0.468   0.130   1.172  1.6956 -0.2296  0.1143
 2896SOL    HW220325   0.578   0.081   1.252 -0.2527 -1.1008  0.7044
 2897SOL     OW20326   3.877   3.278   6.159  0.8360  0.2327 -0.7769
 2897SOL    HW120327   3.837   3.258   6.244  0.5498  0.5267 -0.8420
 2897SOL    HW220328   3.808   3.335   6.124  0.2387 -0.5118 -0.8140
 2898SOL     OW20329   2.017   3.825   2.118  0.1826  0.3222  0.1103
 2898SOL    HW120330   1.940   3.869   2.084 -0.5457 -0.3599  0.8764
 2898SOL    HW220331   1.985   3.763   2.184 -0.0228 -1.6629 -1.8564
 2899SOL     OW20332   3.873   3.141   3.781 -0.0134  0.6262 -0.5869
 2899SOL    HW120333   3.943   3.181   3.832  0.4903  0.4083 -1.1032
 2899SOL    HW220334   3.828   3.085   3.843 -1.5315 -0.6855 -2.8947
 2900SOL     OW20335   0.896   2.798   7.671 -0.0777  0.8168 -0.6108
 2900SOL    HW120336   0.967   2.736   7.660 -0.2890  0.7002 -1.2831
 2900SOL    HW220337   0.859   2.786   7.584 -1.2489  2.5030 -0.3497
 2901SOL     OW20338   4.642   4.476   0.203  0.0069 -0.2218  0.1680
 2901SOL    HW120339   4.703   4.539   0.241 -0.8318 -0.1607  1.4121
 2901SOL    HW220340   4.695   4.431   0.137  0.6603  2.3252 -1.0454
 2902SOL     OW20341   0.445   0.982   0.292  0.2391 -0.6806  0.3704
 2902SOL    HW120342   0.521   0.952   0.342 -0.5357  2.3075  3.3380
 2902SOL    HW220343   0.470   1.060   0.243  2.4172  0.1797  2.8688
 2903SOL     OW20344   4.285   3.351  14.340 -0.6485 -0.1566  0.5115
 2903SOL    HW120345   4.263   3.356  14.247  0.6498 -1.8752  0.1134
 2903SOL    HW220346   4.296   3.441  14.368  0.6900 -0.5438  1.2366
 2904SOL     OW20347   3.901   3.144   2.699  0.6184  0.3938  0.3488
 2904SOL    HW120348   3.823   3.130   2.753 -0.4832 -0.1009 -1.3821
 2904SOL    HW220349   3.903   3.238   2.680 -1.2309  0.2862 -0.3564
 2905SOL     OW20350   2.116   4.130   2.567 -0.5791  0.2793  0.1412
 2905SOL    HW120351   2.138   4.134   2.473  1.2540  1.8229  0.6509
 2905SOL    HW220352   2.042   4.191   2.566 -0.7530  0.0322 -2.3525
 2906SOL     OW20353   3.729   2.700   7.330  0.4993  0.3573  0.5272
 2906SOL    HW120354   3.718   2.676   7.422  0.0573  0.0398  0.3914
 2906SOL    HW220355   3.644   2.672   7.295 -0.0371  1.6680  0.7600
 2907SOL     OW20356   3.277   3.955  15.944  0.2468 -0.6101  0.0916
 2907SOL    HW120357   3.272   3.922  15.855 -1.1271 -1.1235  0.3569
 2907SOL    HW220358   3.210   3.904  15.990  0.2485 -1.1790 -0.5376
 2908SOL     OW20359   1.766   0.796   2.963  0.3180 -0.2783 -0.5420
 2908SOL    HW120360   1.698   0.730   2.946 -0.9238  0.3923  1.9378
 2908SOL    HW220361   1.712   0.873   2.978  1.4913  0.5141 -0.3832
 2909SOL     OW20362   3.049   3.220   2.237  0.3602 -0.1322  0.0991
 2909SOL    HW120363   3.008   3.246   2.319  1.7387 -0.3728  0.8752
 2909SOL    HW220364   2.993   3.267   2.175 -0.7593  0.4720  1.5859
 2910SOL     OW20365   1.028   1.322   6.740 -0.4261 -0.4287  0.3723
 2910SOL    HW120366   1.068   1.278   6.815 -0.7937  1.1275  1.4748
 2910SOL    HW220367   0.964   1.378   6.784  0.9982  0.4114  1.3671
 2911SOL     OW20368   0.109   3.653  16.187  0.1877 -1.0141  0.9006
 2911SOL    HW120369   0.070   3.638  16.273 -1.3626 -1.8621  0.0550
 2911SOL    HW220370   0.165   3.576  16.178  0.3415 -0.9617  1.4083
 2912SOL     OW20371   1.317   3.732   5.763 -0.4799 -0.3672 -0.8252
 2912SOL    HW120372   1.343   3.673   5.693 -1.0698 -2.1050  0.4178
 2912SOL    HW220373   1.222   3.724   5.752 -0.8904  1.2721  1.5581
 2913SOL     OW20374   1.134   0.249   0.457 -0.2601  0.1030 -0.1230
 2913SOL    HW120375   1.168   0.264   0.545  1.2516 -2.3960 -0.2676
 2913SOL    HW220376   1.088   0.332   0.454 -0.6665 -0.1074  0.2391
 2914SOL     OW20377   1.630   2.778   1.870 -0.2846 -0.6858  0.4618
 2914SOL    HW120378   1.706   2.742   1.915  0.1945 -0.6235 -0.2864
 2914SOL    HW220379   1.563   2.710   1.871 -1.7278  0.7202 -1.5179
 2915SOL     OW20380   4.549   0.604   3.028  0.0957 -0.1157 -0.6124
 2915SOL    HW120381   4.494   0.673   3.064  1.6520  0.3931  0.7723
 2915SOL    HW220382   4.545   0.531   3.091  0.3231  1.8255  1.6428
 2916SOL     OW20383   0.142   3.586   0.862 -0.3694 -0.1260 -0.2222
 2916SOL    HW120384   0.230   3.580   0.826  0.7089  0.7949  2.2184
 2916SOL    HW220385   0.163   3.549   0.948  1.4636  1.8414  0.1989
 2917SOL     OW20386   1.672   0.576   1.495 -0.7502  0.5939  0.0409
 2917SOL    HW120387   1.666   0.607   1.405  0.2851 -1.2031 -0.6287
 2917SOL    HW220388   1.604   0.629   1.537 -2.0979  0.1246 -1.5559
 2918SOL     OW20389   1.224   3.857   7.154 -0.3161  0.1242  0.7327
 2918SOL    HW120390   1.304   3.897   7.188 -0.2031  0.6008 -0.0928
 2918SOL    HW220391   1.160   3.896   7.214  0.6944  1.7564  0.7542
 2919SOL     OW20392   1.722   1.661   4.215  0.1285  0.0125 -0.5426
 2919SOL    HW120393   1.754   1.578   4.178  2.1415  0.8331 -0.6438
 2919SOL    HW220394   1.800   1.713   4.232 -0.8775  0.5709  2.3024
 2920SOL     OW20395   2.810   2.951   6.738 -0.0500 -0.1069 -0.6112
 2920SOL    HW120396   2.811   2.957   6.642 -1.2954 -0.6574 -0.6711
 2920SOL    HW220397   2.720   2.924   6.757 -0.3611  1.2609 -0.1542
 2921SOL     OW20398   4.107   0.386   5.291  0.6198 -0.0905  0.6381
 2921SOL    HW120399   4.186   0.337   5.312  1.2726  1.0862  0.9295
 2921SOL    HW220400   4.038   0.358   5.352  0.1514 -0.4942 -0.0811
 2922SOL     OW20401   3.463   0.400   8.645  0.4701 -0.1714  0.1516
 2922SOL    HW120402   3.463   0.431   8.554  1.8589  1.2263  0.6379
 2922SOL    HW220403   3.432   0.476   8.694  1.3721  1.7091 -2.2102
 2923SOL     OW20404   0.630   3.130   8.135 -0.0978 -0.3903 -0.3466
 2923SOL    HW120405   0.684   3.208   8.120 -0.1631  0.1125  1.9704
 2923SOL    HW220406   0.618   3.138   8.230  1.0471  0.4961 -0.2744
 2924SOL     OW20407   2.494   2.598   4.403 -0.1783 -0.3270  0.4949
 2924SOL    HW120408   2.529   2.604   4.315  1.0956 -3.4368  0.7583
 2924SOL    HW220409   2.510   2.505   4.421  0.6114 -0.3912 -0.5439
 2925SOL     OW20410   3.161   2.404  12.004  0.1633 -0.1781  0.9509
 2925SOL    HW120411   3.203   2.451  12.076  1.7593  0.1716 -0.2140
 2925SOL    HW220412   3.208   2.441  11.930 -1.5835  0.6789  0.2549
 2926SOL     OW20413   4.435   2.185   7.239 -0.0983  0.2423  0.3146
 2926SOL    HW120414   4.443   2.255   7.174  2.3411 -0.0959  0.2653
 2926SOL    HW220415   4.499   2.202   7.308  3.0599 -0.8358 -2.3986
 2927SOL     OW20416   3.925   1.909   9.868 -0.0184  0.4951  0.2273
 2927SOL    HW120417   3.921   1.818   9.897 -1.6390  0.2537 -0.7190
 2927SOL    HW220418   3.978   1.941   9.941 -0.0243 -3.7272  2.0535
 2928SOL     OW20419   1.628   1.141   8.776  0.0802 -0.2258 -0.6181
 2928SOL    HW120420   1.673   1.091   8.708  0.9902  0.6006 -0.6185
 2928SOL    HW220421   1.693   1.205   8.802 -0.8727 -0.2061  1.6897
 2929SOL     OW20422   0.588   0.155  15.149  0.1608 -0.4030  0.1416
 2929SOL    HW120423   0.510   0.200  15.181  0.9815  0.1693  1.3270
 2929SOL    HW220424   0.650   0.227  15.160 -0.2745  0.2746 -1.8028
 2930SOL     OW20425   0.720   1.728   5.167 -0.3859  0.0099  0.2974
 2930SOL    HW120426   0.687   1.682   5.244 -1.3748 -1.2841 -0.8966
 2930SOL    HW220427   0.670   1.683   5.099  2.0360  0.0717 -1.5630
 2931SOL     OW20428   1.839   1.611   6.139  0.1738  0.1550  0.4073
 2931SOL    HW120429   1.863   1.536   6.086  0.2735  1.2703 -1.1243
 2931SOL    HW220430   1.863   1.594   6.230  1.5852  0.2430  0.0455
 2932SOL     OW20431   2.310   1.603  15.418  0.3524 -0.2741 -0.6359
 2932SOL    HW120432   2.310   1.680  15.474  1.5738 -0.5478 -0.2503
 2932SOL    HW220433   2.231   1.629  15.370 -1.2222 -3.0733  0.4349
 2933SOL     OW20434   3.039   1.255   5.836 -0.2122 -0.1164  0.3464
 2933SOL    HW120435   2.981   1.308   5.891 -0.5618  0.8884 -0.9941
 2933SOL    HW220436   2.986   1.178   5.818  0.8912 -0.7274 -0.2357
 2934SOL     OW20437   4.066   1.708  11.364 -0.1541 -0.3152 -0.1102
 2934SOL    HW120438   4.029   1.769  11.428  1.3700  0.5399 -0.0265
 2934SOL    HW220439   4.002   1.704  11.294  1.2493 -3.6118 -1.1918
 2935SOL     OW20440   0.004   3.463   0.052 -0.1498 -0.2187  0.2833
 2935SOL    HW120441   4.737   3.401   0.124 -3.0744  0.5496  0.7175
 2935SOL    HW220442   0.035   3.403  17.737 -2.2605  2.8008 -3.4005
 2936SOL     OW20443   0.300   4.243   2.341  0.2675 -0.4801  0.4010
 2936SOL    HW120444   0.317   4.337   2.333  2.3191 -0.8789  0.1175
 2936SOL    HW220445   0.270   4.214   2.255 -1.3235  1.2939  0.3430
 2937SOL     OW20446   0.709   0.731   4.011 -0.0784 -0.1866  0.3559
 2937SOL    HW120447   0.740   0.651   3.969  1.2536  0.9525 -0.8276
 2937SOL    HW220448   0.792   0.777   3.999 -1.8719  3.2978  1.1086
 2938SOL     OW20449   2.571   3.359  16.564 -0.0792 -0.1970 -0.4654
 2938SOL    HW120450   2.547   3.346  16.656 -0.0143 -0.0111 -0.4214
 2938SOL    HW220451   2.661   3.391  16.569 -0.4613  0.7905  0.1247
 2939SOL     OW20452   3.470   2.990  13.202  0.3892  0.0959  0.5494
 2939SOL    HW120453   3.501   2.994  13.293  1.8313 -0.2406  0.0779
 2939SOL    HW220454   3.469   2.895  13.190  0.1630  0.4525 -2.2467
 2940SOL     OW20455   3.882   3.897   2.107  0.7336  0.2628 -0.3602
 2940SOL    HW120456   3.829   3.925   2.032  1.3336  2.9368  0.2339
 2940SOL    HW220457   3.902   3.979   2.152 -0.4927  1.2222 -1.5781
 2941SOL     OW20458   2.146   2.853   6.788 -0.2668 -0.0128 -0.3539
 2941SOL    HW120459   2.069   2.799   6.810 -1.6418  2.0314 -0.2157
 2941SOL    HW220460   2.140   2.857   6.693  0.3693 -0.6597 -0.4219
 2942SOL     OW20461   1.729   2.032   3.598 -0.6842 -0.0600 -0.1484
 2942SOL    HW120462   1.774   1.967   3.545 -0.9280 -0.3785  0.0401
 2942SOL    HW220463   1.731   2.097   3.527  1.7706 -1.1085 -1.0105
 2943SOL     OW20464   4.699   2.537  10.026  0.1208 -0.0554 -0.7153
 2943SOL    HW120465   0.008   2.572   9.951  1.2902  1.8167  0.8874
 2943SOL    HW220466   4.634   2.604  10.046 -0.8313 -0.1744 -3.3854
 2944SOL     OW20467   0.288   0.280  15.462  0.1213  0.2100  0.5961
 2944SOL    HW120468   0.281   0.274  15.557  1.5551  0.7281  0.7339
 2944SOL    HW220469   0.382   0.284  15.447  0.3914 -4.3369  1.1213
 2945SOL     OW20470   2.176   3.833   9.982 -0.0957  0.4758 -0.1013
 2945SOL    HW120471   2.140   3.855   9.896 -1.0553  2.3703  0.7998
 2945SOL    HW220472   2.123   3.890  10.037  0.2660  0.1578  0.5777
 2946SOL     OW20473   0.282   1.724   4.365  0.4514 -0.3380 -0.6068
 2946SOL    HW120474   0.270   1.629   4.355 -2.8595  0.0312 -0.2260
 2946SOL    HW220475   0.372   1.725   4.396  0.5948  0.1062 -1.0538
 2947SOL     OW20476   3.153   0.805   0.989  0.1528  1.0566  0.5903
 2947SOL    HW120477   3.206   0.829   0.913 -0.7082 -1.6128 -0.8399
 2947SOL    HW220478   3.089   0.875   0.980 -0.4133  0.5341  0.5133
 2948SOL     OW20479   4.264   0.008   5.743 -0.2580 -0.6222  0.2483
 2948SOL    HW120480   4.244   4.682   5.675  0.0537  0.7533 -1.1672
 2948SOL    HW220481   4.236   0.086   5.695  3.0670 -0.2461 -1.0943
 2949SOL     OW20482   2.791   4.614  14.059 -0.0792 -0.2047 -0.5024
 2949SOL    HW120483   2.850   4.554  14.106 -0.0911  0.5785  0.5202
 2949SOL    HW220484   2.860   4.639  13.998  2.5291 -4.7830  0.5862
 2950SOL     OW20485   4.393   4.235   5.808 -0.1692  0.4784  0.0319
 2950SOL    HW120486   4.362   4.325   5.816  0.8462  0.7923  0.3758
 2950SOL    HW220487   4.362   4.212   5.896 -0.8039  1.6610  0.1102
 2951SOL     OW20488   1.229   4.219   6.022  0.4251  0.2685  0.3283
 2951SOL    HW120489   1.271   4.157   6.081 -1.5717 -0.7488  0.6985
 2951SOL    HW220490   1.208   4.173   5.941 -1.3813  0.3091  0.7624
 2952SOL     OW20491   2.168   4.281   0.527 -0.2754  0.2799 -0.2852
 2952SOL    HW120492   2.121   4.361   0.551 -1.8531 -0.5043 -0.7610
 2952SOL    HW220493   2.209   4.308   0.445  3.1262 -1.6095  0.8041
 2953SOL     OW20494   2.305   3.019   1.228 -0.0736 -0.0708 -0.8932
 2953SOL    HW120495   2.375   2.993   1.168 -0.3356 -2.1698 -0.2875
 2953SOL    HW220496   2.271   3.092   1.176 -0.0181  0.3906 -0.2849
 2954SOL     OW20497   3.399   4.418   4.117 -0.0108  0.2296  1.1067
 2954SOL    HW120498   3.464   4.440   4.050  0.1673 -1.9397  0.5828
 2954SOL    HW220499   3.326   4.400   4.059  0.2260 -0.1969  0.9393
 2955SOL     OW20500   0.736   1.838   4.260  0.3202 -0.2934  0.0716
 2955SOL    HW120501   0.644   1.819   4.280 -0.7174  2.2677 -2.2046
 2955SOL    HW220502   0.727   1.929   4.288  0.7115 -0.6708  1.4135
 2956SOL     OW20503   0.278   4.557   3.432  0.2680 -0.0368 -0.1537
 2956SOL    HW120504   0.239   4.644   3.432 -2.6153 -1.3204 -0.5973
 2956SOL    HW220505   0.213   4.519   3.372 -0.5967 -1.2019  1.5260
 2957SOL     OW20506   0.275   4.522   9.590  0.4375 -0.0184  0.5285
 2957SOL    HW120507   0.219   4.594   9.617 -0.0616 -0.4253  0.5765
 2957SOL    HW220508   0.334   4.506   9.664  0.7056 -1.3448  0.0357
 2958SOL     OW20509   3.311   0.021   2.536 -0.0671 -0.5006  0.1902
 2958SOL    HW120510   3.263   4.723   2.611  0.4433 -1.1093  0.2089
 2958SOL    HW220511   3.377   4.691   2.529 -0.5513 -1.0502  1.0548
 2959SOL     OW20512   2.448   3.565   9.008  0.1991  0.2378 -0.2914
 2959SOL    HW120513   2.427   3.475   9.034 -0.2272  1.1265  2.4558
 2959SOL    HW220514   2.404   3.571   8.923 -0.9376 -0.0290  0.2719
 2960SOL     OW20515   3.197   0.364   5.084 -0.0696  0.0738 -0.1543
 2960SOL    HW120516   3.276   0.403   5.046  0.3523 -0.5753  0.0571
 2960SOL    HW220517   3.165   0.299   5.022 -0.0531 -2.7096  2.7669
 2961SOL     OW20518   4.024   1.806   8.785  0.0198 -0.1166  0.3649
 2961SOL    HW120519   4.031   1.896   8.816  0.5090  0.8247 -2.4603
 2961SOL    HW220520   4.042   1.820   8.692  3.2649 -2.8233  0.5692
 2962SOL     OW20521   4.188   3.734   8.220 -0.3813  0.2434 -0.2440
 2962SOL    HW120522   4.133   3.810   8.204 -1.6857 -0.2663  1.8596
 2962SOL    HW220523   4.130   3.658   8.222  1.1053 -0.8511  1.3153
 2963SOL     OW20524   2.830   4.705   6.789 -0.0641  0.1855 -0.3597
 2963SOL    HW120525   2.843   4.691   6.883 -1.8934 -2.5603 -0.5057
 2963SOL    HW220526   2.918   4.697   6.752  0.6058 -0.5343  1.3567
 2964SOL     OW20527   3.909   0.662   7.688 -0.1608 -0.2362 -0.2696
 2964SOL    HW120528   3.820   0.685   7.715 -0.3696 -0.6748 -0.5805
 2964SOL    HW220529   3.882   0.594   7.626  0.5826  0.0663 -0.9345
 2965SOL     OW20530   4.604   2.235   4.628  0.5471  0.4891 -0.0644
 2965SOL    HW120531   4.533   2.199   4.576  0.6699  1.6396 -1.0333
 2965SOL    HW220532   4.684   2.222   4.577 -0.0078  0.7691 -1.0049
 2966SOL     OW20533   2.829   2.477  11.017  0.3448 -0.1138 -0.3901
 2966SOL    HW120534   2.786   2.430  11.088 -2.2498 -0.9528 -2.5000
 2966SOL    HW220535   2.749   2.502  10.971 -1.4154  0.1068  2.8199
 2967SOL     OW20536   0.031   0.222   0.409  0.3353  0.4356  0.7165
 2967SOL    HW120537   4.717   0.277   0.351  0.8040 -1.1554 -1.1848
 2967SOL    HW220538   0.032   0.291   0.476  0.8465  0.9990  0.1218
 2968SOL     OW20539   3.847   1.292  11.643  0.6293 -0.0557 -0.1228
 2968SOL    HW120540   3.813   1.211  11.604  0.9309 -0.0057 -0.4821
 2968SOL    HW220541   3.906   1.252  11.707  1.5449 -0.5282 -1.2752
 2969SOL     OW20542   4.350   0.623   6.216 -0.0805  0.1034 -0.2072
 2969SOL    HW120543   4.443   0.602   6.210  0.1669  1.3995 -0.7711
 2969SOL    HW220544   4.328   0.575   6.296  1.0020  2.3135  1.3984
 2970SOL     OW20545   0.894   3.702  16.397 -0.1691 -0.2394  0.7859
 2970SOL    HW120546   0.891   3.791  16.362  1.7078 -1.1325 -1.5817
 2970SOL    HW220547   0.989   3.696  16.393 -0.1312 -0.5521  1.9835
 2971SOL     OW20548   0.191   0.499   2.444  0.3788  0.3515  0.1751
 2971SOL    HW120549   0.144   0.506   2.527 -2.8848 -1.2843 -1.5218
 2971SOL    HW220550   0.273   0.527   2.483  0.0780 -0.3027  1.2805
 2972SOL     OW20551   0.670   3.570  16.173 -0.3492 -0.5949 -0.1217
 2972SOL    HW120552   0.709   3.493  16.131  1.3394 -0.5381  1.3519
 2972SOL    HW220553   0.694   3.565  16.266  1.3353  1.1717 -0.4726
 2973SOL     OW20554   3.748   3.201   2.386 -0.0519 -0.3201 -0.1656
 2973SOL    HW120555   3.731   3.138   2.456  0.8395  1.6109  1.7675
 2973SOL    HW220556   3.842   3.218   2.382 -0.3563  1.5813  0.9244
 2974SOL     OW20557   2.676   2.470   5.599  0.8202 -0.2609  0.1010
 2974SOL    HW120558   2.620   2.397   5.625 -0.7133  1.2982  1.1834
 2974SOL    HW220559   2.643   2.474   5.509  1.9121 -0.8877 -0.3310
 2975SOL     OW20560   1.766   2.542   1.974  0.7885 -0.1551  0.4051
 2975SOL    HW120561   1.703   2.494   1.921 -2.0306  1.3700  2.3887
 2975SOL    HW220562   1.839   2.481   1.967  0.0361 -1.0139  0.0019
 2976SOL     OW20563   3.196   4.537   2.650  0.6082 -0.2396  0.4451
 2976SOL    HW120564   3.202   4.443   2.634  2.1688 -0.1832  0.7793
 2976SOL    HW220565   3.100   4.547   2.645  0.6557  0.1958  0.4425
 2977SOL     OW20566   4.176   0.179   8.817  0.1832 -0.2518 -0.0945
 2977SOL    HW120567   4.248   0.142   8.767  0.4122  2.7925 -2.0306
 2977SOL    HW220568   4.103   0.119   8.802  1.1373 -1.6900  0.9934
 2978SOL     OW20569   2.063   4.054  11.548 -0.4253  0.2550 -0.2096
 2978SOL    HW120570   2.105   4.033  11.632 -2.7118 -0.6567  0.7034
 2978SOL    HW220571   2.135   4.025  11.491 -1.1431 -0.0791 -0.9396
 2979SOL     OW20572   2.013   0.700  15.570  0.1639 -0.3601 -0.2414
 2979SOL    HW120573   2.098   0.669  15.538  0.5332 -1.6629  1.9983
 2979SOL    HW220574   1.957   0.630  15.538 -1.0414 -0.2515  1.6526
 2980SOL     OW20575   4.580   1.085   7.070  0.1949  0.0228 -0.1974
 2980SOL    HW120576   4.563   1.009   7.013 -0.1664 -0.5479  0.6723
 2980SOL    HW220577   4.493   1.125   7.077  0.7670  1.0542  0.9599
 2981SOL     OW20578   3.889   0.750   5.819  0.4041 -0.4509  0.2318
 2981SOL    HW120579   3.821   0.683   5.824  0.2326 -0.4407 -1.7449
 2981SOL    HW220580   3.974   0.709   5.804  0.9895 -0.2550  3.0757
 2982SOL     OW20581   4.520   2.938   3.421  0.2392 -0.5476 -0.1182
 2982SOL    HW120582   4.535   2.883   3.497 -0.6937 -0.6913 -0.0443
 2982SOL    HW220583   4.544   3.024   3.455  1.4923 -0.2018 -1.8491
 2983SOL     OW20584   0.382   3.378   7.417  0.0946 -0.1555 -0.1180
 2983SOL    HW120585   0.294   3.403   7.390  0.5394  0.4141 -1.0493
 2983SOL    HW220586   0.420   3.465   7.434 -1.0676 -0.1096  2.2473
 2984SOL     OW20587   2.123   1.905  14.453  0.0355 -0.1105  0.3002
 2984SOL    HW120588   2.067   1.864  14.387  0.7002  0.6807 -0.7522
 2984SOL    HW220589   2.082   1.992  14.455  0.0285 -0.0796 -1.5801
 2985SOL     OW20590   1.628   2.053   6.176 -0.0687  0.0620  0.1674
 2985SOL    HW120591   1.624   1.968   6.132  0.4166 -0.8473  1.9088
 2985SOL    HW220592   1.564   2.108   6.130  0.8531  0.4408 -0.6515
 2986SOL     OW20593   4.010   2.380   4.838  0.2189 -0.1879  0.4101
 2986SOL    HW120594   3.920   2.348   4.831 -0.1053  0.9282 -0.6000
 2986SOL    HW220595   4.059   2.303   4.865  0.3957 -0.5985 -1.0890
 2987SOL     OW20596   4.512   0.073  14.049 -0.5774 -0.1462 -0.1846
 2987SOL    HW120597   4.552   0.054  14.134 -0.2162  1.3558 -0.0182
 2987SOL    HW220598   4.437   0.014  14.050 -0.5845 -0.1441 -0.9583
 2988SOL     OW20599   2.227   2.665   4.446  0.0202 -0.5855  0.4405
 2988SOL    HW120600   2.207   2.615   4.525 -1.6859 -0.6588 -0.0388
 2988SOL    HW220601   2.312   2.633   4.416  0.6750  0.6698  0.9626
 2989SOL     OW20602   2.823   2.482   1.863  0.0518 -0.3790 -0.2379
 2989SOL    HW120603   2.881   2.466   1.937 -0.0198  1.6000  0.2452
 2989SOL    HW220604   2.885   2.514   1.798 -0.1292  2.3743  0.9296
 2990SOL     OW20605   0.388   2.269   6.983  0.5842 -0.0015 -0.5220
 2990SOL    HW120606   0.352   2.252   6.896  1.5481  1.0850 -1.1188
 2990SOL    HW220607   0.308   2.261   7.035 -0.0408 -0.2958 -1.5379
 2991SOL     OW20608   4.035   0.948   4.560 -0.1042 -0.1796 -0.1110
 2991SOL    HW120609   3.974   0.986   4.498 -2.6190 -2.0344  1.2221
 2991SOL    HW220610   4.056   0.863   4.522 -0.3483  0.5364 -1.8551
 2992SOL     OW20611   2.261   0.761   1.347 -0.1972 -0.8478  0.2814
 2992SOL    HW120612   2.223   0.673   1.339 -0.1484 -0.8203 -0.2989
 2992SOL    HW220613   2.269   0.764   1.442  0.8506  0.2642  0.1606
 2993SOL     OW20614   2.365   0.983  16.289 -0.7809  0.1393 -0.1238
 2993SOL    HW120615   2.273   0.993  16.313 -0.9293  2.4169 -1.5950
 2993SOL    HW220616   2.353   0.936  16.207 -0.3716  1.6748 -1.0690
 2994SOL     OW20617   3.475   2.152   8.467 -0.8155 -0.2569 -0.1426
 2994SOL    HW120618   3.419   2.168   8.543 -0.3929 -1.9925  0.5552
 2994SOL    HW220619   3.542   2.216   8.490  0.0740 -1.3926  0.4560
 2995SOL     OW20620   2.630   2.029   9.402 -0.5574  0.3808 -0.1846
 2995SOL    HW120621   2.564   2.014   9.335 -0.1384 -1.4459 -0.1892
 2995SOL    HW220622   2.704   2.014   9.344 -1.6810 -0.0954 -1.4753
 2996SOL     OW20623   4.359   1.492   8.295  0.4161  0.2559 -0.0325
 2996SOL    HW120624   4.389   1.457   8.211 -0.2106 -0.8309  0.1935
 2996SOL    HW220625   4.287   1.435   8.323  0.5149  0.8913  1.5365
 2997SOL     OW20626   1.541   3.692   9.561 -0.2713 -0.2913  0.4223
 2997SOL    HW120627   1.470   3.664   9.619  0.7103 -1.8422  0.8988
 2997SOL    HW220628   1.575   3.606   9.534  1.7113  0.7607 -0.4562
 2998SOL     OW20629   2.776   4.665   9.444 -0.3088 -0.5093  0.3261
 2998SOL    HW120630   2.826   4.735   9.402 -1.2008 -0.7030 -1.0414
 2998SOL    HW220631   2.773   4.708   9.530 -2.3210 -2.6361  1.3089
 2999SOL     OW20632   4.586   0.424   2.825 -0.0369  0.1454 -0.7926
 2999SOL    HW120633   4.505   0.374   2.813  0.1479 -0.4697  0.5365
 2999SOL    HW220634   4.564   0.499   2.881  0.8566  1.5930 -2.3818
 3000SOL     OW20635   1.449   0.579   1.316 -0.2468 -0.0928 -0.2186
 3000SOL    HW120636   1.400   0.600   1.237  0.0053  2.8480  0.4152
 3000SOL    HW220637   1.383   0.530   1.366 -0.2449  1.4915  1.3420
 3001SOL     OW20638   0.984   3.192   7.871  1.0021  0.5261  0.0226
 3001SOL    HW120639   0.952   3.172   7.959  1.5343 -0.1158  0.0724
 3001SOL    HW220640   0.938   3.138   7.807  1.7913  0.9013 -0.8659
 3002SOL     OW20641   1.904   1.461   0.557  0.1914 -0.3692  0.3290
 3002SOL    HW120642   1.995   1.478   0.533  0.8487 -1.4488  2.0296
 3002SOL    HW220643   1.905   1.366   0.554  1.2261 -0.4215  2.2633
 3003SOL     OW20644   3.423   3.875   0.110  0.2091  0.8423  0.2601
 3003SOL    HW120645   3.386   3.826   0.036  1.2224  2.8874 -1.5789
 3003SOL    HW220646   3.501   3.916   0.075  0.2769 -0.0567 -0.6446
 3004SOL     OW20647   3.512   4.551   1.703 -0.5890  0.0472 -0.3602
 3004SOL    HW120648   3.562   4.519   1.778 -1.3617  0.1639  0.1974
 3004SOL    HW220649   3.556   4.635   1.691  1.2335 -0.5043  2.3473
 3005SOL     OW20650   2.889   0.691  10.073 -0.0500 -0.0410 -0.0815
 3005SOL    HW120651   2.833   0.634  10.019 -1.5170  0.2735  1.0936
 3005SOL    HW220652   2.959   0.628  10.088 -0.3502 -0.2394  0.4673
 3006SOL     OW20653   4.410   2.090   3.744  0.1105  0.7167 -0.5583
 3006SOL    HW120654   4.318   2.066   3.759  1.0764 -0.6145  3.2080
 3006SOL    HW220655   4.440   2.024   3.681  1.2002  0.7900 -0.1160
 3007SOL     OW20656   3.150   2.121   4.952  0.6100  0.0270  0.0350
 3007SOL    HW120657   3.180   2.112   5.043  0.0470  0.7913  0.2951
 3007SOL    HW220658   3.071   2.175   4.949  0.4986 -0.0295  2.0670
 3008SOL     OW20659   3.637   3.104   7.885 -0.2697 -0.3235  0.3345
 3008SOL    HW120660   3.693   3.062   7.819  0.4580 -0.6966  1.1860
 3008SOL    HW220661   3.693   3.111   7.962 -1.1896 -0.5283  1.0272
 3009SOL     OW20662   2.066   0.801  17.713 -0.1873  0.5326 -0.2395
 3009SOL    HW120663   2.143   0.838   0.005  1.2832 -0.4682 -1.9447
 3009SOL    HW220664   2.113   0.760  17.640  1.1333 -0.6133  1.2459
 3010SOL     OW20665   3.153   0.429   9.186  0.9278 -0.4944 -0.3189
 3010SOL    HW120666   3.211   0.369   9.139  3.4118 -0.1070  2.2333
 3010SOL    HW220667   3.108   0.470   9.113  0.1721 -1.7715 -0.5730
 3011SOL     OW20668   2.380   2.166   8.839  0.3781 -0.5467  0.5770
 3011SOL    HW120669   2.414   2.249   8.806 -2.0706  0.2570  0.1054
 3011SOL    HW220670   2.286   2.169   8.819  0.6649 -1.5606 -0.8942
 3012SOL     OW20671   0.944   3.296  15.570 -0.8092 -0.0944  0.2661
 3012SOL    HW120672   0.926   3.388  15.553  0.1243 -0.0732 -0.5578
 3012SOL    HW220673   1.033   3.299  15.605 -0.5552  1.6244 -0.5370
 3013SOL     OW20674   4.292   2.822  14.263  0.4168  0.2621  0.0740
 3013SOL    HW120675   4.218   2.834  14.321  0.7954 -1.4241  0.9008
 3013SOL    HW220676   4.254   2.852  14.180 -0.2154 -2.6421 -0.6654
 3014SOL     OW20677   0.100   1.983   4.358  0.2083 -0.3731  0.5416
 3014SOL    HW120678   0.006   1.963   4.365  0.4125 -0.8124  2.0081
 3014SOL    HW220679   0.140   1.905   4.320  0.2363  0.4356 -1.1019
 3015SOL     OW20680   3.251   2.849  12.320  0.0856  0.3498  0.1962
 3015SOL    HW120681   3.340   2.883  12.321  0.3108 -0.3407  3.0167
 3015SOL    HW220682   3.241   2.832  12.226  0.0379  0.1985  0.2285
 3016SOL     OW20683   2.862   2.184   7.238 -0.1992 -0.0049 -0.0455
 3016SOL    HW120684   2.891   2.217   7.323 -0.5145 -0.8135  0.3789
 3016SOL    HW220685   2.903   2.234   7.168 -1.7760  1.7445  0.2876
 3017SOL     OW20686   3.107   4.234   2.994  0.8589 -0.1296 -0.1935
 3017SOL    HW120687   3.174   4.284   3.041 -0.7008  1.2669  0.5878
 3017SOL    HW220688   3.169   4.179   2.948 -1.8045 -1.4984 -2.1637
 3018SOL     OW20689   3.704   2.226   3.631  0.2050  0.0349  0.2236
 3018SOL    HW120690   3.721   2.201   3.722  0.1459 -0.0694  0.2062
 3018SOL    HW220691   3.791   2.218   3.594  0.0924 -2.0287  0.4173
 3019SOL     OW20692   3.818   2.461   7.078 -0.2796  0.5633 -0.5778
 3019SOL    HW120693   3.726   2.488   7.083 -0.4522 -0.3285  0.8426
 3019SOL    HW220694   3.862   2.542   7.103  0.1123  0.0667  0.3431
 3020SOL     OW20695   0.083   3.015   3.172 -0.4556  0.3654  0.5288
 3020SOL    HW120696   0.145   2.944   3.162 -0.8672  0.0283  0.3871
 3020SOL    HW220697   0.118   3.063   3.097  1.4850  1.0652  1.8658
 3021SOL     OW20698   0.113   4.735   2.064  0.3762 -0.2055 -0.3119
 3021SOL    HW120699   0.063   0.076   2.081 -1.0657 -0.7694 -1.9279
 3021SOL    HW220700   0.055   4.668   2.098 -0.3212 -0.4680 -2.0505
 3022SOL     OW20701   1.175   0.620   6.333  0.2355 -0.3976 -0.6540
 3022SOL    HW120702   1.110   0.550   6.324  1.4206 -1.4786 -0.8563
 3022SOL    HW220703   1.141   0.687   6.274 -1.0242 -0.7832 -0.3528
 3023SOL     OW20704   1.823   0.488  12.655  0.0647 -0.0818 -0.0994
 3023SOL    HW120705   1.815   0.578  12.623  0.4277  0.6397  1.8195
 3023SOL    HW220706   1.732   0.469  12.676 -0.4020  0.3819 -1.6908
 3024SOL     OW20707   2.494   3.626   8.152  0.1819 -0.5487 -0.0223
 3024SOL    HW120708   2.526   3.536   8.139 -1.1663 -1.0182 -0.0871
 3024SOL    HW220709   2.504   3.629   8.247 -0.7613  1.3936  0.0151
 3025SOL     OW20710   3.028   2.759   4.366  0.1482  0.5371  0.1643
 3025SOL    HW120711   3.011   2.826   4.300  1.1112 -0.9553 -1.5709
 3025SOL    HW220712   2.938   2.743   4.394  0.7601 -2.0498  0.6952
 3026SOL     OW20713   0.208   1.894   7.999  0.3442 -0.3454  0.0031
 3026SOL    HW120714   0.295   1.857   8.011  0.7702  0.6292 -0.0949
 3026SOL    HW220715   0.183   1.855   7.915 -0.6332 -0.9184  0.5523
 3027SOL     OW20716   0.174   3.801   4.000 -0.0269 -0.1906  0.5563
 3027SOL    HW120717   0.201   3.752   4.078  1.6186 -1.5304 -0.8772
 3027SOL    HW220718   0.155   3.889   4.033 -0.3629  0.1756 -0.6111
 3028SOL     OW20719   3.091   4.661  14.158 -0.0604 -0.4724  0.2169
 3028SOL    HW120720   3.070   4.666  14.065 -0.6378 -0.4895  0.3482
 3028SOL    HW220721   3.042   4.583  14.184 -1.2959 -0.1515 -1.1831
 3029SOL     OW20722   1.241   1.235   8.825 -0.0300 -0.2192  0.3946
 3029SOL    HW120723   1.274   1.325   8.823 -1.1727  0.1841 -0.1220
 3029SOL    HW220724   1.303   1.181   8.874 -0.5126 -2.2848 -1.2518
 3030SOL     OW20725   2.299   2.334   3.455  0.3980 -0.2921 -0.4594
 3030SOL    HW120726   2.233   2.312   3.389  0.0827  1.1119 -0.5991
 3030SOL    HW220727   2.333   2.419   3.428  0.1781 -0.3252 -0.8404
 3031SOL     OW20728   1.259   1.889  14.456  0.0509 -0.0982 -0.0618
 3031SOL    HW120729   1.231   1.799  14.437 -1.9166  0.8154 -1.5357
 3031SOL    HW220730   1.316   1.872  14.530  0.0438  1.9305  0.3995
 3032SOL     OW20731   3.679   1.644   9.789  0.6771 -0.0507 -0.1674
 3032SOL    HW120732   3.723   1.578   9.843  1.4660 -0.1751 -0.9637
 3032SOL    HW220733   3.638   1.704   9.851 -0.9057 -1.8185  0.4911
 3033SOL     OW20734   3.207   4.355  12.199  0.1293  0.3387 -0.0282
 3033SOL    HW120735   3.138   4.412  12.233  0.8126  0.6238  0.8849
 3033SOL    HW220736   3.288   4.385  12.240  0.2315  0.9351 -0.6765
 3034SOL     OW20737   3.574   4.662   9.200 -0.2087 -0.2157  0.3692
 3034SOL    HW120738   3.665   4.634   9.205  0.1200  0.9966  1.3041
 3034SOL    HW220739   3.524   4.601   9.254  2.0382 -0.8772  1.6779
 3035SOL     OW20740   3.113   3.441  16.224  0.6664 -0.9908  0.4186
 3035SOL    HW120741   3.138   3.354  16.256  1.0966 -0.5381  1.3313
 3035SOL    HW220742   3.094   3.485  16.307  2.3551  2.6415 -1.1680
 3036SOL     OW20743   2.882   1.267  15.820 -0.2057 -0.1495  0.2559
 3036SOL    HW120744   2.821   1.341  15.814 -0.9764 -0.7051  1.3314
 3036SOL    HW220745   2.964   1.306  15.788 -0.7507  0.8617  0.0912
 3037SOL     OW20746   4.181   4.017  15.055  0.0609 -0.0017 -0.6559
 3037SOL    HW120747   4.157   3.982  14.969 -2.4995  0.4489 -0.1425
 3037SOL    HW220748   4.104   3.981  15.100 -0.7173  1.5369 -0.7392
 3038SOL     OW20749   2.658   0.731   4.997 -0.5222  0.4069 -0.2962
 3038SOL    HW120750   2.633   0.715   5.088  0.6311  0.4392  0.0310
 3038SOL    HW220751   2.735   0.676   4.980  1.8931  3.5047  0.6590
 3039SOL     OW20752   2.322   2.473   6.522 -0.1711 -0.3170  0.1550
 3039SOL    HW120753   2.291   2.562   6.506  0.8017  0.3609  2.0294
 3039SOL    HW220754   2.279   2.415   6.459 -0.4977  1.2559 -1.0732
 3040SOL     OW20755   0.892   2.552   8.636  0.3711 -0.3376 -0.4380
 3040SOL    HW120756   0.962   2.503   8.593  1.9387  1.1206  0.4570
 3040SOL    HW220757   0.825   2.557   8.569 -0.1557 -0.7991  0.0557
 3041SOL     OW20758   4.247   1.953   7.115  0.0094  0.1378  0.3872
 3041SOL    HW120759   4.201   1.869   7.109  0.9946 -0.1908 -2.7174
 3041SOL    HW220760   4.210   1.994   7.036 -1.3264 -0.4009  0.7273
 3042SOL     OW20761   2.214   2.413   8.919  0.1858  0.0380 -0.2822
 3042SOL    HW120762   2.269   2.401   8.842  0.3960 -2.2195  0.1995
 3042SOL    HW220763   2.221   2.508   8.921 -0.9329  0.1049  0.1094
 3043SOL     OW20764   1.063   3.351   2.519  0.2765  0.3499 -0.7172
 3043SOL    HW120765   1.153   3.340   2.549 -0.4652 -1.1173  1.0255
 3043SOL    HW220766   1.082   3.403   2.442  1.2707 -1.7757 -1.9193
 3044SOL     OW20767   4.128   1.329   1.993 -0.0870  0.1281 -0.7509
 3044SOL    HW120768   4.157   1.406   1.944  2.4036 -0.0004  0.5101
 3044SOL    HW220769   4.134   1.276   1.913 -0.6575 -1.0476 -0.0204
 3045SOL     OW20770   0.304   0.665   1.343  0.8490  0.0891  0.4330
 3045SOL    HW120771   0.210   0.675   1.330  0.7584 -1.9990 -0.4081
 3045SOL    HW220772   0.316   0.759   1.356 -0.2920  0.2207  0.5778
 3046SOL     OW20773   1.005   4.284  16.258  0.0462  0.1904  0.1044
 3046SOL    HW120774   0.983   4.261  16.348 -5.0910  1.2472 -0.8845
 3046SOL    HW220775   1.099   4.278  16.271 -0.1143 -1.9802  0.2413
 3047SOL     OW20776   3.911   3.754   5.910 -0.3223  0.6370 -0.1627
 3047SOL    HW120777   3.987   3.708   5.948 -0.2622  0.8462 -0.0319
 3047SOL    HW220778   3.944   3.843   5.916 -0.6797  0.6256  1.8724
 3048SOL     OW20779   1.642   2.240   1.268 -0.0270 -0.0120 -0.2266
 3048SOL    HW120780   1.684   2.182   1.332 -0.3155 -0.6315 -0.6058
 3048SOL    HW220781   1.704   2.221   1.197 -0.1389 -1.8843  0.1966
 3049SOL     OW20782   4.639   1.005   6.714 -0.0010 -0.5660 -0.0517
 3049SOL    HW120783   4.593   0.949   6.777  1.9401 -1.6609  0.4293
 3049SOL    HW220784   4.637   0.954   6.633  2.5526 -2.0600  0.8123
 3050SOL     OW20785   2.327   2.607  14.988  0.0891 -0.0463  0.1665
 3050SOL    HW120786   2.389   2.580  14.920  0.4390 -0.7045  0.7449
 3050SOL    HW220787   2.375   2.685  15.016  1.1734 -1.7382  3.0740
 3051SOL     OW20788   2.210   3.438   3.897  0.1956 -0.0537 -0.2041
 3051SOL    HW120789   2.192   3.455   3.805  0.2713  2.2834  0.2069
 3051SOL    HW220790   2.134   3.384   3.918  0.3252 -0.9295 -1.9817
 3052SOL     OW20791   1.545   3.876   5.706  0.4466 -0.2690  0.5115
 3052SOL    HW120792   1.595   3.795   5.718  2.7816  1.0155 -0.5895
 3052SOL    HW220793   1.455   3.843   5.703  0.0538  0.7973  0.6576
 3053SOL     OW20794   0.398   0.880   8.152 -0.2116  0.0234 -0.1048
 3053SOL    HW120795   0.372   0.838   8.234 -1.7731 -0.2866 -0.7685
 3053SOL    HW220796   0.390   0.805   8.093 -0.1832  0.1213 -0.2345
 3054SOL     OW20797   0.108   1.940   8.887  0.1891  0.3069 -0.0077
 3054SOL    HW120798   0.105   2.031   8.860  0.2104  0.4722  0.5383
 3054SOL    HW220799   0.015   1.915   8.887  0.3581 -0.3458  0.9875
 3055SOL     OW20800   3.258   3.589   5.698  0.6065  0.3137 -0.0559
 3055SOL    HW120801   3.295   3.516   5.649 -1.1911 -0.7602  0.1588
 3055SOL    HW220802   3.164   3.570   5.692  0.5529  0.2994  0.8558
 3056SOL     OW20803   1.740   2.905  16.215  0.1848 -0.1618  0.1079
 3056SOL    HW120804   1.738   2.994  16.180 -0.5638  0.1570  0.9478
 3056SOL    HW220805   1.660   2.865  16.179 -1.3610  1.9758  1.1536
 3057SOL     OW20806   4.330   3.916  12.383 -0.0527  0.0464 -0.3792
 3057SOL    HW120807   4.294   3.951  12.301  1.7702 -0.1458 -1.2789
 3057SOL    HW220808   4.307   3.982  12.447  3.2850  1.1299 -0.2674
 3058SOL     OW20809   0.556   0.335  15.411  0.3911  0.2483  0.0323
 3058SOL    HW120810   0.616   0.381  15.469 -1.1012  0.5535  1.3512
 3058SOL    HW220811   0.557   0.386  15.330 -2.4786 -0.6295 -0.5524
 3059SOL     OW20812   2.923   0.961   7.404 -0.0463 -0.0753  0.1893
 3059SOL    HW120813   2.943   0.988   7.494  0.9418  1.8257 -0.5930
 3059SOL    HW220814   2.829   0.971   7.417  0.2154  2.4387  0.2579
 3060SOL     OW20815   3.498   1.946   4.946  0.1984  0.4399  0.0898
 3060SOL    HW120816   3.464   1.873   4.894 -1.1741  1.5336 -0.5501
 3060SOL    HW220817   3.510   1.907   5.033 -0.9579 -0.9004 -0.3382
 3061SOL     OW20818   4.010   3.045   7.425  0.1269 -0.2301  0.0115
 3061SOL    HW120819   3.955   3.084   7.494  2.1179  3.2178 -0.3817
 3061SOL    HW220820   3.939   3.015   7.369  0.7643  1.5994 -1.7690
 3062SOL     OW20821   3.657   0.830   6.960  0.2061  0.2618  0.5675
 3062SOL    HW120822   3.599   0.804   6.888  1.2870  4.5554 -1.8537
 3062SOL    HW220823   3.598   0.819   7.034 -0.2255 -1.3805 -0.0156
 3063SOL     OW20824   4.349   1.217   6.052 -0.1356  0.2768 -0.0406
 3063SOL    HW120825   4.313   1.197   5.966 -1.2892  3.2671 -0.2630
 3063SOL    HW220826   4.316   1.149   6.110  1.2739 -0.3028  0.0717
 3064SOL     OW20827   0.657   1.094   5.551 -0.2929 -0.0386 -0.4441
 3064SOL    HW120828   0.579   1.128   5.507 -1.8146 -1.5683  1.0438
 3064SOL    HW220829   0.697   1.034   5.488  2.6526 -0.2197  1.5708
 3065SOL     OW20830   1.986   2.623  13.764 -0.6549  0.4540  0.8814
 3065SOL    HW120831   2.034   2.640  13.683  1.9132 -0.9354  2.1022
 3065SOL    HW220832   2.059   2.650  13.820  0.0696  0.3007  0.0058
 3066SOL     OW20833   1.469   3.765   4.335 -0.3811 -0.5582  0.2214
 3066SOL    HW120834   1.529   3.703   4.377  1.2042  2.1122  1.8984
 3066SOL    HW220835   1.527   3.831   4.297 -1.7546  0.2614 -0.4365
 3067SOL     OW20836   4.660   3.936   8.436 -0.2311 -0.4540  0.1536
 3067SOL    HW120837   4.632   3.955   8.346 -3.2764  1.6475  1.5236
 3067SOL    HW220838   4.663   3.840   8.433  1.5808 -0.5125  3.8465
 3068SOL     OW20839   1.139   0.813   3.675 -0.0154 -0.2713 -0.4814
 3068SOL    HW120840   1.229   0.779   3.678 -0.4345 -1.2513  1.6044
 3068SOL    HW220841   1.147   0.880   3.743 -0.2575 -1.0292  0.2992
 3069SOL     OW20842   2.139   0.512   4.328  0.3158  0.0590  0.0154
 3069SOL    HW120843   2.171   0.426   4.357  1.5160  1.1500  1.9509
 3069SOL    HW220844   2.045   0.495   4.334 -0.0088  0.2125 -4.9248
 3070SOL     OW20845   1.010   2.860   2.531  0.1830  0.0042  0.0504
 3070SOL    HW120846   1.041   2.869   2.621  0.6278 -1.2838  0.0212
 3070SOL    HW220847   1.014   2.765   2.525 -0.5168 -0.2809  4.3368
 3071SOL     OW20848   1.136   2.465   1.665  0.1063 -0.2795  0.1143
 3071SOL    HW120849   1.183   2.429   1.590  1.4357  0.6321  0.4932
 3071SOL    HW220850   1.133   2.559   1.646 -2.1626 -0.7442 -1.7173
 3072SOL     OW20851   4.176   0.376   7.759  0.2622 -0.0542  0.7237
 3072SOL    HW120852   4.096   0.324   7.749  1.3353 -1.7333  0.8255
 3072SOL    HW220853   4.138   0.459   7.788 -1.7539 -1.2146  1.4338
 3073SOL     OW20854   4.090   2.010  11.213 -0.2952  0.7003 -0.4734
 3073SOL    HW120855   4.137   1.944  11.263 -0.1804  1.3294  0.2427
 3073SOL    HW220856   4.082   2.085  11.272 -4.0942  0.0439 -0.0979
 3074SOL     OW20857   1.234   4.041  17.695  0.4838  0.5123 -0.0522
 3074SOL    HW120858   1.326   4.018  17.686 -0.1440 -2.4948  1.1220
 3074SOL    HW220859   1.190   3.974  17.643  1.1974  0.7407 -0.9405
 3075SOL     OW20860   1.379   1.822   3.144 -0.0083  0.1591 -0.2641
 3075SOL    HW120861   1.356   1.740   3.187  1.6164 -0.0064  0.3116
 3075SOL    HW220862   1.400   1.796   3.054 -3.5370 -1.0356 -0.7350
 3076SOL     OW20863   4.362   3.728   6.736  1.0308 -0.0873 -0.3957
 3076SOL    HW120864   4.368   3.638   6.767 -2.3562 -0.4890 -0.9597
 3076SOL    HW220865   4.362   3.784   6.813  0.6573 -1.0542  0.2997
 3077SOL     OW20866   1.413   0.193   8.532 -0.2058  0.8232  0.3104
 3077SOL    HW120867   1.478   0.132   8.497 -1.8914  0.1332 -1.6208
 3077SOL    HW220868   1.366   0.144   8.600 -1.0014 -0.5577 -1.2528
 3078SOL     OW20869   0.716   2.673  11.936  0.3017 -0.9614 -0.1748
 3078SOL    HW120870   0.688   2.699  11.848  0.5837 -2.1242 -0.6040
 3078SOL    HW220871   0.667   2.739  11.985 -0.0192 -0.7684 -0.7491
 3079SOL     OW20872   4.238   3.865   3.230 -0.1364  0.3831 -0.2512
 3079SOL    HW120873   4.188   3.945   3.214 -1.5204  0.2844  3.3775
 3079SOL    HW220874   4.312   3.872   3.170  2.4542  0.9872  3.0176
 3080SOL     OW20875   3.842   1.611  11.224  0.7276 -0.5934  0.0790
 3080SOL    HW120876   3.797   1.587  11.143  1.0166 -1.2634  0.1175
 3080SOL    HW220877   3.858   1.523  11.256 -1.3701 -0.5753  1.1677
 3081SOL     OW20878   0.990   1.788  12.864 -0.4280 -0.1811 -0.0590
 3081SOL    HW120879   1.047   1.738  12.921 -0.6891 -1.3848 -0.8417
 3081SOL    HW220880   0.917   1.809  12.922  1.5591  0.3074  2.2187
 3082SOL     OW20881   2.243   0.604   4.618 -0.3206 -0.3450 -0.1735
 3082SOL    HW120882   2.229   0.573   4.529 -1.4488  1.7301 -0.7176
 3082SOL    HW220883   2.288   0.529   4.657 -1.5869 -0.6898  0.6360
 3083SOL     OW20884   0.272   1.027  17.462  0.3747 -0.1796  0.1171
 3083SOL    HW120885   0.180   1.016  17.436 -0.1866  1.3263  1.4330
 3083SOL    HW220886   0.328   1.010  17.386  1.1259  1.2339  0.3457
 3084SOL     OW20887   0.931   0.184   4.402  0.5437 -0.1691  0.1152
 3084SOL    HW120888   0.971   0.235   4.332 -0.0408 -2.3006 -1.7475
 3084SOL    HW220889   0.883   0.254   4.448  0.8911 -0.3633  0.7677
 3085SOL     OW20890   1.603   2.801   7.652 -0.4072  0.2313  0.2718
 3085SOL    HW120891   1.619   2.708   7.666 -1.7357 -0.1170 -0.4419
 3085SOL    HW220892   1.629   2.837   7.737 -1.4764 -0.3699  0.8637
 3086SOL     OW20893   0.402   0.200  12.877  0.1561  0.1650  0.1262
 3086SOL    HW120894   0.441   0.172  12.960  2.5992  0.8131 -0.8086
 3086SOL    HW220895   0.421   0.125  12.822  1.6067 -0.2825  1.2397
 3087SOL     OW20896   4.445   1.081   4.852  0.6761 -0.8381  0.1491
 3087SOL    HW120897   4.512   1.132   4.899  1.0999 -2.9776  1.8985
 3087SOL    HW220898   4.464   1.103   4.761 -2.3485  0.5616 -0.1207
 3088SOL     OW20899   0.765   2.105   3.632  0.5748 -0.4647  0.4202
 3088SOL    HW120900   0.856   2.133   3.622  0.4248 -0.2487 -0.2978
 3088SOL    HW220901   0.724   2.173   3.579 -2.3219 -1.2257  1.6700
 3089SOL     OW20902   0.070   2.259   5.328 -0.3214  0.1149 -0.4371
 3089SOL    HW120903   0.021   2.339   5.344  1.1881  0.9067  0.2339
 3089SOL    HW220904   0.021   2.189   5.371  2.1339 -1.8427 -0.8102
 3090SOL     OW20905   4.631   0.494   4.200  0.3296 -0.3612  0.3058
 3090SOL    HW120906   4.719   0.530   4.187  0.5734 -0.2476  2.2694
 3090SOL    HW220907   4.665   0.404   4.199  0.8465 -0.1676 -0.1499
 3091SOL     OW20908   2.950   1.212  15.263 -0.3002  0.2177  0.0081
 3091SOL    HW120909   2.967   1.289  15.208  0.0605  1.7154  2.2303
 3091SOL    HW220910   2.906   1.258  15.334 -0.8838 -1.0729  0.4755
 3092SOL     OW20911   2.712   0.812  12.769  0.1297 -0.5145  0.2861
 3092SOL    HW120912   2.658   0.872  12.718  1.4505  0.1259 -0.3461
 3092SOL    HW220913   2.659   0.732  12.760 -1.0439  0.4264 -1.0432
 3093SOL     OW20914   1.469   1.809   3.588  0.1529  0.3305  0.3024
 3093SOL    HW120915   1.460   1.876   3.520 -2.6813 -0.3234  0.0393
 3093SOL    HW220916   1.384   1.816   3.631 -0.2765 -0.5709 -0.3882
 3094SOL     OW20917   0.364   4.397   8.644 -0.0579 -0.5509 -0.1731
 3094SOL    HW120918   0.429   4.394   8.574  0.6822  0.8349  0.4384
 3094SOL    HW220919   0.412   4.349   8.712 -1.7832 -2.2425 -0.1624
 3095SOL     OW20920   3.122   3.399   3.063  0.1256  0.1815  0.0044
 3095SOL    HW120921   3.195   3.439   3.017  0.2598  0.0167  0.0735
 3095SOL    HW220922   3.125   3.458   3.138  0.1226  1.4163 -0.9623
 3096SOL     OW20923   2.240   2.065   0.847  0.6913 -0.2764 -0.2316
 3096SOL    HW120924   2.308   2.089   0.910 -2.0567  0.8346  2.2938
 3096SOL    HW220925   2.220   2.153   0.816 -1.7360 -0.7859 -0.1225
 3097SOL     OW20926   3.819   1.052  14.081  0.3543  0.0873 -0.0209
 3097SOL    HW120927   3.816   0.956  14.083 -1.5286  0.0976 -1.6179
 3097SOL    HW220928   3.903   1.072  14.121  1.3109 -2.1675 -0.9020
 3098SOL     OW20929   4.321   2.574   3.593 -0.0052  0.0306  0.2645
 3098SOL    HW120930   4.344   2.660   3.628 -0.0232  0.2694 -0.3077
 3098SOL    HW220931   4.372   2.509   3.641 -0.2480 -0.5277 -0.2313
 3099SOL     OW20932   2.640   3.293   8.872 -0.9711 -0.7551  0.2914
 3099SOL    HW120933   2.550   3.307   8.902 -0.3678  0.5762  1.4324
 3099SOL    HW220934   2.660   3.207   8.908  0.4894 -0.2966  0.5729
 3100SOL     OW20935   2.480   0.535   7.656  0.4329  0.0512 -0.0151
 3100SOL    HW120936   2.441   0.486   7.584  0.2640  2.1528 -1.3644
 3100SOL    HW220937   2.400   0.558   7.702  2.0557  1.9872  1.8343
 3101SOL     OW20938   0.164   0.415   2.195  0.2455 -0.1650  0.3733
 3101SOL    HW120939   0.098   0.347   2.210 -1.0243  0.9876 -0.0154
 3101SOL    HW220940   0.193   0.443   2.282  0.8629  2.2985 -0.6290
 3102SOL     OW20941   2.278   4.441   5.042  0.5516  0.1513  0.4801
 3102SOL    HW120942   2.303   4.374   5.106  0.1345 -1.8544 -1.4818
 3102SOL    HW220943   2.344   4.439   4.973 -0.2671 -2.2673 -0.2074
 3103SOL     OW20944   2.484   1.975   9.176 -0.3820  0.1279 -0.2979
 3103SOL    HW120945   2.507   1.952   9.087  0.6791 -0.6086  0.1745
 3103SOL    HW220946   2.415   1.916   9.207 -1.9757  1.2578 -1.6773
 3104SOL     OW20947   2.261   3.059   5.912 -0.6921 -0.9736  0.4782
 3104SOL    HW120948   2.285   3.056   6.004  0.0333 -3.2778  0.2132
 3104SOL    HW220949   2.331   3.002   5.880 -1.2299 -0.5670 -1.4628
 3105SOL     OW20950   0.073   1.818   3.431  0.6556 -0.0104 -0.3552
 3105SOL    HW120951   0.124   1.751   3.385  2.4147  1.1047 -0.0562
 3105SOL    HW220952   0.124   1.860   3.501 -0.1709 -1.1422  0.9086
 3106SOL     OW20953   2.796   1.731   7.898  0.3637  0.2666 -0.1810
 3106SOL    HW120954   2.797   1.676   7.977 -0.5798  0.1850 -0.2243
 3106SOL    HW220955   2.783   1.670   7.825 -0.0848  0.2573 -0.0957
 3107SOL     OW20956   4.551   2.814  13.717 -0.0516 -0.1011  0.1326
 3107SOL    HW120957   4.579   2.821  13.808 -1.2825  1.7581  0.3603
 3107SOL    HW220958   4.567   2.720  13.707  0.5276  0.0675 -0.4881
 3108SOL     OW20959   2.803   0.394   3.873 -0.0567  0.4616 -0.1521
 3108SOL    HW120960   2.738   0.418   3.808  1.0042  0.6467 -1.1532
 3108SOL    HW220961   2.875   0.391   3.810  1.7466  1.1215  1.8697
 3109SOL     OW20962   4.349   2.332   3.007 -0.0737 -0.0648 -0.0619
 3109SOL    HW120963   4.271   2.322   3.061  0.2729  0.3617  0.5061
 3109SOL    HW220964   4.375   2.241   2.993 -1.2214 -0.0052 -2.5708
 3110SOL     OW20965   0.942   3.036   4.692 -0.5468 -0.6350  0.0661
 3110SOL    HW120966   0.951   3.084   4.775 -0.4588 -1.2111  0.3890
 3110SOL    HW220967   1.008   3.083   4.641  1.5001 -2.2998  1.1618
 3111SOL     OW20968   0.361   0.348   3.618  0.7841  0.2663  0.4530
 3111SOL    HW120969   0.375   0.255   3.639 -0.5956 -0.4621 -1.7814
 3111SOL    HW220970   0.282   0.366   3.668 -0.2734  0.3308 -1.2504
 3112SOL     OW20971   0.415   3.573   5.291  0.0039 -0.6917 -0.1000
 3112SOL    HW120972   0.397   3.485   5.260 -1.7880 -0.5978  0.7185
 3112SOL    HW220973   0.445   3.611   5.208 -1.0690  2.1241  0.7917
 3113SOL     OW20974   0.462   2.987   5.869  0.4049  0.4316  0.5367
 3113SOL    HW120975   0.391   3.024   5.817 -0.7160 -2.3973  0.0687
 3113SOL    HW220976   0.525   3.002   5.799 -3.5399  2.0764 -2.6758
 3114SOL     OW20977   0.861   1.117  11.994  0.1672 -0.1417  0.1613
 3114SOL    HW120978   0.837   1.161  11.912  0.1203 -0.5548 -0.0424
 3114SOL    HW220979   0.808   1.174  12.050  0.5645  1.0742 -0.6914
 3115SOL     OW20980   3.952   0.339  16.884 -0.0703  0.5468 -0.4479
 3115SOL    HW120981   3.947   0.380  16.797 -0.2131 -2.1875 -1.7175
 3115SOL    HW220982   3.909   0.404  16.939 -1.5656 -0.9822  0.1950
 3116SOL     OW20983   2.224   1.332  11.260 -0.0038 -0.4788  0.1453
 3116SOL    HW120984   2.252   1.284  11.182  0.6222 -1.2744  0.8511
 3116SOL    HW220985   2.226   1.261  11.325 -1.7115 -0.3851  0.3018
 3117SOL     OW20986   2.936   0.978   6.149  0.3548  0.6237 -0.3672
 3117SOL    HW120987   2.962   1.070   6.154  3.5566 -0.2811 -0.1389
 3117SOL    HW220988   2.952   0.963   6.056  3.2997  3.5441 -0.3600
 3118SOL     OW20989   1.716   1.984  11.964 -0.1377  0.2135  0.2040
 3118SOL    HW120990   1.729   1.996  11.870  0.6043 -1.2130  0.1283
 3118SOL    HW220991   1.771   1.909  11.987 -2.1515 -1.3049  0.0171
 3119SOL     OW20992   0.719   4.705   3.546  0.2812  0.0344  0.3699
 3119SOL    HW120993   0.644   4.646   3.559 -0.6448  1.0547 -0.3887
 3119SOL    HW220994   0.712   0.018   3.626 -0.2665  0.2294  0.1925
 3120SOL     OW20995   3.260   2.492   5.565  0.0468  0.1450  0.1644
 3120SOL    HW120996   3.182   2.471   5.513  1.0018  0.5200 -1.4228
 3120SOL    HW220997   3.266   2.417   5.624  2.0388 -0.7733 -1.1860
 3121SOL     OW20998   2.167   0.098   1.769  0.2661 -0.3086 -0.3881
 3121SOL    HW120999   2.188   0.139   1.685 -1.2912  1.9416  0.3425
 3121SOL    HW221000   2.132   0.167   1.825  1.0428 -0.4499  0.2664
 3122SOL     OW21001   0.590   1.677   7.381  0.0633  0.2601 -0.4378
 3122SOL    HW121002   0.556   1.765   7.395  1.6472  0.7594  0.2949
 3122SOL    HW221003   0.531   1.613   7.421  0.8143 -0.7091 -0.8708
 3123SOL     OW21004   2.088   3.456  10.570  0.4972  0.1418  0.0024
 3123SOL    HW121005   2.000   3.492  10.562  0.3571 -0.6368 -1.9158
 3123SOL    HW221006   2.121   3.505  10.645  1.0441  0.8819 -0.7289
 3124SOL     OW21007   4.079   1.918   5.786 -0.6540  0.1453 -0.0668
 3124SOL    HW121008   3.990   1.953   5.791  0.1221  2.3715 -1.7854
 3124SOL    HW221009   4.109   1.930   5.696 -0.0259 -1.0248 -0.0118
 3125SOL     OW21010   1.684   2.297  16.149 -0.3536  0.2236 -0.0427
 3125SOL    HW121011   1.652   2.387  16.155  1.1916  0.6893  1.0197
 3125SOL    HW221012   1.601   2.256  16.174 -1.6341  2.8241 -0.0026
 3126SOL     OW21013   0.584   1.736   3.395 -0.1781  0.1627  0.4455
 3126SOL    HW121014   0.541   1.817   3.422 -0.9676 -0.0542 -0.1553
 3126SOL    HW221015   0.651   1.764   3.333 -1.1397  0.7002 -0.3403
 3127SOL     OW21016   1.767   2.462   7.189  0.0821 -0.2754 -0.3655
 3127SOL    HW121017   1.782   2.367   7.197  2.5051  0.1955  0.5515
 3127SOL    HW221018   1.718   2.482   7.269  2.1091  0.4659  0.6716
 3128SOL     OW21019   4.128   3.225   9.827  0.8877 -0.9186 -0.1400
 3128SOL    HW121020   4.181   3.224   9.747  1.0695 -1.8572 -0.0072
 3128SOL    HW221021   4.044   3.188   9.801 -1.2088  0.7310  4.3457
 3129SOL     OW21022   4.119   2.751   8.890  0.3190  0.1542 -0.1441
 3129SOL    HW121023   4.045   2.769   8.832 -0.3629 -0.8478  0.4054
 3129SOL    HW221024   4.113   2.824   8.950 -4.1162 -1.5896  1.5521
 3130SOL     OW21025   3.748   1.341  17.332  0.3866  0.0325 -0.5394
 3130SOL    HW121026   3.689   1.298  17.394 -1.0149  1.7630 -0.6914
 3130SOL    HW221027   3.825   1.359  17.386  1.3070 -2.6089 -0.9670
 3131SOL     OW21028   1.507   4.285   8.872 -0.1762 -0.0525  0.1281
 3131SOL    HW121029   1.586   4.299   8.820 -0.3868  0.1865 -0.1315
 3131SOL    HW221030   1.505   4.354   8.937  0.0397 -0.6333  0.7512
 3132SOL     OW21031   1.010   3.231   4.884  0.6440 -0.4191 -0.0730
 3132SOL    HW121032   1.084   3.259   4.830 -2.1432  3.2427 -1.9578
 3132SOL    HW221033   0.958   3.311   4.882  2.0084  0.4548 -0.9136
 3133SOL     OW21034   2.202   0.890  11.075  0.4050 -0.1647  0.0870
 3133SOL    HW121035   2.160   0.833  11.011 -1.5097 -0.9539  2.0853
 3133SOL    HW221036   2.288   0.850  11.081  0.1113 -0.6923  0.7153
 3134SOL     OW21037   0.032   1.659  11.434  0.2715 -0.4909  0.5400
 3134SOL    HW121038   4.699   1.608  11.473  2.0449 -1.8293  2.0242
 3134SOL    HW221039   4.727   1.735  11.396  1.4243 -0.6108 -1.0379
 3135SOL     OW21040   3.847   1.472   8.449  0.2893 -0.2737  0.9135
 3135SOL    HW121041   3.849   1.488   8.355  1.1737  0.3349  1.0314
 3135SOL    HW221042   3.768   1.515   8.482  0.3060  2.8331 -3.1369
 3136SOL     OW21043   2.322   2.204   2.018  0.3482  0.0514 -0.0509
 3136SOL    HW121044   2.400   2.258   2.004 -0.1634  0.9817  0.7158
 3136SOL    HW221045   2.365   2.122   2.046 -1.0075 -0.4500  0.5566
 3137SOL     OW21046   4.174   4.298   9.063 -0.1380 -0.4302 -0.0653
 3137SOL    HW121047   4.176   4.235   9.135 -1.3918 -0.3017  0.0719
 3137SOL    HW221048   4.224   4.363   9.112 -0.8694 -0.1089  0.2415
 3138SOL     OW21049   2.471   0.042   7.806 -0.3409  0.3341 -0.0038
 3138SOL    HW121050   2.551   0.031   7.754 -1.7536  0.7757 -2.2357
 3138SOL    HW221051   2.490   4.716   7.875  1.0177  0.4101 -0.3043
 3139SOL     OW21052   4.142   1.277   5.355 -0.1638  0.1019 -0.5499
 3139SOL    HW121053   4.218   1.239   5.399 -0.1950 -2.2639 -2.5560
 3139SOL    HW221054   4.111   1.198   5.311  0.3304  0.2339 -1.1291
 3140SOL     OW21055   1.119   2.989  17.554  0.2262 -0.4645  0.5388
 3140SOL    HW121056   1.024   2.989  17.542 -0.1251 -1.9643  3.2246
 3140SOL    HW221057   1.121   2.979  17.650  0.6958  0.1146  0.5896
 3141SOL     OW21058   0.192   4.115   9.035  0.4558 -1.1347 -0.4366
 3141SOL    HW121059   0.167   4.124   9.127  1.0269  0.6150 -0.4421
 3141SOL    HW221060   0.285   4.092   9.040 -0.1244 -3.0849  1.1229
 3142SOL     OW21061   3.729   1.650   3.072 -0.0975 -0.7497 -0.5853
 3142SOL    HW121062   3.652   1.700   3.044 -0.2427  0.2779  1.5843
 3142SOL    HW221063   3.691   1.568   3.102  1.6418 -1.0712  0.7383
 3143SOL     OW21064   0.295   3.406   4.869  0.0136 -0.7957  0.2331
 3143SOL    HW121065   0.219   3.384   4.924 -0.9655 -0.2340 -0.9211
 3143SOL    HW221066   0.269   3.369   4.785 -2.4614 -1.7273  1.4034
 3144SOL     OW21067   4.148   4.241   7.804  0.0699 -0.0068  0.2674
 3144SOL    HW121068   4.101   4.236   7.721 -1.1975  0.8577  0.9441
 3144SOL    HW221069   4.122   4.155   7.839  1.3827 -0.9336 -1.0227
 3145SOL     OW21070   2.122   4.360   8.215 -0.1503 -0.9312  0.2240
 3145SOL    HW121071   2.078   4.278   8.237  2.4624 -2.6656 -1.1045
 3145SOL    HW221072   2.044   4.416   8.218  0.3743 -0.2018  0.3108
 3146SOL     OW21073   4.356   4.154   6.080  0.6320  0.4026  1.1822
 3146SOL    HW121074   4.313   4.109   6.152 -0.1942 -0.4337  0.1702
 3146SOL    HW221075   4.425   4.089   6.067  0.0849 -0.1157  0.8773
 3147SOL     OW21076   3.788   1.750   1.591 -0.0319 -0.0573  0.2741
 3147SOL    HW121077   3.762   1.703   1.670  3.2268 -3.2290 -0.5357
 3147SOL    HW221078   3.751   1.696   1.522 -2.3849 -0.0742  1.5628
 3148SOL     OW21079   0.920   1.471   5.892  0.1878  0.3440 -0.5806
 3148SOL    HW121080   1.015   1.468   5.901  0.2028 -0.1891 -0.8911
 3148SOL    HW221081   0.915   1.437   5.803 -3.1080 -1.3470  0.2279
 3149SOL     OW21082   3.596   4.236   3.100  0.2007  0.2477  0.0961
 3149SOL    HW121083   3.664   4.191   3.150 -0.0760  0.5875  0.7772
 3149SOL    HW221084   3.584   4.181   3.023  1.3563  1.3896 -0.8981
 3150SOL     OW21085   1.939   3.309   1.862  0.0325  0.3135 -0.3149
 3150SOL    HW121086   1.865   3.371   1.861 -0.1599  0.1130  1.0716
 3150SOL    HW221087   1.898   3.225   1.883  0.5243 -0.6034 -3.0154
 3151SOL     OW21088   0.491   3.739   7.190 -0.6820 -0.0154 -0.6050
 3151SOL    HW121089   0.501   3.673   7.122 -0.8527 -0.4875 -0.1645
 3151SOL    HW221090   0.401   3.765   7.172  0.0807  2.2815 -1.2131
 3152SOL     OW21091   1.459   4.486   4.150  0.3218  0.3069 -0.4535
 3152SOL    HW121092   1.454   4.492   4.055 -1.7745  0.6468 -0.3236
 3152SOL    HW221093   1.387   4.428   4.176 -0.9356  1.1636 -2.0114
 3153SOL     OW21094   3.770   1.682   6.699  0.2148 -0.6252  0.4879
 3153SOL    HW121095   3.856   1.674   6.659  0.3766  0.8379  0.5372
 3153SOL    HW221096   3.775   1.774   6.726 -1.3545  0.2594 -2.2280
 3154SOL     OW21097   2.915   1.251   4.597  0.0040 -0.4644 -0.5119
 3154SOL    HW121098   2.941   1.164   4.565 -0.3698 -1.0136  0.6492
 3154SOL    HW221099   2.842   1.265   4.537 -0.3172 -1.4073 -0.3468
 3155SOL     OW21100   0.456   2.434   1.722  0.6095 -0.7867  0.4518
 3155SOL    HW121101   0.535   2.443   1.669  1.0774 -1.9846  0.9576
 3155SOL    HW221102   0.472   2.356   1.775 -0.9267 -1.1602  0.3608
 3156SOL     OW21103   1.298   1.632  15.874 -0.1269 -0.0626  0.0940
 3156SOL    HW121104   1.214   1.656  15.911  0.8358  2.9102  0.3465
 3156SOL    HW221105   1.320   1.550  15.918  1.0537  0.6699  0.8798
 3157SOL     OW21106   0.663   1.438   4.250  0.4862  0.4511 -0.0344
 3157SOL    HW121107   0.617   1.452   4.167 -2.4622  0.1741  1.5809
 3157SOL    HW221108   0.746   1.471   4.216  0.0628 -0.1568 -1.6467
 3158SOL     OW21109   3.250   4.178   9.608 -1.0100  0.3438  0.1858
 3158SOL    HW121110   3.325   4.227   9.573 -1.0242 -0.9436 -1.6368
 3158SOL    HW221111   3.243   4.213   9.697  0.8693  0.9755  0.0905
 3159SOL     OW21112   0.079   0.039   3.337 -0.5558 -0.5251  0.0883
 3159SOL    HW121113   0.004   4.725   3.310 -0.2242 -0.5172 -0.8556
 3159SOL    HW221114   0.059   0.062   3.428  0.4803  0.6445  0.0258
 3160SOL     OW21115   3.077   2.337   3.602  0.0159  0.0560  0.5301
 3160SOL    HW121116   3.030   2.413   3.570 -0.4858 -0.5478 -0.1706
 3160SOL    HW221117   3.108   2.373   3.685 -0.1292  2.4948 -0.5075
 3161SOL     OW21118   3.825   4.338   1.134 -0.1993  0.3763  0.0577
 3161SOL    HW121119   3.787   4.417   1.175 -1.6596  0.6107 -1.7432
 3161SOL    HW221120   3.918   4.358   1.131 -0.6181  2.1920 -0.7863
 3162SOL     OW21121   3.237   3.638  11.004  0.0411 -0.1745  0.1088
 3162SOL    HW121122   3.204   3.654  11.092 -1.0101  1.0910 -0.5257
 3162SOL    HW221123   3.164   3.592  10.963 -0.4753 -0.6345  1.5454
 3163SOL     OW21124   2.942   3.982   4.593  0.1740  0.0117  0.1407
 3163SOL    HW121125   2.992   4.038   4.653  2.6680 -1.8634 -0.1812
 3163SOL    HW221126   2.867   4.033   4.563 -1.1338 -2.7644 -1.2281
 3164SOL     OW21127   1.464   2.484   1.147  0.3477 -0.3484  0.9766
 3164SOL    HW121128   1.458   2.454   1.056 -0.3330  4.8681 -0.7190
 3164SOL    HW221129   1.518   2.417   1.189  0.3972 -0.3149  0.9656
 3165SOL     OW21130   1.979   0.640   3.027 -0.9161 -0.0885  0.3965
 3165SOL    HW121131   1.897   0.689   3.032  0.1069  1.7464 -0.9481
 3165SOL    HW221132   1.998   0.631   3.121 -1.1736  0.2445  0.4804
 3166SOL     OW21133   3.617   0.545   4.814 -0.2168 -0.3434 -0.2523
 3166SOL    HW121134   3.642   0.556   4.722  0.5633 -1.1279 -0.1362
 3166SOL    HW221135   3.704   0.548   4.854 -0.8640 -0.8169  1.1820
 3167SOL     OW21136   2.139   3.514   3.232 -0.6289 -0.7122 -0.7078
 3167SOL    HW121137   2.150   3.555   3.147 -0.9821  0.6937 -0.0774
 3167SOL    HW221138   2.180   3.574   3.294  2.0475 -1.5352 -1.7021
 3168SOL     OW21139   1.506   4.014   8.968  0.1914 -0.2903  0.5202
 3168SOL    HW121140   1.441   4.002   9.038 -0.7763 -1.7285 -0.6437
 3168SOL    HW221141   1.489   4.106   8.948 -0.1308 -0.3801  0.3839
 3169SOL     OW21142   1.131   1.449   0.943  0.3149 -0.1332 -0.5596
 3169SOL    HW121143   1.102   1.496   0.864  0.9813  0.6376 -0.3373
 3169SOL    HW221144   1.226   1.448   0.935  0.3412 -1.1730 -0.0466
 3170SOL     OW21145   0.943   2.496   5.641 -0.5521  0.3509 -0.0100
 3170SOL    HW121146   1.008   2.450   5.588 -0.2407  1.6927 -0.7943
 3170SOL    HW221147   0.987   2.494   5.726 -0.4995  0.9630 -0.0221
 3171SOL     OW21148   1.808   0.540   0.338 -0.3975 -0.6197  0.5441
 3171SOL    HW121149   1.843   0.582   0.259 -0.0806 -0.4118  0.7962
 3171SOL    HW221150   1.888   0.501   0.373 -0.4179 -0.6572  0.5485
 3172SOL     OW21151   3.676   3.570   4.135  0.0206 -0.2726 -0.1705
 3172SOL    HW121152   3.718   3.513   4.199  0.3410  0.6139  0.4004
 3172SOL    HW221153   3.704   3.650   4.178 -1.0964 -0.9788  1.8862
 3173SOL     OW21154   3.008   0.702   7.216  0.8217  0.1284 -0.9460
 3173SOL    HW121155   3.091   0.735   7.250  0.0618  1.6013 -0.5003
 3173SOL    HW221156   2.958   0.784   7.211  1.3848  0.7073  2.4086
 3174SOL     OW21157   1.693   1.729   9.459  0.0567 -0.6053 -0.3473
 3174SOL    HW121158   1.685   1.779   9.540 -3.6183 -0.2835 -0.9408
 3174SOL    HW221159   1.744   1.796   9.414  0.2197 -1.4714 -1.4449
 3175SOL     OW21160   2.297   1.083  11.389  0.4360 -0.3402  0.1380
 3175SOL    HW121161   2.319   1.011  11.449 -1.1018  0.2174  1.3622
 3175SOL    HW221162   2.382   1.108  11.353 -0.4357  3.0816  0.5036
 3176SOL     OW21163   2.634   0.911   5.978 -0.3097  0.4950 -0.4307
 3176SOL    HW121164   2.623   0.832   5.925 -2.9554  1.3337 -1.1385
 3176SOL    HW221165   2.595   0.883   6.060  0.2200 -0.9193 -0.6644
 3177SOL     OW21166   1.996   1.342   4.621 -0.5307 -0.4647 -0.6149
 3177SOL    HW121167   1.962   1.326   4.709  1.1544 -1.7717 -0.1978
 3177SOL    HW221168   2.073   1.393   4.645 -1.1358  0.9097 -1.5899
 3178SOL     OW21169   0.706   0.410   3.711 -0.0369 -0.3754  0.0871
 3178SOL    HW121170   0.695   0.410   3.616  1.0241  1.4492 -0.0446
 3178SOL    HW221171   0.672   0.322   3.727  0.2967 -0.0323  2.6538
 3179SOL     OW21172   2.741   2.930   0.504 -0.1674 -0.2427  0.2136
 3179SOL    HW121173   2.659   2.974   0.526  0.5292  1.2225 -0.1444
 3179SOL    HW221174   2.745   2.865   0.574  0.1188 -0.4248  0.0284
 3180SOL     OW21175   1.016   3.244   2.111  0.3522  0.1050  0.5329
 3180SOL    HW121176   0.925   3.266   2.129  0.0146  2.6298 -4.1662
 3180SOL    HW221177   1.033   3.181   2.180  1.3209  1.9192  1.9490
 3181SOL     OW21178   2.454   3.055   7.864 -0.4546 -0.8404  0.4081
 3181SOL    HW121179   2.367   3.094   7.859 -0.4058 -1.1561 -3.4863
 3181SOL    HW221180   2.461   3.031   7.956 -0.2513 -1.4992  0.2220
 3182SOL     OW21181   3.968   2.859   3.644  0.3626  0.1938 -0.2677
 3182SOL    HW121182   3.991   2.778   3.599 -0.8768 -1.1022  1.3700
 3182SOL    HW221183   4.044   2.912   3.623 -0.4890  0.6522 -2.1904
 3183SOL     OW21184   2.569   1.112  11.386  0.2085 -0.4665 -0.4661
 3183SOL    HW121185   2.635   1.162  11.433 -0.4678  1.0682 -1.1747
 3183SOL    HW221186   2.627   1.059  11.331  0.9496 -0.1674  0.0195
 3184SOL     OW21187   3.145   3.181  16.305  0.3924  0.1946  0.4455
 3184SOL    HW121188   3.163   3.091  16.278 -0.3068  0.3348 -0.5149
 3184SOL    HW221189   3.144   3.181  16.401 -1.2111  0.7501  0.4240
 3185SOL     OW21190   2.545   4.184   6.991  0.4200  0.4507  0.5120
 3185SOL    HW121191   2.461   4.204   6.952  0.7873  2.6281  0.8399
 3185SOL    HW221192   2.592   4.259   6.954 -0.3644  0.7048  0.0238
 3186SOL     OW21193   3.974   0.604   8.278  0.2064 -0.2532 -0.0558
 3186SOL    HW121194   3.900   0.556   8.317 -1.0345  1.4766 -0.2848
 3186SOL    HW221195   3.973   0.549   8.199  2.3523 -2.1160  1.2060
 3187SOL     OW21196   2.363   1.549   7.228 -0.0489  0.2650  0.2667
 3187SOL    HW121197   2.320   1.524   7.146  1.3630 -0.2927 -0.2938
 3187SOL    HW221198   2.331   1.477   7.283 -2.5888  1.2071  0.0209
 3188SOL     OW21199   3.268   3.931   2.027  0.1058 -0.3680  0.4070
 3188SOL    HW121200   3.254   3.836   2.029 -0.9592 -0.2689 -2.5312
 3188SOL    HW221201   3.233   3.940   1.938 -1.3209  0.2788  1.0382
 3189SOL     OW21202   3.865   4.556   9.176  0.0921  0.1233  0.0424
 3189SOL    HW121203   3.935   4.615   9.149 -0.0795  0.4198  0.2451
 3189SOL    HW221204   3.863   4.584   9.268 -0.4974  1.6303 -0.4248
 3190SOL     OW21205   1.770   4.063   9.067 -0.1853 -0.4511  0.6082
 3190SOL    HW121206   1.748   4.010   9.144 -0.8532 -1.8224 -0.5239
 3190SOL    HW221207   1.685   4.057   9.024 -0.1137 -1.7700  0.6470
 3191SOL     OW21208   3.802   2.236   8.370  0.9073 -0.1760  0.0219
 3191SOL    HW121209   3.767   2.223   8.282 -1.3530  0.8043  0.7931
 3191SOL    HW221210   3.896   2.236   8.354 -0.0160  1.7170 -5.3293
 3192SOL     OW21211   0.910   4.407  13.451 -0.0848  0.4629 -0.0173
 3192SOL    HW121212   0.993   4.382  13.410 -0.9700 -1.2845 -0.7484
 3192SOL    HW221213   0.940   4.446  13.533  1.8766 -3.3950  1.1015
 3193SOL     OW21214   3.777   4.244   7.769  0.1437  0.4979 -1.0202
 3193SOL    HW121215   3.719   4.168   7.757 -0.4814  0.6630  1.0554
 3193SOL    HW221216   3.802   4.238   7.861 -0.5384  0.7994 -0.8152
 3194SOL     OW21217   3.586   1.333   0.095 -0.3171  0.3909  0.8752
 3194SOL    HW121218   3.568   1.241   0.116 -0.6105 -0.1007 -1.5070
 3194SOL    HW221219   3.597   1.371   0.182  1.7894  1.8280 -0.0182
 3195SOL     OW21220   1.820   2.092   9.142  0.2096 -0.3129  0.4581
 3195SOL    HW121221   1.775   2.054   9.066 -1.5316 -0.7579  1.7108
 3195SOL    HW221222   1.912   2.092   9.116  0.0456 -2.0496 -0.1351
 3196SOL     OW21223   4.107   2.846   5.368  0.7379 -0.3358  0.2076
 3196SOL    HW121224   4.162   2.866   5.292 -2.8158  1.3286 -1.8717
 3196SOL    HW221225   4.035   2.789   5.343  2.8431 -1.9006 -2.3725
 3197SOL     OW21226   0.027   0.915   0.498 -1.0824 -0.1419  0.2516
 3197SOL    HW121227   4.709   0.991   0.483  1.6352  2.2401  1.8373
 3197SOL    HW221228   4.727   0.885   0.580 -1.5196  0.3483  0.2240
 3198SOL     OW21229   4.672   4.374  12.688  0.1334 -0.1436 -0.2875
 3198SOL    HW121230   4.624   4.421  12.619 -1.1387  1.6124  1.7902
 3198SOL    HW221231   4.598   4.323  12.721 -0.4583  1.0227  0.1693
 3199SOL     OW21232   3.148   3.236   7.736 -0.6333  0.2008  0.0636
 3199SOL    HW121233   3.214   3.269   7.674  0.3228 -1.8332  0.0042
 3199SOL    HW221234   3.090   3.176   7.691 -2.5035  1.5578  0.6699
 3200SOL     OW21235   3.086   2.788   4.649  0.1663  0.5212 -0.6602
 3200SOL    HW121236   3.111   2.774   4.558  1.0871  1.2792 -0.5200
 3200SOL    HW221237   2.991   2.787   4.646  0.1613  0.0161 -0.3141
 3201SOL     OW21238   0.607   2.078   7.821 -0.0132  0.0618 -0.1060
 3201SOL    HW121239   0.538   2.085   7.755 -0.6673  1.6952  0.7532
 3201SOL    HW221240   0.641   1.989   7.810 -0.7509 -0.3528  0.9095
 3202SOL     OW21241   1.722   4.168   9.562  0.9674 -0.0573  0.1815
 3202SOL    HW121242   1.733   4.184   9.468  1.0717  0.7729  0.3418
 3202SOL    HW221243   1.719   4.257   9.596  0.5974  0.1761 -0.4491
 3203SOL     OW21244   3.751   2.326   2.271  0.4519 -0.1857 -0.3825
 3203SOL    HW121245   3.791   2.411   2.257  0.6778 -0.5059 -1.7038
 3203SOL    HW221246   3.658   2.339   2.250 -0.5491 -1.6629  3.2647
 3204SOL     OW21247   3.902   1.818  11.575  0.3655  0.1448  0.6429
 3204SOL    HW121248   3.867   1.839  11.662  0.3527  3.1543 -0.0640
 3204SOL    HW221249   3.933   1.731  11.598  0.4588  0.9760  3.6314
 3205SOL     OW21250   3.419   0.659   4.262  0.1219  0.1434  0.8088
 3205SOL    HW121251   3.411   0.570   4.229 -1.1431 -0.2229  2.1109
 3205SOL    HW221252   3.514   0.665   4.274  0.2309  0.4086 -0.1926
 3206SOL     OW21253   2.281   0.840   0.251  0.4188  0.4298  0.2835
 3206SOL    HW121254   2.288   0.748   0.225  0.2674  0.6987 -0.6979
 3206SOL    HW221255   2.326   0.899   0.191 -0.5040  0.6376 -0.2061
 3207SOL     OW21256   1.917   0.404   1.208 -0.0229  0.5373  0.0894
 3207SOL    HW121257   1.958   0.318   1.202 -0.3803  0.3222  0.6492
 3207SOL    HW221258   1.828   0.367   1.206 -0.2644  1.1871 -1.1469
 3208SOL     OW21259   1.529   0.567   8.147 -0.1640  0.1475 -0.2334
 3208SOL    HW121260   1.602   0.628   8.163 -0.6542  1.0592 -1.4479
 3208SOL    HW221261   1.576   0.512   8.084 -1.0277  0.7319 -1.3950
 3209SOL     OW21262   4.391   3.644   6.048  0.2998 -0.2687 -0.5275
 3209SOL    HW121263   4.374   3.559   6.008  0.9493 -1.1609  1.1212
 3209SOL    HW221264   4.465   3.626   6.106  0.4646  1.0345 -0.3435
 3210SOL     OW21265   1.111   4.536   4.884  0.1975 -0.0882 -0.5282
 3210SOL    HW121266   1.129   4.629   4.899  1.3144 -0.1554 -1.3503
 3210SOL    HW221267   1.069   4.512   4.966  0.3859 -1.4355 -0.8352
 3211SOL     OW21268   3.038   1.156  13.372  0.2047  0.1041 -0.0157
 3211SOL    HW121269   3.008   1.076  13.415  0.9368  1.1626  2.4985
 3211SOL    HW221270   3.056   1.117  13.287  0.7005  1.7242 -0.6491
 3212SOL     OW21271   3.443   3.486   4.018 -0.5905  0.2185  0.4404
 3212SOL    HW121272   3.511   3.522   4.074  1.0358 -1.2238 -0.5926
 3212SOL    HW221273   3.421   3.417   4.080  0.3793 -0.6369 -0.1474
 3213SOL     OW21274   2.288   4.500   1.958 -0.5634  0.4666 -0.4222
 3213SOL    HW121275   2.324   4.487   1.870  2.9539  2.1795  0.7666
 3213SOL    HW221276   2.205   4.454   1.957 -0.5681  0.4653  0.0625
 3214SOL     OW21277   2.995   2.083   3.729  0.0486  0.1755 -0.8129
 3214SOL    HW121278   3.038   2.154   3.681  1.7061 -0.2913 -0.0377
 3214SOL    HW221279   2.904   2.091   3.702  0.2066  0.1299 -1.3526
 3215SOL     OW21280   3.240   4.287   3.950 -0.3127  0.2159  0.0373
 3215SOL    HW121281   3.189   4.292   3.869 -2.4123 -0.0075  1.3429
 3215SOL    HW221282   3.274   4.197   3.945 -0.7348  0.1918 -2.1122
 3216SOL     OW21283   2.470   3.554   6.655 -0.2787  0.1941  0.3673
 3216SOL    HW121284   2.522   3.475   6.668  0.4197 -0.2625 -4.9708
 3216SOL    HW221285   2.495   3.585   6.568 -0.0572 -1.1319 -0.0397
 3217SOL     OW21286   3.298   3.387   4.690  0.5464  0.3238  0.4670
 3217SOL    HW121287   3.302   3.375   4.784  2.2726 -0.9156  0.2430
 3217SOL    HW221288   3.391   3.401   4.673  0.6946 -1.0550  0.1399
 3218SOL     OW21289   4.263   1.135   7.664  0.3127 -0.2212  0.3190
 3218SOL    HW121290   4.189   1.168   7.614  0.3479 -3.3292 -1.7960
 3218SOL    HW221291   4.330   1.162   7.600  1.5601 -1.8380  0.9395
 3219SOL     OW21292   3.042   4.226   8.859 -0.4472  0.6439  0.2787
 3219SOL    HW121293   2.980   4.168   8.902  0.5497 -0.3970  0.3225
 3219SOL    HW221294   2.973   4.283   8.826  0.0630  1.8774  1.3354
 3220SOL     OW21295   0.354   2.371   7.901  0.3661 -0.1627 -0.0182
 3220SOL    HW121296   0.347   2.276   7.897  3.2541 -0.3261 -0.5087
 3220SOL    HW221297   0.446   2.393   7.912  0.0102  0.2547  2.2507
 3221SOL     OW21298   2.146   1.106  13.715  0.2208 -0.0566 -0.0284
 3221SOL    HW121299   2.094   1.107  13.795 -0.2419  0.9054 -0.3419
 3221SOL    HW221300   2.202   1.029  13.721  0.7925  0.4154  0.6297
 3222SOL     OW21301   0.818   4.112   8.136  0.1164  0.5673 -0.0377
 3222SOL    HW121302   0.897   4.057   8.136 -0.2385  0.0526  2.0588
 3222SOL    HW221303   0.782   4.091   8.222 -1.3418  2.9342 -0.0739
 3223SOL     OW21304   0.145   1.430   7.008 -0.3158 -0.4796 -0.0935
 3223SOL    HW121305   0.094   1.376   7.069  0.0953  0.7993  1.3746
 3223SOL    HW221306   0.167   1.511   7.054  0.5055 -0.4395 -0.5752
 3224SOL     OW21307   3.795   0.359   3.371 -0.0699  0.5941  0.1624
 3224SOL    HW121308   3.734   0.303   3.421 -0.1530  0.5587  0.0229
 3224SOL    HW221309   3.782   0.439   3.422  0.0668  2.4631 -2.7267
 3225SOL     OW21310   4.090   4.357   0.538  0.6467  0.2887 -0.5539
 3225SOL    HW121311   4.169   4.411   0.530  0.3129  1.3400  3.3921
 3225SOL    HW221312   4.018   4.417   0.523 -0.3576 -0.7822 -0.0290
 3226SOL     OW21313   3.749   1.627  14.713 -0.0563 -0.1457  0.1461
 3226SOL    HW121314   3.724   1.640  14.622  0.7036 -0.0239 -0.0407
 3226SOL    HW221315   3.839   1.598  14.698  0.2005  1.4648 -1.3778
 3227SOL     OW21316   0.747   3.461   1.444 -0.0544 -0.1181 -0.2819
 3227SOL    HW121317   0.662   3.501   1.462 -0.8706 -1.7739 -0.4113
 3227SOL    HW221318   0.774   3.450   1.535  0.3917 -1.2479 -0.5434
 3228SOL     OW21319   2.227   2.263   6.351  0.0993  0.2416  0.0603
 3228SOL    HW121320   2.189   2.177   6.369  0.1541  0.6742  2.2180
 3228SOL    HW221321   2.277   2.234   6.274  0.3468  1.1833 -0.1311
 3229SOL     OW21322   1.105   4.248  13.306 -0.0291 -0.0853  0.0427
 3229SOL    HW121323   1.193   4.216  13.286 -0.3886 -0.2598 -1.2398
 3229SOL    HW221324   1.076   4.185  13.372 -0.3789 -0.7731 -0.7649
 3230SOL     OW21325   4.286   1.467   2.204  0.0649  0.4085 -0.3668
 3230SOL    HW121326   4.304   1.388   2.154  2.1265  1.1930 -0.8385
 3230SOL    HW221327   4.324   1.539   2.154  0.4364  0.1354 -0.4734
 3231SOL     OW21328   0.647   2.921   3.786 -0.4399 -0.0500 -0.0050
 3231SOL    HW121329   0.693   2.889   3.864  3.6018  0.2574 -2.2819
 3231SOL    HW221330   0.555   2.917   3.811  0.1683 -0.9094  2.1670
 3232SOL     OW21331   3.373   0.623   8.827  0.4358 -0.3971  0.7631
 3232SOL    HW121332   3.393   0.707   8.787 -0.0263 -0.0671  1.2217
 3232SOL    HW221333   3.426   0.624   8.907  1.1254  1.1609  0.2842
 3233SOL     OW21334   3.558   3.562   8.604 -0.4139  0.0316  0.1042
 3233SOL    HW121335   3.508   3.640   8.579 -2.4378 -0.8450  1.4340
 3233SOL    HW221336   3.649   3.575   8.576  0.2648 -2.7953  0.9336
 3234SOL     OW21337   4.569   0.848   6.201  0.0736  0.2318  0.4511
 3234SOL    HW121338   4.585   0.835   6.107  2.6143 -0.4978  0.9806
 3234SOL    HW221339   4.600   0.764   6.235 -0.0566  0.6991  1.6950
 3235SOL     OW21340   4.381   2.118   1.900  0.0368 -0.4727  0.4380
 3235SOL    HW121341   4.352   2.178   1.831  0.8980  0.9516  1.2997
 3235SOL    HW221342   4.382   2.158   1.987  0.2556 -2.1403  1.1998
 3236SOL     OW21343   3.421   1.171   2.273 -0.1319  0.0505  0.1703
 3236SOL    HW121344   3.464   1.230   2.211 -1.2324 -0.0256 -0.6700
 3236SOL    HW221345   3.493   1.113   2.297 -0.2278  0.4166  1.3438
 3237SOL     OW21346   3.441   2.680   5.446  0.5388 -0.2436  0.4957
 3237SOL    HW121347   3.365   2.627   5.421  0.3002 -0.1219  0.9750
 3237SOL    HW221348   3.439   2.736   5.368 -3.9046  0.1598  0.8966
 3238SOL     OW21349   4.617   0.374   5.695 -0.7918 -0.5789 -0.5578
 3238SOL    HW121350   4.581   0.298   5.741 -2.6132  1.6450  1.7058
 3238SOL    HW221351   4.584   0.446   5.749  1.7716 -0.1664  0.4819
 3239SOL     OW21352   3.925   0.063   2.000  0.2244 -0.4182 -0.3410
 3239SOL    HW121353   3.959   0.050   2.089  0.0569 -1.1502 -0.3861
 3239SOL    HW221354   3.947   0.156   1.993  2.1257 -0.6639  2.2161
 3240SOL     OW21355   4.245   4.221   8.670  0.3457  0.3938  0.0387
 3240SOL    HW121356   4.209   4.158   8.733  2.2017  0.3598  1.0563
 3240SOL    HW221357   4.207   4.185   8.589  0.3501  1.2792 -0.3521
 3241SOL     OW21358   3.759   3.001  13.681 -0.2079 -0.0845  0.4472
 3241SOL    HW121359   3.724   3.038  13.762 -1.2699 -1.5540  0.6441
 3241SOL    HW221360   3.837   2.951  13.705  1.3728  1.6015 -1.1843
 3242SOL     OW21361   3.492   3.125  12.510 -0.2369  0.4629  0.2160
 3242SOL    HW121362   3.477   3.062  12.439 -0.2571  0.6692  0.0380
 3242SOL    HW221363   3.457   3.205  12.472  0.0866  1.3582  1.7915
 3243SOL     OW21364   1.193   2.117   5.742 -0.4071 -0.4241 -0.4176
 3243SOL    HW121365   1.102   2.122   5.712  0.0284  2.1688 -1.2694
 3243SOL    HW221366   1.225   2.207   5.735 -0.5953 -0.4195 -1.2356
 3244SOL     OW21367   4.689   2.378   9.019  0.0881  0.4539  0.1361
 3244SOL    HW121368   4.640   2.457   8.996 -0.9270 -1.1927 -3.1935
 3244SOL    HW221369   4.611   2.323   9.028  0.7375 -0.8387 -2.1023
 3245SOL     OW21370   3.155   3.590   7.159  0.0012 -0.4750 -0.1498
 3245SOL    HW121371   3.150   3.605   7.064  2.2446 -0.8165 -0.3318
 3245SOL    HW221372   3.084   3.528   7.175 -0.6839  0.5468  0.7182
 3246SOL     OW21373   1.728   4.242   9.304 -0.2009  0.1260 -0.4303
 3246SOL    HW121374   1.676   4.321   9.289 -1.7019 -0.9803 -1.0428
 3246SOL    HW221375   1.797   4.247   9.238  0.1075  0.3799 -0.0871
 3247SOL     OW21376   3.225   4.029   8.235  0.0005  0.1517  0.2372
 3247SOL    HW121377   3.162   3.980   8.183 -0.0422 -0.2459  0.6694
 3247SOL    HW221378   3.184   4.048   8.320 -1.8018 -0.5909 -0.4587
 3248SOL     OW21379   3.624   0.844   3.897 -0.2493  0.3890  0.3421
 3248SOL    HW121380   3.677   0.776   3.937  0.2862 -0.8707 -2.4976
 3248SOL    HW221381   3.539   0.801   3.888 -0.4062  0.6844  0.4011
 3249SOL     OW21382   4.591   0.725  15.367  0.1352 -0.3310 -0.5573
 3249SOL    HW121383   4.654   0.793  15.342  1.2898 -0.1833  2.7007
 3249SOL    HW221384   4.650   0.651  15.375 -0.1980 -0.5575 -0.2047
 3250SOL     OW21385   0.532   1.988   5.161 -0.0007 -0.0079  0.2819
 3250SOL    HW121386   0.568   1.904   5.190  0.1895  0.4657  1.4064
 3250SOL    HW221387   0.612   2.040   5.150  0.8524 -1.4922 -0.6438
 3251SOL     OW21388   3.637   1.585   5.069 -0.5591 -0.4625  0.3477
 3251SOL    HW121389   3.542   1.574   5.075 -1.1753  2.0539 -4.6828
 3251SOL    HW221390   3.655   1.649   5.138 -1.7682  0.3857 -0.1205
 3252SOL     OW21391   4.227   1.562  12.107 -0.2934 -0.2692 -0.0022
 3252SOL    HW121392   4.267   1.650  12.103 -0.5035 -0.3203 -3.0563
 3252SOL    HW221393   4.151   1.567  12.050 -1.6505 -0.0504  1.8355
 3253SOL     OW21394   1.091   2.621   7.632  0.2180 -0.0231  0.2379
 3253SOL    HW121395   1.090   2.526   7.641 -1.0973 -0.0193  0.0969
 3253SOL    HW221396   1.082   2.642   7.539  0.2258 -0.6828  0.0867
 3254SOL     OW21397   3.589   1.943   5.298 -0.1300 -0.0995  0.6530
 3254SOL    HW121398   3.595   1.908   5.388  1.7978  0.5037  0.7653
 3254SOL    HW221399   3.677   1.923   5.266  0.1099 -1.7253  2.2494
 3255SOL     OW21400   3.154   2.811   9.041  0.2560 -0.3565  0.5512
 3255SOL    HW121401   3.173   2.739   9.101 -0.8719 -0.8333  0.3371
 3255SOL    HW221402   3.092   2.775   8.978 -2.1381  3.5684  0.6419
 3256SOL     OW21403   3.819   4.211   8.049  0.2308  0.0748  0.5824
 3256SOL    HW121404   3.773   4.284   8.091  1.0771  0.6358  0.5527
 3256SOL    HW221405   3.809   4.143   8.115  2.6594 -1.1614 -0.3006
 3257SOL     OW21406   4.208   3.395   9.276  0.3957  0.2961  0.2678
 3257SOL    HW121407   4.231   3.478   9.316 -0.9925  0.7723  0.0917
 3257SOL    HW221408   4.280   3.335   9.294  1.2831  0.7843 -1.6549
 3258SOL     OW21409   0.378   0.659   6.808 -0.0233  0.3583  0.6361
 3258SOL    HW121410   0.340   0.702   6.732  1.2112 -2.5797 -1.6643
 3258SOL    HW221411   0.398   0.740   6.855  0.5588  0.1732  0.7135
 3259SOL     OW21412   4.114   4.521   7.786  0.2874 -0.0171 -0.2011
 3259SOL    HW121413   4.091   4.560   7.703  0.3710  0.2515 -0.0971
 3259SOL    HW221414   4.075   4.434   7.773  1.2873 -0.4649 -0.2384
 3260SOL     OW21415   3.630   4.277   5.410 -0.2718 -0.2040 -0.2312
 3260SOL    HW121416   3.670   4.196   5.379  2.3426  0.4210  1.5600
 3260SOL    HW221417   3.541   4.250   5.432 -0.2880  0.0558  0.0213
 3261SOL     OW21418   3.728   4.652  17.195  0.0245  0.1758  0.2916
 3261SOL    HW121419   3.760   4.711  17.127  0.7945  0.3205  0.7809
 3261SOL    HW221420   3.776   4.690  17.269  0.0062  2.5598 -0.9214
 3262SOL     OW21421   0.713   3.703   3.047 -0.5444 -0.1637  0.1432
 3262SOL    HW121422   0.639   3.761   3.063 -1.4941 -0.6855 -2.3783
 3262SOL    HW221423   0.716   3.708   2.952  0.4039  0.2283  0.2022
 3263SOL     OW21424   0.152   4.091   1.502  0.4265  0.0641 -0.2886
 3263SOL    HW121425   0.175   4.050   1.586  1.7258  1.1244 -0.1108
 3263SOL    HW221426   0.087   4.028   1.472  0.8401 -0.3759 -0.2537
 3264SOL     OW21427   1.348   1.359   7.196  0.2439  0.9472 -0.2279
 3264SOL    HW121428   1.383   1.291   7.140  0.6785 -0.4742  1.7808
 3264SOL    HW221429   1.303   1.312   7.266  3.2728  1.4634  2.0268
 3265SOL     OW21430   1.872   2.972   4.215  0.3682 -0.2800  0.2680
 3265SOL    HW121431   1.961   2.965   4.181 -0.0565  1.7472 -1.2512
 3265SOL    HW221432   1.877   2.890   4.264 -1.4564 -1.5294 -1.6178
 3266SOL     OW21433   1.196   0.894   9.994 -0.4055  0.1903  0.0346
 3266SOL    HW121434   1.260   0.960  10.021  1.5028 -1.6500 -0.0754
 3266SOL    HW221435   1.131   0.917  10.061  0.3240  1.6687  0.2435
 3267SOL     OW21436   2.353   4.382  11.933 -0.1677 -0.1939  0.0739
 3267SOL    HW121437   2.398   4.324  11.872  0.4391  2.2449 -1.7928
 3267SOL    HW221438   2.424   4.406  11.993  0.7304 -1.6249 -0.4353
 3268SOL     OW21439   1.312   0.162  17.217  0.2638 -0.0250  0.4449
 3268SOL    HW121440   1.318   0.187  17.125  1.3972 -1.3022  0.1525
 3268SOL    HW221441   1.306   0.249  17.255  0.5898  0.3342 -0.3440
 3269SOL     OW21442   2.548   2.406   7.501  0.6426  0.0449  0.2184
 3269SOL    HW121443   2.544   2.314   7.474 -0.6359  0.3554 -0.6487
 3269SOL    HW221444   2.471   2.438   7.453  1.5252 -0.9373 -1.8440
 3270SOL     OW21445   3.017   3.022   5.060  0.0076  0.5427  0.3865
 3270SOL    HW121446   2.974   2.949   5.016 -2.2402  1.6921  0.6645
 3270SOL    HW221447   2.951   3.042   5.127 -1.1664  2.4830 -1.3352
 3271SOL     OW21448   0.955   0.917   4.024 -0.0314 -0.1646  0.5634
 3271SOL    HW121449   1.023   0.958   3.970  0.1780 -2.0900 -0.6332
 3271SOL    HW221450   0.892   0.989   4.024  0.7746  0.5380 -0.1325
 3272SOL     OW21451   4.043   2.490   5.082  0.5895 -0.6248  0.5699
 3272SOL    HW121452   4.015   2.481   4.991 -1.2373  0.3002  1.0383
 3272SOL    HW221453   3.962   2.470   5.129 -0.8021  2.0867 -0.6953
 3273SOL     OW21454   3.115   3.601  15.282 -0.0629 -0.0184 -0.2437
 3273SOL    HW121455   3.090   3.510  15.266 -3.6424  0.9329 -0.0299
 3273SOL    HW221456   3.134   3.595  15.376 -1.1799  0.0798 -0.0114
 3274SOL     OW21457   4.522   3.038   9.707 -0.1995  0.5511 -0.1204
 3274SOL    HW121458   4.542   2.965   9.648  0.4461  1.2348 -0.7459
 3274SOL    HW221459   4.435   3.069   9.681 -0.2447 -0.2380 -0.9164
 3275SOL     OW21460   2.854   0.248   8.835  0.3600  0.2552  0.5786
 3275SOL    HW121461   2.878   0.320   8.776  2.4549 -0.1884  0.8782
 3275SOL    HW221462   2.944   0.217   8.847 -0.1847 -1.9678 -1.2421
 3276SOL     OW21463   3.597   2.465  13.137  0.1147 -0.2087 -0.1678
 3276SOL    HW121464   3.567   2.411  13.209  3.0156 -0.5483  0.7906
 3276SOL    HW221465   3.524   2.426  13.089  0.1501 -0.4556 -0.0228
 3277SOL     OW21466   3.801   0.431   9.607  0.8477 -0.3969  0.0331
 3277SOL    HW121467   3.811   0.433   9.702 -0.7921  1.0032  0.1683
 3277SOL    HW221468   3.746   0.352   9.601  1.5108 -0.6920 -2.2610
 3278SOL     OW21469   4.219   4.016   6.304 -0.0891 -0.0740  0.6722
 3278SOL    HW121470   4.208   3.945   6.367  0.0413  0.0590  0.8450
 3278SOL    HW221471   4.131   4.037   6.273  0.0105 -1.6051 -0.6860
 3279SOL     OW21472   3.061   2.809   1.882  0.4274 -0.0072  0.3427
 3279SOL    HW121473   2.983   2.822   1.828  0.1427  2.1125  1.2602
 3279SOL    HW221474   3.070   2.896   1.920  0.4048 -0.4217  1.3094
 3280SOL     OW21475   3.223   1.881  13.956 -0.2356  0.5529  0.0863
 3280SOL    HW121476   3.172   1.903  13.878 -0.6134 -0.0336  0.1717
 3280SOL    HW221477   3.274   1.960  13.974 -0.0949  0.5073 -0.1021
 3281SOL     OW21478   1.341   4.704  13.966 -0.2778  0.1408  0.1109
 3281SOL    HW121479   1.415   4.646  13.954 -0.7770  0.4122 -4.2404
 3281SOL    HW221480   1.360   0.008  14.050  0.7772  0.3942 -0.2570
 3282SOL     OW21481   1.884   2.902  16.439 -0.7460 -0.3697 -0.5634
 3282SOL    HW121482   1.904   2.832  16.377  0.6808 -1.9965  1.7350
 3282SOL    HW221483   1.804   2.933  16.397  0.8396  3.3397 -0.9212
 3283SOL     OW21484   2.034   0.310   7.501  0.1530 -0.2822 -0.4729
 3283SOL    HW121485   1.966   0.275   7.444 -0.0910  1.7053 -1.4121
 3283SOL    HW221486   2.022   0.263   7.584  1.6967 -0.6669 -0.4602
 3284SOL     OW21487   1.339   4.176   8.498 -0.3889  0.5777  0.3216
 3284SOL    HW121488   1.296   4.212   8.420 -0.1621  3.5905  1.5678
 3284SOL    HW221489   1.272   4.123   8.539 -0.4556  1.4048  1.2969
 3285SOL     OW21490   4.528   2.404   5.737 -0.0560 -0.3583 -0.2936
 3285SOL    HW121491   4.463   2.382   5.804 -0.2652 -0.1483 -0.4263
 3285SOL    HW221492   4.608   2.439   5.776 -0.1680 -1.7801  1.1768
 3286SOL     OW21493   4.584   4.201   7.917  0.9126 -0.1828  0.1941
 3286SOL    HW121494   4.598   4.260   7.843 -0.7974 -2.0302 -1.5942
 3286SOL    HW221495   4.573   4.118   7.871 -0.3281 -0.0630  0.2746
 3287SOL     OW21496   3.004   0.997   4.526 -0.5420 -0.0194 -0.4708
 3287SOL    HW121497   3.091   1.033   4.543  0.2197 -1.4198 -1.3981
 3287SOL    HW221498   3.016   0.924   4.465 -1.6809 -0.0426 -0.6826
 3288SOL     OW21499   0.218   2.570   2.142  0.3026 -0.6556  0.5446
 3288SOL    HW121500   0.229   2.562   2.047 -3.2175  3.8991 -0.2806
 3288SOL    HW221501   0.306   2.559   2.178 -0.3968 -1.6024  1.9529
 3289SOL     OW21502   4.334   1.197   7.920  0.0912  0.5321 -0.0036
 3289SOL    HW121503   4.292   1.130   7.974  0.6958  0.9611  1.0034
 3289SOL    HW221504   4.310   1.177   7.830 -1.1245  1.4779  0.1219
 3290SOL     OW21505   1.914   1.624   1.796 -0.4781  0.5863  0.5403
 3290SOL    HW121506   1.870   1.704   1.826  0.6194  1.1265  0.7283
 3290SOL    HW221507   1.952   1.595   1.879 -1.7856  0.2447  1.0258
 3291SOL     OW21508   2.344   2.282   5.876  0.7462 -0.0003 -0.0296
 3291SOL    HW121509   2.263   2.324   5.907  0.6263  0.3253 -0.7772
 3291SOL    HW221510   2.332   2.189   5.896 -2.8830  0.7246  1.2747
 3292SOL     OW21511   3.435   2.742  15.498 -0.4415  0.1644 -0.9412
 3292SOL    HW121512   3.494   2.814  15.523 -1.1176 -0.1628  1.5651
 3292SOL    HW221513   3.455   2.736  15.405 -0.4032  1.8143 -1.0464
 3293SOL     OW21514   1.172   0.465   6.834 -0.3575 -0.2468  0.4332
 3293SOL    HW121515   1.185   0.515   6.754  1.7842 -2.6273 -0.7098
 3293SOL    HW221516   1.219   0.387   6.804  0.1561 -0.1113  0.8803
 3294SOL     OW21517   3.977   1.737  13.497  0.2649 -0.2480  0.3387
 3294SOL    HW121518   3.924   1.814  13.522 -2.1338 -1.6301 -0.4802
 3294SOL    HW221519   3.933   1.665  13.541  1.4587 -1.4448 -0.4511
 3295SOL     OW21520   2.914   1.076   2.471  0.2321 -0.0188  0.2608
 3295SOL    HW121521   2.986   1.079   2.408 -0.6307 -0.8434 -0.7725
 3295SOL    HW221522   2.871   1.160   2.461  0.3317  0.0501  0.4084
 3296SOL     OW21523   2.867   2.332   6.000 -0.1250  0.5462 -0.7426
 3296SOL    HW121524   2.785   2.284   6.002  1.2094 -1.6640  0.1947
 3296SOL    HW221525   2.829   2.420   6.005 -1.8294 -0.3723  2.3559
 3297SOL     OW21526   2.515   1.996   4.901  0.0609  0.0252 -0.5860
 3297SOL    HW121527   2.462   1.953   4.968  0.5654  1.3431  0.6750
 3297SOL    HW221528   2.444   2.048   4.863  0.7858  0.1861 -1.6996
 3298SOL     OW21529   0.080   2.057   6.815 -0.5010 -0.1017  0.1037
 3298SOL    HW121530   0.152   2.110   6.782 -0.1054 -0.4838  0.3441
 3298SOL    HW221531   0.009   2.083   6.757 -0.6001  0.6921  0.5799
 3299SOL     OW21532   3.479   0.837   7.188 -0.5058  0.1594 -0.2584
 3299SOL    HW121533   3.387   0.838   7.215  0.6405 -5.2070  4.0138
 3299SOL    HW221534   3.509   0.761   7.239 -0.2425  0.7347  0.4424
 3300SOL     OW21535   2.278   0.699  13.776 -0.2955  0.1142 -0.0437
 3300SOL    HW121536   2.280   0.686  13.681 -0.0328 -0.1246 -0.0060
 3300SOL    HW221537   2.326   0.781  13.787 -1.0898  0.5964 -0.1334
 3301SOL     OW21538   2.209   3.588  14.434 -0.2936  0.4236  1.0394
 3301SOL    HW121539   2.248   3.519  14.382 -1.7479 -0.3313  0.9563
 3301SOL    HW221540   2.247   3.561  14.517  0.4223  0.3851  0.6943
 3302SOL     OW21541   4.379   2.826   2.085 -0.1441  0.6289  0.3793
 3302SOL    HW121542   4.474   2.828   2.071  0.0990  0.3221  2.0109
 3302SOL    HW221543   4.351   2.761   2.020  2.4760 -0.6649  0.5291
 3303SOL     OW21544   2.969   3.634   3.481  0.5384  0.6041 -0.4533
 3303SOL    HW121545   2.991   3.599   3.567  1.4180 -0.1488 -0.9740
 3303SOL    HW221546   2.873   3.629   3.478  0.5040  1.7995 -1.2266
 3304SOL     OW21547   4.733   3.462   9.812 -0.6606  0.3137  0.0257
 3304SOL    HW121548   4.641   3.435   9.815 -0.4050 -0.6704 -0.7877
 3304SOL    HW221549   0.023   3.441   9.900  0.9639 -1.0486 -0.8158
 3305SOL     OW21550   1.395   4.673   5.172  0.1374  0.7270  0.3945
 3305SOL    HW121551   1.464   4.608   5.187 -0.8936 -1.0237 -2.5023
 3305SOL    HW221552   1.384   4.667   5.078 -0.7997 -1.1149  0.6219
 3306SOL     OW21553   3.796   1.926   8.069  0.8772  0.0649  0.0946
 3306SOL    HW121554   3.829   1.877   8.144 -1.0732 -1.9862 -0.4039
 3306SOL    HW221555   3.878   1.947   8.024  0.5304 -1.0257 -1.0427
 3307SOL     OW21556   2.536   0.189   5.786  0.1986  0.2463 -0.4204
 3307SOL    HW121557   2.542   0.281   5.812 -0.0186  0.3226 -0.6342
 3307SOL    HW221558   2.628   0.164   5.792  0.0713 -0.5345 -1.7588
 3308SOL     OW21559   0.918   2.041   7.752  0.3016 -0.1655  0.5793
 3308SOL    HW121560   0.921   1.987   7.673  1.6991  3.1676 -1.6204
 3308SOL    HW221561   0.827   2.071   7.755 -0.0375 -1.0366 -1.3289
 3309SOL     OW21562   2.826   3.063   0.016 -0.4980 -0.3020 -0.9228
 3309SOL    HW121563   2.734   3.090   0.012 -0.6388 -0.5582  0.5851
 3309SOL    HW221564   2.819   2.998   0.086 -0.2410  0.3013 -0.3449
 3310SOL     OW21565   4.326   2.025  12.094  0.4438 -0.1442 -0.1907
 3310SOL    HW121566   4.331   1.940  12.049  1.9869  0.7705 -1.7303
 3310SOL    HW221567   4.357   1.995  12.180  1.1714 -0.2304 -0.4825
 3311SOL     OW21568   2.721   3.551   3.964 -0.1148 -0.4428  0.1566
 3311SOL    HW121569   2.737   3.537   4.057  1.9287 -2.5027 -0.4978
 3311SOL    HW221570   2.655   3.484   3.951  1.8345 -2.5144  0.8912
 3312SOL     OW21571   1.041   0.804   2.994  0.3120 -1.0609  0.1985
 3312SOL    HW121572   0.999   0.882   3.030 -0.2485  0.2629 -3.3395
 3312SOL    HW221573   1.020   0.734   3.057 -0.8040 -0.5970  0.3344
 3313SOL     OW21574   2.128   2.077   4.219 -0.6631 -0.0514  0.5122
 3313SOL    HW121575   2.048   2.086   4.167  0.6321  0.6855 -1.3513
 3313SOL    HW221576   2.120   2.159   4.268  0.1756  0.4284 -0.1551
 3314SOL     OW21577   4.214   4.607   8.534  0.0003 -0.2685  0.1086
 3314SOL    HW121578   4.301   4.575   8.556 -0.6208 -3.5299 -2.1133
 3314SOL    HW221579   4.183   4.535   8.477 -0.7867  1.9982 -2.3273
 3315SOL     OW21580   2.370   1.374   7.441  0.0454  0.2146  0.0741
 3315SOL    HW121581   2.431   1.442   7.469 -0.5023  1.4209 -1.6783
 3315SOL    HW221582   2.330   1.360   7.527  0.9421  2.2650  0.8064
 3316SOL     OW21583   4.178   0.954   7.265  0.6428  0.5641  0.0403
 3316SOL    HW121584   4.102   1.005   7.235 -1.4381 -2.5336  0.0870
 3316SOL    HW221585   4.217   0.927   7.182  1.3156  0.1347  0.4945
 3317SOL     OW21586   4.381   3.692   4.083 -0.3608  0.3383 -0.3281
 3317SOL    HW121587   4.464   3.709   4.126  0.4794 -1.8728 -1.0285
 3317SOL    HW221588   4.360   3.619   4.141  0.5635 -0.7665 -1.3782
 3318SOL     OW21589   1.949   1.614   9.433  0.0770  0.2051 -0.4277
 3318SOL    HW121590   1.865   1.655   9.451 -0.6304 -1.7851  0.7883
 3318SOL    HW221591   1.936   1.593   9.341  1.8703  2.3881 -1.1924
 3319SOL     OW21592   0.705   2.658   7.093  0.7608  0.4134  0.0453
 3319SOL    HW121593   0.749   2.615   7.019  0.2003 -0.8961  0.4625
 3319SOL    HW221594   0.616   2.623   7.088  1.0659 -0.5538  1.3718
 3320SOL     OW21595   2.070   2.382   9.595 -0.4385 -0.2306 -0.1187
 3320SOL    HW121596   1.980   2.355   9.579 -0.5543  0.4138 -0.5749
 3320SOL    HW221597   2.047   2.474   9.579  0.6655  0.0434 -0.1388
 3321SOL     OW21598   4.675   2.097  16.827  0.2267  0.2419  0.9072
 3321SOL    HW121599   4.642   2.069  16.741 -3.1058  0.4333  2.1255
 3321SOL    HW221600   4.706   2.187  16.816 -0.9305  0.5082 -0.1785
 3322SOL     OW21601   3.878   2.566   9.025 -0.1230 -0.3107 -0.0944
 3322SOL    HW121602   3.818   2.628   9.067 -0.6113  1.2631 -3.1638
 3322SOL    HW221603   3.956   2.621   9.014 -2.1427  2.3514 -1.2116
 3323SOL     OW21604   1.916   2.762   1.559  0.1251 -0.3957 -0.8531
 3323SOL    HW121605   1.957   2.757   1.646 -1.9303 -0.2074  0.1267
 3323SOL    HW221606   1.962   2.835   1.519  0.5132 -0.6305 -0.8399
 3324SOL     OW21607   3.401   2.444   6.374  0.5317  0.2128 -0.9398
 3324SOL    HW121608   3.485   2.399   6.375  0.9721  1.0825  2.0321
 3324SOL    HW221609   3.387   2.473   6.464 -1.1240 -1.0067 -0.8048
 3325SOL     OW21610   1.907   4.014   3.921 -0.3328  0.1544  0.8207
 3325SOL    HW121611   1.993   3.991   3.886 -1.6393 -0.9602 -1.7073
 3325SOL    HW221612   1.860   3.967   3.852 -1.3845  2.1295  0.1765
 3326SOL     OW21613   0.074   4.245   3.909 -0.2088 -0.3442 -0.1324
 3326SOL    HW121614   0.105   4.180   3.973  1.0371 -0.4693 -0.8590
 3326SOL    HW221615   0.099   4.317   3.967  0.6630 -1.0569  0.3787
 3327SOL     OW21616   0.740   1.856  12.940 -0.2508 -0.1770 -0.2347
 3327SOL    HW121617   0.677   1.904  12.885  0.7535 -0.2187 -1.4238
 3327SOL    HW221618   0.684   1.782  12.964  0.4984 -0.0746  1.8313
 3328SOL     OW21619   3.359   1.316  12.475  0.0504 -0.7946 -0.1853
 3328SOL    HW121620   3.369   1.345  12.566 -0.0314 -1.2295 -0.0347
 3328SOL    HW221621   3.418   1.376  12.430 -0.9214 -0.9132 -1.6152
 3329SOL     OW21622   0.934   3.506   4.141  0.5889  0.4044  0.6482
 3329SOL    HW121623   0.952   3.545   4.227  1.4673  0.0079  0.6451
 3329SOL    HW221624   0.862   3.564   4.115  1.6047  1.1986 -0.3867
 3330SOL     OW21625   4.711   1.010   1.559 -0.2836 -0.4106  0.3185
 3330SOL    HW121626   4.621   1.027   1.588  0.0125 -0.9210  1.5146
 3330SOL    HW221627   0.020   1.032   1.639 -0.0866  1.2447 -0.2488
 3331SOL     OW21628   0.137   2.503   7.790 -0.7743  1.0069  0.7809
 3331SOL    HW121629   0.218   2.477   7.834  1.4553  2.8020 -2.2349
 3331SOL    HW221630   0.076   2.460   7.850 -2.6938 -0.1713 -2.0449
 3332SOL     OW21631   3.598   3.014   5.339  0.0800  0.0225 -0.3420
 3332SOL    HW121632   3.595   3.015   5.435  0.1209  0.0000 -0.3403
 3332SOL    HW221633   3.660   3.085   5.322 -0.8273  0.6812 -0.8338
 3333SOL     OW21634   2.239   0.530   6.418 -0.3151 -0.2965 -0.0522
 3333SOL    HW121635   2.150   0.519   6.451 -1.2305  0.7868 -2.1311
 3333SOL    HW221636   2.260   0.440   6.395 -2.5055 -0.5092 -1.2477
 3334SOL     OW21637   4.115   0.222   2.689 -0.4599  0.1781 -0.2545
 3334SOL    HW121638   4.102   0.139   2.735 -0.4731 -0.8831 -2.1840
 3334SOL    HW221639   4.053   0.280   2.732 -0.5178 -1.3761  1.7679
 3335SOL     OW21640   3.028   2.523   5.434 -0.3579  0.1474 -0.3799
 3335SOL    HW121641   3.019   2.460   5.363 -0.1291 -0.5542  0.2083
 3335SOL    HW221642   3.034   2.606   5.387 -4.2685  2.0397  2.4102
 3336SOL     OW21643   3.765   2.339   3.078  0.3276 -0.1866 -0.3612
 3336SOL    HW121644   3.738   2.259   3.122  2.1358 -1.9362 -2.4336
 3336SOL    HW221645   3.711   2.404   3.123  2.3131  0.8308  0.5477
 3337SOL     OW21646   2.023   3.983   7.870 -0.2022  0.5971  0.0338
 3337SOL    HW121647   2.028   4.073   7.840 -1.1145  0.2185 -1.2378
 3337SOL    HW221648   2.048   3.934   7.791 -0.1761 -0.3652  0.6375
 3338SOL     OW21649   2.072   1.943  12.009  0.7028  0.8399 -0.2854
 3338SOL    HW121650   2.043   1.852  12.020  2.1741  0.4630  0.5730
 3338SOL    HW221651   2.024   1.974  12.086 -0.6848 -1.1836 -0.3539
 3339SOL     OW21652   4.344   4.099   6.725 -0.0499 -1.3086  0.3437
 3339SOL    HW121653   4.433   4.101   6.690  0.0540 -1.2279  0.6102
 3339SOL    HW221654   4.362   4.067   6.813 -2.5121  0.6930  1.6049
 3340SOL     OW21655   3.212   1.358   7.554 -0.1729  0.0982  0.3067
 3340SOL    HW121656   3.118   1.375   7.557  0.2463  2.9385 -2.4718
 3340SOL    HW221657   3.243   1.441   7.592  1.0282 -1.9668  3.8695
 3341SOL     OW21658   3.399   2.391  10.275  0.4712 -0.2135  0.2543
 3341SOL    HW121659   3.455   2.320  10.307 -0.7460 -0.9362  0.7845
 3341SOL    HW221660   3.354   2.335  10.211 -1.7918  0.7803  0.9558
 3342SOL     OW21661   2.613   1.583   5.316 -0.0776 -0.6178 -0.3927
 3342SOL    HW121662   2.652   1.668   5.334 -0.5140 -0.5226  0.0952
 3342SOL    HW221663   2.528   1.616   5.287  0.0569 -1.8329 -2.2018
 3343SOL     OW21664   1.739   3.063  11.901 -0.2118 -0.2081  0.4522
 3343SOL    HW121665   1.691   2.981  11.908 -0.1136 -0.3371 -0.4070
 3343SOL    HW221666   1.793   3.052  11.980 -1.8877  2.0495  1.9133
 3344SOL     OW21667   4.049   4.735   4.526  0.2993 -0.3522  0.2414
 3344SOL    HW121668   4.064   0.083   4.487  1.1084 -0.6913 -0.1947
 3344SOL    HW221669   3.971   0.017   4.578 -1.2466 -0.1972 -2.1027
 3345SOL     OW21670   3.470   3.947   8.136 -0.1017  0.1940  0.3436
 3345SOL    HW121671   3.502   4.037   8.137 -0.1725  0.2044  1.6057
 3345SOL    HW221672   3.380   3.954   8.167 -1.2974 -0.8748 -2.9256
 3346SOL     OW21673   4.091   1.525   4.824  0.2488  0.2080  0.0330
 3346SOL    HW121674   4.126   1.448   4.870  0.7472 -0.1624 -0.9724
 3346SOL    HW221675   4.012   1.548   4.874 -0.8561  0.5486 -1.8534
 3347SOL     OW21676   4.687   1.503   2.410 -0.5546 -0.1382 -0.2952
 3347SOL    HW121677   4.637   1.497   2.491 -0.7531  0.1414 -0.3977
 3347SOL    HW221678   4.717   1.594   2.404 -2.2979  0.5419  1.2579
 3348SOL     OW21679   2.869   2.437   8.073  0.0594  0.4059  0.0915
 3348SOL    HW121680   2.907   2.368   8.128  1.0565  1.1312  0.3186
 3348SOL    HW221681   2.937   2.504   8.061  1.2500 -0.6107  1.2551
 3349SOL     OW21682   3.116   2.335   4.121 -0.3262  0.0706 -0.0036
 3349SOL    HW121683   3.124   2.389   4.200  1.9962 -0.3851  0.0880
 3349SOL    HW221684   3.201   2.354   4.082  0.3339  2.2251  2.4546
 3350SOL     OW21685   0.681   1.599   5.386  0.0959  0.7626  0.1327
 3350SOL    HW121686   0.770   1.613   5.420 -0.7227  2.1299  1.7371
 3350SOL    HW221687   0.632   1.621   5.465  1.6913 -1.1922  1.6571
 3351SOL     OW21688   2.635   4.084  16.951 -0.3333  0.0914  0.1921
 3351SOL    HW121689   2.706   4.137  16.989 -0.6039 -0.8804  2.0818
 3351SOL    HW221690   2.658   4.094  16.859  1.1315 -1.8878  0.3564
 3352SOL     OW21691   2.444   4.032   1.641  0.1728 -0.1379  0.2104
 3352SOL    HW121692   2.462   4.115   1.597  1.1689 -0.5586 -0.1569
 3352SOL    HW221693   2.436   4.056   1.734  0.6822 -1.5111  0.6123
 3353SOL     OW21694   3.267   0.665  12.876  0.8313 -0.6172  0.8054
 3353SOL    HW121695   3.341   0.622  12.918  0.7759 -2.3524 -0.8759
 3353SOL    HW221696   3.238   0.594  12.819 -0.9732  2.2294 -1.8249
 3354SOL     OW21697   1.199   2.559  10.341  0.2988  0.4131 -0.5185
 3354SOL    HW121698   1.161   2.512  10.415  0.7342  0.3950 -0.3116
 3354SOL    HW221699   1.252   2.626  10.383  0.6106  0.7779 -1.4989
 3355SOL     OW21700   3.567   3.767   7.473 -0.9401 -0.1123  0.2239
 3355SOL    HW121701   3.555   3.685   7.522 -0.6168  1.0093  2.1719
 3355SOL    HW221702   3.477   3.797   7.484 -0.9200  0.0827 -0.1440
 3356SOL     OW21703   2.264   3.194   2.929  0.1339 -0.0528  0.3762
 3356SOL    HW121704   2.250   3.206   3.023  1.2049 -0.0033  0.5298
 3356SOL    HW221705   2.207   3.119   2.912  0.7180 -0.7042  1.3024
 3357SOL     OW21706   4.089   2.540   3.107 -0.7003 -0.8195  0.6147
 3357SOL    HW121707   4.012   2.501   3.064  0.1647 -3.0307  1.0332
 3357SOL    HW221708   4.112   2.466   3.164 -2.2368 -1.3395  0.5711
 3358SOL     OW21709   2.318   3.526  12.453 -0.2134  0.8706 -0.2111
 3358SOL    HW121710   2.374   3.548  12.527 -1.4207 -1.5531  1.4365
 3358SOL    HW221711   2.292   3.435  12.466 -0.0909  0.7676 -0.6850
 3359SOL     OW21712   3.913   2.397   5.879  0.3971 -0.4876 -0.7013
 3359SOL    HW121713   3.987   2.359   5.926  0.4695 -2.2814 -2.2187
 3359SOL    HW221714   3.857   2.422   5.952 -0.2739  0.8116 -1.6681
 3360SOL     OW21715   2.050   0.615   8.254  0.0336  0.3871  0.1565
 3360SOL    HW121716   2.051   0.693   8.310  0.7530  1.0479 -0.7684
 3360SOL    HW221717   1.957   0.606   8.234 -0.2590 -2.7648  3.0734
 3361SOL     OW21718   3.438   2.713  15.227  0.3319 -0.1087  0.2403
 3361SOL    HW121719   3.467   2.753  15.145 -0.4696  0.7769  0.3876
 3361SOL    HW221720   3.442   2.623  15.195 -0.7272 -0.4847  1.1643
 3362SOL     OW21721   4.473   2.943   0.135  0.3552  0.2979  0.1731
 3362SOL    HW121722   4.377   2.938   0.138  0.3210  0.7206 -0.2817
 3362SOL    HW221723   4.492   2.884   0.062 -1.1780 -0.4361  0.3459
 3363SOL     OW21724   0.788   2.622   1.090  0.0169  0.4082  0.1574
 3363SOL    HW121725   0.714   2.572   1.125 -0.7628 -1.3360 -4.0037
 3363SOL    HW221726   0.774   2.635   0.997  0.0491 -2.2646 -0.2349
 3364SOL     OW21727   4.158   4.647   3.209  0.2920 -0.2157 -0.2251
 3364SOL    HW121728   4.169   4.686   3.295  0.4998  0.4162 -0.5358
 3364SOL    HW221729   4.243   4.606   3.193  0.2070  0.5015 -2.5358
 3365SOL     OW21730   4.248   4.216  13.348 -0.4776 -0.7490 -0.7053
 3365SOL    HW121731   4.250   4.311  13.358 -0.9494 -0.6340 -1.6464
 3365SOL    HW221732   4.243   4.193  13.440 -0.2781  3.2917  0.3230
 3366SOL     OW21733   3.008   3.753   7.340 -0.0341  0.1217 -0.2452
 3366SOL    HW121734   3.038   3.678   7.288 -0.4693  0.6660 -1.2641
 3366SOL    HW221735   2.982   3.811   7.269 -0.1475 -0.0993 -0.3843
 3367SOL     OW21736   2.174   1.469   2.003 -0.6050  0.1527 -0.4230
 3367SOL    HW121737   2.158   1.392   1.948  1.5352 -1.9598  1.9168
 3367SOL    HW221738   2.092   1.471   2.052 -1.9828  1.4450 -2.7407
 3368SOL     OW21739   3.178   3.030  15.099 -0.0045 -0.6673 -0.7660
 3368SOL    HW121740   3.148   3.012  15.188 -1.3365 -0.1994 -1.1130
 3368SOL    HW221741   3.257   2.977  15.100 -0.2590 -1.0311  0.0258
 3369SOL     OW21742   3.598   0.040   4.347 -0.1936 -0.4236 -0.0137
 3369SOL    HW121743   3.618   4.704   4.404  1.4365  0.1683  0.1691
 3369SOL    HW221744   3.656   0.025   4.273  1.1467 -0.5813  1.0718
 3370SOL     OW21745   1.811   0.721   2.361 -0.2045  0.3913 -0.0452
 3370SOL    HW121746   1.816   0.625   2.371  1.9966  0.5325  0.2955
 3370SOL    HW221747   1.807   0.737   2.455  1.0080 -1.2318  0.2960
 3371SOL     OW21748   3.662   0.019  16.273 -0.9631 -0.0226  0.0024
 3371SOL    HW121749   3.620   4.689  16.222 -0.4773  1.3393 -2.2008
 3371SOL    HW221750   3.594   0.032  16.340  0.7337 -0.7850  1.8623
 3372SOL     OW21751   3.445   3.168  16.271  0.4061 -0.1893 -0.4958
 3372SOL    HW121752   3.356   3.171  16.305  0.6277  0.6665  0.0111
 3372SOL    HW221753   3.481   3.210  16.349 -1.7319  0.2510  0.2417
 3373SOL     OW21754   4.400   3.381   8.022  0.0692 -0.4470 -0.0374
 3373SOL    HW121755   4.495   3.388   8.035 -0.0536 -0.7816  1.0512
 3373SOL    HW221756   4.372   3.400   8.112 -0.9395  0.8167 -0.6144
 3374SOL     OW21757   0.735   1.661  12.589  0.2299 -0.1736  0.0977
 3374SOL    HW121758   0.809   1.721  12.583 -1.1661  1.4555 -0.7527
 3374SOL    HW221759   0.785   1.584  12.560  0.4350  0.3055 -0.8303
 3375SOL     OW21760   4.588   3.065   1.847  0.7544 -0.5669  0.7240
 3375SOL    HW121761   4.580   2.970   1.837 -0.9810 -0.4771  1.2611
 3375SOL    HW221762   4.682   3.074   1.861  0.2437  2.0667  2.5864
 3376SOL     OW21763   1.070   2.656   7.352  0.3222 -0.2070  0.0259
 3376SOL    HW121764   0.994   2.598   7.348 -0.2782  0.2252  5.2080
 3376SOL    HW221765   1.039   2.717   7.285 -0.0588 -1.2132 -0.7164
 3377SOL     OW21766   0.125   2.317   2.424 -0.1373  0.6653 -0.1975
 3377SOL    HW121767   0.090   2.240   2.468 -1.1671  1.3959  0.2565
 3377SOL    HW221768   0.121   2.368   2.505 -0.6550  0.0644  0.1488
 3378SOL     OW21769   4.343   4.642   4.732  0.1109 -0.2546 -0.0117
 3378SOL    HW121770   4.268   4.595   4.695  1.0126 -2.7202  1.2482
 3378SOL    HW221771   4.303   4.723   4.763  1.0332 -0.7470  2.4838
 3379SOL     OW21772   2.027   0.581  11.612  0.9884  0.0297  0.6963
 3379SOL    HW121773   2.018   0.488  11.635 -0.1942 -0.3238 -1.2262
 3379SOL    HW221774   2.100   0.611  11.666  1.4971  0.4167 -0.2150
 3380SOL     OW21775   3.490   1.116   8.600 -0.0369 -0.5837 -0.2129
 3380SOL    HW121776   3.564   1.106   8.660 -0.1875  0.9647  0.2500
 3380SOL    HW221777   3.470   1.208   8.617 -1.4054 -0.7604 -0.8595
 3381SOL     OW21778   0.683   1.184  16.025  0.8128  0.4490 -0.2535
 3381SOL    HW121779   0.747   1.219  16.086  1.1277  3.7718 -2.4335
 3381SOL    HW221780   0.676   1.090  16.043 -0.8246  0.8635  1.2600
 3382SOL     OW21781   4.631   4.532   1.459 -0.4969  0.0965  0.2960
 3382SOL    HW121782   4.678   4.535   1.376 -1.5588 -1.2436 -0.3455
 3382SOL    HW221783   4.681   4.478   1.520 -4.0599 -1.7388  1.5940
 3383SOL     OW21784   0.698   3.123   3.371 -0.0730  0.7540  0.6535
 3383SOL    HW121785   0.631   3.168   3.422  2.0091  0.9146  3.2412
 3383SOL    HW221786   0.652   3.040   3.357 -1.1102  1.8549 -2.6322
 3384SOL     OW21787   0.093   2.552  12.981  0.2268  0.0061  0.7309
 3384SOL    HW121788   0.178   2.585  12.952  0.1501 -1.8263 -1.5573
 3384SOL    HW221789   0.065   2.490  12.914  0.2145 -3.1605  3.6773
 3385SOL     OW21790   2.400   1.258   6.540  0.2541 -0.0626 -0.1997
 3385SOL    HW121791   2.445   1.205   6.606 -0.9633  0.9461  1.4460
 3385SOL    HW221792   2.403   1.196   6.467  1.1556  0.2198 -0.3917
 3386SOL     OW21793   3.675   3.658   3.833  0.4494  0.1256  0.0199
 3386SOL    HW121794   3.724   3.581   3.860 -0.8601 -1.1666 -1.2709
 3386SOL    HW221795   3.635   3.677   3.918 -2.0108 -2.7407 -0.4859
 3387SOL     OW21796   1.174   1.429   5.935  0.1040  0.7300  0.4822
 3387SOL    HW121797   1.224   1.352   5.908 -1.5717 -0.6866  1.3940
 3387SOL    HW221798   1.160   1.404   6.027  0.9484  2.1667  1.0101
 3388SOL     OW21799   3.322   2.621  13.192 -0.4793 -0.3081 -0.6419
 3388SOL    HW121800   3.283   2.543  13.152 -0.9931 -0.0544 -0.6297
 3388SOL    HW221801   3.407   2.588  13.219 -0.8274 -2.6426 -2.3417
 3389SOL     OW21802   2.641   4.389   0.385  0.1947 -0.0692 -0.5413
 3389SOL    HW121803   2.725   4.348   0.404 -0.5030 -0.0749  2.4876
 3389SOL    HW221804   2.672   4.450   0.318  2.1620 -1.1314 -0.5929
 3390SOL     OW21805   3.404   2.570   7.648 -0.0725 -0.4051 -0.1166
 3390SOL    HW121806   3.315   2.554   7.620  0.8147 -1.8529 -2.0581
 3390SOL    HW221807   3.407   2.664   7.670  1.9448 -0.3522 -0.6271
 3391SOL     OW21808   0.925   1.324   4.851  0.2776 -0.2135 -0.1957
 3391SOL    HW121809   0.922   1.237   4.892  1.8849 -0.3470 -0.3480
 3391SOL    HW221810   1.010   1.359   4.879 -0.4670  3.0364 -2.1125
 3392SOL     OW21811   1.148   1.984   7.351 -0.4726  0.0909  0.0719
 3392SOL    HW121812   1.180   1.915   7.292  0.7151  1.0568 -0.4335
 3392SOL    HW221813   1.160   1.942   7.436  1.9224 -0.4141 -0.5001
 3393SOL     OW21814   4.481   3.897  12.695 -0.5826 -0.4697  0.3121
 3393SOL    HW121815   4.571   3.871  12.712  0.6468  1.8472 -2.6257
 3393SOL    HW221816   4.465   3.977  12.746 -0.2046 -0.6825  0.7555
 3394SOL     OW21817   3.279   4.358   2.048 -0.2863 -0.1463  0.0905
 3394SOL    HW121818   3.289   4.298   1.974  0.2832  0.9088 -0.6880
 3394SOL    HW221819   3.351   4.421   2.050  0.0907 -0.5556 -0.3215
 3395SOL     OW21820   4.133   1.155   1.767  0.2322 -0.5448  0.2277
 3395SOL    HW121821   4.130   1.200   1.683  0.5384  0.0102  0.5144
 3395SOL    HW221822   4.079   1.077   1.758  0.4233 -0.6817  0.2524
 3396SOL     OW21823   1.599   4.537   9.345  0.2016  0.0158 -0.6069
 3396SOL    HW121824   1.519   4.523   9.397  0.6492 -0.5885 -0.0814
 3396SOL    HW221825   1.569   4.614   9.296 -0.8609  0.4172  0.6691
 3397SOL     OW21826   1.109   0.054   2.930  0.7031  0.2703  0.1860
 3397SOL    HW121827   1.123   4.699   2.918 -1.2158 -0.0365  0.3042
 3397SOL    HW221828   1.055   0.043   3.008  2.4011 -0.9715  1.1914
 3398SOL     OW21829   4.430   3.819   0.815  0.6397  0.3153  0.1991
 3398SOL    HW121830   4.445   3.912   0.800  0.5980  0.3491  0.3726
 3398SOL    HW221831   4.515   3.779   0.831 -0.3359 -2.8673 -2.3844
 3399SOL     OW21832   0.212   0.404   0.233  0.2534 -0.0938 -0.4320
 3399SOL    HW121833   0.213   0.498   0.249  1.1380 -0.0121 -1.0106
 3399SOL    HW221834   0.217   0.371   0.323 -2.4331  1.5123  0.2976
 3400SOL     OW21835   3.747   0.492   8.344 -0.0168 -0.0907  0.0185
 3400SOL    HW121836   3.743   0.492   8.440  2.5936 -0.4008  0.1296
 3400SOL    HW221837   3.700   0.413   8.317  1.6553 -0.8689 -0.6823
 3401SOL     OW21838   1.392   4.039   6.161 -0.1473  0.5269 -0.4996
 3401SOL    HW121839   1.404   4.002   6.249  0.8604  2.4449  0.1682
 3401SOL    HW221840   1.425   3.963   6.113  1.7031  2.3661 -2.1838
 3402SOL     OW21841   3.519   2.267   1.729 -0.0566  0.1542  0.3101
 3402SOL    HW121842   3.605   2.227   1.714  0.7040  1.8225  0.3017
 3402SOL    HW221843   3.543   2.358   1.746 -1.4517  0.0559  2.8246
 3403SOL     OW21844   2.920   0.100   6.197 -0.6674  0.2409  0.5204
 3403SOL    HW121845   3.008   0.127   6.168 -0.4805  0.1674  1.0088
 3403SOL    HW221846   2.938   0.081   6.289  0.8984 -0.8277  0.0058
 3404SOL     OW21847   0.537   3.488  16.429  0.1810  0.1196  0.1721
 3404SOL    HW121848   0.498   3.432  16.496  1.1317  0.9936  1.4616
 3404SOL    HW221849   0.548   3.420  16.362 -0.7822 -0.2520  0.3918
 3405SOL     OW21850   2.912   3.248   2.837  0.5441  0.0517 -0.5485
 3405SOL    HW121851   2.934   3.281   2.924  0.2070 -0.7862 -0.1524
 3405SOL    HW221852   2.887   3.333   2.800  1.1643  2.1105  3.7872
 3406SOL     OW21853   2.664   4.157   5.581 -0.0858 -0.6387  0.5729
 3406SOL    HW121854   2.723   4.166   5.656  0.6697  2.1187 -0.3510
 3406SOL    HW221855   2.733   4.140   5.516 -0.3715 -0.3321  0.1847
 3407SOL     OW21856   4.397   0.382   4.362  0.2483  0.1007  0.5193
 3407SOL    HW121857   4.425   0.294   4.338  3.4634  1.0102  0.9116
 3407SOL    HW221858   4.321   0.381   4.305 -0.7104  0.2905  1.8122
 3408SOL     OW21859   1.876   2.210  11.700 -0.4755 -0.3029  0.0227
 3408SOL    HW121860   1.953   2.163  11.731  0.8201  0.6245 -1.8094
 3408SOL    HW221861   1.895   2.294  11.742 -1.0161  0.6586 -1.6331
 3409SOL     OW21862   3.465   4.126   6.051 -0.4218 -0.2318 -0.0645
 3409SOL    HW121863   3.541   4.184   6.066  0.4998 -1.3993 -0.2013
 3409SOL    HW221864   3.463   4.086   6.137  0.7156 -0.4226 -0.1179
 3410SOL     OW21865   0.707   2.508   6.504  0.2568 -0.4373  0.4277
 3410SOL    HW121866   0.793   2.482   6.472 -0.0916  0.3532 -1.1348
 3410SOL    HW221867   0.677   2.569   6.436  1.1964  0.3516  0.7267
 3411SOL     OW21868   3.305   4.619   9.659 -0.6371  0.1909  0.3812
 3411SOL    HW121869   3.260   4.702   9.639 -1.8755 -0.3056  1.1369
 3411SOL    HW221870   3.227   4.565   9.672  0.1536 -0.7705  1.1069
 3412SOL     OW21871   1.289   0.523  13.509 -0.2850  0.4402 -0.4522
 3412SOL    HW121872   1.298   0.610  13.549  0.3927  0.3932 -0.5054
 3412SOL    HW221873   1.311   0.467  13.583 -1.4514  0.9382  0.2564
 3413SOL     OW21874   4.678   0.922   4.656 -0.4954 -0.1808 -0.3438
 3413SOL    HW121875   4.731   0.876   4.590  1.3342 -0.1330  1.0837
 3413SOL    HW221876   4.600   0.936   4.603 -1.3006  0.3084  0.9759
 3414SOL     OW21877   3.077   3.489  13.070  0.1483  0.5634 -0.5004
 3414SOL    HW121878   3.044   3.419  13.014  0.1193  0.4428 -0.3355
 3414SOL    HW221879   3.144   3.523  13.011  0.9919 -0.8356 -0.3717
 3415SOL     OW21880   0.953   4.384   4.234 -0.6457  0.4101  0.1445
 3415SOL    HW121881   0.930   4.398   4.326 -2.8388 -3.2153  0.1336
 3415SOL    HW221882   0.905   4.458   4.198  0.4041  0.9289 -0.1785
 3416SOL     OW21883   1.702   4.430   2.333 -0.0895 -0.0762  0.4492
 3416SOL    HW121884   1.646   4.376   2.277  3.3013 -0.6597 -2.3423
 3416SOL    HW221885   1.748   4.467   2.257 -0.4852 -1.6974 -0.5803
 3417SOL     OW21886   1.125   3.842  11.821 -0.3870  0.1937  0.4380
 3417SOL    HW121887   1.118   3.824  11.728  0.4655  0.8356  0.2455
 3417SOL    HW221888   1.111   3.753  11.854 -0.7929  0.3288  0.6282
 3418SOL     OW21889   1.483   0.161   1.632 -0.0884  0.1830 -0.0709
 3418SOL    HW121890   1.513   0.080   1.592 -0.7366 -0.1786  0.1593
 3418SOL    HW221891   1.558   0.219   1.640  0.2533 -0.3399  0.5437
 3419SOL     OW21892   0.579   1.435   9.091 -0.6950  0.1887  0.7546
 3419SOL    HW121893   0.548   1.365   9.149 -0.3738  0.0948  0.8121
 3419SOL    HW221894   0.535   1.400   9.014  0.1646  0.1639  0.2778
 3420SOL     OW21895   3.751   0.541   1.991 -0.1481 -0.0932 -0.3332
 3420SOL    HW121896   3.813   0.549   1.918  2.0579  1.6178  1.7490
 3420SOL    HW221897   3.790   0.587   2.065 -1.1596  1.9639 -1.0712
 3421SOL     OW21898   4.505   1.258   5.425  0.6325  0.2139  0.5779
 3421SOL    HW121899   4.527   1.195   5.355  0.4859  0.3240  0.4331
 3421SOL    HW221900   4.511   1.340   5.375 -1.0366  0.2735  0.4777
 3422SOL     OW21901   3.525   0.087   2.852  0.2115 -0.2861  0.4863
 3422SOL    HW121902   3.440   0.051   2.879  0.5467 -1.7507 -0.4126
 3422SOL    HW221903   3.569   0.005   2.830 -0.1482 -0.2284 -0.4125
 3423SOL     OW21904   1.645   3.095   4.258 -0.2538 -1.1572  0.1480
 3423SOL    HW121905   1.729   3.054   4.237 -0.9897 -1.4186 -2.3721
 3423SOL    HW221906   1.608   3.027   4.314 -0.5664  0.0425  1.3929
 3424SOL     OW21907   2.589   2.084  17.520  0.7812  1.1185  0.7070
 3424SOL    HW121908   2.528   2.096  17.593 -0.0133  0.4270  0.1599
 3424SOL    HW221909   2.551   2.115  17.438 -1.0458  0.4000  1.2717
 3425SOL     OW21910   1.713   4.618  14.470 -0.1088 -0.0339 -0.2498
 3425SOL    HW121911   1.646   4.605  14.403  0.5903 -2.0754 -0.5648
 3425SOL    HW221912   1.781   4.653  14.413  1.1109 -1.7076  0.1502
 3426SOL     OW21913   0.310   1.113   3.287 -0.2922  0.3633  0.2879
 3426SOL    HW121914   0.291   1.032   3.239  0.0071 -0.1037  0.9483
 3426SOL    HW221915   0.371   1.159   3.229 -0.8202 -0.2645 -0.7528
 3427SOL     OW21916   2.366   3.155  15.555  0.2597  0.3967 -0.1924
 3427SOL    HW121917   2.276   3.182  15.535  0.4984  2.1157  1.0838
 3427SOL    HW221918   2.355   3.064  15.585  0.1805  0.8670  1.1903
 3428SOL     OW21919   0.780   1.894   7.309 -0.4305 -0.3909 -0.6602
 3428SOL    HW121920   0.814   1.804   7.304 -0.9376 -0.6421  0.5233
 3428SOL    HW221921   0.833   1.928   7.236  2.5188  2.5156  2.8618
 3429SOL     OW21922   0.075   3.792  13.379  0.2289 -0.1332 -0.1612
 3429SOL    HW121923   0.048   3.875  13.340  1.9826  0.1328 -0.7746
 3429SOL    HW221924   0.169   3.793  13.365 -0.1034 -0.4037 -2.5377
 3430SOL     OW21925   1.165   3.639   9.463 -0.0341  0.1254  0.2616
 3430SOL    HW121926   1.170   3.560   9.517 -4.3493  0.8623  1.7662
 3430SOL    HW221927   1.190   3.708   9.524 -0.2377 -1.0569  1.6736
 3431SOL     OW21928   0.360   1.153  15.620 -0.1590 -0.6096  0.0798
 3431SOL    HW121929   0.284   1.103  15.651 -0.9962 -0.1096 -1.1583
 3431SOL    HW221930   0.398   1.181  15.703 -0.4855  0.5376 -0.1672
 3432SOL     OW21931   3.343   4.155   2.857  0.1071  0.3484  0.2079
 3432SOL    HW121932   3.299   4.070   2.861 -1.8613  1.3833  0.8934
 3432SOL    HW221933   3.428   4.119   2.881  0.3578  0.3188 -0.7367
 3433SOL     OW21934   2.810   3.243   4.969 -0.2050 -0.1492 -0.0512
 3433SOL    HW121935   2.882   3.258   5.030 -0.1572 -1.3305  0.1768
 3433SOL    HW221936   2.792   3.335   4.948 -0.3698 -0.6791 -2.2711
 3434SOL     OW21937   3.788   3.762   2.819 -0.4620  1.2221 -0.2868
 3434SOL    HW121938   3.791   3.667   2.811  1.5164  1.3571 -1.0465
 3434SOL    HW221939   3.789   3.793   2.729 -0.8548  0.4613 -0.5504
 3435SOL     OW21940   1.943   0.383   2.906  0.0674  0.4639 -0.2237
 3435SOL    HW121941   1.961   0.476   2.922 -1.2622  0.9207 -1.3411
 3435SOL    HW221942   2.004   0.343   2.967 -0.1700  1.8057  0.9005
 3436SOL     OW21943   4.181   0.243  13.704  0.5324  0.0701  0.3273
 3436SOL    HW121944   4.094   0.282  13.711  0.8629  1.0575 -1.1004
 3436SOL    HW221945   4.204   0.238  13.796  0.6119  0.0727  0.3079
 3437SOL     OW21946   3.561   2.189   6.414 -0.1002 -0.6556  0.2505
 3437SOL    HW121947   3.618   2.166   6.488  0.8516  2.1206  0.3574
 3437SOL    HW221948   3.547   2.111   6.361 -3.1310 -0.0153  0.1163
 3438SOL     OW21949   1.602   2.342   5.168 -0.2607 -0.2219  0.1660
 3438SOL    HW121950   1.562   2.428   5.176  2.0737  0.7420  1.3010
 3438SOL    HW221951   1.690   2.365   5.196 -1.3151  3.3222  0.5419
 3439SOL     OW21952   2.997   0.534   7.454 -0.1509 -0.6085 -0.1014
 3439SOL    HW121953   2.971   0.572   7.370  0.3632  0.0690  0.0524
 3439SOL    HW221954   3.089   0.557   7.463  0.0778 -1.9109  0.8535
 3440SOL     OW21955   4.727   0.716   7.629 -0.4478  0.0368 -0.2619
 3440SOL    HW121956   4.667   0.728   7.702  0.5275 -2.1001  0.8824
 3440SOL    HW221957   4.669   0.680   7.563  0.5346 -2.7549  0.4032
 3441SOL     OW21958   2.465   2.005  10.438  0.3338  0.2055 -0.6752
 3441SOL    HW121959   2.522   2.081  10.427  1.6180 -0.5058  0.9703
 3441SOL    HW221960   2.464   1.960  10.354 -0.1296 -1.3630  0.1756
 3442SOL     OW21961   3.449   1.991   7.717 -0.4897 -0.3630  0.0903
 3442SOL    HW121962   3.445   2.077   7.757  0.0589 -0.4622  0.3602
 3442SOL    HW221963   3.532   2.002   7.671  0.2749 -0.4823  1.4684
 3443SOL     OW21964   0.645   2.929   4.901 -0.1389 -0.3031 -0.2748
 3443SOL    HW121965   0.725   2.881   4.879  0.3813  1.3693 -2.0423
 3443SOL    HW221966   0.644   2.996   4.832  0.8024 -0.6422 -0.6139
 3444SOL     OW21967   0.181   0.857   7.827 -0.8127  0.5267 -0.0606
 3444SOL    HW121968   0.132   0.866   7.745  0.0918  1.8146 -0.4696
 3444SOL    HW221969   0.109   0.867   7.889  0.2508  2.2765  0.8829
 3445SOL     OW21970   2.868   4.566   6.130 -0.0506 -0.2971 -0.5213
 3445SOL    HW121971   2.846   4.560   6.223 -1.5072 -2.5833 -1.0289
 3445SOL    HW221972   2.866   4.661   6.114  1.0992 -0.5961 -2.4085
 3446SOL     OW21973   0.250   4.506   2.244  0.0513  0.5571 -0.0289
 3446SOL    HW121974   0.339   4.538   2.258  1.4859 -2.9361 -0.9415
 3446SOL    HW221975   0.195   4.568   2.291 -0.9320  0.4788 -1.0791
 3447SOL     OW21976   1.408   4.639   2.715  0.8623  0.3847 -0.4255
 3447SOL    HW121977   1.428   4.733   2.714 -3.2481  1.3195  3.6612
 3447SOL    HW221978   1.487   4.602   2.677 -0.7954 -1.2459 -2.2771
 3448SOL     OW21979   4.258   4.098   9.225 -0.2903  1.3396  0.1587
 3448SOL    HW121980   4.306   4.057   9.153 -1.4849 -1.8462  1.1519
 3448SOL    HW221981   4.216   4.020   9.263 -0.9818  1.5797 -0.1124
 3449SOL     OW21982   2.690   2.039   1.558  0.0911 -0.6436 -0.1118
 3449SOL    HW121983   2.607   2.085   1.548  1.0237  0.9395 -0.6481
 3449SOL    HW221984   2.743   2.117   1.576  0.6705 -0.5871 -2.0418
 3450SOL     OW21985   3.789   3.085   4.362 -0.0579 -0.3494 -0.8599
 3450SOL    HW121986   3.852   3.091   4.434  0.1530  1.4112 -1.1863
 3450SOL    HW221987   3.723   3.145   4.396 -1.1355  0.8673 -5.0744
 3451SOL     OW21988   3.645   0.251  17.319 -0.1695  0.3979 -0.6832
 3451SOL    HW121989   3.684   0.334  17.346 -0.8552  0.2981  0.6125
 3451SOL    HW221990   3.721   0.195  17.333 -0.8061  0.0368  1.3513
 3452SOL     OW21991   2.929   4.429  14.181 -0.0739  0.5360  0.3147
 3452SOL    HW121992   2.853   4.444  14.237  0.0859  1.6266  0.2412
 3452SOL    HW221993   2.957   4.344  14.213 -2.0943 -0.2428  0.0416
 3453SOL     OW21994   0.776   1.250   7.659  0.0341 -0.1472 -0.1270
 3453SOL    HW121995   0.727   1.277   7.736  2.1262  1.4761  0.6195
 3453SOL    HW221996   0.708   1.192   7.625  1.3286 -2.1495  0.7028
 3454SOL     OW21997   2.375   3.062  10.010 -0.0805  0.6832 -0.2872
 3454SOL    HW121998   2.393   2.993   9.946 -0.8062 -0.5917  0.8718
 3454SOL    HW221999   2.303   3.106   9.963 -1.3943 -0.5496  0.5603
 3455SOL     OW22000   4.684   0.940   8.272 -0.1233 -0.5873  0.0536
 3455SOL    HW122001   4.686   0.984   8.187  3.7662  2.7778  1.8983
 3455SOL    HW222002   4.682   0.852   8.236  0.4244 -1.4257  2.0431
 3456SOL     OW22003   4.319   2.260  11.271 -0.1854  0.5817  0.2568
 3456SOL    HW122004   4.278   2.319  11.208  0.8571 -0.2164 -1.1804
 3456SOL    HW222005   4.370   2.316  11.329 -0.8905 -0.5810  1.9922
 3457SOL     OW22006   2.149   2.881  11.846 -0.4706 -0.0228  0.0012
 3457SOL    HW122007   2.100   2.963  11.843  0.4476  0.5675  0.9924
 3457SOL    HW222008   2.232   2.904  11.888 -0.7179  0.5682  0.1641
 3458SOL     OW22009   1.613   3.611   4.489  0.5526  0.0851  0.1517
 3458SOL    HW122010   1.668   3.625   4.566  0.5279  1.4118 -0.0806
 3458SOL    HW222011   1.627   3.517   4.478  0.7781  0.1730 -0.3233
 3459SOL     OW22012   3.138   2.175  14.901 -0.1736  0.2932  0.7326
 3459SOL    HW122013   3.055   2.134  14.877  0.6292  0.8521 -3.0981
 3459SOL    HW222014   3.176   2.107  14.956  1.8391  1.0543  0.2982
 3460SOL     OW22015   3.826   0.890   8.630  0.0008  0.1824 -0.1973
 3460SOL    HW122016   3.791   0.976   8.653 -0.5267  0.5949 -2.5387
 3460SOL    HW222017   3.789   0.830   8.694  1.9992 -0.9733 -0.1396
 3461SOL     OW22018   1.384   2.354   5.671  0.3043  0.6451 -0.1464
 3461SOL    HW122019   1.367   2.414   5.599 -1.1331 -0.1585 -0.4689
 3461SOL    HW222020   1.462   2.308   5.639 -0.4335 -1.2991  0.8375
 3462SOL     OW22021   3.561   1.184   6.604  0.1552  0.3013  0.0462
 3462SOL    HW122022   3.541   1.115   6.540  1.7487 -0.3203  0.2187
 3462SOL    HW222023   3.485   1.202   6.659 -0.5965 -0.5198 -0.7097
 3463SOL     OW22024   4.169   3.143   8.505  0.3432 -0.4031 -0.4221
 3463SOL    HW122025   4.159   3.130   8.599  1.0656 -2.2203 -0.6061
 3463SOL    HW222026   4.244   3.086   8.488 -0.0150 -1.0441  0.1834
 3464SOL     OW22027   2.104   1.532  16.396  0.0125  0.3390  0.1124
 3464SOL    HW122028   2.169   1.596  16.369  1.2829 -0.3227  1.5937
 3464SOL    HW222029   2.128   1.451  16.351 -0.3315  1.1408 -1.4800
 3465SOL     OW22030   1.648   3.970   9.279 -0.3124  0.4146 -0.1469
 3465SOL    HW122031   1.610   4.058   9.279 -0.8303  0.1962 -0.6460
 3465SOL    HW222032   1.578   3.914   9.311 -0.5679  0.6626 -0.2724
 3466SOL     OW22033   3.368   2.308   8.241  0.1481  0.0265  0.4882
 3466SOL    HW122034   3.394   2.278   8.154  1.3073  1.0796  0.4525
 3466SOL    HW222035   3.372   2.223   8.285 -1.2616  0.8052  2.1173
 3467SOL     OW22036   2.643   2.323  16.272 -0.2013 -0.2601  0.1358
 3467SOL    HW122037   2.688   2.256  16.221  0.6493 -0.1248  0.7030
 3467SOL    HW222038   2.605   2.371  16.199 -2.6196 -0.0057  1.5433
 3468SOL     OW22039   1.686   2.209   8.694 -0.2104  0.4290 -0.0094
 3468SOL    HW122040   1.642   2.211   8.608 -1.9187  1.8058  0.8929
 3468SOL    HW222041   1.760   2.149   8.692  2.8504  4.3001 -1.1659
 3469SOL     OW22042   1.005   1.968   7.981  0.0852  0.1142 -0.4737
 3469SOL    HW122043   0.951   1.990   7.905  0.2166 -3.7415 -1.6751
 3469SOL    HW222044   1.009   2.050   8.032 -2.5402  0.4608 -0.8655
 3470SOL     OW22045   0.126   0.638   6.043 -0.3614  0.0060 -0.8354
 3470SOL    HW122046   0.160   0.710   5.990 -5.0510  2.6277 -0.1896
 3470SOL    HW222047   0.159   0.669   6.128 -2.1392 -1.6849  0.4821
 3471SOL     OW22048   3.627   2.695   8.720  0.1470  0.3196  0.4829
 3471SOL    HW122049   3.610   2.690   8.814 -0.4738 -0.2422  0.3440
 3471SOL    HW222050   3.683   2.618   8.710 -1.2704 -0.7961  1.1540
 3472SOL     OW22051   3.657   1.554   3.342  0.2850  0.7592  0.7192
 3472SOL    HW122052   3.705   1.490   3.289  0.3339  0.7422  0.7837
 3472SOL    HW222053   3.719   1.588   3.407 -0.6508  1.2205  1.3662
 3473SOL     OW22054   2.213   4.175   7.959 -0.4519  0.1208  0.4049
 3473SOL    HW122055   2.268   4.124   7.899  0.7011  0.6351  1.0109
 3473SOL    HW222056   2.143   4.195   7.897 -0.4241 -0.0323  0.3225
 3474SOL     OW22057   0.601   1.087  15.038 -0.3343  0.1906 -0.4726
 3474SOL    HW122058   0.575   1.046  15.120 -0.8550 -1.5297 -1.5004
 3474SOL    HW222059   0.582   1.017  14.976  0.0761  0.2975 -0.7178
 3475SOL     OW22060   3.703   0.161   5.714 -0.4498 -0.2203  0.3849
 3475SOL    HW122061   3.703   0.239   5.659 -4.6393 -0.0054  0.7628
 3475SOL    HW222062   3.753   0.180   5.794 -0.3308  0.1923  0.2118
 3476SOL     OW22063   3.781   1.765  10.164  0.2950 -0.2062  0.2575
 3476SOL    HW122064   3.790   1.848  10.210 -0.6126 -0.4728  0.9187
 3476SOL    HW222065   3.869   1.726  10.160  1.2689  2.0780 -0.6514
 3477SOL     OW22066   4.536   3.278   9.884 -0.3495 -0.2569 -0.4973
 3477SOL    HW122067   4.518   3.203   9.828  0.2238 -1.2656  0.6525
 3477SOL    HW222068   4.608   3.246   9.939 -1.3323 -1.6039  0.0071
 3478SOL     OW22069   1.391   4.633   0.783  0.2856  0.1218 -0.2555
 3478SOL    HW122070   1.423   4.543   0.774  0.9919  0.2206  1.1154
 3478SOL    HW222071   1.444   4.672   0.714 -1.0656  0.5456 -1.0457
 3479SOL     OW22072   1.548   0.818  17.144 -0.4262 -0.4795  0.5365
 3479SOL    HW122073   1.462   0.832  17.104  0.7486  1.1877 -1.4338
 3479SOL    HW222074   1.599   0.771  17.078 -0.8374  0.3682 -0.3949
 3480SOL     OW22075   0.688   1.458   5.017 -0.0017 -0.0576 -0.0432
 3480SOL    HW122076   0.651   1.535   4.974 -0.3683  0.7295  1.6527
 3480SOL    HW222077   0.748   1.433   4.948  0.6882  0.5105  0.3502
 3481SOL     OW22078   4.382   1.793  12.792  0.2921 -0.1878 -0.1103
 3481SOL    HW122079   4.390   1.751  12.707 -1.3467  0.9675 -0.8280
 3481SOL    HW222080   4.294   1.830  12.788  1.0346  1.9177  2.4252
 3482SOL     OW22081   3.432   2.696   8.922 -0.1169 -0.1484  0.2786
 3482SOL    HW122082   3.360   2.644   8.886  0.2038  1.4551 -2.7704
 3482SOL    HW222083   3.399   2.782   8.894 -0.1509 -0.0565  0.6055
 3483SOL     OW22084   4.420   0.672  13.160  0.2879 -0.1978 -0.4040
 3483SOL    HW122085   4.453   0.762  13.156  1.3572 -0.4748  2.4301
 3483SOL    HW222086   4.372   0.669  13.243  0.5510  0.0806 -0.2448
 3484SOL     OW22087   1.061   1.175   0.902  0.0648 -0.8327  0.0502
 3484SOL    HW122088   1.097   1.264   0.908  0.8100 -1.1194 -0.2372
 3484SOL    HW222089   1.125   1.118   0.945  1.4928  0.6508 -0.1101
 3485SOL     OW22090   3.790   2.227   6.878 -0.0290  0.5081  0.0379
 3485SOL    HW122091   3.834   2.157   6.927 -2.2254  0.0331  1.3420
 3485SOL    HW222092   3.741   2.276   6.943 -1.0459 -1.3810  0.6805
 3486SOL     OW22093   4.374   4.616  14.901  0.3235 -0.0630  0.6620
 3486SOL    HW122094   4.291   4.608  14.852 -0.4084 -3.2898  2.4069
 3486SOL    HW222095   4.389   4.708  14.883  1.8782 -0.5811 -0.6687
 3487SOL     OW22096   3.728   0.249   8.710 -0.0594 -0.0315  0.6579
 3487SOL    HW122097   3.642   0.284   8.687 -1.3774 -1.6738  3.0495
 3487SOL    HW222098   3.776   0.328   8.687 -0.9490  0.9247  2.1398
 3488SOL     OW22099   3.029   1.983   6.593 -0.5826 -0.4378 -0.2574
 3488SOL    HW122100   3.114   2.025   6.578 -1.2723  1.1052  0.1996
 3488SOL    HW222101   2.974   2.030   6.530 -1.9283 -2.7609 -0.8320
 3489SOL     OW22102   3.379   3.424   7.278  0.3057 -0.1722 -0.7427
 3489SOL    HW122103   3.340   3.512   7.279  3.6504  1.3247 -1.4005
 3489SOL    HW222104   3.347   3.397   7.192 -1.2210  1.7418 -0.7733
 3490SOL     OW22105   1.629   1.377   7.223 -0.0945  0.0311  0.0039
 3490SOL    HW122106   1.626   1.459   7.272 -1.3193 -0.3107  0.5198
 3490SOL    HW222107   1.536   1.358   7.208 -0.6954  1.1771  2.3265
 3491SOL     OW22108   0.401   0.576   2.582  0.1391 -0.6692 -0.0045
 3491SOL    HW122109   0.493   0.596   2.566  1.3843 -4.8497  1.7321
 3491SOL    HW222110   0.416   0.515   2.655 -2.0457 -0.5796  0.5241
 3492SOL     OW22111   3.933   3.569   6.241 -0.0160  0.3762 -0.5065
 3492SOL    HW122112   3.849   3.523   6.244  0.2144 -0.0241 -0.1172
 3492SOL    HW222113   3.997   3.502   6.263  1.0288  1.0464 -1.5104
 3493SOL     OW22114   3.172   2.923   7.500 -0.3849 -0.0842  0.6899
 3493SOL    HW122115   3.193   2.854   7.437  1.8355  0.9267  0.2992
 3493SOL    HW222116   3.077   2.921   7.511 -0.7266 -0.9125 -2.3872
 3494SOL     OW22117   3.523   2.354  13.364 -0.9390 -0.9638  0.4095
 3494SOL    HW122118   3.449   2.361  13.425 -1.0513 -1.0735  0.2843
 3494SOL    HW222119   3.587   2.400  13.419  0.5816 -0.4470 -1.8156
 3495SOL     OW22120   1.545   4.257   6.185 -0.0133  1.0272  0.2732
 3495SOL    HW122121   1.622   4.209   6.155 -1.2453 -0.6908 -0.1569
 3495SOL    HW222122   1.486   4.182   6.196  0.0999  0.6794 -1.4766
 3496SOL     OW22123   1.799   1.217   2.441  0.4357  0.5697  0.1441
 3496SOL    HW122124   1.738   1.204   2.368  0.5551  0.9745 -0.0269
 3496SOL    HW222125   1.759   1.153   2.500  1.8203 -0.6857 -0.2637
 3497SOL     OW22126   0.845   4.255  16.745  0.1931 -0.2382 -0.1145
 3497SOL    HW122127   0.839   4.242  16.840 -2.4644  1.4571 -0.0302
 3497SOL    HW222128   0.819   4.346  16.730 -2.1246 -0.7863  0.5077
 3498SOL     OW22129   1.035   1.980  16.946  0.1140 -0.3775  0.1630
 3498SOL    HW122130   1.004   2.040  17.014  1.0780 -0.2515  0.4904
 3498SOL    HW222131   0.961   1.977  16.886  0.4537 -0.0778 -0.2682
 3499SOL     OW22132   1.438   1.208   8.585 -0.2358  0.5295  0.2025
 3499SOL    HW122133   1.402   1.120   8.596 -0.1029  0.8660  3.1037
 3499SOL    HW222134   1.500   1.209   8.658 -0.7370 -0.4746  0.6385
 3500SOL     OW22135   1.482   1.016   4.974  0.3402 -0.0518 -0.0146
 3500SOL    HW122136   1.397   0.975   4.988 -0.6670  1.9864 -0.2611
 3500SOL    HW222137   1.461   1.104   4.943 -1.4892 -0.2033  0.8538
 3501SOL     OW22138   0.171   4.295   7.949 -0.5063  0.0558 -0.2291
 3501SOL    HW122139   0.127   4.288   8.034  2.3941  1.8442  1.4318
 3501SOL    HW222140   0.113   4.237   7.900  0.0738 -2.0511  1.5687
 3502SOL     OW22141   2.896   2.093   9.211  0.1205 -0.6060 -0.3262
 3502SOL    HW122142   2.920   2.102   9.119  1.5448 -0.4043  0.0516
 3502SOL    HW222143   2.848   2.174   9.228  0.3147 -0.5115 -0.2117
 3503SOL     OW22144   2.728   1.942   8.728 -0.2564 -0.5365  0.0935
 3503SOL    HW122145   2.786   1.973   8.797  0.5795 -3.0331  0.5018
 3503SOL    HW222146   2.725   2.025   8.681 -0.2469 -0.0819  0.8916
 3504SOL     OW22147   0.475   2.803   2.462 -0.4894 -0.3377  0.0076
 3504SOL    HW122148   0.512   2.716   2.452 -1.0020 -0.2827 -2.3502
 3504SOL    HW222149   0.548   2.864   2.471 -0.4353  0.2970 -4.6955
 3505SOL     OW22150   0.536   1.692  13.012 -0.1768 -0.5007  0.3067
 3505SOL    HW122151   0.472   1.762  13.023  1.4090  1.1909 -1.2489
 3505SOL    HW222152   0.531   1.642  13.094  0.3988  2.3610  2.0825
 3506SOL     OW22153   1.129   3.077   0.795 -0.2304  0.3021 -0.2712
 3506SOL    HW122154   1.145   2.983   0.810  0.3752  0.3777 -0.4544
 3506SOL    HW222155   1.195   3.120   0.849 -0.8898  2.7058 -1.4208
 3507SOL     OW22156   1.234   2.888   7.918  0.0349 -0.3765 -0.1719
 3507SOL    HW122157   1.195   2.834   7.850  0.2231  2.1717 -2.3092
 3507SOL    HW222158   1.252   2.960   7.857 -1.4108  0.0512 -0.0994
 3508SOL     OW22159   1.036   0.665   7.277  0.2765 -0.1644  0.1911
 3508SOL    HW122160   1.086   0.699   7.202 -0.4327  0.6049  0.0682
 3508SOL    HW222161   1.014   0.744   7.325  2.0746 -0.0294  0.7963
 3509SOL     OW22162   4.237   0.675  10.118 -0.4376  0.1499  0.2385
 3509SOL    HW122163   4.238   0.598  10.174  0.4603 -1.7361 -2.3529
 3509SOL    HW222164   4.153   0.682  10.073 -0.4518 -2.8112 -0.2260
 3510SOL     OW22165   4.707   1.704   7.410  0.6570  0.1704  0.5186
 3510SOL    HW122166   4.641   1.674   7.347  1.6575  0.3694 -0.6339
 3510SOL    HW222167   0.009   1.776   7.361 -0.9164 -0.6736 -2.0190
 3511SOL     OW22168   4.187   2.622   0.658  0.0361 -0.1459  0.1417
 3511SOL    HW122169   4.204   2.672   0.738 -0.0721  1.3399 -0.7670
 3511SOL    HW222170   4.108   2.665   0.626 -0.6022 -2.7076 -1.6746
 3512SOL     OW22171   1.954   0.990  12.618  0.2397  0.1771 -0.0939
 3512SOL    HW122172   1.939   0.998  12.712  1.0915 -2.0228  0.2358
 3512SOL    HW222173   1.877   1.038  12.590 -0.6061 -1.0132  0.2169
 3513SOL     OW22174   2.844   0.575   6.487  0.0408 -0.7911  0.5540
 3513SOL    HW122175   2.809   0.615   6.407  0.3640 -0.1219  0.7455
 3513SOL    HW222176   2.872   0.652   6.536  1.3611 -0.7012 -0.3540
 3514SOL     OW22177   3.426   3.401   5.622  0.4292  0.2737 -0.8230
 3514SOL    HW122178   3.519   3.386   5.604  0.2827 -1.0370 -0.4721
 3514SOL    HW222179   3.383   3.317   5.635 -1.0915  0.8805 -1.9466
 3515SOL     OW22180   0.420   0.301   7.718  0.7069  0.0526  0.0954
 3515SOL    HW122181   0.426   0.215   7.677  2.1068  0.7644 -1.2018
 3515SOL    HW222182   0.511   0.306   7.748 -0.3053  0.5668  3.0863
 3516SOL     OW22183   3.191   1.526  15.057  0.0495 -0.1964 -0.3056
 3516SOL    HW122184   3.205   1.509  14.964  0.2915 -0.5521 -0.2039
 3516SOL    HW222185   3.108   1.481  15.072  1.1934 -1.8549  1.0185
 3517SOL     OW22186   0.080   2.442  10.755  0.0393 -0.4834  0.4564
 3517SOL    HW122187   0.073   2.537  10.768 -1.4407 -0.4145 -0.8228
 3517SOL    HW222188   0.173   2.422  10.758 -0.0312 -1.1372 -1.8608
 3518SOL     OW22189   3.184   1.078   1.824  0.0809  0.1690  0.2687
 3518SOL    HW122190   3.216   0.989   1.840 -1.4982 -0.3125  0.7015
 3518SOL    HW222191   3.093   1.062   1.800 -0.2050 -2.1274  2.8193
 3519SOL     OW22192   4.221   0.254  12.840 -0.2494 -0.2915  0.1011
 3519SOL    HW122193   4.158   0.308  12.791  1.6053  0.9499 -0.9211
 3519SOL    HW222194   4.292   0.318  12.839 -1.6273  1.2784  2.2842
 3520SOL     OW22195   1.725   3.115   0.700 -0.2923 -0.2502  0.1703
 3520SOL    HW122196   1.676   3.180   0.751 -0.2895  1.1391 -1.5820
 3520SOL    HW222197   1.700   3.140   0.611 -0.1229 -2.9503 -0.6219
 3521SOL     OW22198   1.746   3.218   9.284  0.0294  0.6818 -0.5246
 3521SOL    HW122199   1.719   3.127   9.267  0.2195  0.1874  1.7941
 3521SOL    HW222200   1.815   3.237   9.220 -0.6454  4.4402 -0.1332
 3522SOL     OW22201   4.381   2.423   6.615 -0.2757  0.3115 -0.0933
 3522SOL    HW122202   4.359   2.381   6.698  1.8192  1.6041  1.1055
 3522SOL    HW222203   4.374   2.350   6.553  0.8160  0.1013  0.0386
 3523SOL     OW22204   4.467   3.435  16.495 -0.1236  0.1409 -0.7585
 3523SOL    HW122205   4.469   3.360  16.436 -2.1857 -1.4417  1.1814
 3523SOL    HW222206   4.376   3.460  16.511  0.8081  2.2543  1.3271
 3524SOL     OW22207   4.173   1.980   2.083  0.0590  0.2101 -0.3233
 3524SOL    HW122208   4.239   1.996   2.152  0.2542 -2.0845  0.0295
 3524SOL    HW222209   4.089   2.009   2.119 -0.6444 -1.2049 -0.8356
 3525SOL     OW22210   3.505   2.633   2.729 -0.2615  0.0659  0.2544
 3525SOL    HW122211   3.555   2.621   2.648 -1.3047  0.7450 -0.4923
 3525SOL    HW222212   3.577   2.646   2.791 -0.9475 -1.6144  1.4127
 3526SOL     OW22213   0.597   4.355   7.586  0.2796  0.2767 -0.3020
 3526SOL    HW122214   0.530   4.325   7.647  0.5955  0.7547  0.2836
 3526SOL    HW222215   0.649   4.411   7.644  0.6835  0.1662 -0.5562
 3527SOL     OW22216   1.990   0.761   7.333 -0.5111  0.6041 -0.2133
 3527SOL    HW122217   1.969   0.849   7.300 -1.1961  0.0567 -1.2259
 3527SOL    HW222218   2.081   0.776   7.356 -0.1189  0.2490 -1.5507
 3528SOL     OW22219   4.031   2.133  10.241 -0.2237 -0.4537  0.3596
 3528SOL    HW122220   4.012   2.142  10.147  1.9051 -2.2242 -0.2403
 3528SOL    HW222221   4.078   2.216  10.253 -0.7266 -0.0934 -0.1148
 3529SOL     OW22222   3.104   0.021   2.050 -0.2425 -0.8914 -0.3059
 3529SOL    HW122223   3.199   0.024   2.036 -0.4667  0.0918 -1.6007
 3529SOL    HW222224   3.101   4.690   2.115  1.4363 -1.3706 -0.7512
 3530SOL     OW22225   1.253   1.783   3.877  0.2780 -0.4349 -0.3747
 3530SOL    HW122226   1.326   1.846   3.880 -0.2881  0.1672  0.7465
 3530SOL    HW222227   1.211   1.810   3.795 -0.3757  0.7272  0.3455
 3531SOL     OW22228   2.089   1.729   4.128  0.7099 -0.4178 -0.2901
 3531SOL    HW122229   2.174   1.765   4.106  0.2921  0.3398 -0.6451
 3531SOL    HW222230   2.098   1.634   4.116 -2.2700 -0.5263 -1.6672
 3532SOL     OW22231   1.881   4.029  10.718  0.0086  0.1650 -0.0491
 3532SOL    HW122232   1.958   4.059  10.670  1.3380  0.8180  2.4730
 3532SOL    HW222233   1.880   4.093  10.789 -2.2254 -0.4251  0.4669
 3533SOL     OW22234   3.135   4.507  10.849 -0.8831  0.2364  0.1893
 3533SOL    HW122235   3.108   4.435  10.906  0.4354 -0.1223  0.3655
 3533SOL    HW222236   3.056   4.557  10.832 -0.1767  0.3551 -2.6397
 3534SOL     OW22237   2.598   3.951   2.268 -0.3892  0.1874  0.3294
 3534SOL    HW122238   2.538   3.965   2.194  0.9575 -2.6736 -1.2919
 3534SOL    HW222239   2.680   3.988   2.238  0.0765  1.5489  3.2840
 3535SOL     OW22240   4.236   2.879   9.829 -0.3299 -0.8663  0.2459
 3535SOL    HW122241   4.181   2.838   9.763 -3.1398 -0.2734  2.2217
 3535SOL    HW222242   4.310   2.818   9.842 -0.3498 -0.8413  0.4865
 3536SOL     OW22243   2.375   1.096  17.601 -0.8789  0.0861  0.2054
 3536SOL    HW122244   2.326   1.177  17.588 -0.2450  0.2906 -0.8809
 3536SOL    HW222245   2.462   1.112  17.564 -0.7813 -2.5350 -0.7148
 3537SOL     OW22246   4.668   0.310   9.601 -0.6434  0.1962  0.3257
 3537SOL    HW122247   4.621   0.227   9.614 -1.0488  0.3226 -0.3101
 3537SOL    HW222248   4.597   0.374   9.594 -1.4499 -0.6094  1.1484
 3538SOL     OW22249   0.752   2.582   5.992  0.6117  0.2139  0.0630
 3538SOL    HW122250   0.773   2.495   5.958  1.2977  1.1888 -2.0157
 3538SOL    HW222251   0.686   2.618   5.932  1.3320  0.5975 -0.5001
 3539SOL     OW22252   4.634   3.347  12.818 -0.4891  0.6167 -0.5096
 3539SOL    HW122253   4.613   3.285  12.748 -0.3239 -0.5614  0.4932
 3539SOL    HW222254   4.664   3.281  12.880 -0.8432  2.2651  1.4198
 3540SOL     OW22255   0.021   1.396   0.827 -0.4777 -0.1391 -0.9107
 3540SOL    HW122256   4.671   1.429   0.843  0.0765 -0.2788  2.2986
 3540SOL    HW222257   0.082   1.462   0.859  0.4935 -0.5347 -1.9661
 3541SOL     OW22258   2.711   3.096  13.247 -0.4239  0.0276  0.3114
 3541SOL    HW122259   2.749   3.154  13.181 -0.4589 -0.5334 -0.1906
 3541SOL    HW222260   2.633   3.073  13.197 -0.3173 -0.6895  0.4868
 3542SOL     OW22261   1.549   1.598  14.735  0.4970 -0.2188 -0.2522
 3542SOL    HW122262   1.472   1.645  14.705  1.2968  2.2927  1.6123
 3542SOL    HW222263   1.533   1.520  14.683 -3.5189 -0.3560  1.1388
 3543SOL     OW22264   2.943   2.930   4.157 -0.5163 -0.3734  0.1339
 3543SOL    HW122265   2.872   2.869   4.136  0.9293 -1.4873 -1.5017
 3543SOL    HW222266   2.955   2.983   4.078 -2.2554 -0.0597  0.0731
 3544SOL     OW22267   0.408   4.258  16.183  0.1730 -0.5057  0.0165
 3544SOL    HW122268   0.420   4.165  16.203  1.6362 -0.4826 -0.7227
 3544SOL    HW222269   0.372   4.287  16.267  1.5779 -2.7394  1.3923
 3545SOL     OW22270   4.267   1.320   9.488 -0.1913 -0.3567 -0.0787
 3545SOL    HW122271   4.195   1.372   9.523 -1.1234 -0.5578 -1.6982
 3545SOL    HW222272   4.272   1.341   9.395 -0.2267 -2.1304 -0.4817
 3546SOL     OW22273   2.335   3.619  15.256 -0.8589  0.4170  0.4294
 3546SOL    HW122274   2.409   3.673  15.230 -0.6726  1.2341  2.6360
 3546SOL    HW222275   2.265   3.663  15.208  0.6749 -1.1603 -3.2155
 3547SOL     OW22276   1.979   3.802   2.386  0.4694 -0.4190  0.1846
 3547SOL    HW122277   1.917   3.875   2.390 -0.7219 -1.4565  0.7072
 3547SOL    HW222278   2.051   3.842   2.434  1.4337 -0.8350 -0.9331
 3548SOL     OW22279   1.765   0.851   5.548  0.6776  1.0926 -0.1764
 3548SOL    HW122280   1.694   0.848   5.484  0.6238 -0.4630 -0.0582
 3548SOL    HW222281   1.837   0.814   5.497  1.4995  0.6650  1.2943
 3549SOL     OW22282   2.150   4.277   3.623  0.2739 -1.0158 -0.1399
 3549SOL    HW122283   2.150   4.368   3.592  1.3106 -1.1920 -0.6738
 3549SOL    HW222284   2.098   4.278   3.703 -1.1044 -1.7779 -1.0285
 3550SOL     OW22285   2.916   3.505   7.668 -0.5407  0.0319  0.0127
 3550SOL    HW122286   2.992   3.561   7.651 -1.4737  0.7825 -1.7311
 3550SOL    HW222287   2.933   3.435   7.605  2.2809  0.2847  0.5263
 3551SOL     OW22288   1.255   4.460   6.252  0.5711 -0.2294 -0.3055
 3551SOL    HW122289   1.236   4.501   6.167 -1.1873 -0.0292  0.1964
 3551SOL    HW222290   1.320   4.399   6.216  1.4453  0.1722  0.6081
 3552SOL     OW22291   1.406   0.947   9.046  0.1611  0.1856 -0.5264
 3552SOL    HW122292   1.481   0.906   9.004 -0.5540 -2.4316  0.7150
 3552SOL    HW222293   1.345   0.873   9.039 -0.1169  0.2866  0.8410
 3553SOL     OW22294   4.735   4.471   1.732 -0.0412 -0.2967 -0.5267
 3553SOL    HW122295   0.080   4.493   1.690 -0.7386 -0.6247 -2.0599
 3553SOL    HW222296   4.734   4.381   1.764  0.1321 -0.2046 -0.2616
 3554SOL     OW22297   2.013   2.342   4.214  0.0630 -0.0851 -0.1894
 3554SOL    HW122298   1.996   2.316   4.124  1.2788  0.9628 -0.7147
 3554SOL    HW222299   1.938   2.396   4.236 -1.7304 -2.3475 -0.7658
 3555SOL     OW22300   4.223   1.107   8.832  0.0044 -0.1487 -0.2708
 3555SOL    HW122301   4.213   1.170   8.904 -1.4601 -0.9528  0.2395
 3555SOL    HW222302   4.290   1.049   8.867 -0.7087 -1.0723 -0.4467
 3556SOL     OW22303   1.293   0.360  12.681  0.4826 -0.0377  0.0979
 3556SOL    HW122304   1.325   0.400  12.600 -0.9446  0.6264 -0.1446
 3556SOL    HW222305   1.262   0.434  12.733 -1.8304 -0.9939  0.1052
 3557SOL     OW22306   1.669   1.651   9.056  0.0657 -0.1666  0.5120
 3557SOL    HW122307   1.575   1.657   9.040  0.2814 -1.6228 -1.2697
 3557SOL    HW222308   1.668   1.573   9.112  0.9843  0.3136  1.2108
 3558SOL     OW22309   3.244   0.495   9.544 -0.1451 -0.6127 -0.2429
 3558SOL    HW122310   3.248   0.591   9.542  1.3553 -0.6505  0.9729
 3558SOL    HW222311   3.333   0.470   9.520  0.0820 -0.6819  0.6602
 3559SOL     OW22312   3.689   2.245   9.762 -0.7029  0.7139  0.6459
 3559SOL    HW122313   3.704   2.156   9.733  3.3703  1.1992  1.2588
 3559SOL    HW222314   3.663   2.295   9.685 -0.5681  2.1482  1.5196
 3560SOL     OW22315   0.598   2.329   5.347  0.0796 -0.0098 -0.2502
 3560SOL    HW122316   0.622   2.408   5.395 -1.7126  0.1227  0.4271
 3560SOL    HW222317   0.682   2.285   5.362 -0.1301  0.2021  1.5046
 3561SOL     OW22318   0.241   3.091   5.780 -0.0325 -0.6071 -0.2653
 3561SOL    HW122319   0.223   3.137   5.698 -0.1172  1.4262  0.8978
 3561SOL    HW222320   0.173   3.024   5.780 -1.3206  0.7117  1.7321
 3562SOL     OW22321   4.075   3.515   0.132 -0.3091  0.1163  0.2395
 3562SOL    HW122322   4.003   3.459   0.161 -1.2719  0.3627 -1.6761
 3562SOL    HW222323   4.063   3.582   0.200  1.3625  1.4656 -0.8048
 3563SOL     OW22324   0.188   1.291  12.333  0.2435 -0.1900 -0.4670
 3563SOL    HW122325   0.157   1.215  12.284  0.6519  0.9648 -2.4946
 3563SOL    HW222326   0.180   1.273  12.427 -1.1724  0.5320 -0.4630
 3564SOL     OW22327   1.495   1.132  17.373  0.4261  0.5413 -0.2696
 3564SOL    HW122328   1.565   1.194  17.350 -0.0407  0.9720 -0.5283
 3564SOL    HW222329   1.552   1.063  17.408  0.4386  0.0068 -1.3371
 3565SOL     OW22330   2.632   1.116  17.501  0.0108 -0.6276  0.2918
 3565SOL    HW122331   2.692   1.041  17.499  0.2472 -0.4767  1.4130
 3565SOL    HW222332   2.658   1.162  17.582 -1.0807 -0.2867  0.4393
 3566SOL     OW22333   3.058   3.874   3.884 -0.0572 -0.4610 -0.1576
 3566SOL    HW122334   3.128   3.915   3.935  0.1205 -0.1040 -0.6902
 3566SOL    HW222335   2.999   3.840   3.952 -0.6180  1.2439  0.2026
 3567SOL     OW22336   1.115   1.090  17.142 -0.1442 -0.1291 -0.2218
 3567SOL    HW122337   1.165   1.009  17.132 -1.4443 -0.9259 -0.3596
 3567SOL    HW222338   1.147   1.118  17.228 -2.9896  0.1060  0.7566
 3568SOL     OW22339   0.096   2.247   5.732  0.4686 -0.4435  0.4483
 3568SOL    HW122340   0.031   2.208   5.791  0.2848  3.2144  2.7291
 3568SOL    HW222341   0.144   2.310   5.787  1.4996 -1.4961  0.7491
 3569SOL     OW22342   0.878   0.593  11.311 -0.2667 -0.1371  0.3601
 3569SOL    HW122343   0.961   0.636  11.292 -0.7559  0.5819 -0.1364
 3569SOL    HW222344   0.822   0.670  11.310  1.6574  1.2727  1.4446
 3570SOL     OW22345   4.334   1.306   3.062  0.5004 -0.3068 -0.0451
 3570SOL    HW122346   4.265   1.292   2.997 -0.5888 -1.5094  1.3949
 3570SOL    HW222347   4.390   1.232   3.039  1.8231  0.8608 -0.6385
 3571SOL     OW22348   0.063   3.411  10.071  0.1140  0.2522 -0.8903
 3571SOL    HW122349   0.052   3.362  10.153 -0.2624 -0.0286 -1.1097
 3571SOL    HW222350   0.133   3.467  10.104  0.0081 -0.7784  1.1537
 3572SOL     OW22351   4.290   2.445  14.476 -0.8780  0.0946  0.0792
 3572SOL    HW122352   4.261   2.527  14.515  1.3224  0.7336  0.3707
 3572SOL    HW222353   4.318   2.467  14.387  1.4074  2.6297  1.4324
 3573SOL     OW22354   0.014   2.674   2.627  0.1944  0.1460 -0.2718
 3573SOL    HW122355   0.030   2.675   2.532 -0.2835 -0.9973 -0.3621
 3573SOL    HW222356   0.023   2.581   2.647  0.4933 -0.2013 -1.9595
 3574SOL     OW22357   3.819   4.021   6.710  0.2595  0.3640  0.7923
 3574SOL    HW122358   3.857   4.061   6.632  1.8027  1.5514  2.1450
 3574SOL    HW222359   3.896   3.990   6.757  0.2581 -0.2877  0.3559
 3575SOL     OW22360   2.959   4.709   2.703  0.1019 -0.5233  0.3443
 3575SOL    HW122361   2.906   0.003   2.630  1.2590 -1.0704 -0.7255
 3575SOL    HW222362   2.903   4.683   2.777  1.0855  2.5921  2.1786
 3576SOL     OW22363   0.781   4.644  12.333  0.4730 -0.0191 -0.1449
 3576SOL    HW122364   0.818   4.716  12.385 -1.3474  1.2813 -0.6524
 3576SOL    HW222365   0.815   4.665  12.246 -4.1887  2.2569 -1.4221
 3577SOL     OW22366   4.478   0.586   5.261  0.5085  0.2756 -0.0425
 3577SOL    HW122367   4.471   0.549   5.173 -2.3722 -2.1480  1.1700
 3577SOL    HW222368   4.548   0.527   5.290 -0.3712 -1.0760 -0.6593
 3578SOL     OW22369   1.487   4.456  15.397 -0.2017 -0.4666  0.5104
 3578SOL    HW122370   1.492   4.361  15.392  0.3211 -0.3207 -1.3433
 3578SOL    HW222371   1.412   4.490  15.348  0.4157  0.8453  0.4687
 3579SOL     OW22372   0.095   1.786  16.013  0.2765  0.4021  0.2222
 3579SOL    HW122373   0.191   1.791  16.015  0.2291  0.9036  1.0335
 3579SOL    HW222374   0.080   1.868  15.967 -0.8983  0.7897  1.3088
 3580SOL     OW22375   2.460   0.119   1.934  0.3792 -0.1864 -0.4138
 3580SOL    HW122376   2.547   0.100   1.970  0.9175  2.5444 -0.2958
 3580SOL    HW222377   2.404   0.110   2.011 -0.1049 -1.4092 -0.9081
 3581SOL     OW22378   1.097   4.174  16.633 -0.2480  0.4047 -0.3187
 3581SOL    HW122379   1.144   4.252  16.602 -0.6220  1.1002  0.8349
 3581SOL    HW222380   1.019   4.210  16.677  0.2261  2.2523 -1.0023
 3582SOL     OW22381   3.971   2.763   3.100  0.3504 -0.0597 -1.3037
 3582SOL    HW122382   4.037   2.694   3.087  0.7992  0.2278 -0.5279
 3582SOL    HW222383   3.923   2.769   3.017 -2.1243 -1.1713  0.0619
 3583SOL     OW22384   2.413   1.660   4.000  0.3643  0.5604 -0.1799
 3583SOL    HW122385   2.343   1.723   4.016  3.0736  2.9833  2.1744
 3583SOL    HW222386   2.440   1.685   3.912  3.1403 -1.0881  0.1917
 3584SOL     OW22387   1.583   0.476   2.498  1.0301  0.4185  0.1939
 3584SOL    HW122388   1.494   0.442   2.513  0.4972  1.8110  0.2011
 3584SOL    HW222389   1.616   0.395   2.458 -0.4915 -1.1410  2.0593
 3585SOL     OW22390   1.952   2.200   3.724 -0.5136  0.1162  0.2584
 3585SOL    HW122391   1.979   2.222   3.635 -1.4756  0.6207  0.0858
 3585SOL    HW222392   1.886   2.134   3.704 -0.2403 -0.1420  0.2079
 3586SOL     OW22393   1.748   0.404   3.531  0.0897 -0.1060  0.5207
 3586SOL    HW122394   1.678   0.467   3.547 -1.1833 -1.4946  0.4654
 3586SOL    HW222395   1.698   0.322   3.530  1.4130 -0.9337  2.2664
 3587SOL     OW22396   2.088   3.819   0.540 -0.6155 -0.0251 -0.4813
 3587SOL    HW122397   2.168   3.856   0.502 -1.3059 -0.6988 -2.5379
 3587SOL    HW222398   2.022   3.833   0.473 -2.1518 -2.5157  0.5298
 3588SOL     OW22399   2.555   0.753   2.808  0.1402 -0.2581 -0.2611
 3588SOL    HW122400   2.527   0.831   2.855 -0.4048 -1.2206  1.0036
 3588SOL    HW222401   2.473   0.721   2.769  0.1985  0.5368 -1.0522
 3589SOL     OW22402   1.631   4.194   2.135 -0.2580  0.3025 -0.2151
 3589SOL    HW122403   1.638   4.199   2.040  2.2137 -0.2503 -0.0524
 3589SOL    HW222404   1.550   4.244   2.143 -1.9573 -2.4278 -0.2501
 3590SOL     OW22405   3.386   3.884   9.369  0.3585 -0.2329  0.4391
 3590SOL    HW122406   3.394   3.837   9.452 -0.4024  1.4818  1.4617
 3590SOL    HW222407   3.300   3.919   9.391  0.3316  0.5985 -0.9841
 3591SOL     OW22408   2.921   4.696   0.813 -0.1959  0.4249 -0.7374
 3591SOL    HW122409   2.847   0.012   0.840 -1.3355 -0.2520 -2.5521
 3591SOL    HW222410   2.876   4.614   0.793 -0.6892  0.3212  0.7458
 3592SOL     OW22411   0.196   4.399   2.524 -0.1301  0.1421  0.0408
 3592SOL    HW122412   0.158   4.456   2.457  1.2048 -1.6878 -2.2498
 3592SOL    HW222413   0.241   4.337   2.467  1.6041  0.2424  1.2873
 3593SOL     OW22414   3.662   3.111   4.748  0.2802  0.7489  0.4584
 3593SOL    HW122415   3.609   3.033   4.735  0.7199  0.3043  1.3395
 3593SOL    HW222416   3.728   3.068   4.802 -1.0595  1.0082  2.3066
 3594SOL     OW22417   0.425   3.139   1.625 -0.1931 -0.4005  0.3026
 3594SOL    HW122418   0.421   3.197   1.549  1.9913  0.0598  0.5452
 3594SOL    HW222419   0.358   3.072   1.611 -1.3772  0.8672 -0.1478
 3595SOL     OW22420   3.257   2.223   6.250 -0.3235 -0.1324  0.3801
 3595SOL    HW122421   3.191   2.290   6.229  0.4954  0.4102 -0.4757
 3595SOL    HW222422   3.332   2.276   6.279  0.4075 -1.7617  1.4658
 3596SOL     OW22423   2.129   3.178   1.106  0.2791  0.0191 -0.0968
 3596SOL    HW122424   2.079   3.116   1.054 -1.7134  0.2364  1.5244
 3596SOL    HW222425   2.147   3.232   1.029  1.6245 -0.9922 -0.4822
 3597SOL     OW22426   0.049   4.593  12.132 -0.6030 -0.0373  0.0774
 3597SOL    HW122427   0.077   4.584  12.224 -0.2286 -0.1406 -0.0469
 3597SOL    HW222428   4.725   4.664  12.141 -1.1830 -0.3870 -1.2877
 3598SOL     OW22429   2.061   2.090   1.137 -0.4949  0.0325 -0.4695
 3598SOL    HW122430   1.972   2.124   1.122 -2.0927 -3.6235  0.7663
 3598SOL    HW222431   2.105   2.164   1.095  2.1071  0.1868  2.5422
 3599SOL     OW22432   2.561   2.156  13.279  0.1956  0.2451 -0.4678
 3599SOL    HW122433   2.530   2.246  13.265  0.2353  0.3436  0.0865
 3599SOL    HW222434   2.556   2.151  13.374  1.8100  2.0374 -0.2863
 3600SOL     OW22435   4.050   3.986   7.833  0.1378 -0.2222 -0.0215
 3600SOL    HW122436   4.102   3.907   7.852 -0.3062 -0.3609  0.6290
 3600SOL    HW222437   3.977   3.945   7.787 -1.1456  1.4760  0.5125
 3601SOL     OW22438   1.554   4.496   5.515 -0.1059 -0.3624  0.1833
 3601SOL    HW122439   1.522   4.405   5.510 -0.7650 -0.1141 -0.1347
 3601SOL    HW222440   1.646   4.487   5.492 -0.2183  0.2910 -0.5422
 3602SOL     OW22441   2.483   3.917  16.039 -0.1925  0.4634 -0.0257
 3602SOL    HW122442   2.414   3.981  16.020  0.3957  1.1086  0.0217
 3602SOL    HW222443   2.478   3.868  15.957  0.1397 -0.2230  0.3675
 3603SOL     OW22444   1.408   4.472  15.710 -0.5187  0.2861  0.3848
 3603SOL    HW122445   1.446   4.384  15.720 -0.2796  0.6445  2.5226
 3603SOL    HW222446   1.420   4.488  15.616 -1.3965  0.5786  0.3218
 3604SOL     OW22447   1.431   2.201   2.627  0.5697  0.1458 -0.3115
 3604SOL    HW122448   1.346   2.162   2.605  2.3589 -3.5511 -0.6936
 3604SOL    HW222449   1.489   2.133   2.592 -2.0113 -0.5875 -3.1307
 3605SOL     OW22450   3.919   3.450   7.171 -0.1423 -0.7902 -0.5436
 3605SOL    HW122451   3.910   3.384   7.240  1.3385 -1.3726 -0.9071
 3605SOL    HW222452   3.947   3.400   7.095  1.7871 -0.7289  0.1319
 3606SOL     OW22453   2.427   1.984   6.713 -0.0911 -0.9318  0.1142
 3606SOL    HW122454   2.493   1.966   6.647 -1.8783  0.5871 -2.0749
 3606SOL    HW222455   2.453   2.049   6.779  0.2215 -0.3857 -0.5510
 3607SOL     OW22456   0.845   1.801   6.402 -0.3185 -0.1418  0.1622
 3607SOL    HW122457   0.874   1.739   6.469 -0.7551 -0.7355 -0.1976
 3607SOL    HW222458   0.825   1.739   6.332  0.1533  0.5060 -0.5491
 3608SOL     OW22459   1.872   1.349   6.014  0.1740  0.4901 -0.0147
 3608SOL    HW122460   1.793   1.381   5.969  0.6820  2.4987  0.5124
 3608SOL    HW222461   1.909   1.311   5.935 -1.4816 -2.6196  0.7089
 3609SOL     OW22462   1.934   3.354   7.054 -0.3074  0.1500  0.0687
 3609SOL    HW122463   1.981   3.304   7.121 -1.6689  0.3387  1.1773
 3609SOL    HW222464   1.855   3.373   7.104 -0.4632 -0.3369  0.0067
 3610SOL     OW22465   0.723   1.412   8.640  0.0043 -0.0126 -0.0917
 3610SOL    HW122466   0.756   1.449   8.722  0.0112  0.3853 -0.2756
 3610SOL    HW222467   0.690   1.492   8.599  0.8491  0.0802 -0.5834
 3611SOL     OW22468   2.809   4.172  16.762 -0.8686  0.4034  0.3148
 3611SOL    HW122469   2.822   4.145  16.671 -0.7669  0.5936  0.2718
 3611SOL    HW222470   2.878   4.116  16.798 -1.3633  0.6126  1.5743
 3612SOL     OW22471   0.486   4.335  12.123  0.1228 -0.0202  0.7035
 3612SOL    HW122472   0.537   4.366  12.198 -0.4461  1.1011  0.6216
 3612SOL    HW222473   0.406   4.317  12.172  1.2370 -2.2810  1.6999
 3613SOL     OW22474   0.454   2.982   8.937  0.5143  0.5680 -0.1360
 3613SOL    HW122475   0.474   2.949   8.849 -0.5913 -0.6250  0.0608
 3613SOL    HW222476   0.516   3.055   8.939 -0.7771  1.6391  1.1143
 3614SOL     OW22477   3.948   1.278   4.668 -0.4500 -0.8362 -0.0265
 3614SOL    HW122478   3.873   1.287   4.726  0.0625 -1.1776  0.6925
 3614SOL    HW222479   3.941   1.184   4.651 -1.4122 -0.1757 -3.1642
 3615SOL     OW22480   3.128   0.716   9.282  0.1306  0.5373  0.4314
 3615SOL    HW122481   3.129   0.621   9.271 -1.2539  0.9388 -3.1815
 3615SOL    HW222482   3.132   0.725   9.377 -0.6634 -1.9797  0.7026
 3616SOL     OW22483   0.777   3.755   7.696 -0.3662  0.4948 -0.2308
 3616SOL    HW122484   0.846   3.689   7.691 -0.6914  0.1140  0.2559
 3616SOL    HW222485   0.818   3.821   7.752 -1.1354  0.6997  0.0929
 3617SOL     OW22486   4.178   2.953  10.481 -0.0405 -0.1402 -0.7299
 3617SOL    HW122487   4.126   2.877  10.506  0.0694  0.3146  0.8504
 3617SOL    HW222488   4.155   2.957  10.388 -1.2887 -2.0809 -0.4846
 3618SOL     OW22489   1.405   1.562  13.046 -0.0738 -0.0216  0.2250
 3618SOL    HW122490   1.430   1.491  12.987  0.7905  0.1526  0.3772
 3618SOL    HW222491   1.489   1.575  13.091 -0.2815  1.8554  0.1003
 3619SOL     OW22492   0.623   1.670   6.257  0.5105 -0.0127 -0.7012
 3619SOL    HW122493   0.691   1.655   6.191  0.0210  0.8104 -1.3962
 3619SOL    HW222494   0.544   1.658   6.204 -0.0804  0.7753  0.0057
 3620SOL     OW22495   3.035   0.545   5.232 -0.4246 -0.2041 -0.0642
 3620SOL    HW122496   3.090   0.479   5.189  1.2114  1.4938 -0.5864
 3620SOL    HW222497   3.102   0.613   5.243  0.6423 -1.2464 -0.0808
 3621SOL     OW22498   1.584   1.252  13.680 -0.0138 -0.2667  0.0272
 3621SOL    HW122499   1.521   1.321  13.699  0.3285 -0.1625  0.8315
 3621SOL    HW222500   1.656   1.272  13.741  1.6442 -0.6062 -1.8442
 3622SOL     OW22501   3.589   4.718   6.468  0.2947  0.1782 -0.0979
 3622SOL    HW122502   3.548   0.040   6.530 -1.7667 -1.7972  0.4528
 3622SOL    HW222503   3.658   4.692   6.528  0.9697 -0.6063 -1.2236
 3623SOL     OW22504   3.759   4.164   0.477  0.0848 -0.6132  0.2700
 3623SOL    HW122505   3.764   4.258   0.459 -2.5247 -0.4596  0.3621
 3623SOL    HW222506   3.666   4.151   0.460 -0.2301  0.9901  0.7958
 3624SOL     OW22507   0.396   0.236   5.251  0.2000 -0.2472  0.1651
 3624SOL    HW122508   0.309   0.197   5.255  0.1482 -0.1065  0.4214
 3624SOL    HW222509   0.388   0.307   5.315 -1.0149 -0.5439  0.3332
 3625SOL     OW22510   2.029   0.736  15.941  0.2910 -0.1495 -0.2916
 3625SOL    HW122511   2.022   0.791  15.863  1.8002  1.4500  0.6898
 3625SOL    HW222512   2.093   0.791  15.986 -2.6997  1.3397  2.0961
 3626SOL     OW22513   4.602   0.327   1.921 -0.7139 -0.5692  0.2355
 3626SOL    HW122514   4.635   0.253   1.871 -0.4782  0.1382 -0.6639
 3626SOL    HW222515   4.527   0.340   1.862  0.6525  0.5701 -1.2517
 3627SOL     OW22516   0.880   0.534   3.940 -0.0325 -0.2364 -0.1331
 3627SOL    HW122517   0.838   0.505   3.858  0.3688  1.6846 -1.0180
 3627SOL    HW222518   0.924   0.453   3.966  0.2434  0.8712  2.7746
 3628SOL     OW22519   0.091   4.018  11.181  0.3460  0.6712 -0.1189
 3628SOL    HW122520   0.106   4.107  11.212  1.2992  1.0682 -1.7250
 3628SOL    HW222521   0.180   4.008  11.147  0.8589  1.4999  0.9819
 3629SOL     OW22522   4.214   2.795   7.398 -0.5074 -0.0224 -0.8131
 3629SOL    HW122523   4.151   2.867   7.407  1.1004  1.4204 -1.0361
 3629SOL    HW222524   4.156   2.720   7.415 -1.5835  0.6780 -1.4189
 3630SOL     OW22525   4.138   0.725   5.656  0.1582 -0.3921  0.2284
 3630SOL    HW122526   4.162   0.793   5.719 -1.6081 -0.4352  0.9445
 3630SOL    HW222527   4.228   0.714   5.624  0.1533 -0.0006  0.0766
 3631SOL     OW22528   1.472   1.345   6.265  0.7443  0.1398  0.0167
 3631SOL    HW122529   1.429   1.278   6.211  0.7650  2.0983 -2.3777
 3631SOL    HW222530   1.564   1.322   6.255  0.2955 -0.9330 -1.7133
 3632SOL     OW22531   3.212   3.320  17.537 -0.1939  0.1315 -0.3158
 3632SOL    HW122532   3.280   3.257  17.514 -0.9989 -0.8229 -0.0649
 3632SOL    HW222533   3.154   3.273  17.597 -0.9575 -0.0358 -1.1801
 3633SOL     OW22534   4.077   3.929   9.333  0.5728  0.1294  0.2389
 3633SOL    HW122535   3.992   3.907   9.293  0.6575  0.1262  0.0622
 3633SOL    HW222536   4.094   3.869   9.405 -3.1166  0.9263  1.8205
 3634SOL     OW22537   3.246   4.280   2.615  0.1423  0.0299 -0.0763
 3634SOL    HW122538   3.271   4.247   2.702  0.9665  0.1748 -0.2535
 3634SOL    HW222539   3.320   4.254   2.560  0.5512 -0.5820  0.7491
 3635SOL     OW22540   3.625   1.083   3.428 -0.2158 -0.1565  0.0550
 3635SOL    HW122541   3.559   1.091   3.359 -0.1538 -4.1911 -0.4628
 3635SOL    HW222542   3.614   1.169   3.468  1.2860 -0.0513  0.2209
 3636SOL     OW22543   0.641   4.558   8.599  0.0618 -0.0305  0.1667
 3636SOL    HW122544   0.640   4.641   8.551  2.0018  0.2030  0.5520
 3636SOL    HW222545   0.614   4.493   8.534 -0.2741 -0.0185  0.2962
 3637SOL     OW22546   1.304   1.193   7.751 -0.6221  0.2309  0.8951
 3637SOL    HW122547   1.267   1.268   7.798 -1.0858  1.0082 -0.7186
 3637SOL    HW222548   1.396   1.216   7.745 -0.8893  0.8919 -0.7187
 3638SOL     OW22549   3.259   1.045   5.154 -0.6892 -0.1838 -0.0647
 3638SOL    HW122550   3.320   1.067   5.225 -0.7863  3.9815 -1.3159
 3638SOL    HW222551   3.317   1.035   5.078  1.4218 -1.3721  1.6707
 3639SOL     OW22552   3.410   1.209   1.819 -0.4723  0.1793 -0.2222
 3639SOL    HW122553   3.372   1.273   1.879 -0.9407 -0.8426  0.5754
 3639SOL    HW222554   3.337   1.147   1.814 -1.2281  0.6804  4.8559
 3640SOL     OW22555   2.000   0.905   6.040 -0.0692  0.1593 -0.0319
 3640SOL    HW122556   1.967   0.930   5.953  0.3523  0.5754 -0.0678
 3640SOL    HW222557   2.093   0.911   6.019 -0.0263 -0.6199 -0.0655
 3641SOL     OW22558   3.046   0.724   1.222 -0.5150  0.6549 -1.1100
 3641SOL    HW122559   2.962   0.684   1.200 -0.9183  1.0067 -0.1800
 3641SOL    HW222560   3.068   0.742   1.130  0.4343  3.5282 -0.3043
 3642SOL     OW22561   0.408   1.913   1.721  0.2489 -0.2139 -0.4491
 3642SOL    HW122562   0.325   1.887   1.761  0.2197 -0.5540 -0.7348
 3642SOL    HW222563   0.444   1.827   1.742 -0.0903  0.1334  1.5712
 3643SOL     OW22564   3.225   2.328   9.237 -0.1061 -0.2785 -0.7078
 3643SOL    HW122565   3.162   2.352   9.306 -1.2379 -2.6444 -0.9128
 3643SOL    HW222566   3.155   2.292   9.183  0.0704  0.7251 -1.6054
 3644SOL     OW22567   4.120   2.913  10.227  0.1447  0.0739 -0.1777
 3644SOL    HW122568   4.028   2.913  10.202  0.3057  1.8769 -0.7942
 3644SOL    HW222569   4.158   2.978  10.168 -3.0250  0.9501 -1.2498
 3645SOL     OW22570   3.697   2.201   5.964  0.6699 -0.0027  0.6628
 3645SOL    HW122571   3.780   2.193   5.916  0.5889  3.1721 -0.0697
 3645SOL    HW222572   3.728   2.218   6.053  2.3624  0.6415 -0.0344
 3646SOL     OW22573   3.613   1.589   3.909 -0.0223  0.0276 -0.3128
 3646SOL    HW122574   3.529   1.547   3.894 -0.2071 -0.2438  1.4504
 3646SOL    HW222575   3.668   1.513   3.927 -0.1059 -0.2148 -1.1088
 3647SOL     OW22576   2.035   2.568   5.251  0.0027  0.5606 -0.0316
 3647SOL    HW122577   2.116   2.559   5.201 -1.5143 -2.3562 -1.9675
 3647SOL    HW222578   1.986   2.640   5.210 -2.9376 -2.1763 -1.3465
 3648SOL     OW22579   3.401   1.434  12.726 -0.4486 -0.8631  0.6287
 3648SOL    HW122580   3.384   1.526  12.743 -1.9856 -1.1777  0.8087
 3648SOL    HW222581   3.455   1.408  12.800  0.2327 -0.5774  0.2334
 3649SOL     OW22582   4.019   0.405   0.760 -0.3123  0.1030 -0.2062
 3649SOL    HW122583   4.033   0.385   0.853 -2.9584  0.2139  0.2400
 3649SOL    HW222584   4.104   0.444   0.743  0.7313 -0.9105  2.6874
 3650SOL     OW22585   0.330   1.329   0.730  0.3804 -0.3645  0.1493
 3650SOL    HW122586   0.317   1.391   0.801 -0.6583 -0.7399  0.2941
 3650SOL    HW222587   0.331   1.247   0.778  1.3947 -0.0146  0.7282
 3651SOL     OW22588   2.865   4.417   9.512 -0.2163  0.1218 -0.6754
 3651SOL    HW122589   2.791   4.366   9.478  0.3488  0.0887 -1.8351
 3651SOL    HW222590   2.831   4.503   9.487  2.2396  0.7685 -1.8298
 3652SOL     OW22591   0.518   0.431   3.190  0.0465 -0.4864 -0.5273
 3652SOL    HW122592   0.451   0.393   3.133 -0.1084 -1.7675  0.5188
 3652SOL    HW222593   0.543   0.509   3.139 -1.5906 -0.5330 -1.4209
 3653SOL     OW22594   4.230   2.815  15.555  0.0515 -0.4220  0.1983
 3653SOL    HW122595   4.236   2.731  15.509 -2.5389 -0.5137  0.0766
 3653SOL    HW222596   4.324   2.831  15.548 -0.0177 -0.4142 -0.6656
 3654SOL     OW22597   1.540   1.321  12.932  0.1648  0.1826  0.4086
 3654SOL    HW122598   1.517   1.249  12.990 -1.7170 -0.0058 -0.5498
 3654SOL    HW222599   1.633   1.300  12.920  0.2076  1.4563 -1.4647
 3655SOL     OW22600   3.148   0.019  15.096 -0.1707 -1.0049 -0.0645
 3655SOL    HW122601   3.139   4.675  15.049 -0.3879 -2.1625  2.0406
 3655SOL    HW222602   3.058   0.047  15.115  0.6644  1.7095 -0.0325
 3656SOL     OW22603   2.006   0.375   5.599 -0.3535 -0.6349  0.1280
 3656SOL    HW122604   1.936   0.427   5.559 -2.5217 -0.4463  4.1215
 3656SOL    HW222605   2.031   0.305   5.539  1.5257  1.3621 -1.4081
 3657SOL     OW22606   0.242   2.686   5.662  0.1385 -0.1823  0.1730
 3657SOL    HW122607   0.299   2.610   5.668  0.9767  0.6361  2.3558
 3657SOL    HW222608   0.270   2.728   5.743  2.6278  0.2831 -0.9219
 3658SOL     OW22609   2.105   3.486  17.367  0.2193  0.1214 -0.5995
 3658SOL    HW122610   2.100   3.510  17.459  2.5863 -2.4207  0.2193
 3658SOL    HW222611   2.083   3.393  17.370 -1.0440  0.4149 -0.8016
 3659SOL     OW22612   3.301   2.419   3.434  0.2940 -0.4252  0.1424
 3659SOL    HW122613   3.366   2.393   3.499  2.3152 -1.4518 -2.2825
 3659SOL    HW222614   3.221   2.407   3.486  0.0792  1.3865  0.2195
 3660SOL     OW22615   1.639   2.550   6.074 -0.2700 -0.5548 -0.0716
 3660SOL    HW122616   1.636   2.486   6.146 -0.0269  0.5703  0.9385
 3660SOL    HW222617   1.580   2.621   6.098  0.2370 -0.3186  0.4939
 3661SOL     OW22618   4.634   0.382   5.422 -0.5522 -0.2570 -0.5623
 3661SOL    HW122619   4.696   0.449   5.452 -1.7543 -0.1721  1.6693
 3661SOL    HW222620   4.655   0.314   5.486  2.8892  0.8221 -0.5329
 3662SOL     OW22621   1.091   1.924   9.269 -0.4701  0.3137  0.0540
 3662SOL    HW122622   1.017   1.921   9.330 -0.1285  2.0542  0.5611
 3662SOL    HW222623   1.064   1.854   9.209 -4.0578 -0.0676  2.0785
 3663SOL     OW22624   1.715   0.974   9.266 -0.0888 -0.1469  0.3150
 3663SOL    HW122625   1.755   0.966   9.353 -0.2172  0.5587  0.4349
 3663SOL    HW222626   1.755   0.898   9.223 -1.4722 -0.6635 -0.0476
 3664SOL     OW22627   4.414   3.298  11.789 -0.2156  0.1622  0.1281
 3664SOL    HW122628   4.478   3.278  11.857 -1.1557 -2.6009  0.2033
 3664SOL    HW222629   4.463   3.251  11.722  1.1852 -0.5210  1.6399
 3665SOL     OW22630   3.311   4.021   3.917 -0.2458  0.1159 -0.5033
 3665SOL    HW122631   3.358   3.957   3.863  0.7525 -0.3546  0.9458
 3665SOL    HW222632   3.320   3.975   4.000 -0.6814  0.9399 -0.0004
 3666SOL     OW22633   2.336   0.045   3.297  0.0037  0.4056  0.4239
 3666SOL    HW122634   2.336   0.111   3.228  0.1700 -0.7463 -0.6739
 3666SOL    HW222635   2.252   0.005   3.275  0.2053 -1.4812  3.0541
 3667SOL     OW22636   2.931   1.923   7.755 -0.5419 -0.3659  0.3625
 3667SOL    HW122637   2.853   1.979   7.760 -1.4219 -1.6331  1.0158
 3667SOL    HW222638   2.910   1.862   7.826  1.3723  0.5387  1.6858
 3668SOL     OW22639   1.283   1.643  14.666  0.1240 -0.4379  0.0109
 3668SOL    HW122640   1.281   1.599  14.580  2.7101 -0.4174 -0.0555
 3668SOL    HW222641   1.209   1.600  14.709  0.0251 -1.0875 -0.8084
 3669SOL     OW22642   3.548   2.901   9.497  0.6837 -0.3982  0.0698
 3669SOL    HW122643   3.527   2.857   9.415  2.5590  0.6085 -0.9432
 3669SOL    HW222644   3.460   2.928   9.520 -0.6097 -3.2735 -1.4741
 3670SOL     OW22645   4.492   4.712   8.965 -0.1478  0.2243  0.5863
 3670SOL    HW122646   4.424   4.713   9.032 -0.9873 -0.0237 -0.2559
 3670SOL    HW222647   4.535   0.058   8.979 -0.1201  0.5293 -1.3208
 3671SOL     OW22648   3.296   4.493   8.146  0.3039  0.2841  0.7278
 3671SOL    HW122649   3.323   4.402   8.159 -0.6139 -0.3845 -2.0972
 3671SOL    HW222650   3.204   4.482   8.121  0.7060  0.9303 -1.0060
 3672SOL     OW22651   0.871   0.318   6.790  0.2631 -0.1363 -0.6364
 3672SOL    HW122652   0.876   0.391   6.852 -0.0255 -0.9942  0.3969
 3672SOL    HW222653   0.855   0.238   6.840  0.2267  0.5958  0.5280
 3673SOL     OW22654   3.771   1.335   7.833  0.3658 -0.6454 -0.2613
 3673SOL    HW122655   3.861   1.305   7.819  0.0666 -1.3108 -0.7547
 3673SOL    HW222656   3.738   1.256   7.876 -1.3405  0.0695 -0.2581
 3674SOL     OW22657   1.445   0.083  14.186 -0.0268  0.0922  0.1945
 3674SOL    HW122658   1.413   0.064  14.273  0.9105 -2.6524 -0.0786
 3674SOL    HW222659   1.461   0.177  14.198  0.4563 -0.0082  0.3497
 3675SOL     OW22660   2.240   4.213   5.863 -0.1146 -0.1171 -0.5783
 3675SOL    HW122661   2.321   4.163   5.876 -1.0695 -1.3284  0.6346
 3675SOL    HW222662   2.273   4.300   5.886 -0.8907  0.4494 -1.6218
 3676SOL     OW22663   4.596   1.222   9.823 -0.4137 -0.1188 -0.2446
 3676SOL    HW122664   4.575   1.132   9.797  0.2940  0.3553 -2.3978
 3676SOL    HW222665   4.631   1.257   9.741 -1.7406  0.3190 -0.6184
 3677SOL     OW22666   2.121   2.547   2.337 -0.0029 -0.7780  0.4617
 3677SOL    HW122667   2.148   2.499   2.415  0.3643 -0.6301  0.4261
 3677SOL    HW222668   2.198   2.598   2.311 -1.9595  2.0754  0.2529
 3678SOL     OW22669   3.054   4.500   0.449  0.5203 -0.1205  0.2301
 3678SOL    HW122670   3.086   4.510   0.359 -1.8235  0.9342 -0.4689
 3678SOL    HW222671   3.069   4.590   0.478  0.4407 -0.2410  0.6456
 3679SOL     OW22672   4.066   4.008  11.553  0.0315  0.0138  0.0292
 3679SOL    HW122673   4.076   3.918  11.524 -0.3155  0.3794 -1.2208
 3679SOL    HW222674   3.984   4.032  11.511 -0.8996 -0.3759  1.6351
 3680SOL     OW22675   0.276   0.878   2.350 -0.3979  0.6522 -0.3858
 3680SOL    HW122676   0.218   0.805   2.330 -1.3584  1.7647 -1.6120
 3680SOL    HW222677   0.270   0.874   2.446  0.5539  0.5068 -0.3292
 3681SOL     OW22678   1.179   4.545   2.567  0.5198 -0.2631  0.7325
 3681SOL    HW122679   1.250   4.592   2.611  2.4262 -1.7265 -0.7751
 3681SOL    HW222680   1.123   4.614   2.531 -0.2206 -0.7155  1.0311
 3682SOL     OW22681   1.707   1.781  11.221 -0.4830 -0.3025  0.6442
 3682SOL    HW122682   1.616   1.782  11.191 -0.7132 -0.3203  1.3544
 3682SOL    HW222683   1.688   1.807  11.311  0.9803  1.4514  0.4542
 3683SOL     OW22684   1.828   4.237   6.894  0.6155  0.1488 -0.1447
 3683SOL    HW122685   1.761   4.296   6.857 -0.5186 -1.0610 -0.0180
 3683SOL    HW222686   1.798   4.240   6.985  0.6782  0.1784 -0.1250
 3684SOL     OW22687   3.925   3.089   3.511 -0.0886 -0.1412  0.0024
 3684SOL    HW122688   3.907   3.108   3.603 -0.6764  2.1472 -0.5885
 3684SOL    HW222689   3.875   3.008   3.503  1.7574 -0.9996 -3.0593
 3685SOL     OW22690   4.306   2.565   8.864  0.1999 -0.4602 -0.0162
 3685SOL    HW122691   4.347   2.576   8.950 -1.5558  3.6837  0.2766
 3685SOL    HW222692   4.246   2.639   8.869  0.5213 -0.3206  1.7783
 3686SOL     OW22693   1.234   2.692  16.741  0.1396 -0.3766 -0.6528
 3686SOL    HW122694   1.247   2.633  16.667  0.1519 -1.2258  0.0211
 3686SOL    HW222695   1.262   2.777  16.707  1.2227 -0.3213  0.3620
 3687SOL     OW22696   3.823   3.915   7.701  0.1216 -0.4522  0.9948
 3687SOL    HW122697   3.831   3.948   7.612  1.2716  0.1312  1.3072
 3687SOL    HW222698   3.733   3.935   7.725 -1.0812 -2.2850 -2.0769
 3688SOL     OW22699   0.028   2.657   6.952  0.4835  0.0720 -0.3078
 3688SOL    HW122700   0.017   2.686   7.042  1.0657 -0.2431 -0.1364
 3688SOL    HW222701   4.703   2.586   6.954  1.2170 -0.6332 -1.6663
 3689SOL     OW22702   2.239   2.122  10.507  0.3645 -0.3398 -0.0414
 3689SOL    HW122703   2.247   2.204  10.554 -0.9029  0.4961 -1.2889
 3689SOL    HW222704   2.324   2.079  10.518 -0.6763 -2.4813 -0.4199
 3690SOL     OW22705   2.385   0.874   8.150 -0.1638 -0.7030 -0.0185
 3690SOL    HW122706   2.463   0.893   8.098  1.4489  1.0615  3.0507
 3690SOL    HW222707   2.417   0.846   8.236  1.3196 -0.8208 -0.6089
 3691SOL     OW22708   1.067   2.181   4.753  0.0283 -0.4441  0.0246
 3691SOL    HW122709   0.996   2.118   4.743 -0.5788  0.5027 -1.7768
 3691SOL    HW222710   1.022   2.265   4.744  1.2678  0.2579  0.4103
 3692SOL     OW22711   3.511   1.876   9.622  0.0806  0.6020 -0.4861
 3692SOL    HW122712   3.589   1.928   9.642  0.1076  0.3218  0.1461
 3692SOL    HW222713   3.464   1.889   9.705 -0.5449  2.2329 -1.0913
 3693SOL     OW22714   2.770   3.960   8.022 -0.2871 -0.6342  0.4990
 3693SOL    HW122715   2.736   3.880   7.982 -0.0317 -1.2850  1.6113
 3693SOL    HW222716   2.855   3.926   8.048  0.2587 -0.1435 -0.6463
 3694SOL     OW22717   0.434   1.952  13.027  0.3575 -0.4067 -0.3350
 3694SOL    HW122718   0.414   2.046  13.026 -0.6672 -0.5957  1.9471
 3694SOL    HW222719   0.408   1.926  12.939 -2.5347  1.8716 -0.1401
 3695SOL     OW22720   4.463   2.964  10.149 -0.4179  0.0895 -0.0044
 3695SOL    HW122721   4.525   3.036  10.141 -1.1420  0.7921  0.5783
 3695SOL    HW222722   4.379   3.000  10.118  0.4890  2.5976  0.4515
 3696SOL     OW22723   1.979   1.801   6.490  0.2747 -0.0031  0.0323
 3696SOL    HW122724   1.907   1.836   6.437 -1.4531 -0.3159  2.1779
 3696SOL    HW222725   1.985   1.876   6.549 -1.8133  1.0403 -1.0280
 3697SOL     OW22726   0.257   1.578   9.053 -0.6725  0.4873  0.3762
 3697SOL    HW122727   0.290   1.655   9.008 -1.0789  0.1329 -0.5268
 3697SOL    HW222728   0.226   1.529   8.977  1.0436 -3.2892  2.0872
 3698SOL     OW22729   1.040   3.917   2.087 -0.0086 -0.1587  0.4310
 3698SOL    HW122730   1.089   3.969   2.151  1.4012 -0.3620 -0.4631
 3698SOL    HW222731   0.948   3.927   2.108 -0.4848 -1.2532 -1.1684
 3699SOL     OW22732   1.737   4.134   3.263  0.0646 -0.8283  0.2668
 3699SOL    HW122733   1.801   4.184   3.315  1.6628 -2.3601 -0.2451
 3699SOL    HW222734   1.769   4.044   3.268  0.3482 -0.6967  0.9395
 3700SOL     OW22735   3.437   3.667   1.579 -0.1198 -0.0515  0.2957
 3700SOL    HW122736   3.436   3.591   1.520 -0.3058  0.4022 -0.2898
 3700SOL    HW222737   3.346   3.661   1.606 -0.6400  0.0237 -1.3965
 3701SOL     OW22738   1.548   2.656   6.562  0.4353  0.5801  0.2232
 3701SOL    HW122739   1.634   2.696   6.564  0.8519 -0.3867  1.3039
 3701SOL    HW222740   1.558   2.581   6.621  0.8931  0.7554  0.3683
 3702SOL     OW22741   2.898   0.473   7.693  0.3373  0.9039  0.1622
 3702SOL    HW122742   2.818   0.420   7.686  1.1696 -0.1532 -1.3608
 3702SOL    HW222743   2.904   0.506   7.603 -1.0113 -0.4457 -0.4301
 3703SOL     OW22744   2.776   1.564   1.974 -0.2744 -1.0403 -0.5659
 3703SOL    HW122745   2.834   1.557   1.899  0.5769 -0.1348  0.0095
 3703SOL    HW222746   2.701   1.607   1.933 -0.0326  0.8778  0.9862
 3704SOL     OW22747   4.166   4.011   7.573 -0.7194 -0.4079  0.2611
 3704SOL    HW122748   4.137   3.991   7.662 -0.3334  1.6630  0.8459
 3704SOL    HW222749   4.210   4.095   7.578 -1.9558  0.1533  1.7270
 3705SOL     OW22750   2.122   3.973  11.794 -0.0766 -0.0474  0.0323
 3705SOL    HW122751   2.054   3.906  11.786 -0.3619  0.3954 -1.2261
 3705SOL    HW222752   2.169   3.938  11.870 -1.2723  1.5133  1.4851
 3706SOL     OW22753   1.177   4.091   5.683 -0.0371 -0.0198 -0.0971
 3706SOL    HW122754   1.100   4.132   5.642 -0.2326 -1.3884 -1.0754
 3706SOL    HW222755   1.126   4.029   5.735 -1.9517  0.1234 -1.8023
 3707SOL     OW22756   3.366   1.976  11.920  0.3408  0.3835  0.5156
 3707SOL    HW122757   3.357   2.017  11.833 -2.7932  3.1103  2.1260
 3707SOL    HW222758   3.388   2.054  11.970 -1.4108 -0.1691  2.1091
 3708SOL     OW22759   2.412   4.423  10.012  0.0776  0.2385  0.3041
 3708SOL    HW122760   2.451   4.352   9.962 -0.4613  0.6716 -0.7225
 3708SOL    HW222761   2.322   4.391  10.015  0.0051  0.3521 -0.6690
 3709SOL     OW22762   2.917   4.708  10.859 -0.2975  0.2852  0.2462
 3709SOL    HW122763   2.936   0.037  10.794 -0.7154 -0.5110 -0.7016
 3709SOL    HW222764   2.838   4.736  10.906 -0.1923 -0.3646  0.8069
 3710SOL     OW22765   0.049   3.305   6.228  0.0717 -0.4528  0.1841
 3710SOL    HW122766   0.054   3.217   6.266 -0.1438  0.4612  2.3685
 3710SOL    HW222767   0.089   3.278   6.146 -3.4081 -1.6836 -1.1190
 3711SOL     OW22768   4.171   2.304   6.349  0.3161  0.0159 -0.0040
 3711SOL    HW122769   4.191   2.396   6.331 -0.1235  0.1582  0.2188
 3711SOL    HW222770   4.090   2.302   6.298 -1.2393 -0.2997  2.4455
 3712SOL     OW22771   4.047   1.658   6.804  0.1149 -0.2608 -0.0211
 3712SOL    HW122772   4.005   1.573   6.797  0.1425 -0.3616  1.1102
 3712SOL    HW222773   4.121   1.634   6.749  0.8040  0.1553  0.7338
 3713SOL     OW22774   3.163   1.627  14.394  0.6658  0.3141 -0.3503
 3713SOL    HW122775   3.227   1.697  14.408  0.1431  0.7632 -0.1770
 3713SOL    HW222776   3.089   1.673  14.354  1.3543  1.8523  0.1225
 3714SOL     OW22777   2.312   2.348   9.455 -0.4792 -0.2858  0.0401
 3714SOL    HW122778   2.222   2.336   9.486  0.0948 -1.9889  1.0126
 3714SOL    HW222779   2.301   2.328   9.362 -1.3025  1.4084 -0.2310
 3715SOL     OW22780   4.300   0.034   9.162  0.2449  0.0125  0.5998
 3715SOL    HW122781   4.276   0.125   9.145  0.0773 -0.0815  0.3310
 3715SOL    HW222782   4.239   0.008   9.232 -1.3278 -0.3160 -0.8836
 3716SOL     OW22783   0.056   0.165   6.104  0.0387 -0.4362 -0.7363
 3716SOL    HW122784   0.098   0.222   6.168 -0.8139 -0.4030 -0.2034
 3716SOL    HW222785   4.732   0.232   6.078 -1.8492 -1.8060  0.2344
 3717SOL     OW22786   0.664   4.397   3.915  0.1457 -0.1602  0.2601
 3717SOL    HW122787   0.636   4.331   3.851  2.8470 -1.6878  0.6607
 3717SOL    HW222788   0.635   4.369   4.001 -0.5713 -1.1436 -0.3077
 3718SOL     OW22789   0.018   0.981   3.974  0.1269 -0.0530  0.4124
 3718SOL    HW122790   0.016   1.052   3.910 -2.7499 -1.6011 -1.1725
 3718SOL    HW222791   0.109   0.987   4.005  0.3494  0.5577 -0.3556
 3719SOL     OW22792   0.604   0.800   8.502 -0.0941  1.0226  0.9399
 3719SOL    HW122793   0.518   0.818   8.465 -0.5825 -2.9573  0.0796
 3719SOL    HW222794   0.666   0.783   8.431  0.0263  1.9619  0.8281
 3720SOL     OW22795   3.507   3.309   5.201  0.1200 -0.0604 -0.4715
 3720SOL    HW122796   3.537   3.387   5.247 -2.0694  0.7081 -0.3524
 3720SOL    HW222797   3.590   3.283   5.162  0.9846  0.1297  1.2438
 3721SOL     OW22798   4.533   1.223   4.329 -0.1318 -0.4698  0.6832
 3721SOL    HW122799   4.517   1.279   4.253 -1.1773 -0.4624  0.9049
 3721SOL    HW222800   4.442   1.209   4.357 -0.4315  0.5607  0.2683
 3722SOL     OW22801   3.763   2.986   7.311  0.3305 -0.1887  0.4232
 3722SOL    HW122802   3.702   3.014   7.243  1.1552  0.9922  0.1816
 3722SOL    HW222803   3.765   2.890   7.307 -1.6857 -0.1910 -0.2062
 3723SOL     OW22804   4.674   2.689  11.916 -0.0299  0.1753 -0.5659
 3723SOL    HW122805   4.628   2.767  11.950  0.2593 -0.1589  0.5893
 3723SOL    HW222806   4.720   2.720  11.838  0.1806  0.0500 -0.4915
 3724SOL     OW22807   2.750   4.539  12.707  0.4148 -0.0858 -0.2895
 3724SOL    HW122808   2.845   4.534  12.712  0.6462  2.4737 -1.7055
 3724SOL    HW222809   2.723   4.519  12.796 -1.3189 -1.1233 -1.0509
 3725SOL     OW22810   2.533   1.902  15.363  0.2958  0.0895  0.2756
 3725SOL    HW122811   2.463   1.963  15.386  1.0682  0.9311  0.4109
 3725SOL    HW222812   2.523   1.895  15.268 -0.3532  1.7416  0.2271
 3726SOL     OW22813   3.586   3.278   0.346 -0.6798 -0.6043 -0.0470
 3726SOL    HW122814   3.520   3.257   0.412  2.0030  0.0384  2.8193
 3726SOL    HW222815   3.578   3.373   0.334 -3.2552 -1.1339 -2.7227
 3727SOL     OW22816   3.633   1.135   7.509  0.1591  0.3981 -0.5557
 3727SOL    HW122817   3.593   1.107   7.427  1.4907 -2.7408 -0.1426
 3727SOL    HW222818   3.725   1.118   7.488 -0.0878 -3.2448  1.2243
 3728SOL     OW22819   0.396   4.723   8.648 -0.0470 -0.5639 -0.3341
 3728SOL    HW122820   0.416   0.021   8.562 -0.2438  1.8789  0.6599
 3728SOL    HW222821   0.417   4.629   8.646 -1.6204 -0.9161 -0.2066
 3729SOL     OW22822   3.449   0.197   7.561  0.2427  0.0438  0.5876
 3729SOL    HW122823   3.432   0.209   7.468  0.9131  0.6531  0.5481
 3729SOL    HW222824   3.432   0.103   7.574  0.7476 -0.0935  0.2326
 3730SOL     OW22825   0.585   2.084   9.494  0.1765  0.3932 -0.0628
 3730SOL    HW122826   0.547   2.069   9.407  0.8676  1.1225 -0.4910
 3730SOL    HW222827   0.568   1.995   9.525  2.0331  0.8591  2.2543
 3731SOL     OW22828   3.133   3.699  11.247 -0.0795  0.0334  0.0747
 3731SOL    HW122829   3.052   3.685  11.295 -0.4301  0.3638 -0.4156
 3731SOL    HW222830   3.196   3.705  11.318 -0.4034  0.3100  0.3371
 3732SOL     OW22831   3.248   3.472   0.582 -0.7981  0.5716 -0.3400
 3732SOL    HW122832   3.340   3.447   0.584 -0.7960  0.5370 -0.9655
 3732SOL    HW222833   3.215   3.400   0.635 -2.0941  0.6605 -1.0169
 3733SOL     OW22834   3.294   3.474  10.123  0.6027 -1.0762 -0.1532
 3733SOL    HW122835   3.371   3.525  10.149 -0.3879  0.5318 -0.3591
 3733SOL    HW222836   3.296   3.397  10.179  2.0383 -0.7653  0.2179
 3734SOL     OW22837   3.551   2.698   6.281 -0.0854 -0.5081 -0.4832
 3734SOL    HW122838   3.506   2.616   6.304  1.3724 -1.4132 -0.8482
 3734SOL    HW222839   3.486   2.750   6.234  1.4437 -0.1497 -2.2259
 3735SOL     OW22840   1.720   4.273   5.423 -0.7619  0.0869  0.5982
 3735SOL    HW122841   1.738   4.219   5.500  0.2426  1.0045  1.0078
 3735SOL    HW222842   1.690   4.207   5.360  1.7712 -1.1934  0.7364
 3736SOL     OW22843   1.399   0.346   7.537 -0.0153  0.6964  0.1705
 3736SOL    HW122844   1.344   0.399   7.478 -3.5697 -1.5531  1.4264
 3736SOL    HW222845   1.483   0.390   7.534  0.2294  0.1614 -0.9075
 3737SOL     OW22846   0.615   2.978   7.594  0.7647  0.1813  0.2865
 3737SOL    HW122847   0.524   2.978   7.623  0.1805  0.7737 -1.5340
 3737SOL    HW222848   0.600   2.980   7.500 -0.8696  0.5835  0.5503
 3738SOL     OW22849   2.027   4.427   4.904  0.2258  0.0774  0.4820
 3738SOL    HW122850   2.122   4.421   4.907  0.3599  0.8113 -1.7271
 3738SOL    HW222851   2.016   4.522   4.908  0.2103  0.1654 -1.3295
 3739SOL     OW22852   1.647   3.966   1.069  0.5807 -0.0044  0.7374
 3739SOL    HW122853   1.703   3.920   1.007  4.8901  2.0272  3.0868
 3739SOL    HW222854   1.718   4.022   1.100 -0.8496  2.5614 -0.6321
 3740SOL     OW22855   1.367   2.964  17.444 -0.5014 -0.4419  0.8647
 3740SOL    HW122856   1.275   2.964  17.471  0.0268 -0.5264  2.7011
 3740SOL    HW222857   1.395   2.873  17.451  1.9557  0.1693 -0.9403
 3741SOL     OW22858   4.476   3.136   5.519  0.0671  0.4499 -0.0872
 3741SOL    HW122859   4.546   3.071   5.505 -0.7171 -0.3487 -0.3150
 3741SOL    HW222860   4.528   3.192   5.576  0.6308  1.6611 -1.7939
 3742SOL     OW22861   0.524   1.418   7.815  0.1858  0.1188 -0.8623
 3742SOL    HW122862   0.612   1.447   7.839 -0.2830  0.8617  0.0009
 3742SOL    HW222863   0.478   1.410   7.899 -0.1033  0.5375 -0.9823
 3743SOL     OW22864   3.094   1.367   8.237  0.1821  0.4841 -0.4657
 3743SOL    HW122865   3.176   1.416   8.243  0.6010 -0.0918 -1.4892
 3743SOL    HW222866   3.125   1.276   8.244  1.0123  0.6363 -2.0916
 3744SOL     OW22867   1.090   1.194   8.422  0.2343 -0.2606 -0.4536
 3744SOL    HW122868   1.134   1.154   8.347 -0.6486  1.2644 -1.7970
 3744SOL    HW222869   1.163   1.172   8.479  1.6773  0.3940 -2.0553
 3745SOL     OW22870   3.441   3.112   4.049 -0.7607  0.3397  0.1980
 3745SOL    HW122871   3.409   3.063   4.125 -1.0767 -0.8957 -0.7251
 3745SOL    HW222872   3.460   3.202   4.076  0.9636 -0.3661  1.3245
 3746SOL     OW22873   0.595   0.230  10.925 -0.1828  0.2652 -0.1852
 3746SOL    HW122874   0.529   0.267  10.984 -1.0243 -2.4840  0.6288
 3746SOL    HW222875   0.646   0.198  10.999 -2.7325  1.6541  2.1674
 3747SOL     OW22876   1.042   2.093   3.730 -0.5238 -0.2109  0.1517
 3747SOL    HW122877   1.087   2.166   3.773  0.0952  0.9169 -2.4000
 3747SOL    HW222878   1.039   2.119   3.638  0.5525  0.7338  0.3788
 3748SOL     OW22879   3.177   1.325   8.533 -0.0492  0.1494 -0.2209
 3748SOL    HW122880   3.136   1.407   8.505  0.5179  0.7598  0.7262
 3748SOL    HW222881   3.199   1.357   8.621  0.4704 -0.9675  0.0489
 3749SOL     OW22882   4.447   3.795   8.255 -0.5399  0.5091  0.1362
 3749SOL    HW122883   4.410   3.865   8.308 -1.8148  0.7215 -1.0240
 3749SOL    HW222884   4.372   3.737   8.235  1.0966 -1.3265 -0.6787
 3750SOL     OW22885   0.559   3.276   5.099  0.1550  0.7164  0.4368
 3750SOL    HW122886   0.623   3.209   5.125  0.0806  0.4947  0.0463
 3750SOL    HW222887   0.608   3.357   5.111  0.1816  1.0635 -2.0983
 3751SOL     OW22888   4.679   3.594   6.152  0.2711  0.2129  0.1496
 3751SOL    HW122889   4.695   3.620   6.243 -1.4113  1.0458  0.2193
 3751SOL    HW222890   4.703   3.501   6.155  1.4965  0.5469  0.4338
 3752SOL     OW22891   4.060   2.628  14.847  0.2683  0.2919 -0.6993
 3752SOL    HW122892   4.094   2.717  14.845 -3.3125  1.6749 -1.1527
 3752SOL    HW222893   4.057   2.613  14.752  0.8179 -1.9632 -0.3645
 3753SOL     OW22894   2.978   2.273   7.020  0.7798 -0.5332  0.8337
 3753SOL    HW122895   2.954   2.353   6.974  0.7329 -1.6233 -1.0813
 3753SOL    HW222896   3.026   2.235   6.947  2.6206  1.5349  0.9722
 3754SOL     OW22897   0.321   1.822  12.829 -0.7012 -0.2657 -0.0805
 3754SOL    HW122898   0.236   1.861  12.850 -0.4848 -0.8232  1.7834
 3754SOL    HW222899   0.318   1.729  12.850  0.8561 -0.8974 -2.5657
 3755SOL     OW22900   2.218   3.620   1.864 -0.1405 -0.0868  0.0425
 3755SOL    HW122901   2.200   3.580   1.949 -2.1297 -0.1566 -0.4226
 3755SOL    HW222902   2.190   3.711   1.869 -1.3748 -0.4335 -0.6419
 3756SOL     OW22903   3.004   3.100   6.867  0.0960 -0.3740 -0.3291
 3756SOL    HW122904   2.944   3.044   6.819  0.2861  0.6574 -1.7997
 3756SOL    HW222905   3.008   3.178   6.811  0.5836  0.4479  0.8387
 3757SOL     OW22906   4.045   0.550   6.815 -0.7630  0.2255  0.5274
 3757SOL    HW122907   4.081   0.478   6.866 -0.0916 -1.2423 -1.9885
 3757SOL    HW222908   4.117   0.561   6.752 -1.8477 -0.1525 -0.7894
 3758SOL     OW22909   0.129   2.573   9.807  0.2879  0.0207  0.2660
 3758SOL    HW122910   0.168   2.508   9.749  2.8569  0.3686  1.6147
 3758SOL    HW222911   0.162   2.658   9.779  2.9650 -0.2526  2.6458
 3759SOL     OW22912   0.595   3.404   5.925  0.0429  0.4087  0.2239
 3759SOL    HW122913   0.667   3.467   5.934 -0.1179  0.2089  2.9466
 3759SOL    HW222914   0.645   3.326   5.950 -0.3327  0.1942  0.3009
 3760SOL     OW22915   1.187   0.163   1.985  0.0852 -0.1709  0.1189
 3760SOL    HW122916   1.272   0.187   2.021  0.5513  0.1689 -1.2192
 3760SOL    HW222917   1.208   0.181   1.894 -0.4623  0.0906  0.0437
 3761SOL     OW22918   2.572   4.304   4.382 -0.2812 -0.6563  0.2573
 3761SOL    HW122919   2.623   4.373   4.341 -0.2715 -0.4542  0.6081
 3761SOL    HW222920   2.565   4.244   4.307  2.2900  0.0139 -0.4940
 3762SOL     OW22921   2.583   0.671   5.843  0.2006  0.0101  0.2820
 3762SOL    HW122922   2.526   0.598   5.818  0.3393  0.3433 -0.9764
 3762SOL    HW222923   2.668   0.628   5.854  0.7576  0.6932 -1.4172
 3763SOL     OW22924   1.550   0.590   3.543  0.7008 -0.2122 -0.2453
 3763SOL    HW122925   1.490   0.625   3.476 -1.9038 -1.6956  1.3012
 3763SOL    HW222926   1.514   0.649   3.609  0.8549 -0.8651  0.4140
 3764SOL     OW22927   2.626   1.766   1.543 -0.1346 -0.5996 -0.5105
 3764SOL    HW122928   2.654   1.855   1.520  2.2984 -1.2889 -0.2312
 3764SOL    HW222929   2.708   1.735   1.583 -0.1175  2.5107  1.8917
 3765SOL     OW22930   2.521   4.168   9.603 -0.4490  0.8255  0.3083
 3765SOL    HW122931   2.546   4.228   9.674  3.5004 -0.9652  0.4213
 3765SOL    HW222932   2.448   4.120   9.641 -0.8510  1.0204 -0.2233
 3766SOL     OW22933   4.266   1.562   7.191 -0.3157  0.7719  0.0053
 3766SOL    HW122934   4.229   1.524   7.271 -0.4603  0.0421 -0.4006
 3766SOL    HW222935   4.206   1.525   7.125  2.4739 -2.6376 -0.6793
 3767SOL     OW22936   1.587   3.404   9.495 -0.2512  0.0616 -0.3872
 3767SOL    HW122937   1.680   3.422   9.506  0.1619 -2.7582  0.5926
 3767SOL    HW222938   1.584   3.412   9.400 -0.8315 -0.1762 -0.3892
 3768SOL     OW22939   2.006   4.473   5.570  0.3449 -0.4389 -0.7016
 3768SOL    HW122940   1.959   4.507   5.494  0.2805  1.1726  0.0483
 3768SOL    HW222941   1.959   4.519   5.640  1.7715 -1.6287  1.0437
 3769SOL     OW22942   0.568   2.236  14.399 -0.3822 -0.4329  0.1474
 3769SOL    HW122943   0.489   2.289  14.406  1.1628  1.6904  1.9396
 3769SOL    HW222944   0.531   2.152  14.425 -0.6829 -0.6405 -0.9886
 3770SOL     OW22945   1.082   3.065   2.325  0.1172  0.3542  0.0807
 3770SOL    HW122946   1.038   3.031   2.403  2.2643  0.2842  1.2680
 3770SOL    HW222947   1.154   3.116   2.363  0.3905  0.5375 -0.6925
 3771SOL     OW22948   1.606   0.517   9.035 -0.2837  0.5554 -0.5595
 3771SOL    HW122949   1.646   0.456   8.974 -1.6521  0.0436 -0.9480
 3771SOL    HW222950   1.648   0.497   9.119 -0.5030  0.7494 -0.4029
 3772SOL     OW22951   0.118   2.879   6.544  0.3011 -0.2874 -0.1437
 3772SOL    HW122952   0.212   2.874   6.525  0.0689 -1.7789 -0.9559
 3772SOL    HW222953   0.114   2.854   6.636 -2.5705  0.9110  0.0468
 3773SOL     OW22954   4.283   2.442   8.010 -0.2697  0.0104 -0.9126
 3773SOL    HW122955   4.325   2.519   7.972 -0.8492  1.2111  0.8511
 3773SOL    HW222956   4.309   2.386   7.938 -1.3843 -2.4064  0.5781
 3774SOL     OW22957   0.797   2.308   8.743  0.2526 -0.3811 -0.2494
 3774SOL    HW122958   0.892   2.305   8.753  0.0810 -0.0621  1.4550
 3774SOL    HW222959   0.788   2.305   8.648  0.5130 -1.6416 -0.2375
 3775SOL     OW22960   0.913   3.590  15.538 -0.2761  0.5540 -0.0182
 3775SOL    HW122961   0.874   3.646  15.604 -2.0825 -2.1563  1.1766
 3775SOL    HW222962   0.998   3.635  15.541  0.9169 -1.7653  1.2701
 3776SOL     OW22963   2.443   4.737   8.435 -0.0162  0.1610 -0.0545
 3776SOL    HW122964   2.484   0.060   8.496  1.8372  0.1320 -1.2654
 3776SOL    HW222965   2.525   4.697   8.405  0.1377 -0.7864  1.6386
 3777SOL     OW22966   1.591   1.563   3.158  0.2063 -0.2430  0.0867
 3777SOL    HW122967   1.556   1.492   3.211  0.8515 -0.8053 -0.2403
 3777SOL    HW222968   1.543   1.549   3.076  0.4049 -2.1944  0.3150
 3778SOL     OW22969   3.673   1.526  10.148 -0.8351 -0.5053  0.8166
 3778SOL    HW122970   3.696   1.618  10.141 -0.8668 -0.4732  1.1511
 3778SOL    HW222971   3.761   1.488  10.157  0.2608  1.7810 -0.2829
 3779SOL     OW22972   1.795   4.599   5.313  0.3610 -0.0469 -0.5463
 3779SOL    HW122973   1.724   4.555   5.266  0.8840 -1.4946  0.0160
 3779SOL    HW222974   1.876   4.589   5.263  0.2147 -1.8870 -0.4317
 3780SOL     OW22975   3.797   1.410   6.789  0.4555  0.0147 -0.4816
 3780SOL    HW122976   3.756   1.494   6.770 -0.7616 -0.7333 -1.1590
 3780SOL    HW222977   3.801   1.371   6.701  1.0327  1.8235 -1.2517
 3781SOL     OW22978   1.539   4.721   0.022 -0.7494 -0.2975  0.2550
 3781SOL    HW122979   1.529   0.046  17.704 -2.5502  0.8142  1.5058
 3781SOL    HW222980   1.472   0.021   0.078 -0.9235 -0.3179  0.0596
 3782SOL     OW22981   2.705   2.819   2.748  0.1013  0.2562  0.5650
 3782SOL    HW122982   2.767   2.747   2.736  0.3365  0.3822  0.9835
 3782SOL    HW222983   2.754   2.896   2.719  2.0897 -0.5953  1.6050
 3783SOL     OW22984   2.610   0.929  12.382  0.2467  0.1971  0.2745
 3783SOL    HW122985   2.596   0.906  12.290 -0.0577  3.0691 -0.3729
 3783SOL    HW222986   2.622   1.023  12.377  1.3692  0.0327 -0.0640
 3784SOL     OW22987   1.384   0.678   7.638  0.5235  0.2853  0.2605
 3784SOL    HW122988   1.375   0.652   7.547  0.2258  2.5066 -0.3340
 3784SOL    HW222989   1.369   0.600   7.691  0.0233  0.8281  0.9045
 3785SOL     OW22990   3.084   4.604   4.756 -0.3290 -0.6144  0.4704
 3785SOL    HW122991   3.076   4.699   4.749 -2.5228 -0.9047 -0.8888
 3785SOL    HW222992   3.101   4.601   4.851  0.1300  1.8073  0.4621
 3786SOL     OW22993   2.634   4.695   3.508 -0.1972 -0.0133  0.5102
 3786SOL    HW122994   2.660   0.022   3.572  1.4576 -0.0261 -0.1588
 3786SOL    HW222995   2.711   4.640   3.517 -0.4781 -0.4638  0.1558
 3787SOL     OW22996   0.495   2.739   4.601  0.0743  0.4649  0.4217
 3787SOL    HW122997   0.411   2.714   4.562 -0.5058  1.8949  0.7825
 3787SOL    HW222998   0.472   2.732   4.694 -1.0576  3.9164  0.3972
 3788SOL     OW22999   3.209   2.546  12.242 -0.1088 -0.0196 -0.3507
 3788SOL    HW123000   3.222   2.625  12.190 -2.3100  0.9559  0.5729
 3788SOL    HW223001   3.124   2.572  12.278 -1.0088 -0.4499 -2.1329
 3789SOL     OW23002   1.389   1.692   4.894 -0.2660 -0.4153  0.2557
 3789SOL    HW123003   1.408   1.636   4.970  0.3496  1.7617  1.7007
 3789SOL    HW223004   1.450   1.654   4.830  2.4179 -0.0905  2.5996
 3790SOL     OW23005   2.644   1.827  12.406 -0.1740  0.1904 -0.5988
 3790SOL    HW123006   2.661   1.735  12.387 -2.0260 -0.6388  1.7303
 3790SOL    HW223007   2.731   1.853  12.437 -1.6459  1.6590  2.3162
 3791SOL     OW23008   3.068   3.118   9.359  0.4673  0.2761 -0.0904
 3791SOL    HW123009   3.027   3.187   9.306 -0.3050  0.7196  1.0845
 3791SOL    HW223010   3.157   3.123   9.325  0.0936 -0.8435 -1.2372
 3792SOL     OW23011   3.482   0.572   5.422 -0.1252  0.2726 -0.0333
 3792SOL    HW123012   3.456   0.500   5.479 -0.0678 -0.3573 -0.7975
 3792SOL    HW223013   3.552   0.613   5.472 -0.4191 -0.5492  1.0445
 3793SOL     OW23014   1.834   2.370   5.330  0.1304 -0.1736 -0.0446
 3793SOL    HW123015   1.811   2.378   5.423  2.0334 -1.2755  0.5156
 3793SOL    HW223016   1.896   2.443   5.327 -1.5362  1.2277 -0.4764
 3794SOL     OW23017   2.620   0.098  12.717  0.3851 -0.4713  0.1176
 3794SOL    HW123018   2.615   0.121  12.810 -1.2955  0.3306 -0.1740
 3794SOL    HW223019   2.556   0.027  12.714  0.2013 -0.3218  0.3722
 3795SOL     OW23020   0.351   0.974  16.978  0.5348  0.7194 -0.6558
 3795SOL    HW123021   0.292   1.049  16.976  0.7125  0.8577 -0.7097
 3795SOL    HW223022   0.344   0.934  16.891  2.5580 -0.8494 -0.1130
 3796SOL     OW23023   0.676   1.581   1.670 -0.4139 -0.2476  0.1094
 3796SOL    HW123024   0.684   1.670   1.706 -2.4584  0.7388 -1.8869
 3796SOL    HW223025   0.582   1.571   1.661 -0.1213 -1.7369 -1.2344
 3797SOL     OW23026   1.398   1.699  13.542 -0.7318 -0.0850 -0.6055
 3797SOL    HW123027   1.465   1.767  13.544 -0.2206 -0.6076  0.2127
 3797SOL    HW223028   1.325   1.744  13.499  0.0613  2.2654  0.5363
 3798SOL     OW23029   0.656   2.591   8.480 -0.1912 -0.2341 -0.4279
 3798SOL    HW123030   0.626   2.542   8.403 -1.1377 -0.1212 -0.1286
 3798SOL    HW223031   0.667   2.674   8.434 -0.7421 -0.6958 -1.4013
 3799SOL     OW23032   4.209   0.072   6.773 -0.4107  0.1436  0.1277
 3799SOL    HW123033   4.240   0.054   6.861  0.1271  1.4770  0.2044
 3799SOL    HW223034   4.152   4.738   6.746  2.0674 -2.0357  0.8050
 3800SOL     OW23035   3.572   3.960   4.058  0.3647 -0.6062  0.5399
 3800SOL    HW123036   3.627   3.896   4.104  1.4608  0.0627  0.1664
 3800SOL    HW223037   3.488   3.946   4.102  0.5441  1.1928  1.4253
 3801SOL     OW23038   3.858   2.471   6.768 -0.1529  0.3307 -0.5526
 3801SOL    HW123039   3.831   2.382   6.793 -0.4686  0.6183  0.1233
 3801SOL    HW223040   3.810   2.519   6.836  0.1838  0.3000 -0.2905
 3802SOL     OW23041   1.180   2.829   0.856 -0.6104  0.2194 -0.3607
 3802SOL    HW123042   1.138   2.801   0.937  0.1753 -0.5651 -0.2230
 3802SOL    HW223043   1.267   2.849   0.891 -1.2188 -0.5439  1.5330
 3803SOL     OW23044   1.839   3.276   1.007  0.2282 -0.3263  0.1651
 3803SOL    HW123045   1.916   3.333   0.994 -2.2682  2.7492 -1.1512
 3803SOL    HW223046   1.863   3.246   1.095  1.2902 -0.6382 -0.2294
 3804SOL     OW23047   3.520   0.419   3.081  0.0219  0.1564 -0.3615
 3804SOL    HW123048   3.451   0.450   3.024 -1.4422  2.0680  2.4366
 3804SOL    HW223049   3.470   0.402   3.161 -1.4744  0.8247 -1.1696
 3805SOL     OW23050   3.915   1.552  11.668  0.7997 -0.5338  0.0363
 3805SOL    HW123051   3.845   1.486  11.665  0.7006 -0.4622  0.9271
 3805SOL    HW223052   3.986   1.502  11.627  0.6722  0.4239 -1.3384
 3806SOL     OW23053   1.600   0.164   8.244 -0.4075  0.0177 -0.7282
 3806SOL    HW123054   1.637   0.224   8.179 -0.3596  0.0355 -0.6844
 3806SOL    HW223055   1.655   0.183   8.320  0.2428  0.5792 -1.3414
 3807SOL     OW23056   3.726   3.029   9.869 -0.0557 -0.0172  0.0340
 3807SOL    HW123057   3.656   2.971   9.839 -0.3434  0.8062 -0.8869
 3807SOL    HW223058   3.803   2.976   9.892 -2.2615 -2.8684  0.7611
 3808SOL     OW23059   2.866   1.027   5.870  0.4448 -0.4787 -0.0438
 3808SOL    HW123060   2.895   0.943   5.834 -2.2289 -1.9418  1.2695
 3808SOL    HW223061   2.773   1.011   5.883  0.2251  0.6090 -0.2472
 3809SOL     OW23062   0.577   3.724   4.568 -0.0718  0.0338  0.6983
 3809SOL    HW123063   0.499   3.683   4.604 -1.2371  0.8447 -0.8599
 3809SOL    HW223064   0.625   3.655   4.521 -0.2627  1.2073 -1.2567
 3810SOL     OW23065   3.484   2.535   5.991  0.1527  0.2909 -0.5841
 3810SOL    HW123066   3.471   2.500   5.903 -3.0646 -0.4338  0.1513
 3810SOL    HW223067   3.488   2.630   5.987  1.0184  0.1639 -2.2281
 3811SOL     OW23068   3.491   0.124   0.683  0.5335  0.2245  0.0495
 3811SOL    HW123069   3.460   0.055   0.742  1.5775 -1.1842 -1.0374
 3811SOL    HW223070   3.468   0.094   0.595 -0.5948 -0.7475  0.6725
 3812SOL     OW23071   1.476   1.767   7.255  0.6149  0.1570  0.2812
 3812SOL    HW123072   1.426   1.814   7.189  1.7416 -2.5233 -2.5005
 3812SOL    HW223073   1.479   1.842   7.314 -0.8798 -1.4962  2.4591
 3813SOL     OW23074   4.129   3.189   3.334  0.3158  0.2588 -0.2196
 3813SOL    HW123075   4.042   3.160   3.361  1.0147 -0.6389  1.0340
 3813SOL    HW223076   4.164   3.219   3.418 -0.1098 -2.0896  0.7949
 3814SOL     OW23077   3.023   0.602   2.181  0.2195  0.0452  0.0040
 3814SOL    HW123078   2.970   0.645   2.249 -0.2550  0.2499 -0.4918
 3814SOL    HW223079   3.044   0.518   2.222 -0.1524  0.5234  1.1607
 3815SOL     OW23080   0.654   4.422   6.491  0.7439 -0.2362 -0.0200
 3815SOL    HW123081   0.727   4.440   6.550  2.0898 -1.2850 -1.3727
 3815SOL    HW223082   0.685   4.464   6.411 -1.1085 -0.9450 -1.1192
 3816SOL     OW23083   3.623   3.743   4.476  0.5519 -0.2149  0.5303
 3816SOL    HW123084   3.645   3.768   4.566  0.8935  0.3961  0.2799
 3816SOL    HW223085   3.567   3.669   4.497 -0.0126  0.0632  0.0009
 3817SOL     OW23086   4.285   1.156   7.048  0.8323 -0.0130 -0.0932
 3817SOL    HW123087   4.206   1.204   7.071  0.4102 -0.0579 -1.4228
 3817SOL    HW223088   4.250   1.070   7.026 -1.7574  0.7848  0.9412
 3818SOL     OW23089   0.393   4.019   7.486  0.1529  0.4925 -0.1286
 3818SOL    HW123090   0.367   4.109   7.506 -1.0665 -0.1512  1.1733
 3818SOL    HW223091   0.366   3.977   7.568 -0.9551 -0.0244 -0.7647
 3819SOL     OW23092   0.428   3.176   9.190 -0.3155  0.6666 -0.6550
 3819SOL    HW123093   0.458   3.133   9.270  0.2848  2.2039 -0.0554
 3819SOL    HW223094   0.499   3.140   9.136 -0.8685  0.9213 -1.5501
 3820SOL     OW23095   0.227   0.074   6.373 -0.3444 -0.2870  0.1568
 3820SOL    HW123096   0.135   0.072   6.398 -0.3606  0.7457  0.1745
 3820SOL    HW223097   0.255   4.721   6.375 -0.5220 -0.3719 -2.1073
 3821SOL     OW23098   1.070   1.566   0.709 -0.2466 -0.4065  0.5221
 3821SOL    HW123099   1.084   1.626   0.635 -2.0143 -0.4839  0.1385
 3821SOL    HW223100   1.110   1.487   0.674 -0.6326  0.2864 -1.4576
 3822SOL     OW23101   3.128   3.668  10.086 -0.4216 -0.3725  0.0725
 3822SOL    HW123102   3.053   3.664  10.146  0.2396 -0.7031  0.8775
 3822SOL    HW223103   3.187   3.595  10.107 -1.1522  0.0103  3.3835
 3823SOL     OW23104   0.670   4.086  14.981  0.2541  0.3036  0.7268
 3823SOL    HW123105   0.718   4.107  15.061  0.1309 -2.1112  1.4250
 3823SOL    HW223106   0.698   4.158  14.924  2.7991 -0.0013  1.6112
 3824SOL     OW23107   3.073   2.588  11.270  0.0768 -0.0708 -0.4898
 3824SOL    HW123108   3.121   2.653  11.218  0.3227 -0.4929 -0.7932
 3824SOL    HW223109   3.097   2.509  11.222 -0.0541  0.6304 -1.6911
 3825SOL     OW23110   3.947   4.674  12.672  0.0112  0.4137  0.0670
 3825SOL    HW123111   3.922   0.025  12.649  0.4150  0.2456 -1.0643
 3825SOL    HW223112   3.876   4.625  12.632  1.5866 -1.1300 -0.8317
 3826SOL     OW23113   4.277   3.127   2.443 -0.7499 -0.1110 -0.2599
 3826SOL    HW123114   4.192   3.083   2.440 -0.2223 -1.3031  1.8874
 3826SOL    HW223115   4.279   3.181   2.364 -0.0181 -0.3759 -0.4172
 3827SOL     OW23116   2.534   2.176   8.036 -0.2775  0.1395 -0.3851
 3827SOL    HW123117   2.468   2.159   7.969 -0.9056 -1.3426  0.6072
 3827SOL    HW223118   2.554   2.091   8.076 -0.4352  0.6489  0.7904
 3828SOL     OW23119   3.102   2.760   3.434  0.2752 -0.2468  0.3714
 3828SOL    HW123120   3.146   2.833   3.389 -0.5907 -0.5843 -1.0313
 3828SOL    HW223121   3.153   2.688   3.397 -0.0479  0.5169 -1.6138
 3829SOL     OW23122   3.788   1.889   9.100 -0.0925 -0.6949 -0.2357
 3829SOL    HW123123   3.767   1.954   9.167  1.2585 -0.9325  0.4329
 3829SOL    HW223124   3.698   1.867   9.078 -0.1470 -3.1771  2.4208
 3830SOL     OW23125   0.749   0.364  11.355 -0.0879  0.2189 -0.8518
 3830SOL    HW123126   0.781   0.325  11.437  1.0424 -1.3556 -2.0435
 3830SOL    HW223127   0.804   0.442  11.345  0.7745 -0.6517 -2.8577
 3831SOL     OW23128   2.000   1.672   3.784 -0.5869  0.0893  0.1200
 3831SOL    HW123129   1.995   1.732   3.858 -3.0224  2.1132 -1.6520
 3831SOL    HW223130   1.966   1.728   3.714  1.9806  0.9517 -0.4257
 3832SOL     OW23131   4.200   3.892   6.584 -0.1712  0.5668  0.1179
 3832SOL    HW123132   4.249   3.969   6.610  1.3589 -1.1228  2.2260
 3832SOL    HW223133   4.258   3.821   6.613 -0.2413  0.0144 -1.0944
 3833SOL     OW23134   2.842   4.481  11.236  0.0210 -0.3763  0.0140
 3833SOL    HW123135   2.905   4.432  11.288  1.9068 -0.3840 -2.2465
 3833SOL    HW223136   2.763   4.428  11.247 -0.8241  0.9508  0.3051
 3834SOL     OW23137   0.645   3.378   7.075 -0.0795 -0.0057 -0.2839
 3834SOL    HW123138   0.565   3.378   7.024 -0.8164 -0.0770  0.8724
 3834SOL    HW223139   0.627   3.316   7.145 -1.2449  2.3443  1.5059
 3835SOL     OW23140   4.619   4.623   7.802  0.3253  0.4620 -0.4002
 3835SOL    HW123141   4.535   4.631   7.846  0.0176  1.0781 -1.0859
 3835SOL    HW223142   4.670   4.680   7.860  0.7011 -0.7894  0.4802
 3836SOL     OW23143   2.876   4.199   7.062 -0.1897  0.1665  0.0728
 3836SOL    HW123144   2.837   4.286   7.053  1.3208  0.5465 -2.7298
 3836SOL    HW223145   2.833   4.150   6.992  2.1780 -0.8525 -0.6461
 3837SOL     OW23146   3.078   1.599   0.995  0.0492 -0.7426 -0.8878
 3837SOL    HW123147   3.146   1.660   0.968  0.3389 -0.7435 -0.1275
 3837SOL    HW223148   3.015   1.612   0.924 -2.4743 -1.5568  1.2105
 3838SOL     OW23149   2.729   0.534   8.528  0.2100 -0.0368  0.5240
 3838SOL    HW123150   2.714   0.472   8.457 -0.0794 -0.3226  0.8363
 3838SOL    HW223151   2.638   0.543   8.556 -0.4029 -0.7831 -1.2230
 3839SOL     OW23152   3.698   4.118  10.644  0.2599  0.1246  0.3413
 3839SOL    HW123153   3.645   4.126  10.565 -0.7425  0.9975  1.1103
 3839SOL    HW223154   3.640   4.134  10.718 -2.3256 -1.1631 -1.4163
 3840SOL     OW23155   2.038   4.245   7.761 -0.1096 -0.1052  0.5512
 3840SOL    HW123156   2.023   4.339   7.754  2.3909  0.0902 -2.6318
 3840SOL    HW223157   2.016   4.213   7.673  0.8500 -1.7804  0.9100
 3841SOL     OW23158   4.116   0.293   4.725  0.4446  0.3092  0.2077
 3841SOL    HW123159   4.097   0.284   4.631  0.8678  2.1392 -0.0560
 3841SOL    HW223160   4.030   0.278   4.764  0.8491 -2.4721  0.0534
 3842SOL     OW23161   4.688   1.313  10.067 -0.0180 -0.1585  0.6014
 3842SOL    HW123162   4.641   1.283   9.989  0.5949  1.0918 -0.2390
 3842SOL    HW223163   4.614   1.334  10.124 -0.2601 -2.0022  0.9435
 3843SOL     OW23164   1.103   3.876  15.912 -0.3164  0.3842 -0.8070
 3843SOL    HW123165   1.160   3.805  15.883  0.6285  0.4905  0.8029
 3843SOL    HW223166   1.147   3.956  15.883  0.0072  1.7087  3.3638
 3844SOL     OW23167   0.281   1.029  10.119 -0.0405  0.8213  0.1370
 3844SOL    HW123168   0.367   1.009  10.082 -0.0726  2.7030 -1.0002
 3844SOL    HW223169   0.296   1.041  10.213  0.3970  1.0297  0.0436
 3845SOL     OW23170   3.274   1.282   5.432 -0.0032  0.5228 -0.3301
 3845SOL    HW123171   3.232   1.198   5.445  0.8617  0.3344  1.1737
 3845SOL    HW223172   3.248   1.298   5.341 -1.6761 -1.2749 -0.1601
 3846SOL     OW23173   0.363   2.448   5.268 -0.7107  0.5546 -0.2251
 3846SOL    HW123174   0.330   2.390   5.199 -2.5279 -0.5835  1.6303
 3846SOL    HW223175   0.447   2.404   5.284 -1.7717 -0.8652  1.3590
 3847SOL     OW23176   1.566   4.370   5.932  0.3667 -0.2119 -0.0133
 3847SOL    HW123177   1.583   4.291   5.881  0.4121 -0.1360 -0.1151
 3847SOL    HW223178   1.565   4.335   6.021 -0.4564 -1.5963 -0.5614
 3848SOL     OW23179   3.603   2.500   4.825 -0.3133  0.3679  0.0978
 3848SOL    HW123180   3.539   2.566   4.850 -0.5491  0.8204 -1.6828
 3848SOL    HW223181   3.578   2.471   4.737  2.2989 -1.7444  0.0461
 3849SOL     OW23182   2.437   0.071   4.296  0.1878  0.0316 -0.0159
 3849SOL    HW123183   2.403   4.721   4.306  1.1649 -0.3944 -0.4801
 3849SOL    HW223184   2.500   0.072   4.368  0.4052  0.9154 -0.2157
 3850SOL     OW23185   2.188   2.792   9.315 -0.0616  0.2068 -0.3021
 3850SOL    HW123186   2.156   2.720   9.370  0.2865 -1.7119 -2.6024
 3850SOL    HW223187   2.130   2.791   9.239  2.2338  1.2704 -2.0752
 3851SOL     OW23188   4.400   4.584  15.198  0.0982  0.3768  0.5010
 3851SOL    HW123189   4.364   4.501  15.230  0.5068  0.5974  1.5253
 3851SOL    HW223190   4.365   4.588  15.109  0.7733  0.1332  0.2265
 3852SOL     OW23191   4.079   2.330   5.516 -0.0526  0.0278  0.6097
 3852SOL    HW123192   4.163   2.284   5.524 -0.8870 -2.1045 -3.0189
 3852SOL    HW223193   4.010   2.267   5.536  0.4419  0.3089  3.2628
 3853SOL     OW23194   1.427   4.521   3.882  0.1211  1.0677  0.2696
 3853SOL    HW123195   1.511   4.563   3.863  0.9748 -1.7323 -2.2907
 3853SOL    HW223196   1.436   4.448   3.821 -2.0928  0.0319  1.1894
 3854SOL     OW23197   2.877   4.178   3.127 -0.3046 -0.7643 -0.2249
 3854SOL    HW123198   2.948   4.208   3.071 -1.5823 -0.4335 -1.6869
 3854SOL    HW223199   2.803   4.229   3.093 -0.6135 -2.5683 -2.2275
 3855SOL     OW23200   4.036   0.589   7.341 -0.1397 -0.0929 -0.0753
 3855SOL    HW123201   4.066   0.667   7.388 -0.6375  0.6684 -1.0374
 3855SOL    HW223202   4.097   0.525   7.378  0.5199  0.0241 -0.9797
 3856SOL     OW23203   0.433   3.892  16.934 -0.4571 -0.2175  0.0043
 3856SOL    HW123204   0.434   3.828  17.005 -0.0169 -0.7784 -0.5103
 3856SOL    HW223205   0.422   3.845  16.852 -0.1502 -2.7907  1.4293
 3857SOL     OW23206   0.203   4.252  11.823  0.2875 -0.3346  0.2542
 3857SOL    HW123207   0.152   4.237  11.902 -0.9149  1.0109 -0.2623
 3857SOL    HW223208   0.288   4.224  11.857  0.6030 -0.6304 -0.7804
 3858SOL     OW23209   4.562   0.551   7.145  0.4390 -0.0104 -0.2193
 3858SOL    HW123210   4.587   0.631   7.099  0.6712  0.3673  0.5810
 3858SOL    HW223211   4.475   0.536   7.108 -0.0976 -1.3781  1.6045
 3859SOL     OW23212   3.286   2.755  11.203 -0.1939 -0.4207  0.4809
 3859SOL    HW123213   3.350   2.814  11.163  0.3663 -0.2688  1.6165
 3859SOL    HW223214   3.333   2.674  11.179  1.5341 -0.3099  3.5434
 3860SOL     OW23215   4.054   4.283   7.349 -0.1097 -0.1124 -0.7178
 3860SOL    HW123216   4.021   4.276   7.439 -2.0232  2.5175 -1.2305
 3860SOL    HW223217   3.993   4.346   7.310 -0.3955  0.0067 -0.0740
 3861SOL     OW23218   2.439   3.873   8.026  0.4984  0.5565 -0.2045
 3861SOL    HW123219   2.467   3.786   8.054 -2.4461  0.3928  2.1287
 3861SOL    HW223220   2.383   3.894   8.101  0.0299  0.6477 -0.5850
 3862SOL     OW23221   1.052   0.909   5.397 -0.5718  0.3302 -0.3210
 3862SOL    HW123222   0.964   0.879   5.419 -0.2414 -0.9130 -0.7027
 3862SOL    HW223223   1.087   0.921   5.485 -0.9551 -1.3963  0.0596
 3863SOL     OW23224   4.200   2.803   5.954  0.1310  0.3166  0.3098
 3863SOL    HW123225   4.158   2.744   5.890  0.3884 -1.8249  2.1393
 3863SOL    HW223226   4.293   2.784   5.962  0.0610 -0.0106  0.3336
 3864SOL     OW23227   2.735   0.856  14.992 -0.0454  0.0205 -0.1138
 3864SOL    HW123228   2.722   0.945  15.025  1.0742  0.5721 -1.1928
 3864SOL    HW223229   2.759   0.809  15.072  2.4700  0.2200 -0.7701
 3865SOL     OW23230   2.341   0.282   2.324 -0.0546  0.2413 -0.7663
 3865SOL    HW123231   2.251   0.262   2.296 -0.1586  0.6812 -0.7475
 3865SOL    HW223232   2.373   0.315   2.240  1.2042  2.2007  0.4854
 3866SOL     OW23233   2.170   0.893   3.655  0.2298 -0.3626  0.5470
 3866SOL    HW123234   2.131   0.954   3.717  1.5238  1.9879 -0.9626
 3866SOL    HW223235   2.221   0.838   3.714 -0.0486 -1.6637 -0.4199
 3867SOL     OW23236   3.318   2.192  10.075  0.1430 -0.4347  0.3420
 3867SOL    HW123237   3.313   2.156   9.987 -1.5707 -1.3711  0.8225
 3867SOL    HW223238   3.371   2.124  10.115 -0.9022 -0.3972  1.8290
 3868SOL     OW23239   0.896   2.256  14.915 -0.1468  0.4810 -0.4382
 3868SOL    HW123240   0.896   2.247  14.819 -2.2977 -1.2421 -0.2914
 3868SOL    HW223241   0.944   2.176  14.937 -0.4697 -0.2813 -2.4327
 3869SOL     OW23242   0.536   4.396   8.413  0.2289 -0.3471 -0.2008
 3869SOL    HW123243   0.600   4.397   8.342 -0.9276  2.2929 -1.2247
 3869SOL    HW223244   0.458   4.400   8.357 -0.5826 -1.1116  0.8770
 3870SOL     OW23245   2.600   3.042   7.592 -0.9688 -0.2737  0.5163
 3870SOL    HW123246   2.544   3.058   7.668 -2.1097 -0.0273 -0.3798
 3870SOL    HW223247   2.625   2.950   7.599  0.9769  0.3632  1.6992
 3871SOL     OW23248   3.175   3.547  13.309  0.3021  0.0425  0.3260
 3871SOL    HW123249   3.255   3.497  13.292 -0.0691  0.0650 -1.5428
 3871SOL    HW223250   3.132   3.530  13.225 -1.8695 -0.1140  1.4802
 3872SOL     OW23251   0.879   1.352  16.148 -0.1809 -0.6300  0.4791
 3872SOL    HW123252   0.974   1.344  16.150  0.1261  2.9728  1.2357
 3872SOL    HW223253   0.866   1.445  16.126 -3.3076 -1.4041 -0.9092
 3873SOL     OW23254   4.735   0.253   7.531 -0.0070 -0.1322 -0.0655
 3873SOL    HW123255   0.068   0.200   7.497  0.0322 -0.4056  0.4389
 3873SOL    HW223256   0.032   0.271   7.618 -1.9118 -1.2055  0.9383
 3874SOL     OW23257   2.851   2.401   3.330  0.7147  0.9020  0.7801
 3874SOL    HW123258   2.904   2.328   3.360 -1.2442  0.1026  2.2960
 3874SOL    HW223259   2.876   2.398   3.237 -0.0957  2.6281  0.4909
 3875SOL     OW23260   3.507   4.454   5.866  0.1574 -0.0449 -0.4616
 3875SOL    HW123261   3.558   4.533   5.848  1.2178 -0.5141  0.4612
 3875SOL    HW223262   3.463   4.474   5.948  0.0290 -1.6787 -0.1351
 3876SOL     OW23263   3.236   0.286   2.614 -0.1965 -0.1401  0.2493
 3876SOL    HW123264   3.175   0.234   2.667 -0.2775  0.5192  0.7932
 3876SOL    HW223265   3.297   0.216   2.591  1.6305  1.7071 -0.4264
 3877SOL     OW23266   1.393   3.381   5.891  0.0353  0.4220 -0.4372
 3877SOL    HW123267   1.341   3.300   5.889  0.5669  0.1145 -1.9903
 3877SOL    HW223268   1.425   3.386   5.801  0.4728  0.3999 -0.2822
 3878SOL     OW23269   3.693   1.488   8.984  0.0919 -0.1934 -0.0905
 3878SOL    HW123270   3.712   1.538   8.905  1.0649  2.8311  2.0761
 3878SOL    HW223271   3.754   1.529   9.046 -3.6471  2.4492  1.8137
 3879SOL     OW23272   2.314   1.162  11.034 -0.0619  0.5455  0.1303
 3879SOL    HW123273   2.230   1.203  11.012 -0.5181  0.2388  1.3219
 3879SOL    HW223274   2.285   1.070  11.032  2.3013 -0.2380  2.1906
 3880SOL     OW23275   0.363   2.933   2.238  0.4842  0.3644  0.2819
 3880SOL    HW123276   0.405   2.900   2.158  0.8650  1.1882  0.1377
 3880SOL    HW223277   0.417   2.898   2.309  1.9059  1.5227 -0.2294
 3881SOL     OW23278   1.027   3.938   3.825 -0.1052 -0.4683  0.0357
 3881SOL    HW123279   0.942   3.909   3.858 -0.9302  2.3417  0.3355
 3881SOL    HW223280   1.048   4.004   3.890 -1.9059 -1.1827  1.3241
 3882SOL     OW23281   4.099   3.897   2.319  0.3621  0.1788  0.0174
 3882SOL    HW123282   4.172   3.838   2.340  0.7174  1.3266  2.0006
 3882SOL    HW223283   4.094   3.875   2.226 -1.9202 -1.7655  0.5768
 3883SOL     OW23284   0.807   1.532   2.686  0.1545 -0.5786 -0.6350
 3883SOL    HW123285   0.755   1.461   2.648 -2.6415  0.3466  1.4741
 3883SOL    HW223286   0.878   1.480   2.725 -0.8221  0.2821  2.2457
 3884SOL     OW23287   0.422   2.731  16.476  1.1187  0.2231 -0.3888
 3884SOL    HW123288   0.341   2.755  16.521  0.7759 -3.1718  0.8019
 3884SOL    HW223289   0.483   2.777  16.533 -0.3128 -1.0584  2.1645
 3885SOL     OW23290   3.824   1.244   9.038 -0.4795  0.3173  0.4086
 3885SOL    HW123291   3.775   1.323   9.019 -0.5789 -0.1275 -1.1396
 3885SOL    HW223292   3.882   1.283   9.104  0.4655  4.5867 -2.9854
 3886SOL     OW23293   4.220   4.456   0.049 -0.0862 -0.7605  0.0087
 3886SOL    HW123294   4.129   4.442   0.022 -0.2779  2.3275 -0.9527
 3886SOL    HW223295   4.261   4.380   0.006  0.8309  0.1240 -0.6704
 3887SOL     OW23296   2.218   0.615  14.039 -0.0409 -0.1112 -0.1516
 3887SOL    HW123297   2.124   0.603  14.052 -0.3167  0.9142 -1.1800
 3887SOL    HW223298   2.218   0.644  13.947  0.4912 -1.7587 -0.6586
 3888SOL     OW23299   1.158   4.521   2.933 -0.0184  0.2759  0.0887
 3888SOL    HW123300   1.087   4.471   2.891 -1.3117  0.0065  2.5930
 3888SOL    HW223301   1.193   4.451   2.988  1.5251 -0.6120 -2.0336
 3889SOL     OW23302   0.023   2.737   2.037  0.3613 -0.2785 -0.0147
 3889SOL    HW123303   0.012   2.798   2.109 -0.6547  1.0334 -1.2902
 3889SOL    HW223304   0.087   2.669   2.060  0.1579 -0.6811 -0.6348
 3890SOL     OW23305   2.197   2.664   8.933 -0.2218 -0.1205 -0.5372
 3890SOL    HW123306   2.252   2.729   8.890 -0.5264  0.9361  0.6627
 3890SOL    HW223307   2.121   2.716   8.959 -1.3732 -1.5894 -0.9601
 3891SOL     OW23308   2.868   3.780  14.408  0.5342 -0.4923 -0.0569
 3891SOL    HW123309   2.906   3.865  14.389 -1.4147  0.4253  0.0812
 3891SOL    HW223310   2.877   3.777  14.504 -1.4912 -0.2637  0.1466
 3892SOL     OW23311   3.959   4.013   0.585 -0.4550  0.1363 -0.3843
 3892SOL    HW123312   3.930   3.931   0.545 -2.7228  0.2849  0.9524
 3892SOL    HW223313   3.905   4.073   0.532 -0.5534  0.1559 -0.2627
 3893SOL     OW23314   1.185   4.058   4.040  0.1494  0.1554 -0.2880
 3893SOL    HW123315   1.225   4.108   3.970 -2.2658  0.2210 -1.6437
 3893SOL    HW223316   1.268   4.053   4.086 -0.7570  0.6554  1.4069
 3894SOL     OW23317   1.959   2.503   8.066  0.6122 -0.2015 -0.2228
 3894SOL    HW123318   2.030   2.451   8.103  0.8478 -0.7280 -1.4137
 3894SOL    HW223319   1.943   2.570   8.132  0.5764  1.2006 -1.6568
 3895SOL     OW23320   4.600   2.090   6.663 -0.2039 -0.2590 -0.2678
 3895SOL    HW123321   4.527   2.030   6.681 -0.3246  0.2236  0.8821
 3895SOL    HW223322   4.573   2.119   6.576  2.5123 -1.4614 -1.5175
 3896SOL     OW23323   3.692   2.036   6.630  0.2409 -0.3078 -0.2112
 3896SOL    HW123324   3.759   2.020   6.697  1.6499  4.6953 -0.3974
 3896SOL    HW223325   3.608   2.047   6.673  0.2429 -0.7174 -0.0996
 3897SOL     OW23326   0.312   1.114   2.609 -0.2060  0.2374 -0.1317
 3897SOL    HW123327   0.383   1.091   2.549  0.3716  0.6060  0.4044
 3897SOL    HW223328   0.292   1.206   2.590 -1.1377  0.0088 -0.2471
 3898SOL     OW23329   1.234   1.828   2.725  0.1847  0.4396 -0.6485
 3898SOL    HW123330   1.328   1.807   2.725  0.1639  0.3498 -1.3733
 3898SOL    HW223331   1.205   1.771   2.796  4.3284 -1.2032 -0.2268
 3899SOL     OW23332   1.603   2.009   2.510 -0.3597  0.0871 -1.0953
 3899SOL    HW123333   1.627   1.967   2.428 -0.9275 -1.0697 -0.6687
 3899SOL    HW223334   1.688   2.013   2.553 -0.3170  0.7384 -1.2430
 3900SOL     OW23335   1.187   4.129  15.790  0.1385 -0.2831 -0.7366
 3900SOL    HW123336   1.279   4.114  15.811  0.7703  0.1927 -3.2377
 3900SOL    HW223337   1.162   4.208  15.839 -1.6135 -1.1860 -0.1723
 3901SOL     OW23338   4.647   4.006   9.109  0.2578 -0.0670 -0.2374
 3901SOL    HW123339   4.640   4.095   9.074 -0.3794 -0.6898 -1.6470
 3901SOL    HW223340   4.702   4.016   9.187  0.2125  0.7723 -0.3143
 3902SOL     OW23341   3.843   3.101  16.512 -0.0121  0.2413 -0.2983
 3902SOL    HW123342   3.758   3.089  16.554  0.6151 -1.7232  0.4053
 3902SOL    HW223343   3.854   3.007  16.503 -1.3065 -0.0735  1.4306
 3903SOL     OW23344   2.535   2.658   1.944  0.4674 -0.0646  0.1723
 3903SOL    HW123345   2.508   2.744   1.913  0.2454 -0.3519 -0.4308
 3903SOL    HW223346   2.630   2.664   1.933  0.0682  0.0034 -3.2828
 3904SOL     OW23347   4.580   2.150   8.375  0.0083  0.0211 -0.4368
 3904SOL    HW123348   4.491   2.119   8.392  0.7346 -1.0231  1.5609
 3904SOL    HW223349   4.630   2.068   8.371 -1.1088 -0.6222 -1.1310
 3905SOL     OW23350   0.756   4.114  15.746  0.2874 -0.2740 -0.5088
 3905SOL    HW123351   0.725   4.204  15.756  0.0157 -0.3607 -0.5891
 3905SOL    HW223352   0.804   4.095  15.827 -0.1887 -1.0207 -0.4087
 3906SOL     OW23353   1.272   2.550   3.063 -0.2631  0.0355 -0.4756
 3906SOL    HW123354   1.187   2.562   3.106  1.2325  0.8116  2.2149
 3906SOL    HW223355   1.302   2.636   3.033  3.1057 -1.6458 -1.8947
 3907SOL     OW23356   4.208   2.305   8.950 -0.2600  0.0836 -0.1306
 3907SOL    HW123357   4.204   2.378   8.887  1.9463  1.6131  1.5114
 3907SOL    HW223358   4.174   2.342   9.031  1.7105  1.2965  0.1471
 3908SOL     OW23359   3.399   3.691  14.328 -0.1567  0.2416  0.5960
 3908SOL    HW123360   3.331   3.757  14.343 -1.0902 -0.4528 -0.5613
 3908SOL    HW223361   3.448   3.726  14.255  0.8113 -2.2469  0.0533
 3909SOL     OW23362   0.871   3.948   5.625 -0.0068 -0.9633 -0.0625
 3909SOL    HW123363   0.871   4.043   5.632 -1.9985 -0.8333 -1.9685
 3909SOL    HW223364   0.894   3.930   5.534 -3.1794  0.2104 -1.0961
 3910SOL     OW23365   0.019   2.202   0.434  0.7218 -0.2111  0.0447
 3910SOL    HW123366   0.061   2.147   0.500  1.5266  0.9455  0.4908
 3910SOL    HW223367   4.691   2.142   0.401  2.2274 -0.4540 -2.5232
 3911SOL     OW23368   1.370   2.589  11.434  0.3805 -0.1832  0.0896
 3911SOL    HW123369   1.310   2.655  11.470 -0.5096  0.2970 -2.3232
 3911SOL    HW223370   1.403   2.544  11.512 -0.5097 -0.7057  0.1699
 3912SOL     OW23371   0.509   3.410   0.653 -0.0540 -0.0262 -0.1763
 3912SOL    HW123372   0.594   3.386   0.615 -0.2534 -2.4912  0.9344
 3912SOL    HW223373   0.470   3.323   0.653 -0.5565  0.1934  1.6840
 3913SOL     OW23374   0.493   1.196   9.210  0.4295 -0.2300  0.0174
 3913SOL    HW123375   0.424   1.133   9.230  1.6361 -2.1547 -1.9394
 3913SOL    HW223376   0.573   1.144   9.202  1.0111  0.8406 -1.1364
 3914SOL     OW23377   4.579   2.356  10.229  0.0186 -0.3235 -0.0735
 3914SOL    HW123378   4.641   2.429  10.222 -2.5757  1.7982 -0.8159
 3914SOL    HW223379   4.593   2.306  10.148  2.9835 -0.6459  0.6308
 3915SOL     OW23380   3.450   3.342  11.908  0.0286  0.4781  0.0296
 3915SOL    HW123381   3.442   3.331  11.813  2.3114 -1.1016  0.0188
 3915SOL    HW223382   3.437   3.253  11.939  1.1359  0.1326 -0.4669
 3916SOL     OW23383   1.491   1.303   3.784 -0.5779  0.6908  0.0132
 3916SOL    HW123384   1.561   1.364   3.761 -0.5943  0.5017 -0.5297
 3916SOL    HW223385   1.550   1.236   3.819 -1.4239 -0.6036 -1.0321
 3917SOL     OW23386   2.280   2.447   8.347  0.2469 -0.1289 -0.3619
 3917SOL    HW123387   2.358   2.406   8.312  0.1119  0.1521 -0.9997
 3917SOL    HW223388   2.231   2.466   8.266  0.8282 -1.2903 -0.9805
 3918SOL     OW23389   1.111   1.142   5.251  0.0809 -0.4281  0.2174
 3918SOL    HW123390   1.044   1.204   5.280 -0.1071  0.5923 -2.3820
 3918SOL    HW223391   1.083   1.059   5.290 -0.9939 -0.3433 -0.3563
 3919SOL     OW23392   2.952   4.459   1.996 -0.3251  0.2100  0.4941
 3919SOL    HW123393   2.873   4.512   1.993  0.0351  0.7189  0.1552
 3919SOL    HW223394   2.978   4.457   2.089  1.4890  2.2632  0.0182
 3920SOL     OW23395   4.075   1.922   7.754 -0.1620  0.0206 -0.7460
 3920SOL    HW123396   4.134   1.849   7.737 -1.2508 -1.1366  0.4607
 3920SOL    HW223397   3.993   1.878   7.732  0.3955 -1.7002  0.6338
 3921SOL     OW23398   2.073   3.509   4.603  0.2941  0.4519 -0.2761
 3921SOL    HW123399   2.123   3.542   4.678 -0.3165  0.5377  0.0953
 3921SOL    HW223400   2.141   3.454   4.565  0.1439  1.8074 -2.4836
 3922SOL     OW23401   0.492   2.682   5.161 -0.1195 -0.0076  0.6977
 3922SOL    HW123402   0.458   2.621   5.226 -0.0039 -2.2993 -1.4069
 3922SOL    HW223403   0.587   2.676   5.170  0.2079  2.6025 -1.0271
 3923SOL     OW23404   4.079   0.539  14.221  0.3398 -0.1175 -0.4781
 3923SOL    HW123405   4.057   0.506  14.134 -0.0098 -0.8624 -0.1028
 3923SOL    HW223406   4.020   0.614  14.224 -1.2565 -1.3248 -1.6582
 3924SOL     OW23407   0.846   3.534   5.673  0.4947  0.0514  0.8751
 3924SOL    HW123408   0.796   3.611   5.647  1.1530  0.5921  1.1973
 3924SOL    HW223409   0.789   3.464   5.642  0.2127 -0.3723  2.3152
 3925SOL     OW23410   0.100   1.607   1.709  0.7403  0.1536  0.7683
 3925SOL    HW123411   0.141   1.521   1.721 -0.3540 -0.2203  1.7890
 3925SOL    HW223412   0.131   1.629   1.621 -1.8786 -1.5404 -0.5779
 3926SOL     OW23413   4.602   0.824   5.918 -0.3580 -0.1168 -1.1090
 3926SOL    HW123414   4.683   0.868   5.893 -2.2307  3.6485 -0.5810
 3926SOL    HW223415   4.544   0.846   5.845 -1.0540 -1.4761 -0.9616
 3927SOL     OW23416   3.211   1.813   4.852 -0.2236  0.0896 -0.5561
 3927SOL    HW123417   3.257   1.781   4.929 -0.8587 -1.7469 -0.9493
 3927SOL    HW223418   3.151   1.876   4.892  0.4510  1.5011 -1.7479
 3928SOL     OW23419   2.839   3.785   1.243 -0.2297  0.8424 -0.7577
 3928SOL    HW123420   2.804   3.716   1.299 -0.5684 -0.3100 -2.3800
 3928SOL    HW223421   2.799   3.755   1.161 -0.3066  0.6073 -0.6336
 3929SOL     OW23422   3.527   1.976  16.491  0.1601  0.0904 -0.0076
 3929SOL    HW123423   3.479   2.058  16.505  0.2119  0.3329 -1.2768
 3929SOL    HW223424   3.511   1.951  16.401 -0.8939  0.7698 -0.0162
 3930SOL     OW23425   3.918   2.893  10.016 -0.4918 -0.0476 -0.1238
 3930SOL    HW123426   3.980   2.821  10.008 -1.1829 -0.7977  1.2561
 3930SOL    HW223427   3.853   2.862  10.079  0.8650 -0.3970  1.1087
 3931SOL     OW23428   0.681   4.005  16.203 -0.3073 -0.3635  0.1457
 3931SOL    HW123429   0.696   4.068  16.132  1.6202 -0.3568  0.5611
 3931SOL    HW223430   0.692   4.051  16.286 -0.5825 -0.5792  0.2987
 3932SOL     OW23431   4.459   0.643   4.382  0.1273 -0.7265 -0.0370
 3932SOL    HW123432   4.507   0.601   4.312  2.8643  1.2118  0.6821
 3932SOL    HW223433   4.415   0.567   4.420 -0.4377  0.5606  1.9609
 3933SOL     OW23434   1.243   3.310   6.889 -0.3657  0.3577 -0.4717
 3933SOL    HW123435   1.285   3.226   6.905 -1.8920 -0.4434 -0.7006
 3933SOL    HW223436   1.320   3.362   6.914  0.5671 -1.8654  1.2561
 3934SOL     OW23437   1.790   0.838   8.958 -0.2711  0.7236 -0.4395
 3934SOL    HW123438   1.696   0.820   8.959 -0.2136  0.4403 -0.3710
 3934SOL    HW223439   1.816   0.773   9.022  2.1758  1.9076 -0.2213
 3935SOL     OW23440   0.057   2.711   9.504 -0.3627 -0.3967  0.5677
 3935SOL    HW123441   0.138   2.662   9.489  0.4709  1.5811 -1.4424
 3935SOL    HW223442   0.089   2.777   9.565 -2.9597  0.9459  0.4766
 3936SOL     OW23443   2.668   2.273  16.553 -0.3728 -0.1512 -0.1488
 3936SOL    HW123444   2.592   2.247  16.606 -0.3299  1.7850  0.8606
 3936SOL    HW223445   2.640   2.287  16.463 -0.9014  1.7692  0.3189
 3937SOL     OW23446   0.137   0.354  15.726 -0.7515  0.3114 -0.3865
 3937SOL    HW123447   0.162   0.361  15.818 -1.0516  0.0635 -0.2860
 3937SOL    HW223448   0.111   0.262  15.725 -1.2506  0.4526 -0.0870
 3938SOL     OW23449   4.125   0.011   5.202  0.1264  0.7060 -0.3335
 3938SOL    HW123450   4.031   0.023   5.209  0.1473 -0.6659  2.3803
 3938SOL    HW223451   4.134   4.724   5.110 -2.1262  2.8718 -1.1547
 3939SOL     OW23452   2.011   4.204   6.139  0.6912  0.1142 -0.3788
 3939SOL    HW123453   2.072   4.232   6.207 -0.0969  0.5812  0.1354
 3939SOL    HW223454   2.032   4.265   6.068  0.5275  0.5425 -0.0533
 3940SOL     OW23455   0.997   4.366  13.047  0.3048  0.6483 -0.3318
 3940SOL    HW123456   1.071   4.305  13.053  1.4660  2.1248  0.4530
 3940SOL    HW223457   1.037   4.438  12.997 -2.0163  1.4434 -1.0358
 3941SOL     OW23458   1.754   4.698   6.487 -0.0005 -0.6099  0.3141
 3941SOL    HW123459   1.715   4.646   6.417 -0.6922  0.5824 -0.1910
 3941SOL    HW223460   1.736   0.047   6.453  2.4450 -0.2469 -0.0244
 3942SOL     OW23461   3.634   4.693   7.212  0.0729 -0.2286 -0.2082
 3942SOL    HW123462   3.693   4.683   7.137 -0.9080 -3.3548 -0.5654
 3942SOL    HW223463   3.553   4.669   7.168 -0.1226  0.2560 -0.1076
 3943SOL     OW23464   1.990   1.783   8.264 -0.6129  0.4925 -0.2175
 3943SOL    HW123465   1.966   1.718   8.331  0.3013 -0.2356 -0.5883
 3943SOL    HW223466   2.005   1.853   8.327 -2.4825 -0.2430  1.0544
 3944SOL     OW23467   2.526   2.033  16.641 -0.0167  0.3196  0.0641
 3944SOL    HW123468   2.469   2.036  16.718  2.1912  0.3393  1.6864
 3944SOL    HW223469   2.561   1.946  16.661  1.9587  0.4110 -3.0746
 3945SOL     OW23470   0.016   3.500   6.726  0.2811 -0.2380 -0.0734
 3945SOL    HW123471   4.734   3.452   6.646 -1.8534 -2.5780  1.8894
 3945SOL    HW223472   4.715   3.587   6.714  1.6797  0.5235  0.9349
 3946SOL     OW23473   3.361   2.556  11.582  0.2630  0.8942 -0.1747
 3946SOL    HW123474   3.425   2.625  11.566  0.8757 -0.2298 -2.5344
 3946SOL    HW223475   3.405   2.480  11.544  0.4071  1.7084 -1.6538
 3947SOL     OW23476   0.169   1.096   1.730  0.0645  0.6204  0.3970
 3947SOL    HW123477   0.158   1.001   1.723  1.5589  0.3934  1.1884
 3947SOL    HW223478   0.238   1.102   1.797  0.4364  2.5691 -0.1678
 3948SOL     OW23479   0.252   3.600   3.388  0.1696 -1.1299 -0.2113
 3948SOL    HW123480   0.283   3.689   3.374 -0.4932 -0.6230  1.6026
 3948SOL    HW223481   0.285   3.574   3.474  0.0520 -0.9932 -0.1270
 3949SOL     OW23482   3.407   4.242   6.943 -0.2450  0.3096  0.3645
 3949SOL    HW123483   3.461   4.205   7.013 -1.3668 -0.4881  0.8123
 3949SOL    HW223484   3.386   4.163   6.893  1.6696 -0.4864  0.8372
 3950SOL     OW23485   1.057   2.765   1.088 -0.0236  0.2410 -0.2117
 3950SOL    HW123486   1.039   2.855   1.114  0.4940 -0.3666  2.2156
 3950SOL    HW223487   0.970   2.727   1.085 -0.7030  1.7411  0.7977
 3951SOL     OW23488   2.711   0.957   2.361 -0.7235  0.8090  0.3262
 3951SOL    HW123489   2.689   1.019   2.292 -1.4753  0.8928  0.6407
 3951SOL    HW223490   2.790   0.997   2.397  0.2183 -1.8091  1.1981
 3952SOL     OW23491   2.264   0.235   4.783 -0.6636  0.1501 -0.5678
 3952SOL    HW123492   2.263   0.141   4.802 -0.6894  0.0707 -0.9609
 3952SOL    HW223493   2.179   0.268   4.814 -0.2189  0.3344  0.4445
 3953SOL     OW23494   3.486   3.582   9.368 -0.1212  0.1063 -0.0722
 3953SOL    HW123495   3.571   3.598   9.409 -0.5076  0.6706  0.5075
 3953SOL    HW223496   3.448   3.661   9.405 -1.8991 -1.4083  1.3508
 3954SOL     OW23497   4.434   1.421   8.042  0.4120  0.2991 -0.5974
 3954SOL    HW123498   4.517   1.385   8.073 -1.2875 -0.3411  3.2470
 3954SOL    HW223499   4.398   1.347   7.993 -0.6419  0.9293 -0.7874
 3955SOL     OW23500   3.203   0.163   4.482  0.9135 -0.1090 -0.0396
 3955SOL    HW123501   3.295   0.189   4.487  0.8501  0.2191 -0.5621
 3955SOL    HW223502   3.167   0.238   4.435  1.0238  1.2637  2.0902
 3956SOL     OW23503   1.321   1.390   5.572 -0.0790  0.3653 -0.4743
 3956SOL    HW123504   1.288   1.454   5.508 -2.3675 -0.9367 -0.5999
 3956SOL    HW223505   1.377   1.341   5.511 -0.6294  0.3984 -1.0070
 3957SOL     OW23506   0.153   1.607   8.481 -0.2078 -0.0645  0.0450
 3957SOL    HW123507   0.060   1.586   8.487 -0.1851 -0.8513 -2.2440
 3957SOL    HW223508   0.147   1.666   8.406 -1.0460 -1.5782 -1.0992
 3958SOL     OW23509   3.908   1.700   2.174  0.3040 -0.0445 -0.3947
 3958SOL    HW123510   3.940   1.617   2.138  2.3368  0.8696 -0.6915
 3958SOL    HW223511   3.964   1.714   2.250 -0.8849 -0.1950  0.5129
 3959SOL     OW23512   0.109   3.095   1.919  0.0620  0.2198  0.4875
 3959SOL    HW123513   0.115   3.118   2.012 -0.5566  1.9615  0.0940
 3959SOL    HW223514   0.160   3.014   1.909 -0.7386 -0.1832 -0.3067
 3960SOL     OW23515   1.527   0.568   4.821 -0.0944 -0.0480  0.0228
 3960SOL    HW123516   1.536   0.604   4.909  0.6377 -0.8295  0.2557
 3960SOL    HW223517   1.433   0.582   4.811 -0.8479 -4.7783  0.7554
 3961SOL     OW23518   1.139   3.776  12.451  1.0637 -0.6991  0.0620
 3961SOL    HW123519   1.184   3.836  12.510 -1.2573 -0.8646  2.0356
 3961SOL    HW223520   1.044   3.793  12.452  0.9130 -1.5820  0.6577
 3962SOL     OW23521   1.230   4.105   3.574 -0.0152 -0.1413 -0.6799
 3962SOL    HW123522   1.292   4.096   3.502  0.0028  1.4482 -0.8685
 3962SOL    HW223523   1.199   4.014   3.575 -0.3597 -0.0085  0.9856
 3963SOL     OW23524   3.952   1.756   4.380  0.0283 -0.0903  0.4993
 3963SOL    HW123525   3.909   1.800   4.453 -1.7533 -1.7092  0.4285
 3963SOL    HW223526   3.926   1.666   4.397  0.1843 -0.2961 -0.3352
 3964SOL     OW23527   4.006   0.619  12.402 -0.1224  0.1807  0.9093
 3964SOL    HW123528   4.034   0.640  12.313 -1.0844 -0.1579  0.5186
 3964SOL    HW223529   4.002   0.524  12.399  3.1570  0.0896 -0.4089
 3965SOL     OW23530   3.450   0.047   2.080 -0.2378 -0.2093 -0.0228
 3965SOL    HW123531   3.507   0.120   2.059 -0.2096  0.0349  0.8869
 3965SOL    HW223532   3.433   0.072   2.171  2.0463 -0.9121  0.5888
 3966SOL     OW23533   2.004   4.407   9.093  0.1893 -0.5829  0.7231
 3966SOL    HW123534   1.923   4.412   9.043 -0.2914  1.6175  1.6929
 3966SOL    HW223535   2.048   4.333   9.052 -1.8034 -1.9648  1.0643
 3967SOL     OW23536   1.264   2.619  13.124  0.7254  0.2750 -0.2512
 3967SOL    HW123537   1.204   2.548  13.104 -0.2078  0.7170  1.0040
 3967SOL    HW223538   1.201   2.689  13.139 -1.0506 -1.2481 -0.6809
 3968SOL     OW23539   1.994   2.136  17.176 -0.4048 -0.0439  0.0771
 3968SOL    HW123540   2.048   2.090  17.112  0.3110 -0.6376  1.1018
 3968SOL    HW223541   1.907   2.096  17.178 -0.2804 -0.2209  1.8124
 3969SOL     OW23542   3.719   4.178   4.050  0.1999  1.1308 -0.2623
 3969SOL    HW123543   3.652   4.123   4.091  0.6262  1.4380  0.8461
 3969SOL    HW223544   3.742   4.114   3.983  0.5938  0.4933  0.4799
 3970SOL     OW23545   2.180   3.331   8.379  0.6086 -0.2187 -0.0162
 3970SOL    HW123546   2.212   3.295   8.296 -1.6603 -1.7620 -0.2229
 3970SOL    HW223547   2.205   3.423   8.375 -0.4397  0.0470 -0.2909
 3971SOL     OW23548   2.420   0.787  10.436 -0.1853 -0.7326  0.1099
 3971SOL    HW123549   2.357   0.718  10.453  0.0200 -0.7701  0.7072
 3971SOL    HW223550   2.497   0.737  10.460  0.2516 -0.7161 -1.2472
 3972SOL     OW23551   1.353   1.229   2.010 -1.6309  0.1298 -0.0953
 3972SOL    HW123552   1.330   1.190   1.926 -0.7731 -0.5078 -0.0309
 3972SOL    HW223553   1.350   1.324   1.997 -0.5888 -0.1582 -2.3033
 3973SOL     OW23554   1.903   1.880   5.520 -0.1491  0.0328  0.2851
 3973SOL    HW123555   1.820   1.844   5.488 -0.1664 -0.5655  1.0097
 3973SOL    HW223556   1.897   1.836   5.605  3.8061  1.1852  1.1653
 3974SOL     OW23557   2.685   3.247   4.168  0.1078 -0.2968  0.1646
 3974SOL    HW123558   2.626   3.173   4.153  0.1246 -0.2291 -0.2505
 3974SOL    HW223559   2.632   3.316   4.207  0.4168  0.0394 -0.0127
 3975SOL     OW23560   1.432   0.583   6.158  0.5966  0.2233  0.1280
 3975SOL    HW123561   1.461   0.668   6.189  0.0069  0.0828  1.0550
 3975SOL    HW223562   1.354   0.600   6.105 -0.6637  0.1348  1.9505
 3976SOL     OW23563   4.607   4.085   5.052 -0.0401 -0.2556  0.4073
 3976SOL    HW123564   4.560   4.141   5.114 -1.1699  0.7510 -1.3496
 3976SOL    HW223565   4.533   4.074   4.992 -0.1491  1.7940  0.1644
 3977SOL     OW23566   0.926   3.333   6.163  1.1015  0.4333  0.3314
 3977SOL    HW123567   0.843   3.334   6.116  0.7989 -2.0929  0.8267
 3977SOL    HW223568   0.996   3.332   6.097  1.2890  0.7812  0.5249
 3978SOL     OW23569   4.230   1.409   6.905  0.8957  0.2156 -0.5351
 3978SOL    HW123570   4.203   1.408   6.813  0.5151 -1.5251 -0.4064
 3978SOL    HW223571   4.251   1.318   6.926 -1.8828 -0.2856  0.0771
 3979SOL     OW23572   1.314   0.874   2.919  0.3851  0.0238 -0.8277
 3979SOL    HW123573   1.221   0.866   2.937  0.3730  0.4039 -0.7355
 3979SOL    HW223574   1.321   0.906   2.829 -0.8934  1.8082 -0.2809
 3980SOL     OW23575   3.145   4.725   5.359  0.6909 -0.3079 -0.6195
 3980SOL    HW123576   3.053   4.737   5.383  1.4583  1.7356  1.3831
 3980SOL    HW223577   3.190   0.027   5.434  0.2904 -2.1984  0.6609
 3981SOL     OW23578   0.816   4.613  17.651  0.1403 -0.1409  0.2945
 3981SOL    HW123579   0.852   4.565  17.725  2.2558  1.1161  0.0865
 3981SOL    HW223580   0.777   4.681  17.706 -1.9329 -1.1236  0.0491
 3982SOL     OW23581   1.089   1.826   4.090  0.2662 -0.1959 -0.4504
 3982SOL    HW123582   1.009   1.864   4.052  0.0505 -0.8763 -0.6792
 3982SOL    HW223583   1.146   1.828   4.014  1.7185  2.0557  0.7091
 3983SOL     OW23584   0.224   4.630   1.015 -0.7490 -0.2526  0.1737
 3983SOL    HW123585   0.175   4.621   1.097 -0.5567 -0.9038  0.2195
 3983SOL    HW223586   0.292   4.562   1.019  1.4542  1.9300 -0.5141
 3984SOL     OW23587   2.776   4.040   7.395 -0.6035  0.6810 -0.3467
 3984SOL    HW123588   2.855   4.059   7.343 -0.5655 -0.9817 -0.8738
 3984SOL    HW223589   2.709   4.044   7.328 -2.4068  0.6556  1.4668
 3985SOL     OW23590   3.915   0.681   2.818 -0.9782  0.7117  0.4305
 3985SOL    HW123591   3.842   0.712   2.871  0.4642  0.2749  2.6395
 3985SOL    HW223592   3.962   0.643   2.892 -2.5868 -2.5956 -0.2440
 3986SOL     OW23593   0.855   2.214   5.368 -0.6986 -0.0178 -0.1864
 3986SOL    HW123594   0.889   2.131   5.334  2.6265  0.9426  0.7314
 3986SOL    HW223595   0.899   2.277   5.310  1.3720 -2.1134 -0.9083
 3987SOL     OW23596   1.808   3.922   7.584 -0.2763  0.0659 -0.1723
 3987SOL    HW123597   1.733   3.966   7.625  0.3557 -0.9586  2.0865
 3987SOL    HW223598   1.817   3.849   7.646 -0.4426  0.7878  0.7066
 3988SOL     OW23599   0.823   0.431   4.296 -0.1684 -0.5024  0.0324
 3988SOL    HW123600   0.843   0.410   4.204  0.0723 -1.2625  0.2588
 3988SOL    HW223601   0.745   0.380   4.318  0.8758 -2.8821 -1.7208
 3989SOL     OW23602   2.136   3.074   5.664 -0.7266 -0.4702 -0.0865
 3989SOL    HW123603   2.199   3.095   5.734 -1.7621 -0.0831  0.7282
 3989SOL    HW223604   2.121   3.158   5.620  2.2410 -0.0304 -0.2685
 3990SOL     OW23605   3.349   4.178   4.838 -0.4090  0.0981  0.0666
 3990SOL    HW123606   3.364   4.128   4.758 -0.0654 -0.7856  0.6895
 3990SOL    HW223607   3.254   4.192   4.832 -0.2802  1.1768  0.6123
 3991SOL     OW23608   1.605   3.607   3.730  0.4818  1.0409 -0.2048
 3991SOL    HW123609   1.564   3.621   3.644  3.0398  1.5328 -1.3380
 3991SOL    HW223610   1.536   3.556   3.772  1.0709 -0.7657 -1.4245
 3992SOL     OW23611   2.490   0.089  17.650  0.0680  0.7469 -0.3196
 3992SOL    HW123612   2.506   0.117  17.740  1.7288  1.0674 -0.7176
 3992SOL    HW223613   2.516   4.737  17.661 -0.2526  0.6157 -0.6637
 3993SOL     OW23614   2.464   3.378   2.932  0.0629  0.2579  0.1355
 3993SOL    HW123615   2.499   3.361   3.020 -0.5521  1.4544  0.6195
 3993SOL    HW223616   2.395   3.314   2.914  2.1349 -2.0413  0.3685
 3994SOL     OW23617   1.727   4.689   8.008 -0.3125 -0.0025 -0.2835
 3994SOL    HW123618   1.669   4.615   8.028 -0.0501 -0.3654 -0.8687
 3994SOL    HW223619   1.663   0.016   7.980  1.2842  1.2112 -1.0430
 3995SOL     OW23620   2.723   2.441  13.750  0.6287  0.3794 -0.5234
 3995SOL    HW123621   2.776   2.500  13.803 -0.2813  3.3419 -2.9143
 3995SOL    HW223622   2.768   2.442  13.666 -0.7945 -0.6369 -1.2972
 3996SOL     OW23623   2.092   2.977   3.545 -0.3887  0.4540 -0.0063
 3996SOL    HW123624   2.020   3.038   3.565  0.1822  1.8909 -2.2758
 3996SOL    HW223625   2.146   2.962   3.623  0.3445  0.2885 -0.5540
 3997SOL     OW23626   2.456   3.187   5.487 -0.7041  0.5598 -0.4865
 3997SOL    HW123627   2.369   3.224   5.472 -0.7014  0.2100 -1.3860
 3997SOL    HW223628   2.485   3.262   5.540  1.8065  0.5230 -1.7859
 3998SOL     OW23629   0.435   4.406   1.912 -0.4001  0.4544  0.0369
 3998SOL    HW123630   0.483   4.345   1.968 -1.5097 -0.8681 -0.4363
 3998SOL    HW223631   0.344   4.406   1.943 -0.7601 -0.5528 -1.0409
 3999SOL     OW23632   2.714   3.952   7.003  0.2109  0.0886 -0.4355
 3999SOL    HW123633   2.669   3.899   6.936 -0.0614  0.0355 -0.2103
 3999SOL    HW223634   2.668   4.036   6.997  1.1859  0.4943 -2.1191
 4000SOL     OW23635   4.604   1.011  14.460  0.2185  0.4953  0.7156
 4000SOL    HW123636   4.616   1.014  14.555  1.2530  1.1769  0.5558
 4000SOL    HW223637   4.517   0.971  14.456  1.1551 -1.4425 -0.3667
 4001SOL     OW23638   0.297   3.963   7.214 -0.3905  0.3528  0.3134
 4001SOL    HW123639   0.308   4.001   7.301 -3.5331 -1.9847  1.7117
 4001SOL    HW223640   0.202   3.954   7.211  0.0041 -3.7691 -1.2866
 4002SOL     OW23641   0.154   2.173  12.112 -0.3150 -0.1158 -0.4455
 4002SOL    HW123642   0.133   2.185  12.205 -0.9682 -1.8515 -0.3778
 4002SOL    HW223643   0.226   2.235  12.099 -1.3312  1.1856  0.0625
 4003SOL     OW23644   2.203   3.613   8.143 -0.2755  0.1728 -0.3411
 4003SOL    HW123645   2.205   3.625   8.238  2.0121 -0.4179 -0.2995
 4003SOL    HW223646   2.296   3.593   8.133 -0.6864 -0.6582 -2.3422
 4004SOL     OW23647   1.780   3.105   5.914  0.0582  0.0519  0.8631
 4004SOL    HW123648   1.793   3.011   5.914  1.4745  0.2281 -0.4371
 4004SOL    HW223649   1.706   3.122   5.971  0.2196  0.9065  0.8248
 4005SOL     OW23650   4.366   1.231   2.734  0.9167  0.3013 -0.3420
 4005SOL    HW123651   4.433   1.299   2.738  2.0196 -0.7977 -0.0667
 4005SOL    HW223652   4.296   1.286   2.700 -1.4889 -2.3408  0.3336
 4006SOL     OW23653   4.510   0.257   4.824  0.1519 -0.6699 -0.1336
 4006SOL    HW123654   4.514   0.201   4.747 -0.0471 -2.4095  1.1175
 4006SOL    HW223655   4.603   0.279   4.817 -0.7964  2.9737 -1.5114
 4007SOL     OW23656   2.653   4.140   4.145  0.3041 -0.0808 -0.0921
 4007SOL    HW123657   2.736   4.168   4.107  1.1139  0.2635  1.9108
 4007SOL    HW223658   2.651   4.047   4.124  0.8715 -0.3444  1.0159
 4008SOL     OW23659   0.599   4.522   3.281 -0.4541 -0.6245  0.3894
 4008SOL    HW123660   0.539   4.552   3.349 -1.7257 -0.2779 -0.8742
 4008SOL    HW223661   0.586   4.428   3.283 -0.4006 -0.6125  1.0382
 4009SOL     OW23662   2.131   2.090   2.188  0.1728 -0.8342  0.5733
 4009SOL    HW123663   2.068   2.161   2.202 -0.3121 -1.7800  3.2115
 4009SOL    HW223664   2.193   2.117   2.120 -2.7899 -0.7764 -2.0802
 4010SOL     OW23665   1.967   3.268  16.950 -0.0337 -0.2299  0.2176
 4010SOL    HW123666   1.984   3.199  17.014  1.0304 -0.2202 -0.0483
 4010SOL    HW223667   1.990   3.341  17.007  0.4945  0.4417 -0.8673
 4011SOL     OW23668   0.213   0.789   6.276  0.4397 -0.4366  0.4717
 4011SOL    HW123669   0.239   0.854   6.211 -0.0476  0.6046  1.3074
 4011SOL    HW223670   0.160   0.839   6.339 -0.4481 -0.6175 -0.1342
 4012SOL     OW23671   2.444   2.800   1.324 -0.7016 -0.2307  0.1445
 4012SOL    HW123672   2.501   2.863   1.368  1.0540 -0.7820 -1.3376
 4012SOL    HW223673   2.355   2.830   1.341 -0.6235  1.7210 -2.8860
 4013SOL     OW23674   0.183   0.789   3.267  0.1746 -0.0885 -0.5296
 4013SOL    HW123675   0.166   0.870   3.219 -1.2823 -0.1562 -0.1186
 4013SOL    HW223676   0.272   0.806   3.299  0.4894 -1.0704 -0.8818
 4014SOL     OW23677   2.943   0.498  14.698  0.1032  0.3830  0.6820
 4014SOL    HW123678   2.914   0.590  14.692  0.3448  0.3263 -1.4530
 4014SOL    HW223679   2.860   0.469  14.734  0.2499 -0.1652  0.5714
 4015SOL     OW23680   2.845   1.960   6.802  0.1097  0.2137  0.5276
 4015SOL    HW123681   2.904   1.951   6.727  0.8017  1.2611  0.9487
 4015SOL    HW223682   2.875   1.888   6.859  0.1168 -0.2479 -0.0630
 4016SOL     OW23683   1.745   2.654   6.947  0.0344  0.4637  0.5122
 4016SOL    HW123684   1.748   2.602   7.027  0.6088  1.2218  0.9814
 4016SOL    HW223685   1.698   2.728   6.985 -1.7237 -0.2374 -0.3102
 4017SOL     OW23686   2.191   0.387  14.850 -0.5238  0.1383  0.3839
 4017SOL    HW123687   2.121   0.342  14.897  0.3050 -1.4672  0.0791
 4017SOL    HW223688   2.137   0.394  14.771  0.5773 -0.1188 -0.3925
 4018SOL     OW23689   3.088   3.638   2.900  0.4236  0.0330 -0.2306
 4018SOL    HW123690   3.141   3.616   2.976 -1.4396 -2.4822  0.3577
 4018SOL    HW223691   2.998   3.637   2.933  0.5168 -2.9084 -0.0727
 4019SOL     OW23692   4.579   0.345  11.062 -0.0938 -0.0484 -0.3148
 4019SOL    HW123693   4.516   0.372  11.129 -0.5003 -0.2999 -0.5917
 4019SOL    HW223694   4.658   0.317  11.108 -0.8618 -0.4784  0.7538
 4020SOL     OW23695   0.719   3.493   4.473 -0.1577 -0.2012 -0.2703
 4020SOL    HW123696   0.664   3.415   4.466  0.4149 -0.6513  0.1722
 4020SOL    HW223697   0.779   3.477   4.399  0.9882 -0.7238  0.7752
 4021SOL     OW23698   3.759   0.917   6.015  0.1274 -0.4477 -0.7332
 4021SOL    HW123699   3.740   0.974   5.941  0.1265  1.8586  1.0305
 4021SOL    HW223700   3.809   0.846   5.975  0.5945  1.1978 -3.0690
 4022SOL     OW23701   1.284   4.002  13.444  0.0974  0.3135  0.0542
 4022SOL    HW123702   1.314   4.017  13.534  0.0686 -3.1879  0.6413
 4022SOL    HW223703   1.364   4.030  13.401  1.6549 -2.3347  1.1946
 4023SOL     OW23704   1.101   3.298   1.829  0.0802  0.3964 -0.2838
 4023SOL    HW123705   1.141   3.233   1.771 -1.2748  0.0018 -0.7633
 4023SOL    HW223706   1.098   3.257   1.916  2.4115  0.8198  0.0078
 4024SOL     OW23707   3.995   0.172   6.288 -0.0903 -0.1138 -0.4135
 4024SOL    HW123708   4.031   0.101   6.341 -3.1594 -0.0782  1.7432
 4024SOL    HW223709   3.973   0.237   6.355 -1.0726  2.1148 -2.8956
 4025SOL     OW23710   1.903   4.122   8.740 -0.0421 -0.1331 -0.1089
 4025SOL    HW123711   1.904   4.032   8.707 -1.9885 -0.1414 -0.1821
 4025SOL    HW223712   1.889   4.099   8.832 -0.5408 -4.3823 -1.2603
 4026SOL     OW23713   1.628   3.999   3.687 -0.3311 -0.0697  0.3618
 4026SOL    HW123714   1.693   4.063   3.658 -0.1522 -0.1705  0.5416
 4026SOL    HW223715   1.623   3.950   3.605 -1.7977  0.7000 -0.0048
 4027SOL     OW23716   2.559   2.097   5.368 -0.4924 -0.6446 -0.1577
 4027SOL    HW123717   2.468   2.121   5.388  0.4914  1.5970  1.7916
 4027SOL    HW223718   2.608   2.172   5.404 -0.8529  1.7343 -4.6610
 4028SOL     OW23719   2.360   0.873   5.098  0.6503 -0.1093 -0.4644
 4028SOL    HW123720   2.401   0.951   5.061  1.2221 -0.0837  0.2032
 4028SOL    HW223721   2.370   0.891   5.192 -0.2576  0.1197 -0.4148
 4029SOL     OW23722   2.797   3.861  17.741  0.1792 -0.1387 -0.0164
 4029SOL    HW123723   2.775   3.954  17.744 -1.8850 -0.6135 -0.7877
 4029SOL    HW223724   2.766   3.843  17.652  0.2352  0.7557 -0.2102
 4030SOL     OW23725   4.341   3.009   4.497 -0.8390  0.3992  0.0699
 4030SOL    HW123726   4.286   2.940   4.536  0.2343  1.1696  2.9066
 4030SOL    HW223727   4.292   3.038   4.420  2.5273  0.3682 -2.0722
 4031SOL     OW23728   0.237   2.826   9.694 -0.1632  0.0207 -0.4235
 4031SOL    HW123729   0.204   2.909   9.729  0.7952  0.5578 -0.7956
 4031SOL    HW223730   0.304   2.861   9.634 -0.5629  0.1748 -0.7795
 4032SOL     OW23731   0.552   3.736   3.708 -0.0361 -0.1470  0.6362
 4032SOL    HW123732   0.531   3.647   3.680 -0.1946  0.1863 -0.2976
 4032SOL    HW223733   0.464   3.772   3.721  0.9146  2.1505  0.7352
 4033SOL     OW23734   0.541   1.801  15.756  0.3197 -0.3482 -0.4639
 4033SOL    HW123735   0.471   1.859  15.786  0.1969 -0.7362  0.0112
 4033SOL    HW223736   0.563   1.845  15.674  1.2695  0.5645  0.2835
 4034SOL     OW23737   2.838   3.236   3.376 -0.1742  0.4459 -0.2351
 4034SOL    HW123738   2.877   3.227   3.289  0.5315 -1.2693  0.2590
 4034SOL    HW223739   2.897   3.168   3.411  0.4160  0.8388 -0.4628
 4035SOL     OW23740   3.404   4.108   8.957  0.1785  0.0196  0.0649
 4035SOL    HW123741   3.409   4.041   9.025 -0.7899 -1.7221 -1.5676
 4035SOL    HW223742   3.426   4.185   9.009  2.0061  0.9574 -2.0914
 4036SOL     OW23743   3.616   2.025   4.408 -0.5549  0.4650  0.7144
 4036SOL    HW123744   3.550   1.956   4.398 -0.3596  0.5636 -1.2499
 4036SOL    HW223745   3.701   1.991   4.382  0.6544  4.0966 -0.0928
 4037SOL     OW23746   1.757   1.029   8.531  0.5204 -0.0089  0.0176
 4037SOL    HW123747   1.670   1.000   8.506  0.1981 -0.0569  1.2170
 4037SOL    HW223748   1.795   0.943   8.551  0.9478  0.3724  0.8494
 4038SOL     OW23749   2.187   1.014  15.766 -1.2336 -0.2384  0.9708
 4038SOL    HW123750   2.157   1.071  15.695  2.3194  1.4345  0.8133
 4038SOL    HW223751   2.103   0.990  15.804 -2.6805  0.0365 -2.1334
 4039SOL     OW23752   4.045   2.527   2.519 -0.4139 -0.4348 -0.1889
 4039SOL    HW123753   4.004   2.444   2.543  0.7776 -1.1461 -0.6506
 4039SOL    HW223754   4.138   2.507   2.522  0.1613  2.2614 -0.0777
 4040SOL     OW23755   3.454   2.968   4.569  0.1246 -0.4485 -0.3024
 4040SOL    HW123756   3.471   3.053   4.529  0.9955 -0.1651  0.6767
 4040SOL    HW223757   3.363   2.952   4.543 -0.5998  1.6776  0.9508
 4041SOL     OW23758   2.990   0.205  14.325  0.1715 -0.4010  0.2538
 4041SOL    HW123759   2.935   0.193  14.402 -0.3610 -1.8625 -0.3512
 4041SOL    HW223760   2.927   0.234  14.259 -3.0047  0.0782  3.5128
 4042SOL     OW23761   3.082   3.365  16.849  0.0455 -0.4896  0.0308
 4042SOL    HW123762   3.117   3.423  16.916 -1.6054  0.9486 -0.3419
 4042SOL    HW223763   3.032   3.306  16.905 -1.0793 -1.8150 -2.3401
 4043SOL     OW23764   0.458   4.015   4.965  0.0005 -0.5246  0.4209
 4043SOL    HW123765   0.519   3.954   4.923 -1.0828 -0.8962 -0.6137
 4043SOL    HW223766   0.518   4.076   5.007  0.1363 -0.9279  0.8090
 4044SOL     OW23767   2.527   2.437   6.733  0.5773  0.5045  0.1422
 4044SOL    HW123768   2.466   2.426   6.806  0.4539  0.1922 -0.0079
 4044SOL    HW223769   2.470   2.441   6.656  0.2338  1.1938  0.4283
 4045SOL     OW23770   1.651   3.569   4.879  0.0122  0.1767 -0.0742
 4045SOL    HW123771   1.713   3.585   4.808  0.8052 -2.3211  0.0679
 4045SOL    HW223772   1.581   3.633   4.860 -1.6597 -1.7535 -0.4477
 4046SOL     OW23773   4.444   1.416   4.160 -0.3104 -0.5138 -0.3731
 4046SOL    HW123774   4.354   1.448   4.154  0.3337  1.4821  0.5541
 4046SOL    HW223775   4.479   1.407   4.071  1.3349  0.2180  0.1989
 4047SOL     OW23776   0.323   0.785   8.698 -0.2123  0.3951  1.0179
 4047SOL    HW123777   0.235   0.823   8.698 -0.0067  0.8779  1.2008
 4047SOL    HW223778   0.348   0.803   8.607  0.2272  1.0333  1.2646
 4048SOL     OW23779   0.289   3.432   4.098 -0.4900  0.0622 -0.4195
 4048SOL    HW123780   0.271   3.509   4.152 -0.8351  0.8494 -1.6631
 4048SOL    HW223781   0.348   3.398   4.165  0.9047  1.6772 -0.8316
 4049SOL     OW23782   1.471   3.240   9.240  0.3007  0.1782  0.0176
 4049SOL    HW123783   1.438   3.151   9.256  0.9643 -0.2623 -1.0740
 4049SOL    HW223784   1.562   3.214   9.229 -0.0820 -0.8359 -0.7652
 4050SOL     OW23785   3.889   1.601   5.475 -0.0135  0.2064  0.2112
 4050SOL    HW123786   3.859   1.604   5.566  0.9061  0.8943  0.5063
 4050SOL    HW223787   3.873   1.510   5.451 -0.5559  0.1483  0.7907
 4051SOL     OW23788   3.490   2.675   3.701 -0.1301  0.5553  0.1526
 4051SOL    HW123789   3.510   2.590   3.662  0.1473 -0.3834  2.3170
 4051SOL    HW223790   3.403   2.710   3.681 -0.3001 -0.3166 -0.6326
 4052SOL     OW23791   4.479   4.488   8.286 -0.3774  0.6891  0.1817
 4052SOL    HW123792   4.430   4.501   8.367  1.6075  1.0882  1.3322
 4052SOL    HW223793   4.462   4.397   8.260 -0.0677  0.3661  1.1025
 4053SOL     OW23794   1.433   0.272   2.058  0.0018  0.1033 -0.0827
 4053SOL    HW123795   1.500   0.207   2.076  1.7302  2.0695  0.6471
 4053SOL    HW223796   1.482   0.354   2.065  1.5236 -0.8618  0.5626
 4054SOL     OW23797   2.129   3.945   6.373 -0.0281 -0.0146 -0.5665
 4054SOL    HW123798   2.045   3.982   6.400  0.1812  1.0358 -1.3295
 4054SOL    HW223799   2.110   3.852   6.381 -1.4026  0.0230 -3.3984
 4055SOL     OW23800   0.880   3.345  11.906  0.0168  0.0581 -0.0269
 4055SOL    HW123801   0.950   3.301  11.857 -1.7508  0.1922 -2.6749
 4055SOL    HW223802   0.810   3.283  11.925 -2.2872  2.5245 -0.5695
 4056SOL     OW23803   0.667   0.144   4.026  0.0828 -0.0327  0.2496
 4056SOL    HW123804   0.739   0.087   3.999  0.0002 -1.0911  2.2834
 4056SOL    HW223805   0.652   0.102   4.111 -1.4206  0.6888  0.3400
 4057SOL     OW23806   3.415   1.684   3.524  0.3070 -0.0738  0.2758
 4057SOL    HW123807   3.482   1.635   3.475 -1.3199 -1.8309 -0.1886
 4057SOL    HW223808   3.469   1.762   3.538  1.3552 -0.6110 -0.7123
 4058SOL     OW23809   3.808   4.728   7.844 -0.2851 -0.0333 -0.0205
 4058SOL    HW123810   3.746   0.024   7.907  2.3683 -0.1672  2.7029
 4058SOL    HW223811   3.759   4.646   7.832 -0.9919  0.5345 -1.0070
 4059SOL     OW23812   0.039   3.272   4.078 -0.3086 -0.3535 -0.4948
 4059SOL    HW123813   0.100   3.199   4.070  0.8404  0.6348 -0.8396
 4059SOL    HW223814   0.105   3.341   4.069 -0.9658  0.8340  3.9826
 4060SOL     OW23815   2.519   3.720   6.438  0.5566 -0.2736 -0.7680
 4060SOL    HW123816   2.477   3.712   6.352 -1.1083  1.7518 -0.1451
 4060SOL    HW223817   2.484   3.800   6.477  1.3426  0.3413 -1.3171
 4061SOL     OW23818   1.032   4.474   9.498  0.3597  0.3916  0.0270
 4061SOL    HW123819   0.960   4.506   9.552  0.5123 -0.6340  0.8385
 4061SOL    HW223820   1.105   4.471   9.560  0.2771 -2.3765 -0.0150
 4062SOL     OW23821   0.744   3.399  16.800 -0.0430 -0.2693 -0.3451
 4062SOL    HW123822   0.719   3.319  16.755 -0.9046 -0.8663  1.1860
 4062SOL    HW223823   0.819   3.427  16.747  0.3359 -1.1383 -0.2604
 4063SOL     OW23824   4.619   1.646   5.067 -0.2810 -0.3895  0.4754
 4063SOL    HW123825   4.570   1.618   4.990  1.1803 -0.7281 -0.3238
 4063SOL    HW223826   4.705   1.679   5.040  0.0304 -0.4228  1.4226
 4064SOL     OW23827   1.029   1.732   3.376 -0.0135  0.0916  0.1428
 4064SOL    HW123828   0.973   1.685   3.314  1.1575 -2.3581  0.9458
 4064SOL    HW223829   0.990   1.709   3.460 -1.4721 -0.1988 -0.6093
 4065SOL     OW23830   0.937   3.813   8.073  0.1876 -0.2876 -0.0949
 4065SOL    HW123831   1.032   3.806   8.082  0.0918 -0.1735  1.0175
 4065SOL    HW223832   0.932   3.843   7.983  2.3145 -2.0337 -0.8062
 4066SOL     OW23833   0.456   3.861   6.379  0.7485  0.4066 -0.0360
 4066SOL    HW123834   0.543   3.866   6.420 -0.1831  2.0826  1.7499
 4066SOL    HW223835   0.404   3.880   6.457 -0.2286  0.9534 -0.8227
 4067SOL     OW23836   0.766   4.531  16.686  0.7884 -0.3487 -0.4458
 4067SOL    HW123837   0.697   4.591  16.658  1.4960  1.0903  0.8544
 4067SOL    HW223838   0.800   4.575  16.764 -1.8450 -2.8152  2.0910
 4068SOL     OW23839   0.903   3.719   9.093  0.0930 -0.1890 -0.7903
 4068SOL    HW123840   0.881   3.712   9.186  0.3216 -1.9946 -0.8826
 4068SOL    HW223841   0.829   3.769   9.057  0.1105 -0.8995 -1.8151
 4069SOL     OW23842   0.956   0.693   2.742  0.7243 -0.0672 -0.1136
 4069SOL    HW123843   1.010   0.738   2.807 -1.2497  0.7114  0.9868
 4069SOL    HW223844   0.874   0.679   2.789  0.6394  1.0319  0.0639
 4070SOL     OW23845   0.592   3.482   8.542 -0.6700 -0.0293  0.3845
 4070SOL    HW123846   0.574   3.392   8.569 -2.5423 -0.7782 -3.4591
 4070SOL    HW223847   0.525   3.533   8.589  0.1323 -0.2056  1.7290
 4071SOL     OW23848   3.290   2.478   6.632  0.5290  0.0512 -0.1393
 4071SOL    HW123849   3.221   2.420   6.601 -0.3928  1.4008 -0.6091
 4071SOL    HW223850   3.236   2.528   6.693  2.0051  3.3633 -1.5599
 4072SOL     OW23851   2.029   1.280  11.012 -0.5296 -0.2488 -0.1970
 4072SOL    HW123852   1.965   1.241  10.953  0.5626 -1.4600 -0.5839
 4072SOL    HW223853   1.969   1.300  11.084  1.7941  1.5074  1.2441
 4073SOL     OW23854   1.157   3.843   5.121 -0.4901  0.3176  0.2022
 4073SOL    HW123855   1.149   3.766   5.064  0.9003  0.4204 -0.1525
 4073SOL    HW223856   1.147   3.796   5.204 -0.9883  0.2232  0.0909
 4074SOL     OW23857   1.562   0.659   2.823 -0.3219 -0.4030 -0.4490
 4074SOL    HW123858   1.573   0.565   2.813  1.2567 -0.0908 -1.5740
 4074SOL    HW223859   1.467   0.667   2.811 -0.4668 -1.8338 -0.1760
 4075SOL     OW23860   3.005   3.748   4.702 -0.4134  0.0527  0.0766
 4075SOL    HW123861   3.008   3.833   4.659 -1.4911  0.2892  0.4983
 4075SOL    HW223862   3.041   3.695   4.630  0.1692  3.0738 -1.8356
 4076SOL     OW23863   0.203   1.853   3.913 -0.2555 -0.2192  0.1955
 4076SOL    HW123864   0.247   1.813   3.989  0.6944 -0.7467 -0.6245
 4076SOL    HW223865   0.243   1.940   3.917  1.4193 -0.8422 -2.8275
 4077SOL     OW23866   4.172   1.191   2.361 -0.5260 -1.0029 -0.0023
 4077SOL    HW123867   4.251   1.171   2.410  0.9497  0.3976 -1.8040
 4077SOL    HW223868   4.215   1.233   2.286  0.6012  1.3878  1.9889
 4078SOL     OW23869   1.825   0.647   7.547 -0.3862  0.4368  0.4865
 4078SOL    HW123870   1.744   0.601   7.524  0.3187 -1.7283  2.3097
 4078SOL    HW223871   1.862   0.676   7.463  0.2529 -0.7527  0.3584
 4079SOL     OW23872   1.596   2.835   7.058 -0.3392 -0.2099  0.0050
 4079SOL    HW123873   1.516   2.883   7.037 -0.5387  0.7996  3.0264
 4079SOL    HW223874   1.591   2.852   7.152 -0.3943  2.3554 -0.4863
 4080SOL     OW23875   2.299   3.987   7.383  0.6805 -0.1164  0.7958
 4080SOL    HW123876   2.393   3.996   7.367  0.0855  3.4595 -0.6220
 4080SOL    HW223877   2.253   3.984   7.299 -0.1210  1.2475  1.1949
 4081SOL     OW23878   4.687   3.380   6.496 -0.1849  0.2595 -0.1246
 4081SOL    HW123879   4.711   3.359   6.406  1.4977  1.0359  0.1505
 4081SOL    HW223880   4.592   3.379   6.487 -0.1951 -0.9786  0.1436
 4082SOL     OW23881   0.378   2.415   7.554  0.0850 -0.3211 -0.1493
 4082SOL    HW123882   0.440   2.431   7.483  1.0846  0.6556  0.9385
 4082SOL    HW223883   0.364   2.509   7.568  0.1284 -0.4756  0.9666
 4083SOL     OW23884   4.025   1.168   4.176 -0.2812  0.1446  0.4996
 4083SOL    HW123885   3.975   1.120   4.110  0.0757  1.6903 -0.8918
 4083SOL    HW223886   3.987   1.255   4.164  2.3901  1.1611 -0.4957
 4084SOL     OW23887   3.133   0.136  14.842 -0.5705 -0.3422 -0.4296
 4084SOL    HW123888   3.167   0.091  14.920 -0.7399 -3.7522 -2.2973
 4084SOL    HW223889   3.045   0.098  14.843 -0.3630 -0.7456  2.6340
 4085SOL     OW23890   2.185   3.496  14.009 -0.2813  0.0705  0.5763
 4085SOL    HW123891   2.268   3.492  13.963 -0.9547 -0.5841 -0.5879
 4085SOL    HW223892   2.120   3.480  13.941 -0.3516 -1.0724  0.9053
 4086SOL     OW23893   0.507   0.407  14.053  0.4469 -0.3956 -0.6194
 4086SOL    HW123894   0.442   0.470  14.086  0.3440 -0.0570 -1.4616
 4086SOL    HW223895   0.568   0.466  14.009 -0.4758  0.7645 -0.3552
 4087SOL     OW23896   0.151   2.697   1.207  0.1348 -0.2670 -0.4309
 4087SOL    HW123897   0.101   2.755   1.150  0.8786 -0.2447 -1.0704
 4087SOL    HW223898   0.219   2.755   1.240 -0.3617  1.7881 -3.0322
 4088SOL     OW23899   4.126   3.556   7.447 -0.4508  0.6653  0.4262
 4088SOL    HW123900   4.032   3.573   7.449 -0.4980  0.6356 -1.7431
 4088SOL    HW223901   4.162   3.644   7.459  1.6149 -0.1821  0.4394
 4089SOL     OW23902   1.511   3.048   5.769 -0.7244 -0.0323 -0.7626
 4089SOL    HW123903   1.428   3.066   5.813 -0.3576 -2.1927  0.8090
 4089SOL    HW223904   1.555   3.003   5.841 -1.5842  0.2288 -0.0728
 4090SOL     OW23905   0.441   3.567   5.703 -0.2220  0.4420  0.1392
 4090SOL    HW123906   0.505   3.521   5.758  0.4460  1.1074 -0.0885
 4090SOL    HW223907   0.359   3.531   5.738 -1.2621  2.4062 -0.2560
 4091SOL     OW23908   4.475   4.684   5.522 -0.2000  0.1286  0.1523
 4091SOL    HW123909   4.411   4.634   5.472  0.9203  1.1204 -2.2472
 4091SOL    HW223910   4.518   4.616   5.573  1.0778  1.4736  0.8602
 4092SOL     OW23911   4.028   1.688   0.083 -0.1692 -0.6592 -0.3618
 4092SOL    HW123912   4.077   1.766   0.059 -2.4662  1.4242  1.7064
 4092SOL    HW223913   4.080   1.642   0.149  0.7099 -0.1082 -0.6657
 4093SOL     OW23914   0.733   4.444   1.817 -0.0153 -0.3290  0.2418
 4093SOL    HW123915   0.689   4.487   1.890 -0.9915 -1.4618  0.3171
 4093SOL    HW223916   0.706   4.495   1.741  0.1050 -1.8467 -0.8326
 4094SOL     OW23917   3.888   0.550  10.476 -0.6677  0.0403  0.5529
 4094SOL    HW123918   3.914   0.570  10.567 -0.7305 -1.1719  0.8298
 4094SOL    HW223919   3.886   0.456  10.491 -1.0657  0.0065  0.2781
 4095SOL     OW23920   3.987   2.320   7.827  0.1278 -0.0718 -0.0933
 4095SOL    HW123921   4.052   2.381   7.792  0.1532  0.1402  0.3254
 4095SOL    HW223922   3.956   2.388   7.887 -2.6803 -1.7391  0.3161
 4096SOL     OW23923   3.949   0.441   8.025 -0.0726  0.0770  0.2025
 4096SOL    HW123924   4.007   0.368   8.045  0.2698 -0.2243 -1.8686
 4096SOL    HW223925   4.008   0.487   7.965 -0.3300  0.3966  0.1917
 4097SOL     OW23926   0.427   1.471   7.540 -0.2862 -0.4435 -0.1658
 4097SOL    HW123927   0.334   1.491   7.548 -0.1388  0.3773 -0.5112
 4097SOL    HW223928   0.455   1.430   7.621 -0.6131 -0.0853  0.1307
 4098SOL     OW23929   1.084   3.178  14.402  0.3282 -0.0849 -0.3978
 4098SOL    HW123930   1.068   3.143  14.315  0.9586  0.4504 -0.7301
 4098SOL    HW223931   1.150   3.246  14.384  0.0815 -0.2677 -1.9776
 4099SOL     OW23932   3.434   4.474   0.518  0.2123 -0.0008 -0.1463
 4099SOL    HW123933   3.484   4.477   0.437 -0.9503  0.1974 -0.8637
 4099SOL    HW223934   3.379   4.552   0.503 -0.5888 -0.8839 -1.7011
 4100SOL     OW23935   1.506   2.273   7.366  0.0328  0.1953  0.6588
 4100SOL    HW123936   1.543   2.358   7.342  1.0587 -0.3841  0.1505
 4100SOL    HW223937   1.413   2.295   7.365 -0.5224 -2.0268  1.8337
 4101SOL     OW23938   3.315   3.401   6.967  0.0790 -1.0219  0.2334
 4101SOL    HW123939   3.280   3.440   6.887 -1.5480  0.2797  1.5810
 4101SOL    HW223940   3.385   3.464   6.985 -1.4265  0.8869 -0.7792
 4102SOL     OW23941   3.519   4.052   5.023  0.6169 -0.0724 -0.6892
 4102SOL    HW123942   3.462   4.094   4.959 -0.9871 -0.3244  0.5880
 4102SOL    HW223943   3.454   4.035   5.091  1.7964  1.8685  0.9414
 4103SOL     OW23944   0.421   0.999   4.361 -0.1941  0.5420  0.1148
 4103SOL    HW123945   0.432   1.093   4.374  1.0003  0.5557 -0.9905
 4103SOL    HW223946   0.423   0.966   4.451  1.4106 -0.4537 -0.2972
 4104SOL     OW23947   3.414   2.260  16.458  0.1693  0.0025 -0.2025
 4104SOL    HW123948   3.403   2.221  16.371 -0.6712 -1.0824  0.3911
 4104SOL    HW223949   3.492   2.313  16.444 -0.9398  1.1764 -2.0398
 4105SOL     OW23950   0.379   2.641   6.412  0.0833  0.0546  0.3313
 4105SOL    HW123951   0.368   2.650   6.317  1.0820 -1.9167  0.0281
 4105SOL    HW223952   0.458   2.694   6.426 -0.6998  1.6359 -1.2069
 4106SOL     OW23953   2.857   3.003   7.918 -0.0729 -0.6129 -0.0919
 4106SOL    HW123954   2.836   3.091   7.888 -0.0982 -1.4171 -2.3859
 4106SOL    HW223955   2.925   2.977   7.856  0.8514 -1.0899  1.1290
 4107SOL     OW23956   3.901   2.575   1.837 -0.4918  0.4117 -0.0079
 4107SOL    HW123957   3.815   2.548   1.804 -0.7785 -0.3415  1.3288
 4107SOL    HW223958   3.890   2.663   1.874  1.6520  1.3306 -1.6152
 4108SOL     OW23959   1.420   3.005   9.631 -0.7822  0.2722  0.4611
 4108SOL    HW123960   1.342   2.965   9.669 -1.5645  0.2540 -1.1556
 4108SOL    HW223961   1.487   2.952   9.675 -0.4107  0.2843 -0.0837
 4109SOL     OW23962   1.342   1.611  14.974 -0.0493 -0.0702  0.0907
 4109SOL    HW123963   1.341   1.694  14.926  1.8013  0.3516  0.8046
 4109SOL    HW223964   1.364   1.548  14.906  1.0480 -0.6407  0.9773
 4110SOL     OW23965   0.142   3.616   1.512  0.2205  0.0599  0.1732
 4110SOL    HW123966   0.220   3.668   1.497  0.3300 -0.2802 -0.4388
 4110SOL    HW223967   0.138   3.622   1.608  0.1888 -0.6078  0.2166
 4111SOL     OW23968   3.490   2.797   3.281 -0.1995 -0.4818 -0.3435
 4111SOL    HW123969   3.457   2.841   3.359  0.4203  0.7486 -0.7811
 4111SOL    HW223970   3.497   2.861   3.211 -0.4205 -0.2044 -0.1063
 4112SOL     OW23971   1.807   0.737   3.612  0.2848  0.1944 -0.2793
 4112SOL    HW123972   1.735   0.675   3.602 -0.5190  1.0053  0.5248
 4112SOL    HW223973   1.863   0.682   3.665 -1.0771  0.9492  1.9317
 4113SOL     OW23974   3.035   3.859   9.736 -0.4782 -0.2715  0.0029
 4113SOL    HW123975   2.989   3.931   9.778  0.1170  0.5321 -0.7341
 4113SOL    HW223976   3.042   3.887   9.645  2.5529  0.4205  0.4459
 4114SOL     OW23977   3.754   3.872   2.549  0.2097  0.3194  0.4682
 4114SOL    HW123978   3.732   3.786   2.515  0.1431  1.0219 -1.2810
 4114SOL    HW223979   3.678   3.925   2.522  0.0281 -0.5794 -0.7903
 4115SOL     OW23980   3.549   2.403   9.941 -0.0489  0.0906 -0.0190
 4115SOL    HW123981   3.487   2.347   9.988  1.3992  0.3540  2.1447
 4115SOL    HW223982   3.616   2.342   9.913 -1.0282 -0.0266 -2.1637
 4116SOL     OW23983   1.369   1.809   9.221 -0.9110 -0.8357  0.0926
 4116SOL    HW123984   1.400   1.874   9.159  0.3221 -3.3246 -1.9019
 4116SOL    HW223985   1.310   1.866   9.270  0.2911  0.1043  0.4618
 4117SOL     OW23986   3.129   4.007  17.160 -0.8029 -0.3247 -0.0636
 4117SOL    HW123987   3.116   4.086  17.107  0.5252 -1.1477 -1.5877
 4117SOL    HW223988   3.157   3.948  17.091 -0.1611 -3.4210  2.8768
 4118SOL     OW23989   0.788   1.711  16.873 -0.3053  0.3693  1.0067
 4118SOL    HW123990   0.864   1.681  16.923  1.2450  0.3115 -1.3725
 4118SOL    HW223991   0.836   1.784  16.834 -1.9509  1.8142  1.7351
 4119SOL     OW23992   2.116   0.197   2.179 -0.8155  0.5004  0.2195
 4119SOL    HW123993   2.149   0.109   2.158  1.1267  1.2654  0.0377
 4119SOL    HW223994   2.113   0.217   2.085  0.3342 -0.9906 -0.1446
 4120SOL     OW23995   1.294   1.528  12.063 -0.6303 -0.0953 -0.4859
 4120SOL    HW123996   1.216   1.479  12.037 -0.6607 -0.7269  0.7702
 4120SOL    HW223997   1.310   1.566  11.977 -1.2499  2.0969  0.3690
 4121SOL     OW23998   3.652   0.418   6.474  0.0197 -0.5672 -0.0812
 4121SOL    HW123999   3.629   0.413   6.381  0.0327  0.1964 -0.1255
 4121SOL    HW224000   3.571   0.421   6.524 -0.1642 -0.8512 -0.3628
 4122SOL     OW24001   2.807   4.092   2.120 -0.5501 -0.2048  0.6310
 4122SOL    HW124002   2.884   4.111   2.174 -0.9284 -1.2584  1.5216
 4122SOL    HW224003   2.812   4.149   2.042  0.2393  0.5362  1.2209
 4123SOL     OW24004   3.467   2.275   3.275  0.6049  0.0839 -0.2073
 4123SOL    HW124005   3.399   2.320   3.326 -0.3511 -1.9509  0.3306
 4123SOL    HW224006   3.450   2.319   3.192 -1.0148 -0.1160  0.0136
 4124SOL     OW24007   0.161   0.173   2.415  0.0353  0.5184 -0.3258
 4124SOL    HW124008   0.076   0.151   2.377  0.0495  1.7510 -1.1145
 4124SOL    HW224009   0.151   0.167   2.510 -0.2117  0.4911 -0.3531
 4125SOL     OW24010   2.807   0.344   2.435  0.4341 -0.0301  0.1611
 4125SOL    HW124011   2.745   0.416   2.432 -0.0191 -0.4447 -0.4338
 4125SOL    HW224012   2.753   0.272   2.468 -0.7859  1.3352  1.1094
 4126SOL     OW24013   1.232   4.044   2.281  0.0097  0.3086 -0.8456
 4126SOL    HW124014   1.295   4.015   2.347  1.4124  0.4283 -2.1243
 4126SOL    HW224015   1.193   4.117   2.329  0.9166  0.7332 -0.7524
 4127SOL     OW24016   0.338   0.283   7.988 -0.9088 -0.0549 -0.2189
 4127SOL    HW124017   0.374   0.359   8.034  0.5485 -1.0091  0.2093
 4127SOL    HW224018   0.387   0.289   7.906 -1.0433  0.5920 -0.2556
 4128SOL     OW24019   4.060   0.332   5.017  0.0120 -0.7707  0.2534
 4128SOL    HW124020   4.100   0.416   4.996 -0.3169 -0.5850  0.3654
 4128SOL    HW224021   4.029   0.342   5.107  0.4004 -1.0237  0.4168
 4129SOL     OW24022   2.276   2.789   8.130 -0.4222  0.0059  0.5252
 4129SOL    HW124023   2.345   2.854   8.139 -1.4990  1.1521  0.5177
 4129SOL    HW224024   2.314   2.724   8.072 -1.5052  0.3195 -0.5404
 4130SOL     OW24025   4.243   2.086  10.881 -0.1676  0.3622  0.0917
 4130SOL    HW124026   4.281   2.066  10.795 -1.3957 -0.9213 -0.1369
 4130SOL    HW224027   4.221   1.997  10.907  0.4149  0.1079 -0.2756
 4131SOL     OW24028   0.884   4.037  15.986 -0.6342  0.2547 -0.6899
 4131SOL    HW124029   0.856   3.975  16.054  2.8963 -0.6597 -0.0677
 4131SOL    HW224030   0.951   3.979  15.950  0.0992  1.6923 -1.6562
 4132SOL     OW24031   3.877   3.908   8.450 -0.3732  0.0836  0.1020
 4132SOL    HW124032   3.881   3.959   8.532  2.1591  1.7086 -1.0363
 4132SOL    HW224033   3.855   3.821   8.483 -0.6809 -0.1142 -0.6396
 4133SOL     OW24034   0.334   0.204  13.968 -0.9385  0.1608 -0.8911
 4133SOL    HW124035   0.391   0.274  13.998  1.0001 -1.3044 -1.1869
 4133SOL    HW224036   0.396   0.164  13.907 -1.1031  0.0089 -0.9594
 4134SOL     OW24037   4.473   2.759  14.455  0.1049 -0.1483  0.1144
 4134SOL    HW124038   4.428   2.797  14.531  0.1510  1.4212 -0.6443
 4134SOL    HW224039   4.422   2.802  14.386  0.8332  1.8867  0.8291
 4135SOL     OW24040   2.549   2.207   3.513 -0.1364  0.1503  0.0327
 4135SOL    HW124041   2.461   2.207   3.475  0.5421 -0.9185 -1.5400
 4135SOL    HW224042   2.581   2.297   3.520  0.7207  0.0014 -1.9587
 4136SOL     OW24043   1.044   2.652   9.737 -0.0140  0.3783 -0.4621
 4136SOL    HW124044   0.985   2.576   9.738  1.2135 -0.5795 -1.1824
 4136SOL    HW224045   1.005   2.712   9.801 -0.4765 -0.8993  0.4444
 4137SOL     OW24046   4.692   4.054   6.622 -0.0898  0.0661  0.3657
 4137SOL    HW124047   0.015   4.127   6.612  0.3945 -0.2590  0.9574
 4137SOL    HW224048   4.674   4.038   6.530 -1.0892  1.4954  0.3102
 4138SOL     OW24049   4.043   1.180  14.508 -0.2355  0.0689  0.2202
 4138SOL    HW124050   4.121   1.158  14.560 -1.9981 -3.0349  1.5398
 4138SOL    HW224051   4.024   1.093  14.471 -1.1855 -0.1665  1.2837
 4139SOL     OW24052   3.473   4.144   1.614 -0.0041  0.2404 -0.0999
 4139SOL    HW124053   3.485   4.049   1.609 -1.5526 -0.0182  0.9511
 4139SOL    HW224054   3.563   4.172   1.598  0.7622 -1.0793  1.9123
 4140SOL     OW24055   3.139   1.272  11.577 -0.2047 -0.0974 -0.0908
 4140SOL    HW124056   3.134   1.305  11.487 -0.2885 -0.8186 -0.3542
 4140SOL    HW224057   3.051   1.239  11.596 -0.4126  0.2782 -0.4041
 4141SOL     OW24058   4.435   3.798   4.765 -0.1910  0.1100  0.0478
 4141SOL    HW124059   4.419   3.704   4.770  0.5660 -0.0028  0.3419
 4141SOL    HW224060   4.497   3.812   4.837 -0.4604 -1.7303  0.6360
 4142SOL     OW24061   1.345   2.892   2.643 -0.3969  0.2259  0.3115
 4142SOL    HW124062   1.441   2.892   2.646 -0.3916  1.2708  0.3441
 4142SOL    HW224063   1.326   2.829   2.574 -2.7919  1.1002  0.1790
 4143SOL     OW24064   0.579   3.035   2.823 -0.2285 -0.1676  0.5479
 4143SOL    HW124065   0.551   2.961   2.770  1.3101  0.1501 -0.7124
 4143SOL    HW224066   0.527   3.034   2.904  0.4533 -1.6407  0.9804
 4144SOL     OW24067   3.260   2.312   4.418  0.3600  0.4421  0.0251
 4144SOL    HW124068   3.220   2.314   4.505 -0.1541  1.3713 -0.2386
 4144SOL    HW224069   3.246   2.402   4.390  1.5707  0.6649  0.1293
 4145SOL     OW24070   3.736   4.547   6.645 -0.0611  0.0853 -0.2796
 4145SOL    HW124071   3.685   4.472   6.677  0.7155  0.1889  1.2046
 4145SOL    HW224072   3.819   4.503   6.626  0.1352  0.3869 -0.1152
 4146SOL     OW24073   2.248   1.732   7.678 -0.0467  0.4542  0.2218
 4146SOL    HW124074   2.198   1.794   7.730  0.7976  1.9020 -0.6583
 4146SOL    HW224075   2.182   1.681   7.631  0.0246  0.8143 -0.2797
 4147SOL     OW24076   3.226   1.940   7.055 -0.2342  0.4543  0.0820
 4147SOL    HW124077   3.144   1.940   7.105 -0.2853 -0.6446 -0.0199
 4147SOL    HW224078   3.287   1.945   7.129  0.7576 -1.0891 -0.6390
 4148SOL     OW24079   0.304   1.325   6.471 -0.3990  0.4448 -0.6025
 4148SOL    HW124080   0.335   1.334   6.381 -0.2924 -1.2854 -0.7458
 4148SOL    HW224081   0.217   1.365   6.470 -0.0686  1.1414 -1.4542
 4149SOL     OW24082   0.558   2.463   7.359 -0.0998  0.1970 -0.3048
 4149SOL    HW124083   0.526   2.464   7.269 -1.1007  0.4233  0.0492
 4149SOL    HW224084   0.623   2.394   7.348  0.0038  0.3770 -0.8305
 4150SOL     OW24085   4.727   4.544   5.691 -0.2748 -0.1611  0.2451
 4150SOL    HW124086   4.731   4.614   5.756 -1.2208  0.2990 -0.2012
 4150SOL    HW224087   0.073   4.549   5.648 -1.1228  1.4455 -1.2234
 4151SOL     OW24088   1.495   3.925   7.218 -0.1639  0.2384 -0.1004
 4151SOL    HW124089   1.497   3.955   7.309 -0.6135  2.9392 -0.9704
 4151SOL    HW224090   1.488   4.011   7.177 -1.2401 -0.8806 -2.2681
 4152SOL     OW24091   0.025   2.127  16.198 -0.3263  0.1877  0.5556
 4152SOL    HW124092   4.704   2.198  16.222 -0.6828 -0.1576  0.6717
 4152SOL    HW224093   0.021   2.123  16.103 -2.1522 -0.2399  0.6640
 4153SOL     OW24094   3.603   0.063   1.743 -0.3354  0.6164 -0.1595
 4153SOL    HW124095   3.532   0.127   1.745 -0.3447  0.6202 -0.7001
 4153SOL    HW224096   3.660   0.083   1.817 -0.9015  0.2774  0.3737
 4154SOL     OW24097   2.180   1.922   9.647  0.4093 -0.1007  0.0237
 4154SOL    HW124098   2.098   1.879   9.673  0.5967  0.5380  1.7012
 4154SOL    HW224099   2.148   1.994   9.592 -0.2517 -0.4711 -0.0691
 4155SOL     OW24100   0.180   3.689   5.744 -0.0695  0.0245 -0.1214
 4155SOL    HW124101   0.246   3.710   5.811 -1.5318  0.0861  1.3122
 4155SOL    HW224102   0.098   3.677   5.792 -0.8343  0.9750 -1.1887
 4156SOL     OW24103   1.403   2.850   4.811  0.0662  0.0359  0.0442
 4156SOL    HW124104   1.485   2.881   4.851  0.4019 -3.0453  1.7596
 4156SOL    HW224105   1.429   2.758   4.822 -0.0935 -0.2766 -2.3406
 4157SOL     OW24106   4.071   3.380  11.452  0.0658  0.5688  0.4827
 4157SOL    HW124107   4.118   3.394  11.535  0.9930 -1.9845  0.3871
 4157SOL    HW224108   4.081   3.285  11.450  0.3899  0.6493 -1.4790
 4158SOL     OW24109   1.954   3.995   4.216  0.0512  0.3013 -0.2242
 4158SOL    HW124110   1.981   3.917   4.167 -0.1473  0.1021 -0.0154
 4158SOL    HW224111   1.930   4.041   4.136  0.9400  1.3007  0.0777
 4159SOL     OW24112   0.928   3.807   5.374  0.2670  0.2727 -0.4885
 4159SOL    HW124113   0.981   3.728   5.382  0.9182  0.8533  0.9945
 4159SOL    HW224114   0.846   3.783   5.331 -0.0803  1.7153 -0.6371
 4160SOL     OW24115   1.014   0.481   0.463  0.0950 -0.3112 -0.0277
 4160SOL    HW124116   0.988   0.470   0.555 -0.2144  2.5137  0.2238
 4160SOL    HW224117   1.032   0.574   0.452  0.2902 -0.7064 -2.9197
 4161SOL     OW24118   0.840   0.686  16.551  0.5549  0.2934 -0.3911
 4161SOL    HW124119   0.792   0.623  16.604 -1.4796  1.1667 -1.1562
 4161SOL    HW224120   0.867   0.754  16.612  0.4656  0.2357 -0.2867
 4162SOL     OW24121   2.667   0.481   6.690  0.3417 -0.6811  0.0064
 4162SOL    HW124122   2.753   0.470   6.650  0.7241  0.3651  0.5279
 4162SOL    HW224123   2.689   0.561   6.737 -0.0789  0.6263 -2.0197
 4163SOL     OW24124   3.786   1.571   1.374  0.5540  0.1470  0.6508
 4163SOL    HW124125   3.776   1.476   1.366 -1.0109  0.1768  2.2467
 4163SOL    HW224126   3.823   1.595   1.289  0.1273  2.0659  1.0026
 4164SOL     OW24127   0.556   3.488   7.685  0.0513  0.0041 -0.4974
 4164SOL    HW124128   0.554   3.534   7.602  1.0576  1.8648  0.5119
 4164SOL    HW224129   0.630   3.428   7.675 -0.6856 -1.0035 -0.0082
 4165SOL     OW24130   3.661   1.787   2.307  0.3878 -0.0527 -0.3162
 4165SOL    HW124131   3.689   1.877   2.322  1.8243 -0.0826 -2.8234
 4165SOL    HW224132   3.737   1.744   2.269 -0.0192 -1.3063  0.2780
 4166SOL     OW24133   0.903   3.523   2.273 -0.1108 -0.4684 -0.2376
 4166SOL    HW124134   0.820   3.481   2.297 -0.3237  1.2746  2.0639
 4166SOL    HW224135   0.891   3.535   2.179 -1.0820  1.4223  0.1123
 4167SOL     OW24136   4.685   0.353  13.358 -0.2453 -0.1038 -1.0107
 4167SOL    HW124137   4.738   0.302  13.419 -0.8880 -1.0016 -1.2028
 4167SOL    HW224138   4.597   0.328  13.384  0.3777 -1.3412 -0.0873
 4168SOL     OW24139   3.757   4.501   2.102 -0.4469 -0.1650 -0.2101
 4168SOL    HW124140   3.806   4.583   2.099 -0.1041 -0.3539  0.1441
 4168SOL    HW224141   3.809   4.445   2.044  0.3493 -0.9892  1.3022
 4169SOL     OW24142   2.377   4.033   7.801 -1.0409 -0.0231 -0.5554
 4169SOL    HW124143   2.465   4.051   7.768  0.7554 -0.2539  4.1529
 4169SOL    HW224144   2.390   3.964   7.866 -2.2435  1.7793  1.6197
 4170SOL     OW24145   3.252   2.787   8.129  0.1433 -0.3629  0.2195
 4170SOL    HW124146   3.257   2.882   8.120  0.7781 -0.3384  0.8592
 4170SOL    HW224147   3.343   2.775   8.102  0.2149 -0.9684  0.7257
 4171SOL     OW24148   0.199   4.562   0.543 -0.2594 -0.4091  0.1147
 4171SOL    HW124149   0.123   4.504   0.549 -1.2010  0.9070  0.9692
 4171SOL    HW224150   0.172   4.622   0.613  0.7585 -0.6327  0.6994
 4172SOL     OW24151   4.688   2.419  12.829  0.2726  0.1456 -0.0065
 4172SOL    HW124152   4.653   2.475  12.759 -1.5777 -1.8193 -0.6680
 4172SOL    HW224153   4.619   2.353  12.837 -1.0282  1.5435  0.3873
 4173SOL     OW24154   2.153   0.656   6.185  0.6252 -0.2632 -0.2224
 4173SOL    HW124155   2.172   0.608   6.265 -1.0742  2.1111  1.6010
 4173SOL    HW224156   2.232   0.708   6.169 -0.9208  1.9726 -0.5909
 4174SOL     OW24157   3.085   0.054   8.461  0.3570 -0.3015 -0.0386
 4174SOL    HW124158   3.091   0.149   8.461  2.9830 -0.4797 -1.3543
 4174SOL    HW224159   3.151   0.037   8.394  0.2532 -0.7078 -0.0366
 4175SOL     OW24160   2.952   3.670  16.138  0.0487 -0.5475  0.3078
 4175SOL    HW124161   2.968   3.689  16.231 -1.1155 -0.6739  0.5435
 4175SOL    HW224162   2.989   3.582  16.134 -0.0076 -0.6860  3.0098
 4176SOL     OW24163   3.057   2.220   6.770  0.5050 -0.1131 -0.2682
 4176SOL    HW124164   3.033   2.127   6.773  0.9572 -0.1942  1.1829
 4176SOL    HW224165   3.044   2.237   6.677 -2.0275 -1.3685 -0.1366
 4177SOL     OW24166   3.112   2.812   6.529  0.2942  0.2691 -0.2438
 4177SOL    HW124167   3.149   2.878   6.470 -0.8508  0.8026 -0.3718
 4177SOL    HW224168   3.036   2.775   6.483 -1.2982  0.0464  2.5329
 4178SOL     OW24169   0.133   1.437   5.782 -0.2673 -0.0580 -0.0372
 4178SOL    HW124170   0.185   1.364   5.747  1.2074  1.1686 -0.3719
 4178SOL    HW224171   0.075   1.456   5.708 -0.4428 -0.9625 -0.1337
 4179SOL     OW24172   4.547   3.928   2.819 -0.2515 -0.3425 -0.2802
 4179SOL    HW124173   4.612   3.908   2.752 -1.4201  1.9322 -2.1001
 4179SOL    HW224174   4.469   3.941   2.765 -0.3349 -0.9572 -0.3174
 4180SOL     OW24175   4.315   0.801   6.514 -0.0568 -0.3294  0.2320
 4180SOL    HW124176   4.269   0.846   6.443 -0.9388 -0.7858  0.5185
 4180SOL    HW224177   4.401   0.785   6.475  1.3049  1.6931  2.4268
 4181SOL     OW24178   1.806   2.435   0.519 -0.0721 -0.2322  0.2195
 4181SOL    HW124179   1.830   2.498   0.451 -0.4959  0.4099  0.6658
 4181SOL    HW224180   1.791   2.494   0.593  1.4286 -0.0432  0.3845
 4182SOL     OW24181   2.718   3.407  17.644  0.2356 -0.0654 -0.5373
 4182SOL    HW124182   2.750   3.329  17.600  1.9184 -0.7534  1.9122
 4182SOL    HW224183   2.725   3.389  17.738  1.7207  2.3531 -0.1804
 4183SOL     OW24184   0.667   2.180  15.133  0.2211 -0.2773 -0.1893
 4183SOL    HW124185   0.712   2.177  15.049 -0.8254 -0.5015 -0.7366
 4183SOL    HW224186   0.730   2.119  15.172  0.8081  0.6260  0.2843
 4184SOL     OW24187   3.354   3.499  15.722 -0.1976  0.5035  0.3280
 4184SOL    HW124188   3.289   3.496  15.792 -0.4742  0.7732  0.0810
 4184SOL    HW224189   3.430   3.524  15.775 -0.1360 -1.5840  1.2336
 4185SOL     OW24190   0.180   3.807  15.319 -0.5342  0.2282 -0.1234
 4185SOL    HW124191   0.203   3.870  15.387  0.9211 -2.5830  2.0158
 4185SOL    HW224192   0.140   3.743  15.379 -1.7907 -0.5369 -1.7832
 4186SOL     OW24193   0.744   1.261   3.488  0.5518 -0.7411  0.0574
 4186SOL    HW124194   0.716   1.347   3.517 -0.1408 -0.7529 -0.5673
 4186SOL    HW224195   0.668   1.203   3.488 -0.3225  0.4181  1.3011
 4187SOL     OW24196   1.304   2.711   6.015 -0.1043 -0.1714 -0.4441
 4187SOL    HW124197   1.361   2.635   6.003  0.7460  0.4566 -0.3854
 4187SOL    HW224198   1.371   2.753   6.069 -0.6017  0.0006  0.0397
 4188SOL     OW24199   0.701   1.902   3.005 -0.7706 -0.8576 -0.0025
 4188SOL    HW124200   0.764   1.879   2.937 -2.1893  2.0241 -2.2918
 4188SOL    HW224201   0.672   1.984   2.966 -2.4515  0.0127  3.1134
 4189SOL     OW24202   2.062   1.860  17.561 -0.8699 -0.3612 -0.0704
 4189SOL    HW124203   2.067   1.942  17.512 -3.3280 -0.0946  0.1069
 4189SOL    HW224204   2.085   1.888  17.650 -1.7017  3.2677 -1.0158
 4190SOL     OW24205   1.719   2.453   3.571 -0.2760 -0.3061 -0.0320
 4190SOL    HW124206   1.695   2.437   3.662  0.0586  0.2029  0.1446
 4190SOL    HW224207   1.810   2.479   3.586 -0.7086  1.9833 -1.3171
 4191SOL     OW24208   2.324   0.228  10.015  0.0806  0.0913  0.0675
 4191SOL    HW124209   2.330   0.134  10.001 -3.0552 -0.2140  0.7875
 4191SOL    HW224210   2.261   0.245   9.945 -0.1103  0.9026  0.4285
 4192SOL     OW24211   1.840   2.098   6.956 -0.3282  0.4010  0.0388
 4192SOL    HW124212   1.753   2.135   6.943  0.1323  1.4756  0.0032
 4192SOL    HW224213   1.828   2.046   7.036  0.1191 -1.9624 -1.4238
 4193SOL     OW24214   0.426   4.277   6.469 -0.0945 -0.1323  0.6449
 4193SOL    HW124215   0.495   4.338   6.497  0.8785  0.3609 -2.8442
 4193SOL    HW224216   0.459   4.250   6.384  1.4016  2.8914  0.2281
 4194SOL     OW24217   2.211   3.635   0.163 -0.3391 -0.6081 -0.3825
 4194SOL    HW124218   2.292   3.658   0.208 -0.5980  0.0128 -0.2374
 4194SOL    HW224219   2.151   3.708   0.178  1.8489  0.9633  0.6891
 4195SOL     OW24220   3.953   0.322   2.089 -0.2376  0.4164 -0.2867
 4195SOL    HW124221   4.028   0.369   2.053  1.3692 -2.2470 -0.4239
 4195SOL    HW224222   3.974   0.329   2.182  0.7808  0.9548 -0.5599
 4196SOL     OW24223   2.191   0.228   8.955 -0.4072  0.0729  0.3811
 4196SOL    HW124224   2.146   0.158   9.003 -0.1683 -0.5226 -0.2580
 4196SOL    HW224225   2.117   0.280   8.922 -0.2988 -1.5036 -2.3760
 4197SOL     OW24226   2.766   3.809   3.257  0.7985 -0.0941 -0.1965
 4197SOL    HW124227   2.740   3.897   3.284  2.1706 -0.2995  1.7398
 4197SOL    HW224228   2.696   3.793   3.194 -0.7882 -4.4910  2.6621
 4198SOL     OW24229   0.612   2.135   2.911 -0.1607  0.0600 -0.6581
 4198SOL    HW124230   0.518   2.127   2.895  0.1025  0.0258 -2.2270
 4198SOL    HW224231   0.644   2.168   2.827  0.9091 -0.0046 -0.2736
 4199SOL     OW24232   0.013   4.622   4.750 -0.2902  0.2001 -0.3874
 4199SOL    HW124233   4.677   4.598   4.805  0.6680 -1.1868  0.3245
 4199SOL    HW224234   0.079   4.556   4.775 -0.9795 -0.9808 -1.6483
 4200SOL     OW24235   0.587   2.961  15.400  0.2753 -0.1969  0.8453
 4200SOL    HW124236   0.646   3.026  15.361 -1.2974  0.3319 -0.6459
 4200SOL    HW224237   0.583   3.009  15.483 -1.2248  1.5316 -0.2098
 4201SOL     OW24238   2.126   2.932   9.793 -0.2466 -0.5699 -0.4652
 4201SOL    HW124239   2.078   2.992   9.736 -1.4361  0.4454  1.6223
 4201SOL    HW224240   2.091   2.963   9.876 -0.7008 -0.9087 -0.5267
 4202SOL     OW24241   2.839   3.288   3.758  0.8341 -0.6363 -0.3538
 4202SOL    HW124242   2.854   3.300   3.852 -1.0288 -2.3169  0.1693
 4202SOL    HW224243   2.813   3.196   3.761 -1.2165 -0.1127 -1.4120
 4203SOL     OW24244   2.191   2.868   7.080 -0.2028 -0.1660 -0.4528
 4203SOL    HW124245   2.110   2.818   7.093 -1.9800  3.5165  2.7474
 4203SOL    HW224246   2.189   2.866   6.984 -1.9514  0.0684 -0.4230
 4204SOL     OW24247   0.612   2.300   6.204 -0.2712 -0.2965  0.1490
 4204SOL    HW124248   0.642   2.389   6.186 -0.4972 -0.2602 -0.0506
 4204SOL    HW224249   0.606   2.269   6.113 -0.9691  1.7252 -0.4843
 4205SOL     OW24250   1.103   1.241   4.222  0.0226 -0.4545  0.4683
 4205SOL    HW124251   1.115   1.239   4.127 -0.3513 -0.1682  0.4179
 4205SOL    HW224252   1.174   1.181   4.248 -0.3183 -1.1888 -0.2639
 4206SOL     OW24253   0.069   3.847   5.210  0.0458  0.0408  0.2004
 4206SOL    HW124254   0.137   3.901   5.248  2.7971 -2.8045 -0.7044
 4206SOL    HW224255   4.737   3.911   5.202  1.3872  1.5578  0.5193
 4207SOL     OW24256   2.048   3.099  17.135  0.1244 -0.9199 -0.0676
 4207SOL    HW124257   2.064   3.099  17.229  2.1998  1.1635 -0.4407
 4207SOL    HW224258   2.008   3.014  17.116 -1.8322  0.1765 -0.8305
 4208SOL     OW24259   3.981   4.087  13.397 -0.2535  0.2225  0.5854
 4208SOL    HW124260   4.030   4.135  13.330  0.1446 -3.6627 -1.8965
 4208SOL    HW224261   4.015   4.139  13.470 -2.1013 -0.1020  1.6718
 4209SOL     OW24262   0.007   1.010   4.283 -0.2640 -0.7313 -0.5932
 4209SOL    HW124263   4.737   1.017   4.188 -3.1058 -3.9762 -0.5397
 4209SOL    HW224264   4.680   1.071   4.317  1.6300  1.5270 -0.9789
 4210SOL     OW24265   3.252   0.573  13.754  0.1258  0.0244 -0.5552
 4210SOL    HW124266   3.288   0.645  13.702 -0.2885  0.5048 -0.1797
 4210SOL    HW224267   3.218   0.626  13.827 -0.8280 -0.7995 -0.3937
 4211SOL     OW24268   1.638   1.110  10.519  0.0081 -0.8463 -0.8375
 4211SOL    HW124269   1.680   1.182  10.566  1.2869 -0.5200 -2.4759
 4211SOL    HW224270   1.659   1.131  10.428  1.6457 -1.0059 -0.5126
 4212SOL     OW24271   4.528   2.968   7.196  0.6803  0.0372 -0.3606
 4212SOL    HW124272   4.583   3.035   7.157  1.0816 -1.3282 -2.1359
 4212SOL    HW224273   4.521   2.985   7.290 -2.4204  1.3617 -0.8080
 4213SOL     OW24274   1.495   3.937   2.952 -0.2948 -0.0178 -0.3122
 4213SOL    HW124275   1.546   4.011   2.984 -1.4887  0.2230  1.0768
 4213SOL    HW224276   1.446   3.976   2.879 -1.8025  0.8939  1.1663
 4214SOL     OW24277   1.205   3.076   5.421  0.0173 -0.0223 -0.3939
 4214SOL    HW124278   1.204   2.991   5.464 -1.1694 -1.3102 -2.9810
 4214SOL    HW224279   1.280   3.066   5.362 -0.7592  0.2685 -1.4501
 4215SOL     OW24280   0.998   0.252  17.700  0.4771  0.3153 -0.0832
 4215SOL    HW124281   1.083   0.224  17.666 -1.9113 -3.5665 -2.9336
 4215SOL    HW224282   1.023   0.289   0.032  0.0814 -1.0447  0.6355
 4216SOL     OW24283   1.789   4.291   2.857  0.6566  0.2721  0.5354
 4216SOL    HW124284   1.799   4.383   2.883 -0.5938  0.5473  0.0707
 4216SOL    HW224285   1.730   4.247   2.917  1.8204 -0.4038  1.1771
 4217SOL     OW24286   2.197   1.382  13.387 -0.0036  0.0053 -0.3543
 4217SOL    HW124287   2.168   1.395  13.477  1.2344  0.5449 -0.0372
 4217SOL    HW224288   2.174   1.467  13.348  1.2103  0.0095 -1.0613
 4218SOL     OW24289   4.692   1.232  14.309  0.3147 -0.2255 -0.0985
 4218SOL    HW124290   4.658   1.154  14.352  1.3994 -0.9681 -0.5792
 4218SOL    HW224291   0.006   1.192  14.240 -0.8654 -2.5755  0.3645
 4219SOL     OW24292   3.059   2.705   2.547 -0.3502  0.2869 -0.1650
 4219SOL    HW124293   2.992   2.638   2.550 -1.0644  0.9409 -1.5636
 4219SOL    HW224294   3.133   2.648   2.527  1.8840  3.1823 -0.1818
 4220SOL     OW24295   1.078   1.328   6.480 -0.1577 -0.2628 -0.4677
 4220SOL    HW124296   1.054   1.321   6.573 -1.3642 -0.7819 -0.8209
 4220SOL    HW224297   1.156   1.271   6.480  1.5230  2.0081  1.1210
 4221SOL     OW24298   4.069   1.689   1.627 -0.4809  0.2111  0.0065
 4221SOL    HW124299   3.974   1.688   1.636 -0.2295  2.3505  3.0477
 4221SOL    HW224300   4.093   1.775   1.661 -2.1594  1.0391 -0.8896
 4222SOL     OW24301   3.457   0.123   6.655  0.1252  0.4054 -0.2564
 4222SOL    HW124302   3.395   0.194   6.638 -0.0979 -0.1423 -1.7337
 4222SOL    HW224303   3.419   0.085   6.734  1.2241 -3.4019 -1.5659
 4223SOL     OW24304   0.153   0.208   2.703  0.0701 -0.5863 -1.0640
 4223SOL    HW124305   0.064   0.173   2.712 -0.4443  0.5095 -1.8698
 4223SOL    HW224306   0.145   0.295   2.743  1.6931 -0.9092 -0.0404
 4224SOL     OW24307   3.291   0.653   5.220 -0.4134 -0.0508 -0.1125
 4224SOL    HW124308   3.355   0.688   5.158  1.2239  0.3804  1.8456
 4224SOL    HW224309   3.350   0.630   5.291 -0.6321  0.3821  0.2086
 4225SOL     OW24310   2.346   3.524   2.123 -0.4598 -0.1240 -0.2338
 4225SOL    HW124311   2.298   3.451   2.162 -0.2121  0.0419  0.3870
 4225SOL    HW224312   2.334   3.601   2.179  0.6800 -2.1877  2.8171
 4226SOL     OW24313   4.501   4.540   0.588 -0.8869 -0.1096 -0.6004
 4226SOL    HW124314   4.572   4.478   0.574 -0.9545 -0.8050  2.1630
 4226SOL    HW224315   4.502   4.587   0.504 -0.3339  0.2725 -0.3787
 4227SOL     OW24316   2.576   1.161   6.958  0.0554  0.1162  0.0075
 4227SOL    HW124317   2.504   1.222   6.942  2.0133  2.4690  0.2428
 4227SOL    HW224318   2.575   1.143   7.052  1.4904 -2.6007 -0.5038
 4228SOL     OW24319   3.124   3.319   9.847  0.1681 -0.2014  0.1409
 4228SOL    HW124320   3.095   3.253   9.784  0.3666  0.1261 -0.2995
 4228SOL    HW224321   3.040   3.332   9.890  0.5929 -1.8053  1.4717
 4229SOL     OW24322   2.239   0.632   5.203  0.4210 -0.4354 -0.0921
 4229SOL    HW124323   2.263   0.710   5.152 -0.0577 -0.9924 -1.1554
 4229SOL    HW224324   2.325   0.603   5.233  0.9306  0.9646 -0.2077
 4230SOL     OW24325   1.506   2.063   9.367  0.7455  0.0014  0.4581
 4230SOL    HW124326   1.494   2.149   9.327  1.0024 -0.2993 -0.2677
 4230SOL    HW224327   1.521   2.016   9.284  0.2901 -0.0243  0.3944
 4231SOL     OW24328   3.475   3.306  13.768 -0.1543  0.3191 -0.0076
 4231SOL    HW124329   3.405   3.367  13.743  0.2552  1.6688  2.0911
 4231SOL    HW224330   3.451   3.294  13.860  0.3934 -0.5830  0.0168
 4232SOL     OW24331   2.790   1.321  13.459  0.1455  0.3718  0.2366
 4232SOL    HW124332   2.882   1.300  13.443 -0.5464 -2.6184  0.0274
 4232SOL    HW224333   2.769   1.401  13.412  0.9529 -0.2124 -1.1247
 4233SOL     OW24334   3.002   1.211  16.386  0.1150  0.0013 -0.0890
 4233SOL    HW124335   3.088   1.250  16.370  0.7113 -0.0404  2.9468
 4233SOL    HW224336   2.969   1.195  16.298  1.5353 -1.1951 -0.3936
 4234SOL     OW24337   1.588   2.363   1.864 -0.1921  0.4424  0.0601
 4234SOL    HW124338   1.527   2.346   1.936 -1.7272 -0.7216 -1.5214
 4234SOL    HW224339   1.542   2.417   1.800  1.0556  1.3062 -0.1105
 4235SOL     OW24340   3.224   1.634   7.341  0.5380 -0.0025 -0.0540
 4235SOL    HW124341   3.282   1.612   7.414 -1.5548 -1.5843  1.1358
 4235SOL    HW224342   3.142   1.611   7.385  1.4188 -1.3069  0.9156
 4236SOL     OW24343   2.620   0.543  13.927 -0.2781 -0.8573 -0.5791
 4236SOL    HW124344   2.699   0.540  13.982  0.7990  0.5306 -2.0597
 4236SOL    HW224345   2.560   0.575  13.994 -0.0127 -0.5265 -0.4972
 4237SOL     OW24346   4.234   0.663   3.796 -0.1797  0.5997 -0.1806
 4237SOL    HW124347   4.148   0.703   3.798  1.1716  3.6820 -2.7286
 4237SOL    HW224348   4.230   0.640   3.703 -0.8333 -1.4170  0.3559
 4238SOL     OW24349   2.948   0.085   3.790 -0.3433 -0.2120  0.6883
 4238SOL    HW124350   2.944   4.737   3.750 -2.5561 -0.0824  0.5850
 4238SOL    HW224351   2.867   0.118   3.749 -0.3659 -0.2749  0.6819
 4239SOL     OW24352   0.988   0.940   4.293  0.0197  0.3110 -0.2232
 4239SOL    HW124353   0.948   0.854   4.284  0.0609  0.2742 -0.0443
 4239SOL    HW224354   0.983   0.972   4.203  0.3470 -0.5351 -0.5435
 4240SOL     OW24355   1.811   0.199   8.549 -0.4459  0.1608 -0.5367
 4240SOL    HW124356   1.763   0.167   8.625 -0.5332  0.8105 -0.3200
 4240SOL    HW224357   1.860   0.123   8.516  0.3576  0.1192  0.7677
 4241SOL     OW24358   3.589   3.277  16.472  0.1716  0.2868  0.9193
 4241SOL    HW124359   3.610   3.286  16.565  0.3507 -2.0575  1.1080
 4241SOL    HW224360   3.662   3.324  16.432 -0.7521 -0.7123 -1.9356
 4242SOL     OW24361   1.370   0.003   8.210 -0.2442 -0.4055  0.0353
 4242SOL    HW124362   1.303   0.068   8.189 -1.3262 -1.3268  0.5856
 4242SOL    HW224363   1.450   0.055   8.217  0.2097 -1.1668  0.5297
 4243SOL     OW24364   3.430   1.601  15.187  0.3015  0.2136 -0.0621
 4243SOL    HW124365   3.403   1.581  15.276  2.0348 -1.6181  0.0558
 4243SOL    HW224366   3.351   1.573  15.141 -1.5531  2.4345  1.7682
 4244SOL     OW24367   3.224   0.427   2.382 -0.2263 -0.2959 -0.0220
 4244SOL    HW124368   3.243   0.400   2.472  1.1330 -0.0429 -0.2372
 4244SOL    HW224369   3.289   0.498   2.380 -0.7246  0.1427 -0.7780
 4245SOL     OW24370   0.394   1.800   4.083 -0.3248 -0.4517 -0.1040
 4245SOL    HW124371   0.361   1.784   4.171  0.1973 -2.2016 -0.2305
 4245SOL    HW224372   0.434   1.717   4.056  0.7463 -0.6978  2.2690
 4246SOL     OW24373   1.589   3.785   2.400  0.1388 -0.4352 -0.1851
 4246SOL    HW124374   1.660   3.841   2.368 -0.3179 -1.1027 -2.3924
 4246SOL    HW224375   1.528   3.854   2.428  0.1412 -0.0135 -1.2023
 4247SOL     OW24376   1.930   3.304  11.300  0.5400 -0.2195  0.7377
 4247SOL    HW124377   1.997   3.248  11.262  0.3160  0.8262 -1.1974
 4247SOL    HW224378   1.949   3.308  11.394  0.7500 -2.1726  0.7671
 4248SOL     OW24379   4.738   4.520   9.096  0.5649  0.3073  0.4889
 4248SOL    HW124380   4.730   4.588   9.163  0.3721 -0.4640  1.2439
 4248SOL    HW224381   4.657   4.540   9.050 -0.0177 -1.6995  0.6478
 4249SOL     OW24382   3.334   2.969   7.120  0.1351  0.3020 -0.4751
 4249SOL    HW124383   3.423   2.996   7.141  0.5857  1.0705 -3.4689
 4249SOL    HW224384   3.284   3.045   7.089  0.9145  1.7292  1.7667
 4250SOL     OW24385   1.627   4.550  14.724 -0.2409 -0.2847  0.1993
 4250SOL    HW124386   1.639   4.553  14.629 -0.5150 -0.9931  0.1411
 4250SOL    HW224387   1.536   4.521  14.735 -1.1872  2.9696  0.9604
 4251SOL     OW24388   1.585   1.277   7.772 -0.2521 -0.3164  0.3609
 4251SOL    HW124389   1.633   1.322   7.703 -3.6705  1.2228 -1.0470
 4251SOL    HW224390   1.612   1.330   7.847  2.7616  1.0750 -1.7283
 4252SOL     OW24391   4.713   3.456   6.997 -0.2451  0.1655  0.0710
 4252SOL    HW124392   4.711   3.491   6.908  1.6791 -1.5685 -0.6531
 4252SOL    HW224393   4.702   3.536   7.048 -0.5466  0.5200 -0.5468
 4253SOL     OW24394   2.414   4.654   6.324 -0.2196  0.3973  0.2603
 4253SOL    HW124395   2.334   4.662   6.273 -0.7920 -0.6770  1.0015
 4253SOL    HW224396   2.392   4.650   6.417 -1.2176 -0.8607 -0.0391
 4254SOL     OW24397   0.177   3.670   7.962 -0.3977 -0.2275 -0.4548
 4254SOL    HW124398   0.127   3.750   7.948  0.6047  0.1809 -1.7082
 4254SOL    HW224399   0.123   3.617   7.902  1.5159 -1.8407 -0.7499
 4255SOL     OW24400   1.121   2.080   6.628 -0.4287 -0.6644  0.1013
 4255SOL    HW124401   1.104   2.168   6.663  2.2892 -0.2802  0.4284
 4255SOL    HW224402   1.029   2.062   6.609 -0.6732  0.0839  0.5470
 4256SOL     OW24403   4.248   3.072   5.969 -0.0965 -0.1816 -0.0203
 4256SOL    HW124404   4.214   2.983   5.962 -1.0380 -0.0187  2.5118
 4256SOL    HW224405   4.312   3.060   5.899 -1.2509  0.5126 -1.1863
 4257SOL     OW24406   3.035   1.911   5.600  0.3187  0.3795 -0.3615
 4257SOL    HW124407   3.035   2.006   5.585  2.2866  0.3313 -0.6078
 4257SOL    HW224408   3.128   1.893   5.611 -0.1082  0.4580  3.2104
 4258SOL     OW24409   4.671   1.556   9.778 -0.2743  0.1448 -0.6640
 4258SOL    HW124410   4.611   1.550   9.852  1.4901 -0.8770  0.7066
 4258SOL    HW224411   0.016   1.531   9.817  0.0744  0.2811 -1.3244
 4259SOL     OW24412   1.628   4.479  11.604 -0.6445  0.2367 -0.0193
 4259SOL    HW124413   1.534   4.471  11.617 -0.1744 -0.4398  2.9794
 4259SOL    HW224414   1.653   4.393  11.637  3.2995  0.9267 -1.2040
 4260SOL     OW24415   2.860   2.811  14.695  0.5259 -0.4254  0.6837
 4260SOL    HW124416   2.782   2.859  14.667  0.4524  0.0713  1.7358
 4260SOL    HW224417   2.893   2.782  14.610  3.3389 -1.0809  1.9947
 4261SOL     OW24418   0.535   1.708  12.435  0.1732  0.3317  0.1830
 4261SOL    HW124419   0.613   1.677  12.480  0.5187  2.7128  1.2325
 4261SOL    HW224420   0.570   1.758  12.361  1.1284  0.4051  0.6889
 4262SOL     OW24421   3.299   2.493   8.432 -0.0703 -0.0136 -0.2843
 4262SOL    HW124422   3.292   2.426   8.364  0.0883 -0.7556  0.4374
 4262SOL    HW224423   3.227   2.554   8.414 -2.6688 -3.1759 -0.5604
 4263SOL     OW24424   4.202   4.345   4.390 -0.1050  0.2117  0.2031
 4263SOL    HW124425   4.261   4.272   4.411 -0.5452 -1.2265 -3.4045
 4263SOL    HW224426   4.190   4.349   4.295 -1.1579 -2.5894  0.2148
 4264SOL     OW24427   0.961   0.611  14.527 -0.1109 -0.4788 -0.2816
 4264SOL    HW124428   0.898   0.606  14.456 -0.9422  0.0944  0.4168
 4264SOL    HW224429   0.917   0.667  14.592  1.1392  0.3736 -0.1576
 4265SOL     OW24430   2.719   1.801   3.345 -0.3402  0.2491 -0.6792
 4265SOL    HW124431   2.737   1.877   3.290  0.0906  0.6034 -0.0541
 4265SOL    HW224432   2.809   1.775   3.364 -0.4915  0.7062  0.7094
 4266SOL     OW24433   1.093   3.542   9.027  0.3220 -0.1058 -0.3283
 4266SOL    HW124434   1.061   3.562   8.939  0.5368  1.1363 -0.1229
 4266SOL    HW224435   1.023   3.582   9.079 -0.9342 -0.5848 -1.6870
 4267SOL     OW24436   4.728   3.074   5.366 -0.9731  0.7515  0.0552
 4267SOL    HW124437   4.680   2.998   5.333 -2.1808  2.2220 -1.5140
 4267SOL    HW224438   0.076   3.035   5.351  0.0208  3.8822 -2.2164
 4268SOL     OW24439   0.628   3.954   0.792  0.0492  0.3178  0.8903
 4268SOL    HW124440   0.578   4.034   0.809 -2.7422 -1.3891  0.7280
 4268SOL    HW224441   0.560   3.893   0.819  0.1093  0.0926  0.5327
 4269SOL     OW24442   4.341   1.777   9.262 -0.1497  0.3397 -0.4774
 4269SOL    HW124443   4.372   1.726   9.338 -0.7376 -1.6504 -1.5728
 4269SOL    HW224444   4.311   1.713   9.198  1.0218 -0.5908 -0.1192
 4270SOL     OW24445   2.301   4.711   4.829  0.0683 -0.7574  0.4684
 4270SOL    HW124446   2.292   4.624   4.789 -0.1765  0.0874 -1.3340
 4270SOL    HW224447   2.384   4.706   4.877 -0.6707  2.0588  1.9966
 4271SOL     OW24448   4.166   3.522   6.564 -0.2724  0.5803 -0.2186
 4271SOL    HW124449   4.202   3.546   6.649 -0.2449  2.3734 -0.7278
 4271SOL    HW224450   4.087   3.472   6.586 -0.9850  1.2196 -1.2954
 4272SOL     OW24451   4.475   2.701   5.950 -0.0857 -0.3921  1.2335
 4272SOL    HW124452   4.471   2.675   6.042  0.4873 -2.2000  0.7486
 4272SOL    HW224453   4.515   2.622   5.916 -0.2393  0.6957 -1.5020
 4273SOL     OW24454   0.064   2.460   4.990 -0.4392 -0.2648  0.1688
 4273SOL    HW124455   0.003   2.446   5.062 -0.0263 -1.0768  0.3564
 4273SOL    HW224456   0.086   2.367   4.987  0.5909  0.0730 -2.6915
 4274SOL     OW24457   0.645   3.750  17.272  0.1141 -0.2983 -0.3797
 4274SOL    HW124458   0.621   3.724  17.184  1.1246 -2.1360 -0.1249
 4274SOL    HW224459   0.694   3.831  17.257 -0.6461  0.1400 -0.4901
 4275SOL     OW24460   4.057   0.564   4.273  0.2004  0.5423 -0.1093
 4275SOL    HW124461   4.003   0.602   4.342  1.9629  0.9824  1.0386
 4275SOL    HW224462   4.129   0.626   4.278 -1.7372  2.6073  2.4575
 4276SOL     OW24463   1.741   1.884   2.299  0.2738  0.0718 -0.3433
 4276SOL    HW124464   1.832   1.911   2.285  0.1727  1.4601  1.8027
 4276SOL    HW224465   1.753   1.796   2.263  2.0646  0.5370 -0.9007
 4277SOL     OW24466   2.612   2.579   8.470  0.3880  0.6877  0.2952
 4277SOL    HW124467   2.597   2.603   8.379  0.3780  1.2850  0.4475
 4277SOL    HW224468   2.640   2.488   8.462  0.9070  0.8362  0.4314
 4278SOL     OW24469   0.807   0.199   3.334  0.2522 -0.5276  0.6818
 4278SOL    HW124470   0.797   0.135   3.405 -0.2106 -2.8715 -1.4850
 4278SOL    HW224471   0.766   0.146   3.265 -0.3338 -0.3058  0.8617
 4279SOL     OW24472   2.625   0.851  16.400 -0.5869 -0.5628 -0.2321
 4279SOL    HW124473   2.700   0.899  16.365 -0.3371 -0.2300  0.7664
 4279SOL    HW224474   2.553   0.912  16.384 -0.0276 -0.2518 -1.5349
 4280SOL     OW24475   4.593   2.453   8.241  0.2743 -0.4045  0.1800
 4280SOL    HW124476   4.666   2.489   8.292 -0.2193  1.0180 -0.1227
 4280SOL    HW224477   4.566   2.382   8.300 -0.9342  2.3852  2.9548
 4281SOL     OW24478   4.380   1.616   2.846  0.3525 -0.3272 -0.3604
 4281SOL    HW124479   4.438   1.635   2.919  0.0931 -0.4818 -0.1127
 4281SOL    HW224480   4.303   1.669   2.869  0.2231 -0.9379  0.6258
 4282SOL     OW24481   2.692   2.574   9.560  0.7371 -0.4249 -0.3865
 4282SOL    HW124482   2.676   2.489   9.518  1.5231 -0.7827  0.0532
 4282SOL    HW224483   2.705   2.554   9.652  1.5704  1.3506 -0.1237
 4283SOL     OW24484   1.417   2.473   6.263 -0.0047 -0.1083  0.5761
 4283SOL    HW124485   1.432   2.405   6.197 -1.6339  1.3101 -1.2648
 4283SOL    HW224486   1.434   2.429   6.346 -0.7355  2.0768  1.8808
 4284SOL     OW24487   4.035   0.340   8.591  0.6759 -0.3359  0.8382
 4284SOL    HW124488   4.008   0.431   8.602 -0.1495 -0.6436  1.4067
 4284SOL    HW224489   4.073   0.324   8.677  0.0024 -1.3962  0.9533
 4285SOL     OW24490   1.304   0.589   2.745 -0.1485 -0.9306  0.1023
 4285SOL    HW124491   1.246   0.515   2.733 -0.9402 -0.4754  1.1749
 4285SOL    HW224492   1.294   0.631   2.659  0.2029 -0.8121  0.1147
 4286SOL     OW24493   3.987   1.098   7.115  0.1145  0.2965  0.5570
 4286SOL    HW124494   3.936   1.179   7.104  2.0017  1.4456  0.3229
 4286SOL    HW224495   3.952   1.041   7.046  0.1631 -0.4420  1.1493
 4287SOL     OW24496   0.439   0.026   4.485 -0.2773 -0.1383 -0.3515
 4287SOL    HW124497   0.514   0.050   4.539  1.0981 -2.2044 -1.3622
 4287SOL    HW224498   0.367   0.080   4.519 -0.2289 -1.1011  1.2705
 4288SOL     OW24499   1.792   0.151   1.876 -0.1652 -0.2657  0.5862
 4288SOL    HW124500   1.773   0.168   1.784 -2.1432 -1.3992  0.7875
 4288SOL    HW224501   1.776   0.240   1.907 -0.9759 -0.1338 -0.1921
 4289SOL     OW24502   2.661   2.290   4.915  0.8851 -0.2640  0.6452
 4289SOL    HW124503   2.598   2.218   4.917 -1.6363  1.9783  1.5056
 4289SOL    HW224504   2.669   2.297   4.820 -0.2857 -2.6440  0.3570
 4290SOL     OW24505   2.160   4.716  12.009 -0.1718 -0.0770 -0.1543
 4290SOL    HW124506   2.236   4.718  11.952  0.5664  0.2390  0.8476
 4290SOL    HW224507   2.149   0.070  12.028  1.5103  0.2070 -0.5679
 4291SOL     OW24508   3.928   1.463  10.276 -0.4699  0.1179  0.2768
 4291SOL    HW124509   4.000   1.418  10.232  0.0320  1.8492 -0.6858
 4291SOL    HW224510   3.968   1.547  10.299  2.3926 -0.7966 -1.5244
 4292SOL     OW24511   0.729   2.119  16.549 -0.6740  0.7982 -0.3203
 4292SOL    HW124512   0.651   2.122  16.604 -0.2511  0.2279  0.3247
 4292SOL    HW224513   0.688   2.163  16.475 -2.2171 -1.1206 -0.6170
 4293SOL     OW24514   1.928   3.239   9.071  0.0254  0.1118  0.0874
 4293SOL    HW124515   2.007   3.200   9.107  0.0259 -0.5005 -0.5895
 4293SOL    HW224516   1.923   3.189   8.989 -1.7005  3.0118 -1.5892
 4294SOL     OW24517   4.597   4.211   1.375  0.1191 -0.3703 -0.0855
 4294SOL    HW124518   4.590   4.280   1.441  2.0872  1.4314 -1.7471
 4294SOL    HW224519   4.511   4.206   1.333  0.1318  0.7694 -0.2473
 4295SOL     OW24520   1.352   1.788   9.824  0.3084 -0.1868 -0.0597
 4295SOL    HW124521   1.262   1.768   9.847 -0.1989  2.2955  0.0324
 4295SOL    HW224522   1.363   1.871   9.870  2.8163 -0.2084 -0.5918
 4296SOL     OW24523   0.136   0.990   3.056  0.1974 -0.1341  0.3244
 4296SOL    HW124524   0.207   0.953   3.004  0.5748 -0.4411  1.0494
 4296SOL    HW224525   0.067   0.942   3.011  2.5622 -2.1657 -1.1333
 4297SOL     OW24526   3.564   3.691   9.731  0.2713 -0.1644 -0.1478
 4297SOL    HW124527   3.529   3.614   9.776 -1.9024  0.5945 -0.5271
 4297SOL    HW224528   3.589   3.740   9.809 -1.7081  0.1764  0.2716
 4298SOL     OW24529   1.508   1.273   5.419  0.7303  0.1244 -0.0741
 4298SOL    HW124530   1.505   1.192   5.369  1.4370  1.9697 -3.0796
 4298SOL    HW224531   1.562   1.248   5.494  1.2013 -0.3137 -0.5651
 4299SOL     OW24532   3.010   0.207   0.286 -0.3189  0.4415  0.4161
 4299SOL    HW124533   3.081   0.225   0.224 -1.2950  1.2408 -0.4614
 4299SOL    HW224534   3.001   0.114   0.265 -2.1099  0.7013  0.0806
 4300SOL     OW24535   2.960   3.898   9.024 -0.3083  0.0518 -0.3959
 4300SOL    HW124536   2.885   3.879   8.967 -0.3409 -1.6172  0.1937
 4300SOL    HW224537   2.967   3.812   9.065  0.2512 -0.5042 -1.6732
 4301SOL     OW24538   1.370   0.848   4.162  0.2059 -0.0030  0.1378
 4301SOL    HW124539   1.466   0.845   4.173  0.1372 -1.4612  0.3676
 4301SOL    HW224540   1.346   0.902   4.238  1.4363  2.5471 -1.2972
 4302SOL     OW24541   0.782   4.157   5.224 -0.6163  0.2638  0.0617
 4302SOL    HW124542   0.822   4.138   5.139  0.4777 -0.3406  0.7040
 4302SOL    HW224543   0.846   4.115   5.282 -0.1690  0.2241 -0.4705
 4303SOL     OW24544   3.172   3.915   1.774 -0.1806  0.2427  0.0919
 4303SOL    HW124545   3.211   3.833   1.743 -0.4867  0.1767 -0.1233
 4303SOL    HW224546   3.095   3.909   1.718  0.4044  2.0621 -0.9042
 4304SOL     OW24547   2.291   4.727   2.129  0.8472 -0.7302  0.3797
 4304SOL    HW124548   2.291   4.654   2.067 -0.7620 -1.8427  1.6783
 4304SOL    HW224549   2.295   4.682   2.214  0.9568  0.5346  1.0381
 4305SOL     OW24550   2.245   2.593   4.722 -0.0008 -0.4576  0.1532
 4305SOL    HW124551   2.327   2.580   4.770  0.4287  1.2452 -0.0947
 4305SOL    HW224552   2.186   2.533   4.767  0.9602  0.0087  2.0260
 4306SOL     OW24553   3.936   0.235   9.403 -0.0309 -0.0910  0.1753
 4306SOL    HW124554   4.004   0.300   9.420 -1.4997  0.7948  2.5753
 4306SOL    HW224555   3.858   0.247   9.456  0.0001 -1.5948  0.5654
 4307SOL     OW24556   3.707   2.165   8.094  0.1511 -0.3189 -0.0285
 4307SOL    HW124557   3.615   2.141   8.101 -0.6064  2.5512  0.0851
 4307SOL    HW224558   3.745   2.081   8.070 -0.5860 -1.0368  1.3607
 4308SOL     OW24559   3.863   0.040   3.580  0.5777  0.6780 -0.1982
 4308SOL    HW124560   3.924   0.106   3.615  0.4996  0.3284  0.5982
 4308SOL    HW224561   3.856   0.052   3.485  0.4973  0.3545 -0.2329
 4309SOL     OW24562   3.283   4.548   6.033 -0.3902 -0.3960  0.2433
 4309SOL    HW124563   3.207   4.507   6.075 -1.5680  0.7105 -0.7875
 4309SOL    HW224564   3.321   4.595   6.107  0.0579  0.6578 -0.6545
 4310SOL     OW24565   0.104   1.152  14.102  0.4153 -0.4387  0.3026
 4310SOL    HW124566   0.066   1.109  14.026  0.3478 -2.2992  1.3711
 4310SOL    HW224567   0.123   1.076  14.157  0.0233 -0.3354  0.5768
 4311SOL     OW24568   1.361   2.052   9.985 -0.1598  0.3754 -0.5331
 4311SOL    HW124569   1.319   2.012  10.061 -1.2415  0.8908 -0.8513
 4311SOL    HW224570   1.324   2.140   9.979 -0.9294  0.1024  0.2576
 4312SOL     OW24571   1.514   1.996  11.078 -0.8404 -0.2428 -0.0647
 4312SOL    HW124572   1.544   1.945  11.003 -1.6244 -1.5785  0.5333
 4312SOL    HW224573   1.601   2.034  11.093 -0.2157 -1.8467  0.3572
 4313SOL     OW24574   2.654   4.672   6.591 -0.6844 -0.0442 -0.7537
 4313SOL    HW124575   2.704   4.685   6.672 -0.9008 -1.0688 -0.4588
 4313SOL    HW224576   2.567   4.707   6.610  0.4321  2.4890 -0.1925
 4314SOL     OW24577   0.458   4.449   9.191  0.5906  0.3009  0.0640
 4314SOL    HW124578   0.385   4.470   9.133 -0.1495  0.0300  0.9081
 4314SOL    HW224579   0.415   4.414   9.269 -0.1118 -3.5813 -2.0494
 4315SOL     OW24580   1.111   2.605   9.243 -0.6030 -0.6550  0.0372
 4315SOL    HW124581   1.102   2.586   9.336  0.1943  0.0441  0.2580
 4315SOL    HW224582   1.027   2.573   9.211 -0.4071 -0.6073 -0.5277
 4316SOL     OW24583   3.319   3.077   1.774 -0.2012  0.1950 -0.5499
 4316SOL    HW124584   3.409   3.083   1.804 -0.9779  0.5531  1.7234
 4316SOL    HW224585   3.335   3.054   1.682  0.7488  0.8283 -0.5370
 4317SOL     OW24586   4.051   2.267   8.240 -0.3912  0.0754 -0.4410
 4317SOL    HW124587   4.106   2.199   8.201 -0.6192 -0.3589 -0.0176
 4317SOL    HW224588   4.097   2.349   8.221  2.8439 -1.1756  1.8631
 4318SOL     OW24589   0.751   1.719   4.595 -0.1997 -0.2463 -0.0797
 4318SOL    HW124590   0.781   1.785   4.533  1.1426 -0.3559  0.4645
 4318SOL    HW224591   0.808   1.646   4.575  0.3087  0.6822 -2.0137
 4319SOL     OW24592   0.454   2.958   3.267  0.2306  0.5424 -0.8839
 4319SOL    HW124593   0.378   2.981   3.214 -0.6124 -1.0777 -0.3719
 4319SOL    HW224594   0.475   3.042   3.308 -0.1079  0.5471 -0.7182
 4320SOL     OW24595   3.697   3.473   6.093 -0.6376  0.3429  0.5788
 4320SOL    HW124596   3.612   3.438   6.068  0.7125 -0.7118 -2.5508
 4320SOL    HW224597   3.699   3.546   6.030  2.1712 -2.2474 -2.3613
 4321SOL     OW24598   4.493   0.887   6.906  0.2154  0.1294 -0.4407
 4321SOL    HW124599   4.399   0.869   6.902  0.4865 -1.9329  2.0708
 4321SOL    HW224600   4.524   0.796   6.905  0.1503  0.0976  1.1006
 4322SOL     OW24601   1.207   3.356  15.617  0.7162 -0.0608  0.3124
 4322SOL    HW124602   1.290   3.402  15.632 -0.1374  1.2909  0.9240
 4322SOL    HW224603   1.231   3.264  15.628 -1.3084 -0.4653  1.3184
 4323SOL     OW24604   1.931   2.933   0.698 -0.1420  0.6372  0.3817
 4323SOL    HW124605   1.871   3.007   0.701 -0.0925  0.7147 -0.4753
 4323SOL    HW224606   1.978   2.954   0.617 -1.4141 -0.8301 -0.7330
 4324SOL     OW24607   0.076   3.980   2.721  0.2078 -1.2537  0.0018
 4324SOL    HW124608   0.124   4.050   2.767  0.8030 -1.8907  0.3506
 4324SOL    HW224609   0.138   3.907   2.721  3.9082  1.8538 -0.0773
 4325SOL     OW24610   2.550   4.513   9.542  0.9440 -0.1646 -0.0611
 4325SOL    HW124611   2.506   4.459   9.477 -1.4346 -0.4660  1.7950
 4325SOL    HW224612   2.604   4.562   9.480 -1.4791  1.0364 -1.1992
 4326SOL     OW24613   4.039   2.170   6.708  0.3999 -0.0852 -0.2772
 4326SOL    HW124614   3.987   2.243   6.741 -0.5577 -0.9748  0.1811
 4326SOL    HW224615   4.124   2.176   6.752  0.8789  1.4475 -1.4195
 4327SOL     OW24616   2.163   2.318   1.031  0.1735 -0.2554  0.2238
 4327SOL    HW124617   2.115   2.396   1.059 -1.6529 -1.4153  0.3559
 4327SOL    HW224618   2.195   2.333   0.942  2.1304  1.8044  1.2763
 4328SOL     OW24619   4.113   2.044   3.750 -0.0468  0.0581  0.7618
 4328SOL    HW124620   4.050   2.108   3.783 -0.9498 -0.9755  1.0496
 4328SOL    HW224621   4.056   2.000   3.687  0.6483 -0.0480  0.2063
 4329SOL     OW24622   3.185   4.036  13.323 -0.3122 -0.4387 -0.3114
 4329SOL    HW124623   3.105   4.068  13.366  0.9745 -0.3669  1.9770
 4329SOL    HW224624   3.262   4.088  13.346 -1.2725  0.4571  0.9194
 4330SOL     OW24625   3.707   4.119   4.667 -0.0115 -0.2270  0.0824
 4330SOL    HW124626   3.772   4.158   4.608 -1.8511  1.7263 -0.6603
 4330SOL    HW224627   3.716   4.163   4.752  1.8755 -0.6226  0.0876
 4331SOL     OW24628   0.490   1.284   3.136  0.8534  0.4917  0.5344
 4331SOL    HW124629   0.530   1.345   3.198 -1.0672 -0.4318  2.6955
 4331SOL    HW224630   0.448   1.350   3.081 -3.3284  0.9655  4.2564
 4332SOL     OW24631   4.032   2.860  14.390  0.7666 -0.2952 -0.1386
 4332SOL    HW124632   3.991   2.937  14.430  2.9274  0.4226  0.7268
 4332SOL    HW224633   3.985   2.857  14.307  1.2623 -0.9315 -0.3953
 4333SOL     OW24634   2.577   3.886   3.493 -0.1179  0.6702 -0.8028
 4333SOL    HW124635   2.604   3.956   3.433 -1.7244  2.5311  0.6718
 4333SOL    HW224636   2.622   3.808   3.460 -0.2027 -0.5929  2.0536
 4334SOL     OW24637   3.172   1.181   4.222  0.2669  0.0845  0.2499
 4334SOL    HW124638   3.202   1.191   4.312 -0.0088  0.2454  0.3218
 4334SOL    HW224639   3.137   1.268   4.207 -0.7346 -0.3468  0.0985
 4335SOL     OW24640   1.345   3.497   3.825  0.4410 -0.1559 -0.0321
 4335SOL    HW124641   1.299   3.573   3.788 -1.2066 -0.6014  1.1046
 4335SOL    HW224642   1.322   3.498   3.918  1.3833 -0.6841  0.2031
 4336SOL     OW24643   3.273   1.264   7.300 -0.3955 -0.2478 -0.0862
 4336SOL    HW124644   3.270   1.290   7.392 -3.5152 -1.0554  0.0414
 4336SOL    HW224645   3.365   1.276   7.277 -0.6512 -1.1028 -1.5642
 4337SOL     OW24646   0.273   2.239   5.105  0.1522 -0.5847  0.3393
 4337SOL    HW124647   0.221   2.216   5.028  3.2032 -1.8995 -1.3572
 4337SOL    HW224648   0.212   2.229   5.178  0.0161 -2.4556 -0.0185
 4338SOL     OW24649   2.236   4.600   0.013 -0.1672 -0.3417 -0.5688
 4338SOL    HW124650   2.158   4.544   0.008 -0.6165  0.2470 -0.1062
 4338SOL    HW224651   2.196   4.686   0.001 -2.2577 -1.1649  0.2683
 4339SOL     OW24652   0.684   0.039   5.673 -0.2159  0.6611 -0.0035
 4339SOL    HW124653   0.731   4.698   5.696  1.3220  1.7680  0.6784
 4339SOL    HW224654   0.737   0.067   5.598  0.7426 -1.0096  0.0413
 4340SOL     OW24655   3.484   0.369   9.505 -0.0567 -0.7147  0.1598
 4340SOL    HW124656   3.466   0.332   9.591 -1.7771  0.1288  0.1598
 4340SOL    HW224657   3.501   0.294   9.448  1.2824  0.5555 -1.1224
 4341SOL     OW24658   2.531   0.173   7.313 -0.3290 -0.6287 -0.8878
 4341SOL    HW124659   2.526   0.237   7.384  1.3193  0.1748 -1.4800
 4341SOL    HW224660   2.439   0.161   7.290 -0.5064  0.8095 -0.9280
 4342SOL     OW24661   2.044   2.839   9.078 -0.6557  0.6266  0.1253
 4342SOL    HW124662   1.983   2.784   9.029 -1.0727  0.2835  1.0470
 4342SOL    HW224663   2.027   2.931   9.057 -1.7088  0.8096  1.7725
 4343SOL     OW24664   3.915   3.894   3.173 -0.3165  0.2902  0.1394
 4343SOL    HW124665   3.920   3.824   3.238  2.1106  1.7104  1.4947
 4343SOL    HW224666   4.005   3.900   3.142  0.0024  1.3241  1.2357
 4344SOL     OW24667   0.525   2.296   3.956  0.3453  0.0324  0.4858
 4344SOL    HW124668   0.548   2.322   3.867 -0.3031 -1.3239 -0.0883
 4344SOL    HW224669   0.452   2.356   3.972  0.3388 -0.4188  2.1616
 4345SOL     OW24670   4.305   3.743  16.390 -0.3614 -0.1750  0.0364
 4345SOL    HW124671   4.395   3.735  16.359 -0.3535  0.8521 -0.2024
 4345SOL    HW224672   4.289   3.655  16.426  1.2879  0.2822  1.8756
 4346SOL     OW24673   2.955   2.954  14.935  0.0970  0.8715 -0.0007
 4346SOL    HW124674   2.955   2.873  14.884  0.6245  0.0107  1.3472
 4346SOL    HW224675   3.031   2.968  14.991  0.4882 -0.4570 -0.2134
 4347SOL     OW24676   2.380   2.974   9.362  0.3465  0.4508 -0.3069
 4347SOL    HW124677   2.312   2.912   9.335 -0.9545  1.2912  1.0443
 4347SOL    HW224678   2.421   2.920   9.429  0.2384 -0.1601 -0.7286
 4348SOL     OW24679   0.640   2.212   1.408 -0.1100 -0.0524 -0.6649
 4348SOL    HW124680   0.690   2.204   1.489 -0.1923 -0.5238 -0.6648
 4348SOL    HW224681   0.551   2.202   1.441  0.5941 -1.5295  0.7841
 4349SOL     OW24682   3.550   1.101   8.324  0.2767 -0.0670  0.2287
 4349SOL    HW124683   3.468   1.072   8.285  1.3264 -0.2832 -1.8041
 4349SOL    HW224684   3.527   1.091   8.417 -2.0874  0.3430 -0.3064
 4350SOL     OW24685   0.294   2.125   2.073  0.5246  0.4252 -0.4678
 4350SOL    HW124686   0.215   2.170   2.102  1.2465  0.4174  1.4859
 4350SOL    HW224687   0.362   2.188   2.097  0.4881  0.1934  0.2335
 4351SOL     OW24688   2.411   0.037   9.517  0.2443  0.0011 -0.3581
 4351SOL    HW124689   2.377   0.106   9.574 -1.1923  0.4184 -1.7029
 4351SOL    HW224690   2.486   0.003   9.566  0.1762  0.4829  0.0782
 4352SOL     OW24691   0.767   2.155  14.227 -0.3055  0.4814  0.1249
 4352SOL    HW124692   0.851   2.132  14.267  0.9216  0.8165 -2.2307
 4352SOL    HW224693   0.716   2.194  14.298 -2.1238 -0.1060 -0.8546
 4353SOL     OW24694   1.437   1.741  15.199 -0.3170  0.2520 -0.4067
 4353SOL    HW124695   1.351   1.774  15.227  0.8961  2.8516  0.2121
 4353SOL    HW224696   1.416   1.703  15.114 -0.1962  1.0692 -0.8015
 4354SOL     OW24697   1.799   0.414   8.316  0.1169  0.2702  0.0768
 4354SOL    HW124698   1.811   0.348   8.385 -2.9006  0.0247  0.3915
 4354SOL    HW224699   1.779   0.486   8.376 -2.5101 -0.4670  0.0993
 4355SOL     OW24700   1.576   0.399   7.788  0.1791  0.5412  0.0119
 4355SOL    HW124701   1.644   0.386   7.721  1.1827  0.4915  1.0331
 4355SOL    HW224702   1.615   0.455   7.855  0.2241  3.2030 -2.2269
 4356SOL     OW24703   3.212   2.159   8.674 -0.3501  0.6552 -0.4439
 4356SOL    HW124704   3.229   2.078   8.722  0.4250 -0.0285 -1.8600
 4356SOL    HW224705   3.285   2.218   8.693 -2.3683  3.8378 -2.6247
 4357SOL     OW24706   2.393   0.477   5.811  0.1173 -0.4489 -0.4181
 4357SOL    HW124707   2.315   0.524   5.783 -0.4177 -0.5941  0.8261
 4357SOL    HW224708   2.353   0.412   5.869  0.1552  0.7914  1.0066
 4358SOL     OW24709   1.336   2.397   4.968 -0.3345 -0.1122 -0.3880
 4358SOL    HW124710   1.386   2.315   4.964 -3.7152 -2.0953 -1.4568
 4358SOL    HW224711   1.408   2.454   4.942 -0.7226  0.5374 -0.0380
 4359SOL     OW24712   2.195   1.460   4.103 -0.5325  0.0078  0.2431
 4359SOL    HW124713   2.148   1.425   4.178 -0.9600 -1.7896 -0.8466
 4359SOL    HW224714   2.282   1.461   4.142 -0.1221  0.4454 -0.6801
 4360SOL     OW24715   2.085   4.643   9.835  0.6070 -0.2543  0.0264
 4360SOL    HW124716   2.131   4.654   9.919 -0.1504  0.6672  0.3209
 4360SOL    HW224717   2.158   4.619   9.778  0.0712 -0.5021 -0.5580
 4361SOL     OW24718   1.862   1.541   6.391 -0.2468  0.0452  0.1139
 4361SOL    HW124719   1.842   1.476   6.459 -0.3862 -0.4923 -0.4377
 4361SOL    HW224720   1.907   1.609   6.441 -0.1207  0.9411 -1.2423
 4362SOL     OW24721   2.015   4.320   7.334  0.4223  0.8845  0.3269
 4362SOL    HW124722   2.001   4.399   7.385 -1.8228  0.8775 -0.2701
 4362SOL    HW224723   1.979   4.260   7.398 -1.3261 -0.3457 -1.8094
 4363SOL     OW24724   2.728   3.076   9.463  0.2638 -0.2412 -0.0643
 4363SOL    HW124725   2.673   3.045   9.534  1.9998  0.8033  1.7498
 4363SOL    HW224726   2.746   3.165   9.493  0.0088 -0.7181  1.5030
 4364SOL     OW24727   4.325   4.514   2.627 -0.5096  0.0226  0.1903
 4364SOL    HW124728   4.328   4.421   2.604 -1.0382 -0.2035  1.0083
 4364SOL    HW224729   4.232   4.528   2.645 -0.2217 -0.8628  2.3860
 4365SOL     OW24730   1.485   0.730   1.919  0.1502  0.4783 -0.1302
 4365SOL    HW124731   1.459   0.796   1.984  2.3245  1.6306 -0.4320
 4365SOL    HW224732   1.576   0.755   1.935  0.1726  0.4153 -0.1614
 4366SOL     OW24733   3.185   3.174   7.353 -0.1971 -0.1610  0.0439
 4366SOL    HW124734   3.190   3.169   7.257 -0.8577  1.0942 -0.0563
 4366SOL    HW224735   3.210   3.085   7.376  0.0454  0.2891  1.5292
 4367SOL     OW24736   3.529   4.487   3.890  0.6988 -0.0462 -0.1858
 4367SOL    HW124737   3.505   4.551   3.824 -1.6672 -2.6446 -1.8302
 4367SOL    HW224738   3.608   4.450   3.850  1.5801 -0.1291  1.5877
 4368SOL     OW24739   1.908   2.617   0.337  0.5856  0.3193  0.4345
 4368SOL    HW124740   1.884   2.709   0.323 -0.7825 -0.2495 -0.9531
 4368SOL    HW224741   1.986   2.614   0.282 -0.9310  1.8571 -1.7858
 4369SOL     OW24742   2.517   2.306   8.299  0.2086  0.2906 -0.0813
 4369SOL    HW124743   2.540   2.291   8.208  0.6695  0.4271  0.0139
 4369SOL    HW224744   2.532   2.221   8.340  0.8005 -0.4832 -1.8884
 4370SOL     OW24745   0.070   4.661   8.240  0.1315 -0.3029  0.3790
 4370SOL    HW124746   4.724   4.680   8.199 -0.1814  2.0126  2.1148
 4370SOL    HW224747   0.041   4.614   8.318  1.1797  1.1586  1.6528
 4371SOL     OW24748   2.738   1.896  10.661  0.3686 -0.2796 -0.2531
 4371SOL    HW124749   2.738   1.977  10.611 -1.3500 -0.7762 -1.0878
 4371SOL    HW224750   2.723   1.825  10.597  0.5495 -0.6676  0.1360
 4372SOL     OW24751   3.636   0.779  14.238  0.4577  0.0022 -0.1025
 4372SOL    HW124752   3.625   0.784  14.143  0.4211 -1.3008 -0.1597
 4372SOL    HW224753   3.590   0.696  14.249 -2.0383  1.3313 -0.4644
 4373SOL     OW24754   2.650   0.327   8.391 -0.2156 -0.2691 -0.1873
 4373SOL    HW124755   2.719   0.261   8.388 -1.7385 -1.7869 -1.8870
 4373SOL    HW224756   2.596   0.278   8.454 -0.9664  3.2715  1.9105
 4374SOL     OW24757   0.005   1.057   9.077 -0.0238 -0.3960 -0.5769
 4374SOL    HW124758   4.727   0.977   9.127  2.4668 -0.2495  0.4749
 4374SOL    HW224759   4.682   1.116   9.121  2.0511  0.4607  1.1880
 4375SOL     OW24760   3.602   4.198   8.290 -0.8725  0.1173 -0.4130
 4375SOL    HW124761   3.644   4.283   8.305  0.1226 -0.5514  0.6155
 4375SOL    HW224762   3.673   4.140   8.262 -2.7346 -2.0852 -0.4862
 4376SOL     OW24763   3.432   1.246   2.976  0.2990  0.1454  0.3541
 4376SOL    HW124764   3.361   1.310   2.975 -0.0349 -0.1795  3.4486
 4376SOL    HW224765   3.406   1.191   2.902  0.7572  1.4138 -0.7383
 4377SOL     OW24766   4.655   1.376   8.813 -0.1164 -0.5839 -0.3266
 4377SOL    HW124767   4.560   1.370   8.820 -0.3614  1.3545 -1.9976
 4377SOL    HW224768   4.667   1.471   8.806  2.5023 -0.7918  1.5829
 4378SOL     OW24769   0.888   1.323   7.161  0.6575  0.0471 -0.3414
 4378SOL    HW124770   0.793   1.321   7.145  0.2934  1.6293  1.6625
 4378SOL    HW224771   0.907   1.388   7.094  0.8240  1.5028  1.1190
 4379SOL     OW24772   4.178   1.977  10.393 -0.1636  0.3386 -0.2360
 4379SOL    HW124773   4.123   2.043  10.350  0.5243  1.3758  0.4630
 4379SOL    HW224774   4.264   1.981  10.353 -0.3617 -0.1897 -0.7135
 4380SOL     OW24775   3.835   2.288   9.083 -0.4000  0.2301  0.5518
 4380SOL    HW124776   3.880   2.370   9.059 -0.3732  0.7470  2.3966
 4380SOL    HW224777   3.873   2.230   9.017 -1.0558 -1.6090  1.8022
 4381SOL     OW24778   1.944   4.338   3.088  0.7758  0.1261 -0.3837
 4381SOL    HW124779   1.920   4.293   3.007  1.5452  1.9295 -1.6086
 4381SOL    HW224780   1.866   4.391   3.109 -0.1106 -1.7219  1.0036
 4382SOL     OW24781   1.562   2.019   2.117 -0.5167  0.0387 -0.7261
 4382SOL    HW124782   1.615   1.945   2.147 -2.4702 -1.8199 -1.9203
 4382SOL    HW224783   1.523   1.990   2.035  0.7100 -2.6101 -0.3768
 4383SOL     OW24784   0.376   3.626   6.678  0.3289 -0.0673  0.3952
 4383SOL    HW124785   0.458   3.585   6.648 -0.0351  0.3522 -1.1635
 4383SOL    HW224786   0.396   3.645   6.769  0.1229  2.6563 -0.1399
 4384SOL     OW24787   2.959   3.434  15.029  0.1747  0.1614  0.1405
 4384SOL    HW124788   3.009   3.375  15.085  0.0767  0.1564  0.2230
 4384SOL    HW224789   2.897   3.376  14.984  2.2248 -0.7077 -1.5498
 4385SOL     OW24790   1.462   0.250   3.384  0.4711  0.0228 -0.0796
 4385SOL    HW124791   1.510   0.307   3.325  0.2770  2.3758  2.0412
 4385SOL    HW224792   1.398   0.221   3.319 -0.4285  0.0683  0.7817
 4386SOL     OW24793   1.074   2.158  17.712 -0.3231 -0.2862 -0.5524
 4386SOL    HW124794   1.026   2.146   0.041  1.8014  2.2589  1.1015
 4386SOL    HW224795   1.156   2.111  17.730 -0.2875 -0.1001 -0.2163
 4387SOL     OW24796   0.968   4.281   8.381  0.4610  0.3496  0.1604
 4387SOL    HW124797   1.050   4.233   8.369  1.1806  1.5312  0.2797
 4387SOL    HW224798   0.913   4.224   8.435  0.7807  0.8745  1.0463
 4388SOL     OW24799   1.540   0.448   3.177 -0.7234 -0.3392 -0.0122
 4388SOL    HW124800   1.617   0.499   3.200 -0.5139  0.6523 -2.9226
 4388SOL    HW224801   1.471   0.513   3.165 -0.6316 -0.2306  0.0572
 4389SOL     OW24802   4.575   0.039  15.216 -0.6699 -0.5674  0.0751
 4389SOL    HW124803   4.531   0.060  15.299 -0.6245 -0.4180  0.0630
 4389SOL    HW224804   4.519   4.703  15.197  1.5432 -2.0075 -0.7963
 4390SOL     OW24805   2.227   0.149   7.768  0.1430 -0.1474 -0.4550
 4390SOL    HW124806   2.317   0.148   7.798 -0.3001 -0.3445  0.8753
 4390SOL    HW224807   2.186   0.101   7.841 -0.8825  2.2565  0.5584
 4391SOL     OW24808   0.015   3.286   7.582  0.5649 -0.4160 -0.0483
 4391SOL    HW124809   0.011   3.351   7.652  1.2219 -0.7684  0.3164
 4391SOL    HW224810   4.726   3.209   7.632  0.5599 -0.0267  0.5517
 4392SOL     OW24811   3.105   3.177   5.454 -0.1308  0.7795 -0.4027
 4392SOL    HW124812   3.150   3.237   5.395 -0.1121  1.6403  0.4900
 4392SOL    HW224813   3.171   3.109   5.469 -4.0372 -2.4570  2.2108
 4393SOL     OW24814   4.064   4.262   2.424  0.5388  0.2165  0.1197
 4393SOL    HW124815   4.159   4.276   2.429  0.8744 -1.6885 -1.0792
 4393SOL    HW224816   4.059   4.180   2.473 -0.9501 -0.0215 -0.4278
 4394SOL     OW24817   3.387   1.771   7.964 -0.0321 -0.4908  0.0230
 4394SOL    HW124818   3.338   1.692   7.989 -2.7695  1.6589  1.3605
 4394SOL    HW224819   3.367   1.775   7.870 -1.6149  3.2512  0.5158
 4395SOL     OW24820   3.447   2.765   8.378 -0.4445  0.1348 -0.7587
 4395SOL    HW124821   3.430   2.732   8.467 -0.1020  0.1330 -0.6962
 4395SOL    HW224822   3.444   2.682   8.330 -2.5437 -1.4249  1.9673
 4396SOL     OW24823   1.788   2.603   4.895 -0.0084 -0.3625 -0.0116
 4396SOL    HW124824   1.843   2.527   4.875  2.1036  1.8017 -2.5362
 4396SOL    HW224825   1.856   2.663   4.928  0.6077 -1.1304  0.1138
 4397SOL     OW24826   1.749   0.601  11.686  0.5482  0.1705  0.1707
 4397SOL    HW124827   1.823   0.607  11.626 -0.3019  0.1859 -0.8696
 4397SOL    HW224828   1.697   0.674  11.651  2.6636  1.1158 -1.0135
 4398SOL     OW24829   3.587   4.021  17.530  0.3390 -0.0409 -0.1801
 4398SOL    HW124830   3.632   3.999  17.612  0.9101  1.6770 -0.0363
 4398SOL    HW224831   3.653   4.010  17.461 -1.1265  5.3582 -2.3966
 4399SOL     OW24832   0.837   1.533   1.337 -0.0065 -0.3596 -0.1362
 4399SOL    HW124833   0.763   1.593   1.348 -1.4363 -1.4382 -3.6732
 4399SOL    HW224834   0.837   1.529   1.241  1.9923 -0.0062 -0.1424
 4400SOL     OW24835   0.613   3.511   2.113  0.3468 -0.5332  0.1907
 4400SOL    HW124836   0.639   3.537   2.025 -0.9710 -0.8936 -0.2976
 4400SOL    HW224837   0.617   3.595   2.160 -0.4446 -0.5694  0.3191
 4401SOL     OW24838   0.328   1.163   1.469 -0.6337  0.2281 -0.1984
 4401SOL    HW124839   0.388   1.210   1.412 -0.8072  0.8205  0.1037
 4401SOL    HW224840   0.343   1.222   1.544 -2.9619  0.9065 -0.2792
 4402SOL     OW24841   0.149   3.988  12.275  0.1279  0.0590  0.3913
 4402SOL    HW124842   0.160   3.998  12.180 -1.2907  0.0393  0.2338
 4402SOL    HW224843   0.076   4.048  12.292  0.3996  0.6971 -0.6395
 4403SOL     OW24844   3.835   4.544   7.594  0.4210  0.1846 -0.0474
 4403SOL    HW124845   3.793   4.615   7.545  0.0098  0.3516  0.5495
 4403SOL    HW224846   3.766   4.529   7.659  1.0639 -0.1216  0.5657
 4404SOL     OW24847   0.896   0.658  10.923 -0.3081  0.0007 -0.4087
 4404SOL    HW124848   0.831   0.599  10.959  0.7049 -1.0112 -0.2356
 4404SOL    HW224849   0.853   0.698  10.848 -0.5002  0.3053 -0.1346
 4405SOL     OW24850   0.555   2.550  13.916 -0.6494  0.6980  0.3165
 4405SOL    HW124851   0.559   2.468  13.966 -0.7008  0.6116  0.1789
 4405SOL    HW224852   0.471   2.584  13.945 -1.5531  1.7198 -3.5919
 4406SOL     OW24853   0.531   0.407   2.318  0.0437  0.4830 -0.2741
 4406SOL    HW124854   0.557   0.457   2.395  1.3656 -2.5355  1.2135
 4406SOL    HW224855   0.610   0.410   2.264  1.1108 -1.8215  1.1781
 4407SOL     OW24856   3.970   4.255  13.172 -1.3104 -0.7877 -0.1146
 4407SOL    HW124857   3.969   4.351  13.167  1.5313 -0.7803 -0.3637
 4407SOL    HW224858   3.884   4.228  13.139 -1.3138  0.5518 -1.2104
 4408SOL     OW24859   4.379   0.947  17.561 -0.0313  0.1822  0.0624
 4408SOL    HW124860   4.424   0.881  17.508  0.1699  1.1602 -0.9853
 4408SOL    HW224861   4.458   0.993  17.588  0.1343 -0.6656  1.0228
 4409SOL     OW24862   4.181   1.649  10.085  0.0460  0.0302 -0.1615
 4409SOL    HW124863   4.167   1.649  10.180  1.9193  0.5454  0.1222
 4409SOL    HW224864   4.170   1.744  10.073  0.1638  0.1013  0.2916
 4410SOL     OW24865   2.821   1.802   2.700  0.3035 -0.1575  0.1935
 4410SOL    HW124866   2.869   1.723   2.724  0.5279  0.7061  2.6348
 4410SOL    HW224867   2.800   1.786   2.608 -0.0175 -2.0293  0.6006
 4411SOL     OW24868   0.052   2.409   2.671  0.3129 -0.0731 -0.6155
 4411SOL    HW124869   0.098   2.461   2.737  1.1655 -0.2034 -1.1104
 4411SOL    HW224870   0.024   2.331   2.718 -0.4229  0.8284  0.4447
 4412SOL     OW24871   3.466   3.083   2.757 -0.0386  0.0124  0.6779
 4412SOL    HW124872   3.465   3.024   2.681 -0.2563  0.8489  0.0235
 4412SOL    HW224873   3.426   3.162   2.720 -1.1038 -0.5479  0.6366
 4413SOL     OW24874   3.499   4.620   5.196  0.7015  0.3603 -0.2353
 4413SOL    HW124875   3.444   4.542   5.190 -0.2841  1.0180  0.3515
 4413SOL    HW224876   3.477   4.663   5.114 -0.1394 -1.8990 -1.1780
 4414SOL     OW24877   0.360   1.618   6.380  0.4854  0.1587 -0.2308
 4414SOL    HW124878   0.438   1.584   6.423 -1.1825  0.5251  3.0413
 4414SOL    HW224879   0.297   1.588   6.446 -0.1054 -0.2796 -0.9850
 4415SOL     OW24880   0.424   0.637  13.072 -0.2038 -0.1446 -0.0348
 4415SOL    HW124881   0.421   0.617  12.978 -3.1775  3.3455 -0.7083
 4415SOL    HW224882   0.509   0.601  13.096  0.1902  0.2289 -0.8799
 4416SOL     OW24883   3.472   0.369   7.918 -0.7606  0.7390 -0.7502
 4416SOL    HW124884   3.499   0.410   8.000 -0.8787  1.4285 -1.0567
 4416SOL    HW224885   3.531   0.405   7.852 -0.7604  2.0459 -0.0347
 4417SOL     OW24886   2.356   3.870   5.078  0.3451 -0.6943 -0.0181
 4417SOL    HW124887   2.266   3.885   5.048  0.2973  1.3306  1.1683
 4417SOL    HW224888   2.333   3.828   5.161 -1.5873 -1.6967 -1.0467
 4418SOL     OW24889   4.307   0.414   2.378  0.2777  0.3275  0.0024
 4418SOL    HW124890   4.338   0.411   2.288 -0.5321 -1.4016 -0.2178
 4418SOL    HW224891   4.311   0.508   2.397 -3.0986  0.5753 -0.4368
 4419SOL     OW24892   2.196   4.557   4.089  0.3952 -0.4425  0.0671
 4419SOL    HW124893   2.223   4.648   4.097  3.4312 -1.3405  0.2142
 4419SOL    HW224894   2.172   4.543   4.180 -1.9836 -2.1247 -0.8286
 4420SOL     OW24895   2.331   0.809   7.099 -0.5272  0.0603  0.0232
 4420SOL    HW124896   2.243   0.844   7.086 -0.7374 -0.6631 -0.5153
 4420SOL    HW224897   2.311   0.753   7.174  2.0710  0.3173  0.9268
 4421SOL     OW24898   1.420   4.401   3.152 -0.1815  0.0994  0.3849
 4421SOL    HW124899   1.327   4.380   3.149 -0.4765  1.3654  0.7542
 4421SOL    HW224900   1.419   4.445   3.236  0.9012  0.3309  0.2688
 4422SOL     OW24901   1.704   2.015  15.855  0.0058  0.4042 -0.7616
 4422SOL    HW124902   1.614   2.031  15.824 -0.4258  1.7939  1.2599
 4422SOL    HW224903   1.707   1.920  15.868 -0.9679  0.2021 -1.8618
 4423SOL     OW24904   2.669   2.761   8.673 -0.7124  0.0765  0.7369
 4423SOL    HW124905   2.635   2.709   8.600 -3.4334  1.9867  0.6306
 4423SOL    HW224906   2.747   2.807   8.641 -0.9071 -0.4933 -0.5425
 4424SOL     OW24907   2.320   0.562   0.188  0.3943 -0.7986  0.4801
 4424SOL    HW124908   2.363   0.507   0.123 -0.8009 -1.6667  0.4378
 4424SOL    HW224909   2.236   0.519   0.201 -1.2008  1.5970 -1.7797
 4425SOL     OW24910   2.075   2.973   4.469 -1.2123  0.3118  0.4547
 4425SOL    HW124911   2.065   2.895   4.414 -2.4443  0.4869  0.4127
 4425SOL    HW224912   1.992   2.971   4.516 -1.2232  2.3627  0.5054
 4426SOL     OW24913   2.830   0.916   6.989  0.6689 -0.2073 -0.3435
 4426SOL    HW124914   2.736   0.897   7.000  0.0021  3.5102  0.3182
 4426SOL    HW224915   2.833   0.961   6.904 -1.1469  2.1593  0.8566
 4427SOL     OW24916   0.593   0.911   6.682 -0.5850  0.1230 -0.5763
 4427SOL    HW124917   0.576   1.005   6.672  0.1508  0.5602  2.3851
 4427SOL    HW224918   0.540   0.896   6.760 -1.5327  0.0301 -1.2258
 4428SOL     OW24919   2.717   1.103   3.771 -0.4814  0.3566  0.7467
 4428SOL    HW124920   2.685   1.083   3.859 -1.2541  0.7691  0.5556
 4428SOL    HW224921   2.711   1.198   3.777  0.8885  0.5393 -0.6837
 4429SOL     OW24922   1.068   2.345   3.326  0.2499 -0.5828 -0.3338
 4429SOL    HW124923   1.037   2.387   3.245  2.1689  1.3332 -0.0782
 4429SOL    HW224924   1.045   2.409   3.394 -2.2919 -0.2329 -1.4909
 4430SOL     OW24925   2.041   0.333  11.793 -0.2315 -0.3861  0.0012
 4430SOL    HW124926   2.000   0.414  11.826  1.9985  1.3112 -1.3624
 4430SOL    HW224927   2.067   0.294  11.877  0.5363 -0.4845 -0.2804
 4431SOL     OW24928   3.362   0.003   8.561 -0.4521  0.2705 -0.2351
 4431SOL    HW124929   3.359   4.647   8.573 -1.9784  0.5510  1.4686
 4431SOL    HW224930   3.360   0.010   8.465  1.3013 -0.2293 -0.3134
 4432SOL     OW24931   0.217   3.032   8.488  0.0942  0.1677 -0.3305
 4432SOL    HW124932   0.178   3.034   8.576 -0.8398 -0.5525 -0.7192
 4432SOL    HW224933   0.269   3.112   8.494  0.1613  0.0633  0.5167
 4433SOL     OW24934   1.785   0.313   2.686 -0.4127  0.1049 -0.0025
 4433SOL    HW124935   1.727   0.318   2.762 -0.0167 -0.3943  0.3308
 4433SOL    HW224936   1.866   0.336   2.732  0.0262 -1.3859 -0.0376
 4434SOL     OW24937   4.268   0.937   3.502  0.5115 -0.3730 -0.5947
 4434SOL    HW124938   4.264   1.020   3.550  1.0640 -1.4277  1.2639
 4434SOL    HW224939   4.345   0.947   3.446  0.4428  2.3921 -0.2151
 4435SOL     OW24940   1.380   3.565   5.305  0.1099  0.3354 -0.4492
 4435SOL    HW124941   1.397   3.500   5.237  1.4455  0.8997 -0.6551
 4435SOL    HW224942   1.428   3.642   5.273  0.9343 -0.0650 -0.1910
 4436SOL     OW24943   1.648   4.353   1.875  0.5285  0.4100  0.0053
 4436SOL    HW124944   1.591   4.297   1.822 -0.0019  1.8808 -0.9827
 4436SOL    HW224945   1.715   4.373   1.810  1.1679  0.3612  0.6507
 4437SOL     OW24946   0.116   0.795   5.122 -0.0236 -0.0798 -0.4229
 4437SOL    HW124947   0.068   0.712   5.121 -0.0352 -0.0917  0.9978
 4437SOL    HW224948   0.090   0.838   5.040 -0.1172 -0.1274 -0.4188
 4438SOL     OW24949   0.715   2.904   1.297  0.0896  0.2591 -0.2030
 4438SOL    HW124950   0.747   2.863   1.377 -3.1369 -0.7889  0.5680
 4438SOL    HW224951   0.729   2.997   1.313  0.1319  0.3306 -0.6770
 4439SOL     OW24952   2.446   3.311   3.228  0.3757 -0.0038 -0.5780
 4439SOL    HW124953   2.356   3.296   3.200 -1.0622  2.9886  2.4332
 4439SOL    HW224954   2.488   3.244   3.174  0.3875 -0.1801 -0.3512
 4440SOL     OW24955   0.498   1.778   7.969 -0.3249 -0.4769  0.4860
 4440SOL    HW124956   0.522   1.706   8.027  0.1249 -1.0646 -0.4345
 4440SOL    HW224957   0.551   1.766   7.890 -2.2432 -0.7798 -0.7598
 4441SOL     OW24958   1.213   1.402   4.482 -0.0249  0.3943 -0.1057
 4441SOL    HW124959   1.170   1.347   4.415  0.6698  0.4974 -0.6413
 4441SOL    HW224960   1.303   1.371   4.483 -0.6284 -1.3998 -0.5267
 4442SOL     OW24961   2.946   1.467   3.010  0.0588 -0.4151  0.2632
 4442SOL    HW124962   2.902   1.387   2.981  1.1132 -0.8958 -0.0014
 4442SOL    HW224963   2.867   1.520   3.024  0.3327  0.2700 -0.8518
 4443SOL     OW24964   3.359   4.661   4.239 -0.1597  0.6782 -0.1106
 4443SOL    HW124965   3.385   4.573   4.212 -1.3316 -0.4652  2.5002
 4443SOL    HW224966   3.445   4.693   4.266  0.8442 -2.3545  0.3306
 4444SOL     OW24967   0.793   3.066  10.850  0.2813  0.0597 -0.5325
 4444SOL    HW124968   0.820   3.156  10.830  0.1136 -0.3246 -2.5593
 4444SOL    HW224969   0.798   3.064  10.945  0.2619  0.3162 -0.5264
 4445SOL     OW24970   1.834   1.143   3.026 -0.1324  0.3027 -0.0708
 4445SOL    HW124971   1.751   1.140   2.979 -0.6334  3.6805  0.6000
 4445SOL    HW224972   1.810   1.101   3.109  1.8081 -1.9618 -0.6568
 4446SOL     OW24973   1.571   0.937  12.119 -0.2597 -0.0463 -0.1552
 4446SOL    HW124974   1.609   1.023  12.102 -1.9486  1.3763  3.2423
 4446SOL    HW224975   1.576   0.919  12.213 -2.9492  1.1060  0.1997
 4447SOL     OW24976   0.709   4.618   6.291  0.5631 -0.0435  0.0209
 4447SOL    HW124977   0.643   4.616   6.222  0.2878  1.3409  0.2349
 4447SOL    HW224978   0.708   4.712   6.308 -0.5794  0.2575 -1.8513
 4448SOL     OW24979   2.222   2.923  16.943 -0.4259 -0.4592  0.0516
 4448SOL    HW124980   2.196   3.009  16.975  2.0088  0.4445 -0.4056
 4448SOL    HW224981   2.262   2.880  17.018 -0.0760 -0.0648  0.0902
 4449SOL     OW24982   0.569   1.896   3.774 -0.0976  0.2124 -0.3799
 4449SOL    HW124983   0.633   1.957   3.737 -0.7420  1.6914  0.9871
 4449SOL    HW224984   0.624   1.817   3.777  1.2868  1.3004  3.2804
 4450SOL     OW24985   3.053   0.535   9.817 -0.6794  0.2014 -0.5573
 4450SOL    HW124986   3.075   0.560   9.907 -1.5500  2.5311 -0.9975
 4450SOL    HW224987   3.060   0.620   9.774  0.1310 -0.2304 -1.2783
 4451SOL     OW24988   0.639   0.030   2.452 -1.1628 -0.0761  0.4017
 4451SOL    HW124989   0.564   0.090   2.447 -0.7141  0.3730 -0.7377
 4451SOL    HW224990   0.625   0.006   2.544  0.0579 -1.7206  0.1580
 4452SOL     OW24991   3.743   0.999   8.976  0.3652 -0.3255 -0.2904
 4452SOL    HW124992   3.771   1.085   9.007 -1.7596  0.4403 -0.5235
 4452SOL    HW224993   3.780   0.945   9.046 -0.2510 -0.7205 -0.2733
 4453SOL     OW24994   4.679   4.043   2.507  0.0505  1.1360  0.4223
 4453SOL    HW124995   4.730   4.019   2.585  0.2440  0.2158  0.0132
 4453SOL    HW224996   4.729   3.992   2.443 -1.4182  0.2266 -0.0072
 4454SOL     OW24997   2.723   0.531   2.642  0.3777 -0.2346 -1.3115
 4454SOL    HW124998   2.774   0.592   2.695  0.5098 -1.1430 -0.3708
 4454SOL    HW224999   2.711   0.579   2.561 -2.0603 -0.3194 -1.0120
 4455SOL     OW25000   0.941   1.731   2.542  0.1758  0.3245  0.0275
 4455SOL    HW125001   0.907   1.653   2.585 -1.3836  1.6491  1.2450
 4455SOL    HW225002   1.025   1.706   2.504  0.0350  0.3385 -0.2999
 4456SOL     OW25003   4.607   0.089   2.671 -0.1105 -0.3539 -0.8269
 4456SOL    HW125004   4.541   0.156   2.686  0.9118  0.3760  0.4086
 4456SOL    HW225005   4.578   0.043   2.593 -1.1339 -0.7991 -0.1772
 4457SOL     OW25006   0.751   1.074   1.364  0.3261 -0.5223  0.4393
 4457SOL    HW125007   0.757   1.149   1.423 -1.9998 -0.1789  0.2543
 4457SOL    HW225008   0.704   1.009   1.416 -0.5550 -1.5647 -1.6399
 4458SOL     OW25009   0.228   3.802   6.548 -0.5832  0.2926 -0.0242
 4458SOL    HW125010   0.282   3.733   6.585  1.4299  2.4650  1.0954
 4458SOL    HW225011   0.248   3.878   6.603 -1.5997  0.0797  0.6516
 4459SOL     OW25012   0.091   3.135   9.537  0.1737  0.0680  0.7142
 4459SOL    HW125013   0.016   3.195   9.539 -0.1212 -0.2745  0.0752
 4459SOL    HW225014   0.090   3.100   9.626 -0.7306  0.4610  0.8604
 4460SOL     OW25015   2.115   2.893  13.800 -0.0054  0.0414 -0.7714
 4460SOL    HW125016   2.185   2.835  13.830 -1.5083 -0.6083  1.4792
 4460SOL    HW225017   2.106   2.869  13.708  0.7085 -1.8212 -0.3444
 4461SOL     OW25018   2.274   2.598   5.465 -0.1523  0.3771 -0.4100
 4461SOL    HW125019   2.197   2.542   5.465 -0.0720  0.2678 -0.2426
 4461SOL    HW225020   2.254   2.639   5.381  0.6201 -0.6104 -1.0679
 4462SOL     OW25021   0.623   4.338   6.070 -0.1148 -0.0825 -0.0096
 4462SOL    HW125022   0.599   4.272   6.135 -0.6964  0.6417  0.5202
 4462SOL    HW225023   0.550   4.400   6.075  0.3521  0.3974  0.8510
 4463SOL     OW25024   4.356   1.840  17.631  0.5369  0.9179  0.3603
 4463SOL    HW125025   4.388   1.927  17.656  0.8663  0.7144  0.6445
 4463SOL    HW225026   4.393   1.798  17.709 -0.5290 -0.6764  0.0091
 4464SOL     OW25027   3.395   1.593   7.536 -0.5956 -0.0450  0.0790
 4464SOL    HW125028   3.438   1.595   7.621 -1.5217  2.1866  0.5120
 4464SOL    HW225029   3.439   1.519   7.494 -0.8485 -1.7521  2.8154
 4465SOL     OW25030   3.031   2.336   9.058  0.7138 -0.5645  0.1492
 4465SOL    HW125031   3.033   2.312   8.965  0.6264  0.1577 -0.0402
 4465SOL    HW225032   2.977   2.415   9.058 -0.0768 -1.1125 -2.3051
 4466SOL     OW25033   0.422   3.512   3.616 -0.1184  0.0381  0.1346
 4466SOL    HW125034   0.460   3.426   3.596  1.6056  1.2777 -1.9006
 4466SOL    HW225035   0.364   3.480   3.686  1.3410 -0.5246  1.0980
 4467SOL     OW25036   3.055   3.881  15.542 -0.1298  0.1122 -0.0648
 4467SOL    HW125037   3.147   3.853  15.543  0.0383  0.6876  0.8221
 4467SOL    HW225038   3.034   3.914  15.455  1.3251  2.0537  0.3285
 4468SOL     OW25039   3.353   2.090   2.351 -0.6414 -0.1299  0.0792
 4468SOL    HW125040   3.404   2.052   2.279 -1.0180  0.1865 -0.3516
 4468SOL    HW225041   3.380   2.180   2.333  0.0958  0.3459  3.3963
 4469SOL     OW25042   1.091   2.775   3.184  0.7245 -0.2456  0.3032
 4469SOL    HW125043   1.080   2.789   3.090 -0.0134  1.2494  0.6221
 4469SOL    HW225044   1.003   2.790   3.216 -0.1262 -2.4279 -1.0069
 4470SOL     OW25045   3.426   1.599  12.427 -0.4233 -0.2221 -0.1985
 4470SOL    HW125046   3.498   1.638  12.476 -1.2885  0.8270  0.2399
 4470SOL    HW225047   3.352   1.603  12.487  2.5137  0.6126  3.3249
 4471SOL     OW25048   3.474   2.336   2.595  0.4292  0.6900 -0.6715
 4471SOL    HW125049   3.561   2.297   2.589 -0.0678 -0.7434  1.5149
 4471SOL    HW225050   3.490   2.368   2.683 -1.4547  0.8522 -0.3792
 4472SOL     OW25051   2.546   1.284   2.241 -0.3660 -0.7742  0.2042
 4472SOL    HW125052   2.495   1.332   2.175  1.4015 -0.2677 -0.8016
 4472SOL    HW225053   2.594   1.217   2.193 -3.2076 -3.0924  0.6755
 4473SOL     OW25054   4.675   2.471   0.857 -0.3578  0.1103 -0.1830
 4473SOL    HW125055   4.630   2.391   0.883  1.1949 -1.0939 -1.2018
 4473SOL    HW225056   4.603   2.521   0.896 -1.5396 -1.8944  0.1964
 4474SOL     OW25057   4.265   4.381   0.973 -0.7867 -0.8803 -0.7186
 4474SOL    HW125058   4.197   4.415   1.031 -0.5750 -0.4332 -0.7331
 4474SOL    HW225059   4.322   4.453   0.945  1.3058 -1.6539  1.5986
 4475SOL     OW25060   1.082   2.119   6.314 -0.1578  0.7942 -0.3868
 4475SOL    HW125061   1.042   2.055   6.254  1.4607 -0.8346  0.2704
 4475SOL    HW225062   1.170   2.083   6.320 -0.4629 -0.3183 -2.5201
 4476SOL     OW25063   4.400   3.605   8.612 -0.1543  0.1588 -0.5398
 4476SOL    HW125064   4.349   3.621   8.692 -0.8027  0.7034 -1.0679
 4476SOL    HW225065   4.335   3.561   8.556  0.3585 -0.4214 -0.6858
 4477SOL     OW25066   0.298   2.519   4.617 -0.7470  0.7843 -0.0342
 4477SOL    HW125067   0.355   2.448   4.648 -0.6954  1.0409  0.4522
 4477SOL    HW225068   0.259   2.542   4.701 -1.2443  0.1229 -0.0806
 4478SOL     OW25069   2.864   0.542   5.881  0.0086  0.0389 -0.1730
 4478SOL    HW125070   2.906   0.470   5.835 -0.9803 -0.1411 -0.7852
 4478SOL    HW225071   2.907   0.611   5.831  1.7284 -0.8966  0.0156
 4479SOL     OW25072   1.959   2.434  11.844 -0.3964  0.1616 -0.3138
 4479SOL    HW125073   2.026   2.500  11.833  0.6531 -0.8734 -0.1036
 4479SOL    HW225074   1.983   2.396  11.929 -0.3812  0.2772 -0.2668
 4480SOL     OW25075   3.808   2.148   7.179 -0.1856 -0.0783  0.2249
 4480SOL    HW125076   3.899   2.143   7.208  0.4379 -0.3408 -1.7606
 4480SOL    HW225077   3.761   2.206   7.239 -0.4099  0.1803 -0.2025
 4481SOL     OW25078   2.441   0.373   2.057  0.4145 -0.0555 -0.1488
 4481SOL    HW125079   2.455   0.288   2.015 -0.5465 -0.3069  0.0300
 4481SOL    HW225080   2.433   0.431   1.982 -1.7902  1.2260  1.0621
 4482SOL     OW25081   2.070   0.822   0.643 -0.0359 -0.0922 -0.4687
 4482SOL    HW125082   2.076   0.777   0.728  0.1715  0.3736 -0.2376
 4482SOL    HW225083   2.154   0.866   0.644  0.2050 -0.5680  0.4169
 4483SOL     OW25084   3.911   2.965   5.123  0.2583 -0.1817  0.1031
 4483SOL    HW125085   3.833   2.923   5.088  0.8585 -2.2703  1.2708
 4483SOL    HW225086   3.930   2.897   5.188  0.7973 -0.1466 -0.0176
 4484SOL     OW25087   4.381   3.477   0.115 -0.0227  0.4932 -0.4999
 4484SOL    HW125088   4.291   3.472   0.148 -0.3640 -0.2223 -1.5453
 4484SOL    HW225089   4.415   3.397   0.154  1.0037 -0.0866 -2.5704
 4485SOL     OW25090   0.900   4.375  14.466  0.1775 -0.1895  0.4711
 4485SOL    HW125091   0.848   4.307  14.424  0.7182 -0.5893  0.4365
 4485SOL    HW225092   0.834   4.394  14.532 -0.5750  0.2518 -0.4054
 4486SOL     OW25093   2.161   3.327   5.917 -0.2535 -0.3144  0.7656
 4486SOL    HW125094   2.185   3.234   5.917  0.9205 -0.0242 -1.6024
 4486SOL    HW225095   2.069   3.325   5.891  0.3076  1.0058 -1.3637
 4487SOL     OW25096   1.699   4.385   6.541 -0.2807  0.2479 -0.3624
 4487SOL    HW125097   1.638   4.433   6.596 -1.4432  0.7543 -2.0834
 4487SOL    HW225098   1.688   4.441   6.464  4.7757  0.1374 -1.1650
 4488SOL     OW25099   3.103   0.987   7.804  0.5713 -0.0159  0.0599
 4488SOL    HW125100   3.087   1.071   7.847  0.3994  1.0107 -1.9916
 4488SOL    HW225101   3.198   0.985   7.795  0.5430 -3.0332  0.6791
 4489SOL     OW25102   4.154   3.427  11.714  0.0082  0.3398 -0.1503
 4489SOL    HW125103   4.141   3.336  11.740 -0.2314  1.0350  2.1311
 4489SOL    HW225104   4.248   3.426  11.694  0.3036  2.0450  1.1411
 4490SOL     OW25105   2.684   4.509   7.681  0.2498  0.3123 -0.2060
 4490SOL    HW125106   2.614   4.473   7.736  0.7261 -0.8027 -0.3406
 4490SOL    HW225107   2.675   4.457   7.602 -0.7352  0.3205 -0.0945
 4491SOL     OW25108   4.005   0.991   9.132  0.1099 -0.2341 -0.2419
 4491SOL    HW125109   3.992   1.077   9.094 -0.6345 -0.8172 -1.3098
 4491SOL    HW225110   3.950   1.003   9.210 -1.1790 -0.3181 -1.1295
 4492SOL     OW25111   4.043   2.679   9.320 -0.2536  0.1155  0.1753
 4492SOL    HW125112   4.033   2.746   9.253 -0.8869  0.5694  0.7217
 4492SOL    HW225113   3.949   2.657   9.327 -0.2212  0.1601  0.7822
 4493SOL     OW25114   3.967   4.700   2.805 -0.2228  0.8863  0.3615
 4493SOL    HW125115   3.939   4.673   2.893 -0.8213  1.6348  0.4044
 4493SOL    HW225116   3.897   0.012   2.764 -0.3847 -0.6135 -1.1993
 4494SOL     OW25117   1.357   2.655   1.908  0.4184  0.5474 -0.5145
 4494SOL    HW125118   1.357   2.595   1.833 -0.4783 -2.3449  1.7607
 4494SOL    HW225119   1.298   2.724   1.878  1.6246  1.5186 -0.6718
 4495SOL     OW25120   3.432   0.048  16.404  0.1687 -0.3596  0.2723
 4495SOL    HW125121   3.376   0.049  16.481  0.0585  0.4246  0.1842
 4495SOL    HW225122   3.374   0.071  16.331 -0.2044  1.3297  1.1162
 4496SOL     OW25123   2.956   1.165   2.071  0.2724  0.0323  0.0222
 4496SOL    HW125124   3.010   1.184   1.994  0.4366  0.3024  0.2010
 4496SOL    HW225125   3.030   1.143   2.127  0.9109 -0.3356 -0.9604
 4497SOL     OW25126   1.105   2.452  17.563  0.4289  0.1785  0.4432
 4497SOL    HW125127   1.137   2.524  17.508  2.0114  1.5417  3.1610
 4497SOL    HW225128   1.153   2.465  17.645  0.5720 -0.7898  0.5077
 4498SOL     OW25129   0.674   4.238   2.782 -0.2657  0.1481 -0.2415
 4498SOL    HW125130   0.605   4.192   2.735 -0.5377  1.0838 -0.7604
 4498SOL    HW225131   0.674   4.196   2.868 -1.0542 -0.3406 -0.4891
 4499SOL     OW25132   4.020   1.649   7.412  0.0599  0.8757  0.4288
 4499SOL    HW125133   4.014   1.741   7.388  0.7692  0.9743  0.6013
 4499SOL    HW225134   3.959   1.617   7.346  0.4582 -0.0159  0.4968
 4500SOL     OW25135   4.166   1.968  12.815 -0.6086 -0.3633 -0.2430
 4500SOL    HW125136   4.145   1.993  12.904  2.4820  0.9086  0.1534
 4500SOL    HW225137   4.158   2.056  12.776 -2.9707 -0.3444  0.3353
 4501SOL     OW25138   1.409   0.953   2.098  0.1958 -0.0427 -0.0449
 4501SOL    HW125139   1.459   0.938   2.179 -0.9648  1.6849  1.0006
 4501SOL    HW225140   1.413   1.049   2.098  1.9522 -0.1255 -0.2183
 4502SOL     OW25141   1.966   3.818  15.705 -0.2232 -0.2130 -0.1509
 4502SOL    HW125142   1.994   3.859  15.623 -2.6607 -2.0729 -1.9249
 4502SOL    HW225143   1.971   3.890  15.769 -2.7465  0.3254 -0.5418
 4503SOL     OW25144   3.613   0.113   7.984 -0.7146 -0.2437  0.5242
 4503SOL    HW125145   3.607   0.146   8.073  0.5902 -1.2230  0.9649
 4503SOL    HW225146   3.597   0.184   7.921 -0.4669 -0.3529  0.3343
 4504SOL     OW25147   3.256   0.210   8.094 -0.6281 -0.1505 -0.0488
 4504SOL    HW125148   3.274   0.117   8.084 -1.3399 -0.4476  1.4577
 4504SOL    HW225149   3.249   0.224   8.000 -1.3911  0.3684  0.0823
 4505SOL     OW25150   0.677   4.162   3.066 -0.7218  0.1342  0.2018
 4505SOL    HW125151   0.705   4.233   3.125  0.4932  0.1121 -0.3404
 4505SOL    HW225152   0.692   4.081   3.115  1.6163  0.7326  0.5095
 4506SOL     OW25153   1.052   0.866   7.881 -0.1920  0.2253  0.0923
 4506SOL    HW125154   1.063   0.781   7.838  0.6778  0.4494 -0.1347
 4506SOL    HW225155   1.061   0.938   7.819 -0.5187  1.5432  1.5648
 4507SOL     OW25156   0.833   2.621   1.922 -0.0347  0.5321  0.5133
 4507SOL    HW125157   0.900   2.567   1.964  0.5714  0.4965 -0.4988
 4507SOL    HW225158   0.835   2.583   1.834 -1.5476  3.2010 -0.6888
 4508SOL     OW25159   3.989   0.969  10.520 -0.1094 -0.2737 -0.4630
 4508SOL    HW125160   3.938   1.009  10.450  0.7475 -0.5237 -1.2362
 4508SOL    HW225161   4.049   0.910  10.473  0.9368  1.0924 -0.8647
 4509SOL     OW25162   2.132   1.532   8.052 -0.2131  0.3785 -0.0365
 4509SOL    HW125163   2.167   1.484   8.127 -2.9032  0.3312  1.1962
 4509SOL    HW225164   2.120   1.619   8.090  0.8390  0.9068 -0.9229
 4510SOL     OW25165   0.311   3.771   5.975  0.1057 -0.5000  0.2890
 4510SOL    HW125166   0.385   3.832   5.971 -0.9164  0.7072 -0.2450
 4510SOL    HW225167   0.241   3.829   6.005  0.1676  0.3585 -1.2267
 4511SOL     OW25168   1.651   2.755   9.386 -0.1268  0.2923  0.3343
 4511SOL    HW125169   1.729   2.778   9.436 -1.2957 -0.0360  2.3041
 4511SOL    HW225170   1.682   2.678   9.337  0.6554 -0.4896  2.0671
 4512SOL     OW25171   3.947   4.495  14.200  0.4852 -0.3351 -0.5761
 4512SOL    HW125172   4.035   4.467  14.226  0.9916  1.6028 -0.2680
 4512SOL    HW225173   3.966   4.515  14.108  0.2835 -1.3553 -0.8449
 4513SOL     OW25174   0.841   4.687   7.605 -0.2303  0.1300  0.0196
 4513SOL    HW125175   0.854   0.030   7.654 -1.1652 -0.0536  0.5727
 4513SOL    HW225176   0.798   4.627   7.665  0.1101 -0.4692 -0.3354
 4514SOL     OW25177   4.209   1.917  12.363 -0.1305  0.1070 -0.1329
 4514SOL    HW125178   4.206   2.005  12.401  1.5021 -0.4838  1.3373
 4514SOL    HW225179   4.242   1.866  12.437  2.0410  1.2057 -0.3416
 4515SOL     OW25180   2.419   0.726   1.573 -0.2003 -0.2381 -0.3764
 4515SOL    HW125181   2.497   0.716   1.520 -0.6889  0.7793 -1.2879
 4515SOL    HW225182   2.384   0.637   1.566  0.9566 -0.7388  0.2716
 4516SOL     OW25183   0.494   2.320  11.646  0.0109  0.4870 -0.2665
 4516SOL    HW125184   0.507   2.271  11.564  2.8525 -1.4805  1.3950
 4516SOL    HW225185   0.445   2.253  11.695  2.3415  0.1021  1.4869
 4517SOL     OW25186   0.156   3.920   4.946 -0.3039 -0.3230  0.5767
 4517SOL    HW125187   0.127   3.939   5.036 -1.5246 -2.0796  0.5396
 4517SOL    HW225188   0.251   3.927   4.959  0.1926 -1.3044 -2.7140
 4518SOL     OW25189   1.785   4.473   8.932 -0.0849 -0.0907 -0.2814
 4518SOL    HW125190   1.691   4.488   8.925  0.2159  0.3493 -3.2318
 4518SOL    HW225191   1.813   4.465   8.841 -0.0583  2.3569 -0.4670
 4519SOL     OW25192   2.930   2.522   1.625  0.2458  0.0968  0.1077
 4519SOL    HW125193   2.878   2.576   1.567 -2.2765 -0.2863  2.0034
 4519SOL    HW225194   3.007   2.491   1.578 -0.2006  0.0744 -0.6061
 4520SOL     OW25195   0.591   1.206   3.793 -0.1754  0.2666 -0.2731
 4520SOL    HW125196   0.516   1.151   3.771  0.4466 -0.6916  0.0229
 4520SOL    HW225197   0.559   1.291   3.762 -2.7317 -0.4524  0.3759
 4521SOL     OW25198   4.511   4.673   2.480  0.0425 -0.2942  0.4718
 4521SOL    HW125199   4.462   4.712   2.408 -2.3991 -1.1638  1.6430
 4521SOL    HW225200   4.441   4.617   2.513 -0.9795  0.9261  0.3930
 4522SOL     OW25201   2.085   1.746  10.835 -0.4892  0.4204  0.0923
 4522SOL    HW125202   2.035   1.709  10.761 -0.9839 -0.0004  0.6396
 4522SOL    HW225203   2.007   1.760  10.888 -0.0434 -0.8365  1.0722
 4523SOL     OW25204   3.184   4.256  15.902  0.4229  0.1001  0.0144
 4523SOL    HW125205   3.255   4.194  15.923  0.0326  0.4109  2.2623
 4523SOL    HW225206   3.195   4.314  15.977  2.3402  0.0197 -0.2149
 4524SOL     OW25207   3.935   0.368   6.451  0.5840  0.1028 -0.5525
 4524SOL    HW125208   3.945   0.355   6.545  1.1091  3.7001 -0.1154
 4524SOL    HW225209   3.840   0.379   6.447  0.7141  1.3991 -0.1383
 4525SOL     OW25210   0.433   3.909   4.402  0.1487  0.1004 -0.2670
 4525SOL    HW125211   0.482   3.991   4.395  1.0481 -0.1935  2.4863
 4525SOL    HW225212   0.493   3.858   4.457  0.1863  0.1332 -0.2771
 4526SOL     OW25213   0.439   3.897   9.165  0.0270 -0.5214 -0.3949
 4526SOL    HW125214   0.374   3.827   9.162 -3.0582  2.2052  2.6354
 4526SOL    HW225215   0.401   3.950   9.235  0.6892 -0.4030 -0.1175
 4527SOL     OW25216   2.428   4.193   3.624  0.3875  0.0820  0.3122
 4527SOL    HW125217   2.462   4.183   3.535 -2.0855  2.9989 -0.9695
 4527SOL    HW225218   2.333   4.190   3.610  0.4730 -0.2839 -0.1912
 4528SOL     OW25219   2.952   0.639   6.141  0.2310  0.6337 -0.7173
 4528SOL    HW125220   2.905   0.630   6.058  0.4825 -0.9845 -0.6945
 4528SOL    HW225221   2.872   0.655   6.192  0.2364  2.2001 -1.1995
 4529SOL     OW25222   2.892   2.744  11.006 -0.1624 -0.0538  0.3389
 4529SOL    HW125223   2.882   2.651  10.987 -1.6653  0.2716 -0.4505
 4529SOL    HW225224   2.811   2.783  10.973 -0.7599  0.9534  2.9666
 4530SOL     OW25225   4.652   4.107   3.755 -0.2362  0.4808 -0.1472
 4530SOL    HW125226   4.591   4.178   3.733  0.1035  0.1376 -2.2043
 4530SOL    HW225227   4.710   4.159   3.811  2.2615 -3.1284  0.5454
 4531SOL     OW25228   0.994   0.048   9.399  0.3312  0.0928 -0.0834
 4531SOL    HW125229   1.051   0.053   9.475  0.3283 -1.9502  0.0591
 4531SOL    HW225230   0.909   0.030   9.439  0.1644 -1.2467 -1.0217
 4532SOL     OW25231   4.041   1.310   3.320 -0.5884 -0.5640  0.0248
 4532SOL    HW125232   3.999   1.244   3.265 -0.9350 -0.0777 -0.2977
 4532SOL    HW225233   4.126   1.270   3.338 -1.5315 -1.9359  1.3806
 4533SOL     OW25234   2.637   2.003   2.744  0.3527 -0.5977 -0.3723
 4533SOL    HW125235   2.701   1.933   2.730  1.7154  0.7320 -0.8371
 4533SOL    HW225236   2.595   2.001   2.657 -0.4425  2.3784 -0.0619
 4534SOL     OW25237   2.395   3.774   4.450 -0.3781  0.0322  0.4770
 4534SOL    HW125238   2.452   3.699   4.466 -1.9421 -0.7086  2.6295
 4534SOL    HW225239   2.367   3.810   4.534  0.1299 -3.1242  1.9854
 4535SOL     OW25240   3.967   3.444   7.962 -0.0426 -0.1179 -0.2172
 4535SOL    HW125241   4.001   3.455   7.873 -1.8968  0.9512 -0.7973
 4535SOL    HW225242   3.897   3.386   7.932  0.2485 -0.5767 -0.0118
 4536SOL     OW25243   2.871   1.565  17.081 -0.0566 -0.0959  0.0614
 4536SOL    HW125244   2.818   1.489  17.106 -0.2439  0.0219  0.0226
 4536SOL    HW225245   2.920   1.584  17.161 -0.5137 -2.1144  0.8228
 4537SOL     OW25246   0.518   1.421  15.609 -0.8232  0.1203 -0.3364
 4537SOL    HW125247   0.435   1.394  15.649  0.5739 -0.4256  2.1539
 4537SOL    HW225248   0.538   1.353  15.544 -1.3170  1.7817 -2.2627
 4538SOL     OW25249   1.272   1.438   7.941  0.1644 -0.0198  0.5088
 4538SOL    HW125250   1.181   1.421   7.964  0.0063 -3.0817 -2.3643
 4538SOL    HW225251   1.292   1.519   7.987 -1.6790 -0.4231  2.0174
 4539SOL     OW25252   0.687   4.465  15.996  0.6631  0.6647 -0.4451
 4539SOL    HW125253   0.684   4.440  16.089 -0.3099  1.3487 -0.2869
 4539SOL    HW225254   0.595   4.466  15.968  0.4315 -0.9993  0.2959
 4540SOL     OW25255   3.967   3.661   5.655 -0.1802 -0.1038  0.1481
 4540SOL    HW125256   3.966   3.709   5.738 -0.8982 -1.9024  1.1840
 4540SOL    HW225257   4.016   3.587   5.692  1.8624  1.2415  0.1009
 4541SOL     OW25258   1.953   4.324   3.841  0.8593 -0.8650 -0.0794
 4541SOL    HW125259   1.994   4.267   3.906  2.4528 -1.6835 -1.8355
 4541SOL    HW225260   2.002   4.405   3.855 -0.5011 -0.3878  1.9973
 4542SOL     OW25261   2.338   3.977   6.168  0.1584  0.0405  0.1983
 4542SOL    HW125262   2.260   4.019   6.205  0.3203  1.7365 -1.4103
 4542SOL    HW225263   2.410   4.014   6.220  0.8676 -0.6311 -0.3087
 4543SOL     OW25264   2.713   3.639   9.567 -0.1360 -0.4551  0.1607
 4543SOL    HW125265   2.736   3.571   9.630  1.7277  0.0082 -0.0254
 4543SOL    HW225266   2.647   3.694   9.610 -0.0155  0.9230 -1.3926
 4544SOL     OW25267   1.723   1.484   4.008  0.1663  0.0090  0.1394
 4544SOL    HW125268   1.782   1.409   4.017  0.0582 -0.0681  0.1988
 4544SOL    HW225269   1.726   1.500   3.914 -1.6574 -1.5357 -0.1681
 4545SOL     OW25270   2.050   4.449   1.162  0.0856 -0.1074  0.4739
 4545SOL    HW125271   2.075   4.363   1.197  3.3960  0.4175 -0.6026
 4545SOL    HW225272   2.085   4.440   1.073 -1.5372 -0.6562 -0.0985
 4546SOL     OW25273   3.578   1.352  17.561  0.0228 -0.1544  0.1738
 4546SOL    HW125274   3.578   1.343  17.657 -0.6815 -1.8926  0.0059
 4546SOL    HW225275   3.519   1.427  17.556 -0.8076 -0.7129  1.5351
 4547SOL     OW25276   1.478   0.364   6.306 -0.2326  0.3235  0.1018
 4547SOL    HW125277   1.450   0.449   6.273  0.6593  0.1470 -1.1053
 4547SOL    HW225278   1.398   0.328   6.344 -0.6344  0.6442 -0.4424
 4548SOL     OW25279   1.345   3.679   8.958 -0.0190  0.0945 -0.0140
 4548SOL    HW125280   1.277   3.633   9.007  0.5471  1.4763  2.0750
 4548SOL    HW225281   1.383   3.739   9.022 -0.8663  1.2076 -0.5586
 4549SOL     OW25282   1.644   2.848   7.955 -0.2909 -0.2475 -0.7132
 4549SOL    HW125283   1.676   2.902   8.027 -1.4240 -0.3283 -0.1448
 4549SOL    HW225284   1.554   2.830   7.981 -0.0187 -0.4171  0.1215
 4550SOL     OW25285   4.662   0.614  11.260  0.2993  0.1560 -0.1010
 4550SOL    HW125286   4.680   0.522  11.281 -0.9353 -0.1914 -0.5808
 4550SOL    HW225287   4.657   0.658  11.345  0.2894 -1.9396  0.9820
 4551SOL     OW25288   1.895   3.838  10.155 -0.0673  0.2076  0.0013
 4551SOL    HW125289   1.956   3.829  10.227  1.6299  0.0392 -1.4501
 4551SOL    HW225290   1.860   3.749  10.162 -0.1285  0.4932  3.2577
 4552SOL     OW25291   4.491   0.605  10.047  0.1760 -0.1346  0.3555
 4552SOL    HW125292   4.550   0.668  10.089  1.2831 -2.0193  1.6554
 4552SOL    HW225293   4.402   0.639  10.056 -0.1272 -0.4246 -1.6547
 4553SOL     OW25294   3.326   2.607   2.928  0.0866  0.0729  0.0437
 4553SOL    HW125295   3.293   2.697   2.921  0.1985 -0.0085 -1.5870
 4553SOL    HW225296   3.392   2.613   2.859 -0.8458 -1.1064 -0.9398
 4554SOL     OW25297   0.463   1.425   1.453  0.4324  0.0882  0.1344
 4554SOL    HW125298   0.416   1.509   1.455 -1.3880 -0.9398  0.6487
 4554SOL    HW225299   0.481   1.426   1.359 -0.1686  0.0378  0.0175
 4555SOL     OW25300   3.326   0.064   5.585 -0.0959  0.3266  0.1601
 4555SOL    HW125301   3.288   0.147   5.616 -0.8900  1.2924 -3.3229
 4555SOL    HW225302   3.372   0.033   5.662 -1.1103 -0.7305  0.3488
 4556SOL     OW25303   3.493   3.420   8.914  0.7741  0.8289 -0.0482
 4556SOL    HW125304   3.587   3.411   8.930  1.0719  1.7777 -1.2386
 4556SOL    HW225305   3.491   3.371   8.832  0.8758  2.0141 -0.7585
 4557SOL     OW25306   2.062   3.433   0.939 -0.4038  0.0647 -0.2519
 4557SOL    HW125307   2.069   3.488   1.017  0.0398  0.8947 -0.8767
 4557SOL    HW225308   2.082   3.500   0.873  2.2395 -1.0091 -0.5396
 4558SOL     OW25309   3.923   3.471  11.245 -0.7697  0.3515  0.1489
 4558SOL    HW125310   3.960   3.414  11.177  2.2711  3.4808 -0.8202
 4558SOL    HW225311   3.975   3.431  11.316  0.6106  1.2986 -0.3318
 4559SOL     OW25312   0.683   1.152  11.788  0.3472 -0.8248  0.9722
 4559SOL    HW125313   0.636   1.135  11.870 -0.3275 -0.5352  0.6430
 4559SOL    HW225314   0.680   1.061  11.760  0.1907 -0.4776 -0.1442
 4560SOL     OW25315   3.412   1.981  12.744 -0.0032 -0.0114  0.4343
 4560SOL    HW125316   3.478   2.048  12.760 -1.0029  0.7704  1.3182
 4560SOL    HW225317   3.326   2.024  12.743  0.9850  1.8484 -2.3532
 4561SOL     OW25318   0.497   3.539  16.790 -0.4761 -0.0208  0.1648
 4561SOL    HW125319   0.423   3.502  16.743  0.3187  1.4162 -2.1901
 4561SOL    HW225320   0.574   3.490  16.761 -1.0304 -0.3021 -0.7989
 4562SOL     OW25321   2.541   2.998   9.667  0.1628 -0.3279 -0.4064
 4562SOL    HW125322   2.491   2.967   9.743  0.2442 -1.5981 -0.8699
 4562SOL    HW225323   2.544   2.916   9.619 -3.5332 -0.5963 -0.1913
 4563SOL     OW25324   2.866   1.956  12.519  0.0977 -0.1768  0.0775
 4563SOL    HW125325   2.902   2.044  12.521  1.4224 -0.7036 -0.1155
 4563SOL    HW225326   2.950   1.910  12.525 -0.1091 -0.2496  2.1607
 4564SOL     OW25327   1.789   2.943   4.562  0.2407  0.1900 -0.4356
 4564SOL    HW125328   1.828   2.863   4.597  0.3310  1.5862  2.6297
 4564SOL    HW225329   1.705   2.917   4.525 -0.2305  0.7846  0.2102
 4565SOL     OW25330   0.159   3.298  17.362 -0.1461 -0.0616 -0.2908
 4565SOL    HW125331   0.164   3.348  17.281  1.4228 -2.4537 -1.6582
 4565SOL    HW225332   0.082   3.344  17.398 -0.1581  0.6331 -1.2196
 4566SOL     OW25333   1.340   0.637  15.586  0.5863  0.1968  0.3874
 4566SOL    HW125334   1.429   0.667  15.600  0.0859  2.0191 -0.3075
 4566SOL    HW225335   1.288   0.708  15.625  0.7571  0.5581 -0.0391
 4567SOL     OW25336   1.023   4.387   5.372  0.1591 -0.0242  0.2303
 4567SOL    HW125337   1.041   4.300   5.408  2.9831  0.5978  0.3177
 4567SOL    HW225338   0.932   4.392   5.403  0.5652  0.3915  1.3365
 4568SOL     OW25339   1.906   2.327   4.777 -0.0439 -0.2131 -0.3717
 4568SOL    HW125340   1.857   2.246   4.791 -0.4311  0.0907  0.0331
 4568SOL    HW225341   1.908   2.334   4.682 -0.9944  0.8863 -0.3007
 4569SOL     OW25342   3.181   1.516   2.129  0.0986 -0.4563 -0.0188
 4569SOL    HW125343   3.197   1.595   2.181 -1.0515  1.0433 -1.9387
 4569SOL    HW225344   3.170   1.548   2.040 -1.9801  0.3301  0.5304
 4570SOL     OW25345   1.152   2.179   2.864  0.2530  0.1919 -0.3197
 4570SOL    HW125346   1.071   2.178   2.915 -0.8506 -0.1457 -2.0816
 4570SOL    HW225347   1.216   2.166   2.935 -1.0979 -0.4261  0.7840
 4571SOL     OW25348   0.297   4.037   7.772  0.5054  0.0127  0.1651
 4571SOL    HW125349   0.314   3.978   7.845 -1.1182 -1.3967 -0.6040
 4571SOL    HW225350   0.359   4.107   7.794 -0.4479  0.5570  1.0926
 4572SOL     OW25351   2.524   3.832   0.061  0.3989 -0.3836  0.7883
 4572SOL    HW125352   2.616   3.855   0.047  0.7979 -2.2880  0.2700
 4572SOL    HW225353   2.526   3.741   0.030 -2.6158  0.3762 -1.6287
 4573SOL     OW25354   3.428   3.329   2.569 -0.0603  0.1972  0.5339
 4573SOL    HW125355   3.521   3.340   2.587 -0.1596  1.8779  0.0544
 4573SOL    HW225356   3.426   3.280   2.486  2.1353  0.5263  0.2900
 4574SOL     OW25357   4.354   2.782   7.144 -0.0243 -0.0733 -0.5779
 4574SOL    HW125358   4.306   2.779   7.227  2.0898 -0.7166  0.6355
 4574SOL    HW225359   4.412   2.857   7.160 -0.2129  0.2729 -1.5790
 4575SOL     OW25360   4.042   2.956  15.679 -0.0954 -0.3800 -0.2294
 4575SOL    HW125361   4.087   2.878  15.648  3.2435  0.2894  3.0580
 4575SOL    HW225362   3.949   2.934  15.673  0.9143 -4.9613  1.4901
 4576SOL     OW25363   2.583   0.060  12.431 -0.0610 -0.1581 -0.4196
 4576SOL    HW125364   2.595   0.096  12.519 -1.6963 -0.7016  0.0256
 4576SOL    HW225365   2.488   0.050  12.433 -0.1367  0.5552 -0.7103
 4577SOL     OW25366   2.114   3.333  14.793 -0.7425 -0.4003 -0.7876
 4577SOL    HW125367   2.021   3.341  14.772 -0.5565  0.5095 -1.2672
 4577SOL    HW225368   2.121   3.290  14.879  0.3884  0.9173 -0.2240
 4578SOL     OW25369   4.400   0.856   5.040 -0.5949  0.5225  0.7204
 4578SOL    HW125370   4.309   0.830   5.056  0.1529 -1.4955  1.7201
 4578SOL    HW225371   4.387   0.923   4.974 -1.1092 -0.8584 -0.5799
 4579SOL     OW25372   1.636   1.124   3.926  0.0721 -0.5308 -0.3696
 4579SOL    HW125373   1.703   1.077   3.877 -0.4817  0.4041 -2.0281
 4579SOL    HW225374   1.694   1.186   3.971  0.3097 -1.4338  0.5451
 4580SOL     OW25375   2.090   1.628   2.279  0.4661  0.1602  0.6793
 4580SOL    HW125376   2.047   1.696   2.227 -0.4485 -1.0913 -0.2135
 4580SOL    HW225377   2.029   1.555   2.270 -1.3864  1.6223  1.1301
 4581SOL     OW25378   2.398   1.522   5.682 -0.0974  0.1060 -0.0598
 4581SOL    HW125379   2.385   1.449   5.622  0.9170  1.5149 -2.0001
 4581SOL    HW225380   2.423   1.477   5.762 -0.6198  0.1112  0.1056
 4582SOL     OW25381   3.176   3.575   7.616 -0.0177 -0.1162  0.1141
 4582SOL    HW125382   3.172   3.520   7.538  0.7845 -0.4423  0.3077
 4582SOL    HW225383   3.269   3.590   7.632 -0.4490  0.2543  2.2146
 4583SOL     OW25384   4.572   2.038   5.140 -0.4278 -0.0658  0.0420
 4583SOL    HW125385   4.530   1.958   5.107 -1.4985 -0.1600  1.6410
 4583SOL    HW225386   4.559   2.096   5.065  2.4579  1.7459  0.9666
 4584SOL     OW25387   2.455   0.688   6.471  0.1802  0.2163  0.5672
 4584SOL    HW125388   2.370   0.649   6.456  0.1803  0.6702 -0.6417
 4584SOL    HW225389   2.509   0.633   6.415  1.3917  0.0310  1.9117
 4585SOL     OW25390   0.381   2.470   8.530 -0.3647 -0.0385 -0.6265
 4585SOL    HW125391   0.455   2.487   8.587 -0.0079 -1.4382 -0.6570
 4585SOL    HW225392   0.361   2.558   8.500  1.8629  1.8618  3.5669
 4586SOL     OW25393   2.948   0.727   3.438 -0.2992 -1.0643  0.1634
 4586SOL    HW125394   2.865   0.679   3.440  0.0658 -1.6202  1.4519
 4586SOL    HW225395   2.990   0.694   3.517 -1.1477 -0.5774  0.8122
 4587SOL     OW25396   4.462   3.521  15.795 -0.0353  0.3785 -0.2988
 4587SOL    HW125397   4.400   3.546  15.727  1.9713  1.3552 -1.7530
 4587SOL    HW225398   4.455   3.426  15.803 -1.3533  0.2955 -2.7054
 4588SOL     OW25399   4.702   1.734   6.762 -0.5832  0.4246 -0.3181
 4588SOL    HW125400   4.686   1.733   6.667  0.2112 -2.3072 -0.4297
 4588SOL    HW225401   4.678   1.645   6.784 -1.2303  0.3591 -1.3029
 4589SOL     OW25402   0.712   1.192   8.846 -0.2128  0.1507  0.7442
 4589SOL    HW125403   0.705   1.115   8.789  1.5351 -0.1885  0.9904
 4589SOL    HW225404   0.671   1.262   8.795 -0.4467 -0.9844 -0.6452
 4590SOL     OW25405   0.897   4.386   4.559 -0.5485 -0.2245  0.9027
 4590SOL    HW125406   0.886   4.291   4.561 -1.1708 -0.1139  2.7124
 4590SOL    HW225407   0.988   4.387   4.587  0.2999 -0.0766 -1.8373
 4591SOL     OW25408   2.774   2.120  16.763 -0.6016  0.3209 -0.2326
 4591SOL    HW125409   2.710   2.144  16.696 -0.1316  1.7243 -0.1891
 4591SOL    HW225410   2.810   2.042  16.722 -0.8370 -0.6306  1.3864
 4592SOL     OW25411   0.781   0.215   5.864  0.2330  0.0455 -0.1061
 4592SOL    HW125412   0.756   0.136   5.816 -0.0467 -0.4250  0.8014
 4592SOL    HW225413   0.839   0.174   5.929  2.6259  3.0627 -0.3451
 4593SOL     OW25414   1.275   3.563   9.231 -0.1324 -0.3628 -0.1634
 4593SOL    HW125415   1.231   3.597   9.309  0.5154 -3.2865  1.4549
 4593SOL    HW225416   1.201   3.537   9.176 -0.6886  0.8280  0.0173
 4594SOL     OW25417   3.414   0.384  16.411 -0.1560  0.5179 -0.0194
 4594SOL    HW125418   3.409   0.359  16.319 -2.2555 -0.6352  0.4106
 4594SOL    HW225419   3.457   0.470  16.406  2.3041 -0.6529  0.7405
 4595SOL     OW25420   2.850   3.734   4.456 -0.5750 -0.0730 -0.0563
 4595SOL    HW125421   2.856   3.753   4.550  1.4805 -0.8405 -0.0255
 4595SOL    HW225422   2.801   3.812   4.431 -2.7688 -1.1742  0.8529
 4596SOL     OW25423   2.855   3.036   2.669  1.0244 -0.2584 -0.1789
 4596SOL    HW125424   2.935   2.994   2.701  0.7377  0.1185  1.0485
 4596SOL    HW225425   2.847   3.113   2.725  2.2424  1.0063 -1.7869
 4597SOL     OW25426   3.261   0.908   3.662  0.2326 -0.3163 -0.0923
 4597SOL    HW125427   3.247   1.002   3.649 -1.5136 -0.7672 -1.6405
 4597SOL    HW225428   3.286   0.879   3.574  0.4686 -1.1620  0.2474
 4598SOL     OW25429   4.661   4.193   6.381 -0.8033 -0.2852 -0.9394
 4598SOL    HW125430   4.721   4.255   6.340 -0.3291 -0.9202 -1.2081
 4598SOL    HW225431   4.619   4.153   6.304  0.8139 -4.4426  0.3545
 4599SOL     OW25432   1.185   1.864   3.620 -0.3934  0.0048 -0.6280
 4599SOL    HW125433   1.133   1.936   3.655  1.1304  1.2907 -1.0472
 4599SOL    HW225434   1.135   1.857   3.539 -1.7513 -0.8595  0.2894
 4600SOL     OW25435   1.328   1.276   5.136 -0.2752 -0.0216  0.3138
 4600SOL    HW125436   1.393   1.252   5.202 -1.5752 -0.3111  1.4725
 4600SOL    HW225437   1.247   1.240   5.171 -1.3124  2.5359  0.5046
 4601SOL     OW25438   2.913   3.059   4.788 -0.1531 -0.5280 -0.1493
 4601SOL    HW125439   2.852   3.101   4.849 -1.5488  0.9835 -2.5729
 4601SOL    HW225440   2.916   3.128   4.721  2.4395  0.6321  1.1317
 4602SOL     OW25441   3.723   3.804   4.252 -0.1223  0.2639  0.5103
 4602SOL    HW125442   3.756   3.890   4.277 -0.2873  0.4635  0.0380
 4602SOL    HW225443   3.681   3.780   4.335  0.8545  2.1572  1.5433
 4603SOL     OW25444   3.470   4.178  14.965 -0.2505 -0.4051 -0.0107
 4603SOL    HW125445   3.498   4.087  14.959  3.3611  0.8010 -0.9639
 4603SOL    HW225446   3.484   4.213  14.877 -0.3231  1.4465  0.7006
 4604SOL     OW25447   3.300   4.144   6.525 -0.3491  0.5745 -0.5014
 4604SOL    HW125448   3.286   4.204   6.452  1.1800  1.0911 -0.3853
 4604SOL    HW225449   3.325   4.071   6.469 -0.5728 -1.0079  1.4469
 4605SOL     OW25450   2.602   3.574   1.971 -0.3044  0.1977 -0.1855
 4605SOL    HW125451   2.523   3.572   2.026  1.2750  1.3835  2.1007
 4605SOL    HW225452   2.611   3.480   1.955  0.6039  0.3787 -0.6762
 4606SOL     OW25453   1.225   3.749   8.079 -0.4077 -0.1447 -0.4009
 4606SOL    HW125454   1.245   3.704   7.998 -0.4648  2.8027 -2.0726
 4606SOL    HW225455   1.302   3.722   8.129  0.4216 -0.0912 -1.6497
 4607SOL     OW25456   2.859   2.313   4.253  0.4137 -0.6508  0.2096
 4607SOL    HW125457   2.885   2.356   4.172  0.1330 -0.1044  0.4081
 4607SOL    HW225458   2.893   2.360   4.329 -0.1669  1.5132 -0.8652
 4608SOL     OW25459   3.618   1.054   9.672 -0.5506  0.3929  0.0381
 4608SOL    HW125460   3.523   1.047   9.678 -0.3037  0.1107  3.5898
 4608SOL    HW225461   3.642   0.978   9.619 -0.8668 -0.0581  0.5454
 4609SOL     OW25462   2.055   2.935   0.954 -0.1289  0.4002 -0.2314
 4609SOL    HW125463   2.093   2.849   0.939 -0.9752  0.3835 -2.2743
 4609SOL    HW225464   1.996   2.950   0.880  0.5977 -1.4464 -1.1693
 4610SOL     OW25465   4.549   2.593   5.547  0.0774  0.3734  0.2445
 4610SOL    HW125466   4.553   2.522   5.612 -1.1514  1.9625  2.0613
 4610SOL    HW225467   4.460   2.628   5.545  0.6228  1.5853 -2.0629
 4611SOL     OW25468   0.145   3.656   5.384  0.3019 -0.5805 -0.1299
 4611SOL    HW125469   0.094   3.727   5.343  1.1476  0.7433  1.0942
 4611SOL    HW225470   0.239   3.677   5.390  0.0648 -0.2043  2.0121
 4612SOL     OW25471   1.540   0.092   0.663  0.1916  0.3670 -0.4902
 4612SOL    HW125472   1.614   0.124   0.714 -1.5257 -1.0064  2.8708
 4612SOL    HW225473   1.565   0.125   0.577 -0.7111 -0.0126 -0.9020
 4613SOL     OW25474   3.348   1.018   3.987  0.4362  0.2930 -0.1706
 4613SOL    HW125475   3.408   0.947   3.964 -1.0709 -1.0815  0.1704
 4613SOL    HW225476   3.266   0.987   3.948  0.1040  2.0451 -0.9002
 4614SOL     OW25477   3.645   4.498   7.774 -0.0134 -0.2186  0.2775
 4614SOL    HW125478   3.624   4.502   7.867 -1.7568 -1.3523 -0.0618
 4614SOL    HW225479   3.660   4.404   7.760  0.6475 -0.0277 -0.3516
 4615SOL     OW25480   1.900   1.716   2.632  0.1090 -0.2197 -0.2670
 4615SOL    HW125481   1.976   1.710   2.691 -0.5248  4.0662  1.0612
 4615SOL    HW225482   1.925   1.752   2.547 -3.6716 -0.8800 -1.6337
 4616SOL     OW25483   3.396   0.408   4.857 -1.0796  0.0499 -0.5714
 4616SOL    HW125484   3.475   0.460   4.844 -0.8088 -0.0709  0.5820
 4616SOL    HW225485   3.423   0.323   4.821  2.4036  0.5211  0.9485
 4617SOL     OW25486   4.568   1.707   4.580  0.2971 -0.6816  0.4706
 4617SOL    HW125487   4.647   1.707   4.634 -2.1037 -0.5803  3.9918
 4617SOL    HW225488   4.581   1.615   4.556 -0.6133 -0.1005 -2.2922
 4618SOL     OW25489   1.146   1.281   6.191 -0.0182 -0.0685 -0.3138
 4618SOL    HW125490   1.189   1.196   6.181 -0.2120  0.0137 -1.8523
 4618SOL    HW225491   1.126   1.281   6.284 -0.3753  0.8376 -0.3899
 4619SOL     OW25492   3.165   4.420  16.094 -1.1800  0.0556  0.2386
 4619SOL    HW125493   3.156   4.480  16.020 -2.3383 -1.6540 -1.0196
 4619SOL    HW225494   3.153   4.477  16.169 -0.9556  0.8351 -0.3155
 4620SOL     OW25495   1.110   3.927   2.861 -0.2141  0.2505 -0.1283
 4620SOL    HW125496   1.051   4.002   2.863 -0.4769  0.0218  0.8205
 4620SOL    HW225497   1.067   3.887   2.937 -1.3110  0.0959 -0.8262
 4621SOL     OW25498   2.330   1.659  13.062  0.3608 -0.3844  0.1412
 4621SOL    HW125499   2.307   1.580  13.014  1.0995 -0.9635  0.7342
 4621SOL    HW225500   2.247   1.705  13.072  1.6285  2.1969 -1.3112
 4622SOL     OW25501   1.594   0.684   8.397 -0.4712  0.1176  0.1612
 4622SOL    HW125502   1.577   0.660   8.489  1.9032 -0.4533  0.4391
 4622SOL    HW225503   1.546   0.610   8.358  0.3392 -1.9969  3.1630
 4623SOL     OW25504   1.908   2.434  11.463 -0.5124  0.3734 -0.8033
 4623SOL    HW125505   1.851   2.392  11.528 -2.3957 -0.0527 -2.7331
 4623SOL    HW225506   1.987   2.397  11.503 -1.3244 -0.1022  0.3842
 4624SOL     OW25507   0.050   3.155   4.703 -0.3832 -0.0249 -0.3828
 4624SOL    HW125508   0.062   3.206   4.783 -0.3883 -2.3653  1.1154
 4624SOL    HW225509   4.711   3.102   4.721 -0.3255 -0.3043 -0.9465
 4625SOL     OW25510   2.490   4.658   8.087 -0.0932  0.1335 -0.2042
 4625SOL    HW125511   2.458   4.593   8.149  0.4605 -1.2551 -1.3691
 4625SOL    HW225512   2.434   4.734   8.104 -0.5485  0.1917 -1.9155
 4626SOL     OW25513   3.832   1.540   2.701  0.2500 -0.4541 -0.6661
 4626SOL    HW125514   3.745   1.552   2.664  1.0861 -1.8242 -3.0981
 4626SOL    HW225515   3.827   1.444   2.705 -0.7668 -0.3460  0.4668
 4627SOL     OW25516   4.047   0.816   7.513  0.1445 -0.0774 -0.0142
 4627SOL    HW125517   4.142   0.810   7.525  0.0575 -0.2269  0.6122
 4627SOL    HW225518   4.016   0.758   7.583  1.8660 -1.8114 -0.6987
 4628SOL     OW25519   1.641   3.636  13.522 -0.0863 -0.3775  0.1190
 4628SOL    HW125520   1.712   3.623  13.584 -0.1953 -2.6153 -0.2188
 4628SOL    HW225521   1.592   3.698  13.576  0.5412 -0.0546  0.3252
 4629SOL     OW25522   0.365   2.067   3.868  0.6614  0.0057 -0.6681
 4629SOL    HW125523   0.409   2.152   3.868  0.8937 -0.1139 -0.0083
 4629SOL    HW225524   0.438   2.004   3.864 -2.6524 -3.8765  0.5129
 4630SOL     OW25525   3.754   3.641   0.262  0.1953  0.0059  0.2361
 4630SOL    HW125526   3.775   3.699   0.335  1.2235  0.8103 -0.6926
 4630SOL    HW225527   3.680   3.590   0.295  0.6018 -0.9359 -0.2867
 4631SOL     OW25528   0.229   0.558   5.485 -0.5025  0.0685  0.2303
 4631SOL    HW125529   0.202   0.479   5.532 -0.4064 -1.0546 -1.5705
 4631SOL    HW225530   0.192   0.618   5.549  2.6915  0.6725  1.4985
 4632SOL     OW25531   1.332   3.154   7.204  0.2313 -0.2755 -0.4093
 4632SOL    HW125532   1.240   3.129   7.203  0.2930 -0.4922 -0.7843
 4632SOL    HW225533   1.370   3.095   7.139  0.0994  0.5474 -1.2316
 4633SOL     OW25534   0.767   2.330   5.844  0.1300 -0.1964 -0.2526
 4633SOL    HW125535   0.817   2.329   5.763 -1.8893 -0.1022 -1.5010
 4633SOL    HW225536   0.815   2.253   5.876  0.2037  0.1075  0.3661
 4634SOL     OW25537   3.615   0.749   7.626  0.0642  0.2988  0.2160
 4634SOL    HW125538   3.543   0.706   7.671  0.0852  0.0325 -0.0035
 4634SOL    HW225539   3.585   0.730   7.537  3.2327 -2.1022 -0.3480
 4635SOL     OW25540   0.865   2.403   9.023  0.1016  0.1557 -0.2308
 4635SOL    HW125541   0.796   2.413   8.958  0.2337 -0.2067 -0.4252
 4635SOL    HW225542   0.864   2.485   9.073 -1.8727 -0.1714  0.2463
 4636SOL     OW25543   2.870   4.630   7.048 -0.2197 -0.4468 -0.0941
 4636SOL    HW125544   2.856   4.553   7.102 -3.0728 -1.5687 -2.4412
 4636SOL    HW225545   2.861   4.700   7.112 -0.2839 -0.9717  0.4724
 4637SOL     OW25546   1.032   4.037  14.386  0.6565 -0.2487 -0.2181
 4637SOL    HW125547   1.023   4.009  14.295 -0.5510 -3.8683  0.9911
 4637SOL    HW225548   0.971   3.981  14.433 -1.5933  1.5552 -1.0091
 4638SOL     OW25549   2.285   4.006   6.782 -0.5995  0.3091  0.4129
 4638SOL    HW125550   2.293   4.046   6.696 -0.1903 -1.9793 -0.6145
 4638SOL    HW225551   2.206   3.951   6.780  1.2321 -2.3443  0.6458
 4639SOL     OW25552   4.372   4.050   4.883 -0.0237  0.4287 -0.1557
 4639SOL    HW125553   4.348   3.965   4.845  0.3018 -0.1134  0.8460
 4639SOL    HW225554   4.281   4.079   4.886  0.2034  0.9667  1.3338
 4640SOL     OW25555   2.644   4.594   8.742 -0.0718 -0.1971  0.5323
 4640SOL    HW125556   2.656   4.665   8.805  0.3867 -1.0605  1.4182
 4640SOL    HW225557   2.703   4.531   8.783 -1.8184 -1.9188  0.3843
 4641SOL     OW25558   1.817   2.729   3.168  0.4593 -0.8382 -0.2978
 4641SOL    HW125559   1.763   2.762   3.240  0.3483 -0.1067 -0.7065
 4641SOL    HW225560   1.760   2.655   3.148 -1.4083  1.1099 -2.1541
 4642SOL     OW25561   4.180   0.366   9.767  0.3472 -0.6235  0.4305
 4642SOL    HW125562   4.255   0.421   9.744 -0.1895 -0.1871 -0.2901
 4642SOL    HW225563   4.228   0.320   9.836 -0.2616  1.1193  1.9970
 4643SOL     OW25564   2.399   1.753   2.161 -0.4494 -0.4708  0.4374
 4643SOL    HW125565   2.316   1.800   2.169 -0.0893  0.4272 -0.9602
 4643SOL    HW225566   2.456   1.823   2.130 -2.8277  2.5987  3.1085
 4644SOL     OW25567   0.995   2.091  11.072 -0.0171  0.0085  0.4885
 4644SOL    HW125568   1.028   2.113  11.159  0.4148  1.5931 -0.0635
 4644SOL    HW225569   0.976   1.998  11.080  2.2872 -0.4620  0.4600
 4645SOL     OW25570   0.770   1.859   2.103 -0.5417 -0.5501 -0.3731
 4645SOL    HW125571   0.840   1.811   2.148 -1.5595 -0.6335  1.1204
 4645SOL    HW225572   0.701   1.793   2.103 -0.0969 -1.0079 -0.7835
 4646SOL     OW25573   3.180   2.612   0.999  0.0794 -0.0166 -0.5170
 4646SOL    HW125574   3.176   2.664   0.919 -0.4660  0.2105 -0.3408
 4646SOL    HW225575   3.204   2.522   0.974 -1.8019 -0.7108  0.2080
 4647SOL     OW25576   1.125   4.734   3.285 -0.6012 -0.2109 -0.1734
 4647SOL    HW125577   1.191   4.667   3.306 -1.4858 -1.1045 -0.2488
 4647SOL    HW225578   1.051   4.696   3.334 -1.1285 -0.0841 -0.8819
 4648SOL     OW25579   1.340   2.668   7.309  0.2385  0.4481 -0.3141
 4648SOL    HW125580   1.352   2.724   7.386 -0.8896 -2.1689  1.7838
 4648SOL    HW225581   1.247   2.643   7.311  0.7946 -1.5355  1.5400
 4649SOL     OW25582   2.539   1.736   8.669 -0.2860  0.3082 -0.1637
 4649SOL    HW125583   2.504   1.807   8.616  0.2204 -1.6585 -3.1235
 4649SOL    HW225584   2.617   1.781   8.702 -0.1719  1.3017 -1.7990
 4650SOL     OW25585   4.399   4.568  11.961  0.0991  0.0960 -0.3760
 4650SOL    HW125586   4.314   4.553  11.919  0.0768 -2.8424  0.7065
 4650SOL    HW225587   4.422   4.656  11.932 -0.0583  0.9166  1.9958
 4651SOL     OW25588   1.048   1.537   4.270 -0.0101  0.0825 -0.8788
 4651SOL    HW125589   1.006   1.452   4.279  1.0336 -0.2500  0.7876
 4651SOL    HW225590   1.109   1.546   4.342  1.2498  2.1288 -2.1758
 4652SOL     OW25591   4.461   4.540  12.212  0.0129  0.4120  0.3079
 4652SOL    HW125592   4.415   4.462  12.245  1.0460 -1.0895 -1.8209
 4652SOL    HW225593   4.422   4.539  12.125  0.7396 -2.4961  0.0188
 4653SOL     OW25594   3.861   2.912   5.868  0.0958  0.3942 -0.0492
 4653SOL    HW125595   3.849   3.004   5.844 -2.5984 -0.1604 -0.7855
 4653SOL    HW225596   3.923   2.880   5.803 -0.7162 -1.8216  0.2928
 4654SOL     OW25597   1.773   4.163   4.526  0.2501 -0.1639  0.0652
 4654SOL    HW125598   1.802   4.215   4.451 -0.8861 -0.8197 -0.8190
 4654SOL    HW225599   1.716   4.093   4.496 -1.2222  0.9541  0.2413
 4655SOL     OW25600   1.465   2.512   1.665  0.2841  0.0906 -0.0661
 4655SOL    HW125601   1.509   2.561   1.596  1.2833 -2.2566 -1.1048
 4655SOL    HW225602   1.429   2.431   1.628  1.5477 -1.5370  2.2163
 4656SOL     OW25603   1.952   1.378   2.305 -0.1927  0.0589  0.1807
 4656SOL    HW125604   1.882   1.348   2.363 -0.8609  1.9996  0.3816
 4656SOL    HW225605   2.023   1.315   2.315  1.6006  1.7140 -2.1696
 4657SOL     OW25606   4.302   1.864   5.305 -0.0649 -0.6554 -0.2811
 4657SOL    HW125607   4.334   1.870   5.215  0.7704  0.1835  0.0739
 4657SOL    HW225608   4.208   1.851   5.292 -0.0897 -2.0484  1.2316
 4658SOL     OW25609   3.033   1.858   9.318 -0.3939  0.1083  0.5777
 4658SOL    HW125610   2.966   1.863   9.386  0.1339  1.6660  0.9994
 4658SOL    HW225611   2.982   1.885   9.241  1.1622 -0.2188 -0.5720
 4659SOL     OW25612   2.337   0.968   0.639 -0.4843 -0.7778 -0.5479
 4659SOL    HW125613   2.376   0.914   0.570  0.5950  0.7052 -1.1150
 4659SOL    HW225614   2.298   1.045   0.597  3.2159  0.3459 -1.9675
 4660SOL     OW25615   2.575   1.219   4.804 -0.0335 -0.1886  0.4548
 4660SOL    HW125616   2.586   1.311   4.826  1.1296  0.5398 -3.2222
 4660SOL    HW225617   2.603   1.222   4.712  1.0442  1.6304  0.8563
 4661SOL     OW25618   3.475   4.584   0.760 -0.1031 -0.6004 -0.4316
 4661SOL    HW125619   3.380   4.589   0.775  0.0734  0.6800  0.2177
 4661SOL    HW225620   3.469   4.531   0.680  3.3294 -2.8294  0.8115
 4662SOL     OW25621   2.887   3.559   1.636 -0.3067 -0.1211 -0.0115
 4662SOL    HW125622   2.914   3.535   1.725  1.0646  0.4403 -0.2751
 4662SOL    HW225623   2.826   3.485   1.626  1.2088 -1.2286 -0.9004
 4663SOL     OW25624   0.309   3.916   0.639  0.3568  0.5040  0.4088
 4663SOL    HW125625   0.283   3.957   0.721 -1.0309 -0.6639  0.5416
 4663SOL    HW225626   0.228   3.867   0.627  0.3001  0.6682  0.1115
 4664SOL     OW25627   1.710   1.721   4.512 -0.0364 -0.1578 -0.0084
 4664SOL    HW125628   1.721   1.750   4.421  0.6181 -1.3509 -0.3104
 4664SOL    HW225629   1.640   1.776   4.549  1.1717  0.1551  1.8155
 4665SOL     OW25630   0.541   0.941   7.861 -0.5876  0.0672  0.1003
 4665SOL    HW125631   0.601   0.891   7.805  0.6768  0.2236  1.3066
 4665SOL    HW225632   0.494   0.875   7.912 -1.2980  0.5697  0.0989
 4666SOL     OW25633   4.284   0.132   8.469  0.1387  0.3870 -0.0505
 4666SOL    HW125634   4.324   0.128   8.556 -1.4322 -1.5482  0.5715
 4666SOL    HW225635   4.291   0.040   8.446  2.4517  0.3802  0.6697
 4667SOL     OW25636   3.391   1.742   6.780 -0.3048  0.5540  0.0787
 4667SOL    HW125637   3.443   1.820   6.800  0.9414 -0.4596  0.8356
 4667SOL    HW225638   3.448   1.697   6.717 -0.9725 -0.8078  0.4375
 4668SOL     OW25639   0.758   3.073  11.145  0.4266 -0.3361 -0.2613
 4668SOL    HW125640   0.705   3.152  11.151  0.4680 -0.3183 -0.1369
 4668SOL    HW225641   0.841   3.110  11.176  1.1234 -1.0590 -1.2538
 4669SOL     OW25642   1.687   2.082   4.177 -0.3161  0.4515 -0.4551
 4669SOL    HW125643   1.735   2.065   4.096 -1.9352 -0.2164 -1.2870
 4669SOL    HW225644   1.654   2.171   4.162  0.0773  0.0139 -4.0190
 4670SOL     OW25645   3.662   1.174   4.476 -0.3439 -0.4440 -0.3030
 4670SOL    HW125646   3.628   1.176   4.566  0.1517  1.4967 -0.1472
 4670SOL    HW225647   3.678   1.268   4.464  2.8396 -0.6981  1.9197
 4671SOL     OW25648   2.914   2.316   1.285  0.3834 -0.3471 -0.2615
 4671SOL    HW125649   3.003   2.308   1.319  0.5475 -3.5116 -1.4110
 4671SOL    HW225650   2.856   2.302   1.360 -0.7028  0.3879 -0.9647
 4672SOL     OW25651   0.659   3.019  14.976 -0.0948  0.5554  0.0039
 4672SOL    HW125652   0.745   3.000  14.938 -0.4718  1.0887 -1.0946
 4672SOL    HW225653   0.601   3.027  14.901  2.0371  0.4037 -1.6646
 4673SOL     OW25654   3.837   1.113   3.263  0.1319 -0.3630 -0.0905
 4673SOL    HW125655   3.767   1.074   3.316  1.3208 -1.3910  0.7219
 4673SOL    HW225656   3.828   1.061   3.183 -0.9192 -0.4924  0.1036
 4674SOL     OW25657   0.847   4.551  15.787 -0.4455 -0.1338  0.0445
 4674SOL    HW125658   0.767   4.593  15.820 -0.4316  1.5344 -2.0397
 4674SOL    HW225659   0.861   4.492  15.861  2.1615  0.9093  0.3769
 4675SOL     OW25660   4.032   1.015   8.027 -0.1729 -0.4964  0.1798
 4675SOL    HW125661   4.090   0.948   7.991  1.2508  0.5955  0.4575
 4675SOL    HW225662   3.957   0.962   8.053 -0.8572  0.9724  1.1523
 4676SOL     OW25663   0.790   0.552   7.304  0.1568  0.0770  0.2366
 4676SOL    HW125664   0.849   0.627   7.300  0.8999 -0.6713 -3.1603
 4676SOL    HW225665   0.846   0.477   7.280  0.9264  0.3720  1.1001
 4677SOL     OW25666   1.842   4.507  14.174 -0.3028 -0.0385  0.4353
 4677SOL    HW125667   1.798   4.585  14.208 -1.2488  0.4950 -2.0592
 4677SOL    HW225668   1.930   4.528  14.206 -0.3881 -0.1215  0.7216
 4678SOL     OW25669   3.867   4.507   3.536 -0.0225 -0.3897  0.1841
 4678SOL    HW125670   3.844   4.566   3.465 -0.0737 -2.5082 -1.5422
 4678SOL    HW225671   3.896   4.567   3.606  1.1801  0.5053 -1.0792
 4679SOL     OW25672   0.683   0.305   7.777  0.0534 -0.3448  0.4064
 4679SOL    HW125673   0.735   0.383   7.797  0.9402 -0.9121  0.2971
 4679SOL    HW225674   0.748   0.235   7.773  0.8863  0.3528  2.0203
 4680SOL     OW25675   0.012   0.769   4.434 -0.5355 -0.0999 -0.0070
 4680SOL    HW125676   0.005   0.845   4.376  0.1760  0.0764  0.1407
 4680SOL    HW225677   4.707   0.706   4.376 -0.4940 -0.8840  0.8242
 4681SOL     OW25678   3.117   0.608   8.572 -0.4882  0.6580 -0.4416
 4681SOL    HW125679   3.131   0.693   8.614 -0.2182  0.5161 -0.2389
 4681SOL    HW225680   3.094   0.641   8.486  0.8539  0.0143 -1.0439
 4682SOL     OW25681   3.492   2.311   2.180 -0.2756  0.2033 -0.0818
 4682SOL    HW125682   3.469   2.293   2.089  1.6508 -1.2090 -0.2936
 4682SOL    HW225683   3.482   2.406   2.185  1.0634  0.3697 -0.4910
 4683SOL     OW25684   2.869   4.451  14.918 -0.3279  0.1195  0.4463
 4683SOL    HW125685   2.940   4.425  14.977  0.7772  1.6328 -0.2170
 4683SOL    HW225686   2.918   4.448  14.835  0.6356 -2.9850  1.1258
 4684SOL     OW25687   4.036   0.415   2.326 -0.4495 -0.1106  0.4256
 4684SOL    HW125688   4.015   0.452   2.411  1.4840  0.2269  0.7461
 4684SOL    HW225689   4.127   0.395   2.346 -0.4742 -0.5540  0.1014
 4685SOL     OW25690   1.528   4.126  10.356 -0.2887  0.0604  0.6365
 4685SOL    HW125691   1.472   4.109  10.433 -2.8045 -1.0074 -1.4291
 4685SOL    HW225692   1.612   4.153  10.391  1.3726 -0.1042 -3.2635
 4686SOL     OW25693   2.372   1.265   5.559  0.1338  0.1576  0.4617
 4686SOL    HW125694   2.444   1.204   5.542 -0.6678 -0.7596  0.3904
 4686SOL    HW225695   2.290   1.216   5.556  0.4865 -0.4156  0.2309
 4687SOL     OW25696   2.421   3.943   2.040 -0.2847 -0.1591 -0.1941
 4687SOL    HW125697   2.442   3.894   1.961  0.9870 -1.0828  0.7269
 4687SOL    HW225698   2.373   4.013   1.996 -0.3857  0.7761  1.3880
 4688SOL     OW25699   0.446   1.147   5.404  0.1741  0.4955 -0.6387
 4688SOL    HW125700   0.417   1.086   5.337  2.2274 -1.3816  0.1579
 4688SOL    HW225701   0.388   1.222   5.396 -1.2299 -0.6921 -1.5814
 4689SOL     OW25702   3.787   1.003   2.995 -0.3379  0.0260  0.1127
 4689SOL    HW125703   3.713   0.953   3.031 -1.5901  1.6033 -0.3037
 4689SOL    HW225704   3.755   1.089   2.970 -0.4206 -0.2374 -0.6700
 4690SOL     OW25705   2.866   0.091  14.819 -0.7651  0.3153 -0.3439
 4690SOL    HW125706   2.771   0.087  14.830 -0.5388 -2.6206  0.4728
 4690SOL    HW225707   2.865   0.050  14.732 -1.5527 -0.3553 -0.0210
 4691SOL     OW25708   1.304   2.214   3.742 -0.3165 -0.4124 -0.5784
 4691SOL    HW125709   1.331   2.171   3.661  1.2329  1.1688 -0.8996
 4691SOL    HW225710   1.246   2.278   3.701 -0.0336  1.0937  1.3642
 4692SOL     OW25711   3.559   3.579   5.300  0.1361 -0.0848 -0.5177
 4692SOL    HW125712   3.604   3.591   5.384  0.7535 -0.7113 -0.7616
 4692SOL    HW225713   3.625   3.624   5.247 -0.2305  0.6901 -0.3136
 4693SOL     OW25714   4.025   2.286   0.499  0.7612  0.5594 -0.8058
 4693SOL    HW125715   4.052   2.194   0.499  1.1735  0.6925  2.5709
 4693SOL    HW225716   4.050   2.334   0.578  1.2664  0.5490 -0.9588
 4694SOL     OW25717   2.804   2.124   8.914 -0.7273 -0.4401 -0.1200
 4694SOL    HW125718   2.734   2.169   8.962 -0.1568  0.7582 -0.4146
 4694SOL    HW225719   2.863   2.195   8.888 -0.0476 -1.0357 -0.1703
 4695SOL     OW25720   3.666   3.763   9.494  0.1798  0.0844  0.0054
 4695SOL    HW125721   3.671   3.857   9.505 -1.2620  0.6717 -4.3229
 4695SOL    HW225722   3.620   3.728   9.571  1.1191 -0.7915  0.1663
 4696SOL     OW25723   4.050   0.770   9.710 -0.4496 -0.0228 -0.2579
 4696SOL    HW125724   3.978   0.719   9.674 -0.3222 -0.5869  0.2854
 4696SOL    HW225725   4.107   0.808   9.643  0.1651 -1.6684 -0.6597
 4697SOL     OW25726   3.150   4.649   3.001 -0.5369  0.0732 -0.1773
 4697SOL    HW125727   3.081   4.692   3.050  1.0900  1.2349  1.1110
 4697SOL    HW225728   3.163   4.574   3.059  2.0633 -0.2349 -1.1256
 4698SOL     OW25729   1.778   2.086   5.366  0.0231  0.2205  0.5525
 4698SOL    HW125730   1.838   2.012   5.363 -2.6929 -1.8718 -2.4108
 4698SOL    HW225731   1.827   2.157   5.324 -1.2830  1.0247  0.3823
 4699SOL     OW25732   3.665   1.859   5.586 -0.0204  0.2682 -0.4987
 4699SOL    HW125733   3.704   1.789   5.534 -1.4099 -0.0641 -1.0795
 4699SOL    HW225734   3.622   1.808   5.655 -0.5170 -0.3930 -1.3100
 4700SOL     OW25735   0.276   4.525   8.980  0.0157  0.3379 -0.6172
 4700SOL    HW125736   0.191   4.541   9.022  0.3193  1.2457 -0.3334
 4700SOL    HW225737   0.287   4.596   8.917  3.1812  1.1360  0.8280
 4701SOL     OW25738   1.728   1.129  12.596 -0.2426  0.0122  0.2723
 4701SOL    HW125739   1.650   1.103  12.645 -1.7790  1.5991 -1.3385
 4701SOL    HW225740   1.722   1.224  12.599  0.2092 -0.0154  1.6954
 4702SOL     OW25741   1.147   3.705   6.911  0.0840  0.2890 -0.2005
 4702SOL    HW125742   1.083   3.637   6.933  2.8192 -1.6992  1.5377
 4702SOL    HW225743   1.175   3.745   6.993  1.7248  0.0762 -0.6632
 4703SOL     OW25744   3.716   2.860   1.577  0.4465  0.3339  0.3199
 4703SOL    HW125745   3.651   2.893   1.639  2.1346  0.4877  2.0121
 4703SOL    HW225746   3.793   2.915   1.593  0.1872  1.2253 -1.4896
 4704SOL     OW25747   4.677   3.130   0.086  0.0965  0.1213  0.1258
 4704SOL    HW125748   4.713   3.118  17.750  0.9875  1.9985  0.2333
 4704SOL    HW225749   4.628   3.049   0.092  0.6000 -0.1507  0.5465
 4705SOL     OW25750   3.224   3.679   3.125  0.5021 -0.5479 -0.5717
 4705SOL    HW125751   3.222   3.656   3.218  0.0738  0.5496 -0.3109
 4705SOL    HW225752   3.213   3.774   3.127 -0.5684 -0.6637 -0.6845
 4706SOL     OW25753   2.918   4.131   6.059 -0.1301  0.0550  0.1369
 4706SOL    HW125754   2.850   4.199   6.061 -0.8180 -0.6406  0.9355
 4706SOL    HW225755   2.872   4.070   6.117 -0.0395  0.1005  0.2553
 4707SOL     OW25756   2.795   2.186   5.222  0.1958 -0.8575  0.5845
 4707SOL    HW125757   2.713   2.136   5.220  0.3903 -1.1564  0.0146
 4707SOL    HW225758   2.863   2.119   5.224  2.2126  1.1888  0.4822
 4708SOL     OW25759   1.253   2.578   5.151  0.2983  0.0012  0.2527
 4708SOL    HW125760   1.270   2.503   5.094  0.8597  1.5796 -1.6690
 4708SOL    HW225761   1.342   2.593   5.184  0.4472 -1.4968  0.5409
 4709SOL     OW25762   2.212   1.820   8.626  0.1310  0.1322 -0.1985
 4709SOL    HW125763   2.288   1.876   8.610 -2.7439  3.7425 -1.0071
 4709SOL    HW225764   2.237   1.790   8.714  0.1530 -0.3489 -0.3684
 4710SOL     OW25765   4.544   0.546   5.893 -0.4914  0.1595  0.6129
 4710SOL    HW125766   4.521   0.518   5.981  0.2680  2.6596  1.6240
 4710SOL    HW225767   4.555   0.640   5.909 -3.3082  0.4779  0.7034
 4711SOL     OW25768   0.445   2.632  17.431  0.3892  0.3243 -0.4518
 4711SOL    HW125769   0.426   2.709  17.484 -0.1779  0.3658 -0.7160
 4711SOL    HW225770   0.357   2.596  17.419  0.7614 -0.8494  0.3335
 4712SOL     OW25771   4.110   1.266   9.188  0.0355 -0.2574  0.1067
 4712SOL    HW125772   4.094   1.354   9.222  0.1453  0.2774 -1.2059
 4712SOL    HW225773   4.188   1.292   9.139  0.4630 -1.0894  0.3471
 4713SOL     OW25774   3.862   0.437  17.353  0.0808 -0.4703 -0.5780
 4713SOL    HW125775   3.926   0.433  17.424 -0.1287 -0.9760 -0.4226
 4713SOL    HW225776   3.841   0.529  17.336  1.4715 -0.1026 -0.2912
 4714SOL     OW25777   4.489   2.123   6.432 -0.1083 -0.7100 -0.1519
 4714SOL    HW125778   4.408   2.137   6.383  0.5686  0.8888 -0.8144
 4714SOL    HW225779   4.555   2.153   6.370  3.3815 -1.8740  2.9944
 4715SOL     OW25780   1.336   4.297   6.689  0.0109  0.3838 -0.0105
 4715SOL    HW125781   1.315   4.386   6.717  1.7127  0.1808  1.9308
 4715SOL    HW225782   1.286   4.298   6.607 -1.3258  1.3226  0.8195
 4716SOL     OW25783   2.543   2.455   9.351  0.4443  0.0648  0.7836
 4716SOL    HW125784   2.477   2.399   9.392  0.3777 -2.0998 -2.2478
 4716SOL    HW225785   2.510   2.487   9.268  0.7478  0.0398  0.6531
 4717SOL     OW25786   1.199   1.183   1.776  0.1236  0.0267 -0.4514
 4717SOL    HW125787   1.223   1.131   1.700 -0.3983 -0.7669 -0.0744
 4717SOL    HW225788   1.146   1.257   1.745  1.9053  0.2988 -2.8757
 4718SOL     OW25789   1.348   1.471   1.543 -0.7806  0.4605 -0.6600
 4718SOL    HW125790   1.403   1.426   1.479 -0.1746  1.6376 -0.9695
 4718SOL    HW225791   1.293   1.533   1.495 -1.7762  0.3464  0.3306
 4719SOL     OW25792   2.682   3.719   7.929 -0.2031 -0.1512  0.4149
 4719SOL    HW125793   2.608   3.759   7.883  0.4005 -0.2468 -0.6481
 4719SOL    HW225794   2.629   3.667   7.989  0.2198  0.8210  1.6231
 4720SOL     OW25795   3.823   2.672   6.041 -0.1662 -0.7013 -0.2819
 4720SOL    HW125796   3.838   2.696   6.132 -0.1698 -1.4594 -0.0796
 4720SOL    HW225797   3.854   2.746   5.987  0.0138 -1.2552 -0.9453
 4721SOL     OW25798   0.818   4.335   5.892 -0.1562  0.9108 -0.2487
 4721SOL    HW125799   0.879   4.348   5.964 -1.7771 -1.3820  1.5372
 4721SOL    HW225800   0.739   4.335   5.945  0.1752 -0.1296  0.2505
 4722SOL     OW25801   3.131   2.621   7.784 -0.5779 -0.6408 -0.1525
 4722SOL    HW125802   3.139   2.555   7.716  0.4227  1.5357 -2.1190
 4722SOL    HW225803   3.071   2.683   7.742 -0.4641  1.5115  2.8242
 4723SOL     OW25804   3.416   4.013  11.858 -0.1369 -0.4182  0.1136
 4723SOL    HW125805   3.372   3.955  11.796 -0.5434 -2.0072  1.8819
 4723SOL    HW225806   3.393   4.097  11.817  1.0146 -0.4671 -0.6369
 4724SOL     OW25807   1.973   0.509   6.473 -0.0285  0.1921  0.2312
 4724SOL    HW125808   1.904   0.571   6.498  0.5755  1.0065 -0.1328
 4724SOL    HW225809   1.920   0.437   6.439  0.9342 -0.4474  0.0776
 4725SOL     OW25810   0.160   0.046   4.991 -0.4634  0.0404 -0.4374
 4725SOL    HW125811   0.202   0.063   5.075 -0.5111 -0.1729 -0.3719
 4725SOL    HW225812   0.124   4.698   5.008 -0.6487 -0.0397 -1.1964
 4726SOL     OW25813   0.008   0.561   1.957 -0.2902  0.0128  0.0154
 4726SOL    HW125814   0.062   0.562   1.878  1.4576  2.2500  1.2237
 4726SOL    HW225815   4.691   0.485   1.942  0.8532 -0.5083 -1.6630
 4727SOL     OW25816   4.690   2.060   2.149 -0.0474 -0.4163  0.5269
 4727SOL    HW125817   4.723   2.149   2.163 -1.8003 -0.1352  2.9033
 4727SOL    HW225818   4.694   2.041   2.056 -2.0258  1.2000  0.0864
 4728SOL     OW25819   3.932   3.586   9.196  0.4910  0.1581 -0.1798
 4728SOL    HW125820   4.010   3.588   9.140  0.8899 -2.3849  0.2657
 4728SOL    HW225821   3.883   3.667   9.189 -0.5397 -0.5640 -1.3015
 4729SOL     OW25822   0.607   1.019   2.987  0.6151 -0.1558 -0.3215
 4729SOL    HW125823   0.566   1.087   3.041 -1.5843 -1.1040 -0.7765
 4729SOL    HW225824   0.530   1.003   2.932 -1.7809  0.4675  2.8364
 4730SOL     OW25825   3.177   4.272   0.472 -0.3873 -0.4082 -0.0894
 4730SOL    HW125826   3.189   4.232   0.386 -1.1064  1.4134 -1.0362
 4730SOL    HW225827   3.143   4.361   0.464 -1.1798 -0.6231  0.8541
 4731SOL     OW25828   3.313   3.110   2.266  0.3064 -0.2315  0.0395
 4731SOL    HW125829   3.287   3.060   2.343  2.5539 -0.3965  0.7003
 4731SOL    HW225830   3.234   3.160   2.248 -1.9428 -3.0780  2.1489
 4732SOL     OW25831   0.892   1.989   8.583 -0.4263 -0.3965  0.7622
 4732SOL    HW125832   0.891   2.074   8.627 -4.3784  0.7905 -1.6106
 4732SOL    HW225833   0.823   1.944   8.631 -0.5902 -0.9905 -0.0272
 4733SOL     OW25834   0.649   0.117  13.965  0.0800 -0.8020 -0.2579
 4733SOL    HW125835   0.734   0.074  13.956  1.2724  1.2692  1.2438
 4733SOL    HW225836   0.682   0.207  13.970  0.7878 -1.0086 -1.1264
 4734SOL     OW25837   1.529   1.945   5.335  0.2194 -0.3704  0.0704
 4734SOL    HW125838   1.573   1.861   5.320  0.6260  0.0365 -0.9872
 4734SOL    HW225839   1.609   1.994   5.352  1.5454 -2.1130 -1.2497
 4735SOL     OW25840   4.378   3.440  12.888 -0.1898 -0.1022  0.2434
 4735SOL    HW125841   4.394   3.440  12.983  0.2869  0.3907  0.1629
 4735SOL    HW225842   4.460   3.399  12.859 -0.4349 -1.3371  1.3040
 4736SOL     OW25843   4.420   1.855   5.031 -0.1407 -0.1309 -0.3210
 4736SOL    HW125844   4.471   1.775   5.019 -0.7122 -0.5861  0.2221
 4736SOL    HW225845   4.386   1.865   4.943 -0.7006  0.0053 -0.0884
 4737SOL     OW25846   0.298   3.836  13.080  0.0553  0.0596  0.8123
 4737SOL    HW125847   0.357   3.902  13.118  1.5202 -0.0764 -1.2316
 4737SOL    HW225848   0.338   3.755  13.112 -0.8530 -0.7022  0.0087
 4738SOL     OW25849   0.645   0.838   1.482  0.5808  0.1609  0.5268
 4738SOL    HW125850   0.654   0.744   1.467 -2.5330 -0.1994  0.9191
 4738SOL    HW225851   0.553   0.841   1.509  0.3545 -0.2981 -0.1804
 4739SOL     OW25852   2.567   4.374  11.386 -0.8045  0.2878 -0.5228
 4739SOL    HW125853   2.575   4.363  11.481 -1.0137  3.0960 -0.1593
 4739SOL    HW225854   2.484   4.422  11.385 -1.3011 -0.5543  1.4086
 4740SOL     OW25855   0.039   4.204   0.284  0.9006  0.3220 -0.1961
 4740SOL    HW125856   4.715   4.132   0.278  1.8289 -0.5100  0.0664
 4740SOL    HW225857   0.043   4.247   0.199  2.3851 -0.8656 -0.7101
 4741SOL     OW25858   2.063   3.403   0.666 -0.4586 -0.0765 -0.2641
 4741SOL    HW125859   2.072   3.495   0.691 -2.2240 -0.0513  0.3006
 4741SOL    HW225860   2.093   3.356   0.743 -1.2523  0.0746  0.1320
 4742SOL     OW25861   3.652   4.609   4.575 -0.2206  0.4082  0.1022
 4742SOL    HW125862   3.704   4.684   4.604 -0.0822 -0.2607  1.5896
 4742SOL    HW225863   3.667   4.561   4.656 -1.3812 -0.9007 -0.4570
 4743SOL     OW25864   4.210   0.344   3.903  0.1436 -0.5104 -0.9549
 4743SOL    HW125865   4.193   0.379   3.815 -2.7103 -0.4158 -0.3502
 4743SOL    HW225866   4.277   0.405   3.933  1.0004 -2.6733  1.4650
 4744SOL     OW25867   1.554   2.794   3.919 -0.0808  0.1560  0.2682
 4744SOL    HW125868   1.579   2.859   3.854  0.6278  0.8975  1.2780
 4744SOL    HW225869   1.489   2.838   3.973 -1.4756 -0.7344 -0.6987
 4745SOL     OW25870   1.833   3.136   5.402  0.0956  0.1658  0.1086
 4745SOL    HW125871   1.751   3.104   5.440  1.2105 -1.2219  1.3609
 4745SOL    HW225872   1.888   3.059   5.415 -2.4552 -2.1821 -2.7904
 4746SOL     OW25873   2.352   0.656   6.870 -0.2266  0.2773  0.1470
 4746SOL    HW125874   2.346   0.700   6.955  2.5103 -3.7035  2.4111
 4746SOL    HW225875   2.400   0.575   6.889  0.2856  1.0143  1.9968
 4747SOL     OW25876   1.344   3.345   5.124 -0.2021 -0.7537 -0.1133
 4747SOL    HW125877   1.411   3.297   5.075  0.2362  0.8820 -1.1024
 4747SOL    HW225878   1.313   3.287   5.193  1.3357 -0.2796  0.9635
 4748SOL     OW25879   4.249   2.721   9.524  0.5629 -0.0884 -0.3191
 4748SOL    HW125880   4.190   2.680   9.588 -0.0380  1.1736 -0.0669
 4748SOL    HW225881   4.196   2.708   9.446 -2.6336 -1.2109  1.9979
 4749SOL     OW25882   0.060   0.752   1.308 -0.6804  0.2064  0.1040
 4749SOL    HW125883   0.077   0.845   1.323 -0.7327  0.3009 -0.4445
 4749SOL    HW225884   4.714   0.766   1.267  0.3325  0.7729 -1.8013
 4750SOL     OW25885   3.852   0.398   7.585  0.1345  0.4743 -0.3780
 4750SOL    HW125886   3.765   0.394   7.626 -0.5344 -1.0318 -1.9692
 4750SOL    HW225887   3.887   0.322   7.630  0.7579  0.4360 -0.9369
 4751SOL     OW25888   0.584   3.741   6.158 -0.1986 -0.1636 -0.0579
 4751SOL    HW125889   0.669   3.713   6.193  0.4648 -0.2519 -1.7185
 4751SOL    HW225890   0.542   3.780   6.234 -1.8494 -0.9704 -0.5479
 4752SOL     OW25891   4.341   3.035  12.589  0.8086  0.8552 -0.1525
 4752SOL    HW125892   4.279   3.107  12.599 -1.5122 -1.2195  0.3239
 4752SOL    HW225893   4.423   3.085  12.584  1.7716 -0.6972  0.3964
 4753SOL     OW25894   2.076   1.036   8.351 -0.6649 -0.3673  0.1470
 4753SOL    HW125895   2.017   1.033   8.275 -1.1597  2.3576  0.4236
 4753SOL    HW225896   2.030   0.973   8.406 -1.1453  1.8533  2.2482
 4754SOL     OW25897   4.663   1.931   9.428  0.0251 -0.0095 -0.5357
 4754SOL    HW125898   4.689   1.880   9.351  1.7389 -0.3848  0.2762
 4754SOL    HW225899   0.010   1.969   9.446 -0.3303 -0.4940  2.2537
 4755SOL     OW25900   4.068   3.243   3.925 -0.2949  0.4147  0.1088
 4755SOL    HW125901   4.056   3.208   4.013 -1.2484 -0.6466 -0.4365
 4755SOL    HW225902   4.161   3.228   3.909 -0.7382 -0.9757 -1.2080
 4756SOL     OW25903   3.052   2.357   6.537 -0.5987 -0.0105 -1.3686
 4756SOL    HW125904   3.033   2.315   6.453 -1.8345 -2.3648  0.0805
 4756SOL    HW225905   2.970   2.405   6.531 -1.0758 -0.7933 -1.0561
 4757SOL     OW25906   1.579   1.752   6.573 -0.0668 -0.0523  0.1144
 4757SOL    HW125907   1.552   1.684   6.512 -1.9858 -1.7958  2.9532
 4757SOL    HW225908   1.611   1.695   6.643 -0.0091  0.1311  0.2388
 4758SOL     OW25909   2.489   1.592  10.647 -0.0895 -0.0767 -0.2210
 4758SOL    HW125910   2.568   1.572  10.696  0.2016 -2.2594 -1.6016
 4758SOL    HW225911   2.417   1.574  10.707  0.8451 -1.1086  0.5801
 4759SOL     OW25912   2.006   2.463   3.567 -0.0768  0.1316  0.2042
 4759SOL    HW125913   2.029   2.523   3.496  1.1708 -0.8105 -0.2000
 4759SOL    HW225914   2.020   2.377   3.527 -1.0808 -0.4166  1.0190
 4760SOL     OW25915   2.499   0.883   6.264 -0.5779  0.1678 -0.4615
 4760SOL    HW125916   2.461   0.823   6.201 -0.0883 -1.1606  0.4896
 4760SOL    HW225917   2.481   0.841   6.348 -0.8717  2.1815  0.4766
 4761SOL     OW25918   0.411   3.316   2.457  0.0420  0.2618 -0.0351
 4761SOL    HW125919   0.381   3.349   2.372  1.2795  0.9020 -0.2241
 4761SOL    HW225920   0.468   3.241   2.439  0.0953  0.8245 -2.1787
 4762SOL     OW25921   0.239   1.573   0.866 -0.3892 -0.6528  0.1579
 4762SOL    HW125922   0.262   1.566   0.773  0.0621 -0.1270  0.2336
 4762SOL    HW225923   0.268   1.663   0.881  0.4213 -0.9162  0.1989
 4763SOL     OW25924   3.325   0.897  14.509  0.1590  0.3071  0.1390
 4763SOL    HW125925   3.305   0.832  14.577  0.3018 -1.0363 -1.1118
 4763SOL    HW225926   3.238   0.923  14.480 -0.0331 -1.4938 -0.8635
 4764SOL     OW25927   0.426   1.886  12.583 -0.2077  0.5373  0.5005
 4764SOL    HW125928   0.451   1.813  12.527 -2.0952 -1.3020  2.0608
 4764SOL    HW225929   0.365   1.841  12.641  0.1995 -0.0691  0.4549
 4765SOL     OW25930   0.952   0.062  11.070  0.3681 -0.2645  0.2106
 4765SOL    HW125931   1.006   0.129  11.027 -0.1655 -1.3517 -2.1653
 4765SOL    HW225932   0.872   0.111  11.087  1.3463  2.0922 -1.9984
 4766SOL     OW25933   2.572   1.484   8.054  0.5905 -0.2702 -0.0330
 4766SOL    HW125934   2.536   1.499   7.966 -0.5742 -3.9483 -0.1942
 4766SOL    HW225935   2.625   1.405   8.046  0.7852 -0.0728 -0.6795
 4767SOL     OW25936   0.230   2.651   5.381 -0.1027 -0.4914  0.9809
 4767SOL    HW125937   0.248   2.643   5.475  0.2899  0.5163  1.0002
 4767SOL    HW225938   0.286   2.580   5.351  1.4184  2.1739 -2.4533
 4768SOL     OW25939   0.765   0.878   5.419  0.8838 -0.5407  0.4222
 4768SOL    HW125940   0.714   0.831   5.354  2.5271 -0.5307 -0.8707
 4768SOL    HW225941   0.750   0.825   5.498  1.2768 -1.3515 -0.0356
 4769SOL     OW25942   2.377   4.738   5.916  0.1526 -0.1683  0.5864
 4769SOL    HW125943   2.409   0.080   5.875 -2.2830 -0.9661 -2.9098
 4769SOL    HW225944   2.369   0.020   6.009 -0.1645  0.5956  0.3901
 4770SOL     OW25945   0.582   2.694   7.619  0.2541  0.2583 -0.9606
 4770SOL    HW125946   0.548   2.673   7.533 -3.0402  0.1370  0.3879
 4770SOL    HW225947   0.594   2.789   7.621  0.8755  0.1551  0.3722
 4771SOL     OW25948   0.177   0.438   8.573  0.5689 -0.1193 -0.4353
 4771SOL    HW125949   0.083   0.431   8.559  0.4185 -0.8823  1.0498
 4771SOL    HW225950   0.216   0.374   8.513  3.7580  1.6210 -0.2489
 4772SOL     OW25951   0.895   1.892   2.810 -0.6096 -0.2380 -0.6830
 4772SOL    HW125952   0.952   1.868   2.737 -0.7892 -0.4427 -0.7594
 4772SOL    HW225953   0.946   1.855   2.882  0.4692 -0.2092 -1.4343
 4773SOL     OW25954   1.798   3.416  11.831 -0.0280  0.4469 -0.2515
 4773SOL    HW125955   1.816   3.476  11.758  0.6134 -0.3222 -0.7240
 4773SOL    HW225956   1.703   3.420  11.844 -0.1373  1.3181 -1.3084
 4774SOL     OW25957   3.652   1.947  10.945  0.7398 -0.2305 -0.0473
 4774SOL    HW125958   3.661   1.960  10.851 -0.1032  0.1951 -0.0607
 4774SOL    HW225959   3.736   1.905  10.966  0.9305  0.7326  1.1231
 4775SOL     OW25960   3.097   3.548   6.233  0.2408  0.3912  0.0819
 4775SOL    HW125961   3.054   3.610   6.174 -1.5906  0.0702  1.0571
 4775SOL    HW225962   3.053   3.468   6.205 -0.9150  1.3893 -0.9769
 4776SOL     OW25963   2.414   1.924   7.591 -0.4876  0.4526 -0.1739
 4776SOL    HW125964   2.421   1.894   7.500 -1.1178 -0.9924  0.2476
 4776SOL    HW225965   2.351   1.859   7.624 -1.4038  0.5648 -1.7123
 4777SOL     OW25966   0.111   4.685   0.308 -0.1683  0.4344 -0.3443
 4777SOL    HW125967   0.124   0.038   0.332 -2.0867  0.6063  0.0948
 4777SOL    HW225968   0.135   4.650   0.394  4.2785  2.2640 -0.8903
 4778SOL     OW25969   3.468   3.927   3.056  0.1723 -0.8365 -0.0702
 4778SOL    HW125970   3.562   3.931   3.072  0.4748  0.1033 -1.9804
 4778SOL    HW225971   3.435   3.986   3.124  0.2596 -0.0841 -0.6778
 4779SOL     OW25972   1.619   2.486   2.328 -0.3061 -0.0256  0.1397
 4779SOL    HW125973   1.657   2.398   2.316  0.8600  0.7003 -1.4250
 4779SOL    HW225974   1.586   2.482   2.418 -0.3093  2.0249  0.2264
 4780SOL     OW25975   4.601   2.906   0.378  0.4245 -0.4449 -0.5651
 4780SOL    HW125976   4.589   2.917   0.284 -1.3500 -0.7424 -0.3720
 4780SOL    HW225977   4.682   2.855   0.386 -0.8000 -2.0002  1.8575
 4781SOL     OW25978   0.112   3.029  11.323 -0.4584 -0.3293 -0.4140
 4781SOL    HW125979   0.167   2.957  11.292  1.0512  0.6543  0.0069
 4781SOL    HW225980   0.021   3.002  11.313  0.5374 -3.8949  0.0821
 4782SOL     OW25981   1.949   4.119   0.560 -0.4142 -0.0194 -0.1933
 4782SOL    HW125982   2.004   4.193   0.535 -0.2062  0.8288  2.7444
 4782SOL    HW225983   1.915   4.079   0.480 -0.5890 -1.6545  0.6957
 4783SOL     OW25984   3.377   1.482   5.116  0.5084 -0.2550 -0.1871
 4783SOL    HW125985   3.286   1.453   5.111  0.3027  0.5514 -1.1171
 4783SOL    HW225986   3.399   1.442   5.200 -0.9923  0.7464  0.6821
 4784SOL     OW25987   1.264   4.597   8.480 -0.3447 -0.0053 -0.6485
 4784SOL    HW125988   1.349   4.639   8.481 -0.9489  1.2096  0.0253
 4784SOL    HW225989   1.287   4.518   8.529 -1.4570 -0.0184 -0.1366
 4785SOL     OW25990   4.405   3.460   5.864 -0.6752  0.7080 -0.1390
 4785SOL    HW125991   4.446   3.405   5.797 -0.6040 -1.4610  1.6966
 4785SOL    HW225992   4.339   3.405   5.906  0.9430  1.1701  3.0045
 4786SOL     OW25993   2.843   4.399   2.455 -0.1534 -0.0083  0.1993
 4786SOL    HW125994   2.769   4.348   2.490 -0.2178  0.4405  0.7162
 4786SOL    HW225995   2.911   4.366   2.514 -0.5735 -1.4944 -0.1423
 4787SOL     OW25996   4.537   2.724   8.154 -0.3284  0.1721  0.0484
 4787SOL    HW125997   4.505   2.634   8.158 -1.8310  0.6877 -0.4963
 4787SOL    HW225998   4.512   2.760   8.239  1.7582 -1.3362  1.3138
 4788SOL     OW25999   3.458   2.901   2.538  0.5588  0.2462  0.2003
 4788SOL    HW126000   3.369   2.907   2.504  0.4468  2.0477  0.8150
 4788SOL    HW226001   3.463   2.816   2.581  1.5906  1.4666  2.5070
 4789SOL     OW26002   1.549   0.302   6.655  0.2336  0.5618 -0.6016
 4789SOL    HW126003   1.459   0.328   6.636  0.3573 -0.3860 -2.5444
 4789SOL    HW226004   1.536   0.235   6.721 -1.1879  1.7408  0.3088
 4790SOL     OW26005   4.358   4.366  17.134  0.6139  0.0841  0.3371
 4790SOL    HW126006   4.354   4.371  17.230 -0.3314 -0.2538  0.3095
 4790SOL    HW226007   4.451   4.387  17.121  0.3858  1.1673  0.4388
 4791SOL     OW26008   0.426   1.513   4.033 -0.0284 -0.3941  0.2675
 4791SOL    HW126009   0.361   1.514   3.962  0.0271 -0.8953  0.2108
 4791SOL    HW226010   0.392   1.466   4.109  1.1958 -2.7492 -0.6284
 4792SOL     OW26011   2.123   2.710   2.883  0.6467 -0.7623 -0.2204
 4792SOL    HW126012   2.155   2.704   2.973 -1.5033 -1.0773  0.5234
 4792SOL    HW226013   2.101   2.804   2.878  2.0687 -0.5073 -1.6771
 4793SOL     OW26014   0.477   1.056   2.409  0.2037 -0.5488  0.0007
 4793SOL    HW126015   0.498   1.116   2.338 -2.4772  0.4277  0.0145
 4793SOL    HW226016   0.435   0.990   2.353 -0.0606  0.3815 -0.9030
 4794SOL     OW26017   2.535   4.131   0.332 -0.4386  0.5394 -0.7119
 4794SOL    HW126018   2.560   4.216   0.367 -1.6226  1.1530 -1.3720
 4794SOL    HW226019   2.618   4.083   0.340 -1.6650 -1.0986  2.1086
 4795SOL     OW26020   1.715   3.200   4.718  0.2962  0.1074 -0.2560
 4795SOL    HW126021   1.759   3.182   4.801 -1.1397  0.0783  0.5072
 4795SOL    HW226022   1.769   3.154   4.654  1.1277  0.1035  0.4588
 4796SOL     OW26023   1.648   1.163   0.097 -0.6390  0.5179 -0.1489
 4796SOL    HW126024   1.634   1.199   0.009  1.5495  0.4914 -0.4942
 4796SOL    HW226025   1.705   1.088   0.086 -1.5739 -0.1240 -0.6310
 4797SOL     OW26026   4.057   3.985   8.151 -0.4132 -0.0330 -0.5099
 4797SOL    HW126027   4.071   3.992   8.057 -1.0279 -1.0505 -0.6707
 4797SOL    HW226028   3.962   3.998   8.151 -0.1322  2.0174 -0.4333
 4798SOL     OW26029   2.166   3.057   4.006  0.3862  0.5750  0.1254
 4798SOL    HW126030   2.117   3.137   4.025 -0.1047  0.7223 -1.6848
 4798SOL    HW226031   2.244   3.092   4.048  2.0524 -2.2461 -0.5561
 4799SOL     OW26032   3.307   3.724   9.588 -0.1733 -0.6850 -0.2884
 4799SOL    HW126033   3.364   3.720   9.664 -1.9549 -0.5202  1.0465
 4799SOL    HW226034   3.234   3.666   9.609 -2.6134  2.6701  0.6086
 4800SOL     OW26035   0.556   0.326   7.345 -0.7204  0.1267  0.4665
 4800SOL    HW126036   0.531   0.269   7.417  1.8851  0.4661  1.6197
 4800SOL    HW226037   0.572   0.406   7.394 -0.4936  0.2416  0.2012
 4801SOL     OW26038   0.658   0.506   4.516  0.1118 -0.2964  0.9117
 4801SOL    HW126039   0.732   0.568   4.513 -1.8313  1.9935  0.0262
 4801SOL    HW226040   0.592   0.549   4.462  0.0984 -1.8856 -0.3528
 4802SOL     OW26041   0.973   2.768   8.218 -0.3903  0.8329  0.0373
 4802SOL    HW126042   0.880   2.786   8.209 -0.4019 -0.3354 -2.1780
 4802SOL    HW226043   1.007   2.856   8.232  0.3265  0.6796 -0.6916
 4803SOL     OW26044   1.359   3.710   2.179  0.3111  0.5450 -0.0383
 4803SOL    HW126045   1.341   3.749   2.093  2.7360 -1.0718 -1.2669
 4803SOL    HW226046   1.398   3.783   2.227 -0.7289  1.4860 -0.6266
 4804SOL     OW26047   0.762   1.769   8.762 -0.3621  0.5651 -0.3584
 4804SOL    HW126048   0.780   1.688   8.810  0.1715  1.0685  0.2882
 4804SOL    HW226049   0.690   1.738   8.706 -0.6621 -2.9556  1.9975
 4805SOL     OW26050   1.093   0.530   7.494  0.5404  0.0493 -0.2492
 4805SOL    HW126051   1.045   0.590   7.436  0.2952  1.7106  1.6805
 4805SOL    HW226052   1.163   0.503   7.435  1.2284 -0.1638  0.6641
 4806SOL     OW26053   4.423   1.625   6.881  0.0051 -0.0342  0.1585
 4806SOL    HW126054   4.500   1.567   6.889 -2.5218 -3.2847  0.8798
 4806SOL    HW226055   4.360   1.561   6.913 -0.4494  1.3155  1.9466
 4807SOL     OW26056   0.764   3.794  16.048  0.6072 -0.1051  0.1118
 4807SOL    HW126057   0.724   3.844  16.120 -0.5674 -0.4487 -0.2920
 4807SOL    HW226058   0.722   3.710  16.068  1.3646 -0.3749  0.5537
 4808SOL     OW26059   3.117   4.655   7.742  0.3047  0.0171  0.1666
 4808SOL    HW126060   3.193   4.664   7.800 -0.0307  2.2089  0.2553
 4808SOL    HW226061   3.076   4.578   7.782 -0.5858  0.1945 -0.4015
 4809SOL     OW26062   4.303   1.746   8.829  0.2388  0.6913 -0.5020
 4809SOL    HW126063   4.345   1.801   8.763 -0.9375 -1.3217 -2.9351
 4809SOL    HW226064   4.215   1.779   8.807  1.0086  0.4903 -3.8441
 4810SOL     OW26065   3.162   0.178   6.086  0.0193 -0.5241 -0.3602
 4810SOL    HW126066   3.164   0.265   6.046  0.4074  0.1374  1.0963
 4810SOL    HW226067   3.200   0.124   6.016  0.1854 -1.5229  0.4925
 4811SOL     OW26068   2.505   2.307   4.461 -0.1285  0.4492 -0.2998
 4811SOL    HW126069   2.440   2.244   4.490 -0.6786  0.3976 -1.6151
 4811SOL    HW226070   2.575   2.250   4.430 -1.3915 -0.8437 -0.7438
 4812SOL     OW26071   1.268   2.675   8.469  0.4082 -0.2884  0.1697
 4812SOL    HW126072   1.205   2.726   8.520 -0.5995 -1.4415  0.0733
 4812SOL    HW226073   1.319   2.743   8.425 -0.1734 -0.3881 -0.6588
 4813SOL     OW26074   3.316   1.263  13.446  0.2556  0.0479  0.0839
 4813SOL    HW126075   3.289   1.354  13.434  1.9313  0.8177  2.1913
 4813SOL    HW226076   3.367   1.245  13.367  0.2998 -1.9120  0.5698
 4814SOL     OW26077   2.572   1.107   9.843  0.0218  0.0530 -0.0809
 4814SOL    HW126078   2.542   1.098   9.933  1.7824 -0.5263  0.4530
 4814SOL    HW226079   2.640   1.039   9.842 -0.3744 -0.3239 -1.5564
 4815SOL     OW26080   0.747   2.905   2.464 -0.3183 -0.5096  0.1799
 4815SOL    HW126081   0.829   2.870   2.499  0.5896 -0.7703 -2.1901
 4815SOL    HW226082   0.762   2.998   2.445 -0.4187 -0.4051  0.6093
 4816SOL     OW26083   1.777   0.227   5.786  0.3785  0.5059  0.1595
 4816SOL    HW126084   1.759   0.204   5.877  1.7193 -1.2632 -0.0256
 4816SOL    HW226085   1.872   0.222   5.791  0.2711 -1.4959  0.0971
 4817SOL     OW26086   0.712   2.417   2.974  0.7444  0.4709  0.4828
 4817SOL    HW126087   0.630   2.453   2.940  1.1044  2.6393  1.9218
 4817SOL    HW226088   0.692   2.325   2.989 -0.2424  1.1754  3.4337
 4818SOL     OW26089   3.690   0.233   1.995  0.3113  0.0597  0.4845
 4818SOL    HW126090   3.733   0.218   2.078  2.0841 -2.2682 -0.8626
 4818SOL    HW226091   3.731   0.314   1.964  0.4506  0.5882  2.0723
 4819SOL     OW26092   3.189   3.957   2.904  0.3318 -0.4504 -0.3852
 4819SOL    HW126093   3.094   3.944   2.905  0.3832 -0.6119  1.4894
 4819SOL    HW226094   3.216   3.873   2.941 -1.1017  0.0550  1.8130
 4820SOL     OW26095   3.377   0.201  15.539 -0.1628  0.5439 -0.2659
 4820SOL    HW126096   3.358   0.202  15.445  0.1662 -2.0720 -0.3611
 4820SOL    HW226097   3.384   0.294  15.560 -0.0089  0.3558  0.4907
 4821SOL     OW26098   1.645   4.319   4.711 -0.2648  0.3308  0.4008
 4821SOL    HW126099   1.627   4.256   4.782 -0.9051  1.1759  0.9909
 4821SOL    HW226100   1.695   4.268   4.648 -0.8894 -0.6109  0.6633
 4822SOL     OW26101   1.939   4.040   5.411  0.5924  0.1686 -0.4548
 4822SOL    HW126102   1.993   4.013   5.485 -0.9836  1.1966  1.0610
 4822SOL    HW226103   1.857   3.993   5.421  0.4785  0.3352 -0.5967
 4823SOL     OW26104   3.418   4.298   4.372  0.0474  0.3276  0.3992
 4823SOL    HW126105   3.380   4.325   4.288 -0.8243 -1.8526  0.0933
 4823SOL    HW226106   3.505   4.278   4.337 -1.0683 -1.3454 -1.4499
 4824SOL     OW26107   2.563   0.220   3.017 -0.5636 -0.2629 -0.1732
 4824SOL    HW126108   2.499   0.283   3.049 -1.8713 -1.7916  0.2373
 4824SOL    HW226109   2.501   0.153   2.988 -0.1181 -0.0572 -1.6068
 4825SOL     OW26110   3.762   1.631   4.140 -0.1860 -0.2596  0.0821
 4825SOL    HW126111   3.695   1.605   4.077 -1.3468  1.8013  0.4492
 4825SOL    HW226112   3.720   1.611   4.224 -0.2637  0.8274  0.3023
 4826SOL     OW26113   2.719   0.037   3.136 -0.1126  0.2648 -0.2003
 4826SOL    HW126114   2.665   0.087   3.075 -1.4011 -2.3698 -1.1973
 4826SOL    HW226115   2.733   0.108   3.199  1.9577  0.6783 -1.1294
 4827SOL     OW26116   2.392   2.521   3.875  0.1796  0.2320 -0.3784
 4827SOL    HW126117   2.326   2.476   3.928  1.5884 -0.8961  0.4267
 4827SOL    HW226118   2.335   2.565   3.812 -0.4754  0.2295  0.2063
 4828SOL     OW26119   2.083   1.487   5.763 -0.3234  0.1070  0.3091
 4828SOL    HW126120   2.057   1.395   5.756 -0.3796  0.1756 -0.3480
 4828SOL    HW226121   2.147   1.497   5.693 -0.0466  2.8332  0.9297
 4829SOL     OW26122   2.115   4.158   2.305  0.1243  0.8037  0.2294
 4829SOL    HW126123   2.029   4.162   2.264 -0.0055 -3.3008  0.0569
 4829SOL    HW226124   2.179   4.187   2.239 -1.1831  0.8263 -1.0151
 4830SOL     OW26125   4.677   2.439   7.973 -0.1389 -0.2453 -0.1580
 4830SOL    HW126126   4.683   2.350   8.007  0.6800  1.0102  2.9735
 4830SOL    HW226127   4.629   2.472   8.049  0.9782  0.8129  0.1074
 4831SOL     OW26128   1.529   1.029  14.452 -0.8998  0.2121 -0.0230
 4831SOL    HW126129   1.539   0.969  14.525  0.5668  1.4444  0.7879
 4831SOL    HW226130   1.598   0.996  14.395 -2.0051  1.4872 -2.1242
 4832SOL     OW26131   1.713   3.452  11.451  1.2404  0.7860  0.1902
 4832SOL    HW126132   1.759   3.491  11.526  0.5455 -0.5168  1.3053
 4832SOL    HW226133   1.789   3.424  11.400 -0.3496 -1.1830 -1.0575
 4833SOL     OW26134   0.290   1.659   3.294 -0.3420 -0.2303  0.4625
 4833SOL    HW126135   0.309   1.613   3.375  1.0302 -2.2258 -0.9767
 4833SOL    HW226136   0.380   1.675   3.264 -0.2930 -1.0785  0.1444
 4834SOL     OW26137   3.923   2.180  11.448 -0.1902  0.0246  0.4856
 4834SOL    HW126138   3.910   2.172  11.543 -0.8083  1.0550  0.4852
 4834SOL    HW226139   3.987   2.251  11.451  0.2255 -0.2361 -2.2364
 4835SOL     OW26140   4.050   4.280  10.354 -0.0402 -0.3171 -0.0773
 4835SOL    HW126141   4.017   4.239  10.434  0.7185  1.1991  1.0335
 4835SOL    HW226142   4.132   4.322  10.383  0.0488 -0.1447 -0.5758
 4836SOL     OW26143   4.398   0.387   8.414 -0.5153 -0.5191 -0.2073
 4836SOL    HW126144   4.449   0.348   8.343 -1.7461 -0.8207 -0.9244
 4836SOL    HW226145   4.356   0.308   8.448  1.1326 -1.2810  0.0517
 4837SOL     OW26146   0.154   2.560  11.711  0.3682 -0.4548  0.1774
 4837SOL    HW126147   0.135   2.586  11.621  0.3136  0.1932  0.3708
 4837SOL    HW226148   0.249   2.548  11.707  0.4213 -0.2169  0.7299
 4838SOL     OW26149   3.275   2.888   5.695  0.4547 -0.3879  0.6016
 4838SOL    HW126150   3.292   2.795   5.714  0.2807 -0.8041 -1.2811
 4838SOL    HW226151   3.225   2.885   5.614  0.8199 -0.1483  0.3674
 4839SOL     OW26152   3.383   4.396   1.511  0.6728  0.2188 -0.3148
 4839SOL    HW126153   3.403   4.465   1.575 -0.0310  0.5630 -0.4730
 4839SOL    HW226154   3.403   4.316   1.560  0.2057  1.1845  1.4849
 4840SOL     OW26155   1.546   2.493   6.781 -0.2780 -0.1703 -0.1990
 4840SOL    HW126156   1.592   2.513   6.863  0.2689  1.0169 -0.8033
 4840SOL    HW226157   1.597   2.415   6.758  0.6901 -0.1849  1.9935
 4841SOL     OW26158   1.791   1.345   6.571  0.7319  0.2172 -0.8225
 4841SOL    HW126159   1.739   1.265   6.573  1.5764 -0.3452 -1.8275
 4841SOL    HW226160   1.865   1.315   6.623 -0.6028 -0.8064  0.5255
 4842SOL     OW26161   3.363   0.898   9.327 -0.0390 -0.1762  0.2433
 4842SOL    HW126162   3.392   0.980   9.287  0.8520 -0.5745  0.0730
 4842SOL    HW226163   3.407   0.839   9.266 -0.7560  0.4478 -0.8847
 4843SOL     OW26164   1.494   2.772  13.096 -0.4643 -0.0354  0.4248
 4843SOL    HW126165   1.403   2.750  13.080 -1.1523  2.2272  1.2040
 4843SOL    HW226166   1.528   2.685  13.115  0.2189 -0.4161 -2.5716
 4844SOL     OW26167   4.132   2.645  16.750  0.4956 -0.1584  0.1555
 4844SOL    HW126168   4.061   2.674  16.808  0.9961  1.3390  0.0311
 4844SOL    HW226169   4.191   2.611  16.817 -1.3669 -0.5691  1.5966
 4845SOL     OW26170   2.303   0.315   6.001  0.3165 -0.8064  0.1518
 4845SOL    HW126171   2.222   0.297   6.049 -0.8607  1.0527 -1.1463
 4845SOL    HW226172   2.372   0.271   6.050 -1.9892 -0.6513  3.5575
 4846SOL     OW26173   0.723   2.903   4.063 -0.0120 -0.6270 -0.0734
 4846SOL    HW126174   0.739   2.832   4.125 -1.3480 -0.4161  0.5010
 4846SOL    HW226175   0.646   2.944   4.101 -1.1817  0.1275 -3.2523
 4847SOL     OW26176   4.459   3.869   5.328 -0.0354  0.0048 -0.3336
 4847SOL    HW126177   4.517   3.930   5.373 -1.4257 -0.9072  2.6546
 4847SOL    HW226178   4.386   3.922   5.295  0.7042 -0.2256 -2.3399
 4848SOL     OW26179   0.258   1.910   2.493  0.1512 -0.7498 -0.0220
 4848SOL    HW126180   0.272   1.995   2.534  0.5594 -0.8935  0.1355
 4848SOL    HW226181   0.279   1.860   2.572  1.2463  0.2685  0.3213
 4849SOL     OW26182   2.475   3.145  13.128  0.2895  0.0614  0.2178
 4849SOL    HW126183   2.471   3.239  13.147  2.6570  0.6727 -2.3609
 4849SOL    HW226184   2.454   3.140  13.035 -2.4834  2.4184  0.7225
 4850SOL     OW26185   3.852   2.828  16.484 -0.3124  0.0117  0.3199
 4850SOL    HW126186   3.930   2.832  16.429  0.1964 -0.4447  1.0098
 4850SOL    HW226187   3.824   2.742  16.453  3.7783 -1.4380  0.6193
 4851SOL     OW26188   2.064   3.700  14.719  0.2133 -0.8569  0.2374
 4851SOL    HW126189   2.090   3.610  14.699 -0.9706 -0.5394 -2.8265
 4851SOL    HW226190   2.153   3.723  14.747  0.3985  0.0336 -1.0613
 4852SOL     OW26191   0.425   0.600   9.209  0.4129  0.3633 -0.0358
 4852SOL    HW126192   0.442   0.669   9.145 -3.7290  0.8538 -0.5994
 4852SOL    HW226193   0.402   0.521   9.161 -1.0350  0.1771  0.9565
 4853SOL     OW26194   0.483   1.374  15.126 -0.1939  0.1973  0.0647
 4853SOL    HW126195   0.510   1.282  15.124  1.8538  0.8074 -0.8981
 4853SOL    HW226196   0.401   1.365  15.174  0.1229 -0.5359  0.4638
 4854SOL     OW26197   1.533   2.687   3.661 -0.2614  0.2047 -0.6180
 4854SOL    HW126198   1.500   2.770   3.626  2.5622  1.6798  0.2685
 4854SOL    HW226199   1.527   2.704   3.755 -1.8159 -1.8264 -0.3485
 4855SOL     OW26200   4.188   2.855   3.909  0.4192  0.0825 -0.1918
 4855SOL    HW126201   4.218   2.917   3.842  1.7024  0.1133  0.3946
 4855SOL    HW226202   4.266   2.851   3.966 -1.2717 -3.5599  1.8740
 4856SOL     OW26203   2.752   1.336  17.246  0.2414  0.1723  0.0401
 4856SOL    HW126204   2.708   1.289  17.317  0.0996  1.0889  0.5707
 4856SOL    HW226205   2.737   1.428  17.269 -0.6723  0.3830 -1.4794
 4857SOL     OW26206   0.813   0.427  15.515  1.0250  0.5510  0.1435
 4857SOL    HW126207   0.804   0.522  15.520  1.2781  0.4341  2.7472
 4857SOL    HW226208   0.854   0.413  15.600 -0.7164  0.4063  0.9717
 4858SOL     OW26209   4.468   1.400   7.536 -0.5166 -0.0271  0.5650
 4858SOL    HW126210   4.386   1.425   7.494 -2.0281 -2.2577  2.2164
 4858SOL    HW226211   4.468   1.456   7.613 -0.5794 -1.5389  1.6517
 4859SOL     OW26212   4.427   2.626   9.094 -0.3995  0.3960 -0.0824
 4859SOL    HW126213   4.457   2.687   9.161  1.1749 -2.5678  1.9084
 4859SOL    HW226214   4.442   2.550   9.150  0.1227  0.6009  0.0491
 4860SOL     OW26215   0.793   1.739   9.429  0.3860 -0.2954 -0.8635
 4860SOL    HW126216   0.793   1.832   9.406 -1.5594 -0.3084 -0.9241
 4860SOL    HW226217   0.797   1.704   9.340  1.2123  0.1370 -0.9995
 4861SOL     OW26218   4.100   0.622   7.881  0.6100  0.3164 -0.5726
 4861SOL    HW126219   4.162   0.692   7.903  0.0526  0.7906 -0.5273
 4861SOL    HW226220   4.053   0.659   7.806  0.0192  0.1772 -0.2687
 4862SOL     OW26221   0.613   3.258   3.057 -0.1093  0.0710  0.1565
 4862SOL    HW126222   0.584   3.335   3.107 -1.7884 -1.4833  1.5935
 4862SOL    HW226223   0.641   3.191   3.119  0.3329 -2.3320 -2.6727
 4863SOL     OW26224   4.162   2.635   4.646 -0.2066  0.4786  0.0126
 4863SOL    HW126225   4.122   2.550   4.667  0.5299  1.0821  3.9240
 4863SOL    HW226226   4.243   2.618   4.599 -0.1689 -1.6102  0.8067
 4864SOL     OW26227   3.143   0.063   6.995 -0.3328 -0.3680  0.0324
 4864SOL    HW126228   3.142   0.033   7.086 -0.1370  0.7382  0.4035
 4864SOL    HW226229   3.090   0.143   6.992 -0.5565 -0.4855  0.8951
 4865SOL     OW26230   4.283   2.632   5.107  0.4701  0.1955  0.6465
 4865SOL    HW126231   4.326   2.581   5.176  0.8945  1.4060  1.2701
 4865SOL    HW226232   4.203   2.579   5.109  1.3284 -1.0892  1.3361
 4866SOL     OW26233   2.827   4.450  10.945  0.0611 -0.0825  0.2291
 4866SOL    HW126234   2.872   4.533  10.958 -1.4474  1.1026 -2.0872
 4866SOL    HW226235   2.811   4.436  11.038  2.0313 -0.6210  0.4896
 4867SOL     OW26236   0.967   2.323   6.188 -0.0455 -0.1472 -0.3771
 4867SOL    HW126237   0.962   2.347   6.280 -2.9562 -0.7702 -0.3883
 4867SOL    HW226238   1.024   2.246   6.194 -0.9525 -0.8972 -1.3486
 4868SOL     OW26239   3.234   2.630   9.507 -0.0980 -0.1579 -0.0902
 4868SOL    HW126240   3.252   2.667   9.593 -0.1209  0.8884 -0.5362
 4868SOL    HW226241   3.139   2.616   9.514 -0.6097  2.2906 -2.1822
 4869SOL     OW26242   2.260   0.010  16.229 -0.1176  0.0420  0.0378
 4869SOL    HW126243   2.294   4.678  16.283 -1.7153 -0.0732  0.8955
 4869SOL    HW226244   2.342   0.043  16.193 -0.8476  1.3102 -0.4689
 4870SOL     OW26245   4.687   3.804   1.105  0.7004 -0.5612 -0.6902
 4870SOL    HW126246   4.683   3.801   1.010 -1.7079  2.6128 -0.6816
 4870SOL    HW226247   4.634   3.879   1.131  0.4841 -1.2716  0.9263
 4871SOL     OW26248   2.457   1.281  11.580 -0.0267  1.2532  0.1274
 4871SOL    HW126249   2.499   1.247  11.501 -1.4874  1.4050 -0.7064
 4871SOL    HW226250   2.530   1.319  11.628 -0.0767  0.4389  0.8510
 4872SOL     OW26251   3.662   1.831  17.456 -0.1365  0.4623  0.5950
 4872SOL    HW126252   3.572   1.824  17.486  0.0225 -0.5283  0.8379
 4872SOL    HW226253   3.671   1.745  17.415  1.1456 -0.4928  2.8656
 4873SOL     OW26254   1.396   0.330   4.991  0.4918  0.1792  0.5420
 4873SOL    HW126255   1.344   0.251   5.001  1.2169 -0.5988 -1.8882
 4873SOL    HW226256   1.345   0.401   5.030  0.1514 -0.3045  0.9851
 4874SOL     OW26257   4.630   0.573   2.372  0.1735 -0.1125 -0.0261
 4874SOL    HW126258   4.656   0.646   2.316  2.0600 -0.1554  0.7995
 4874SOL    HW226259   4.713   0.525   2.373  0.9638  1.2690  1.1992
 4875SOL     OW26260   0.262   2.920   1.021  0.2404 -0.3501  0.9745
 4875SOL    HW126261   0.351   2.891   1.040  0.8666  0.9185 -0.0326
 4875SOL    HW226262   0.228   2.857   0.957  0.6153  0.7525 -0.3266
 4876SOL     OW26263   3.226   0.626   0.023 -0.1285  0.2930 -0.1887
 4876SOL    HW126264   3.309   0.644  17.730 -0.8201  1.2191 -1.0742
 4876SOL    HW226265   3.256   0.540   0.054 -0.2492 -0.4971 -2.2152
 4877SOL     OW26266   4.072   4.542   2.291  0.5429  0.2242  0.5386
 4877SOL    HW126267   4.123   4.519   2.213 -0.1722 -1.9995  0.7053
 4877SOL    HW226268   4.083   4.465   2.347 -0.0501  0.3122  0.7694
 4878SOL     OW26269   3.485   0.811   5.655  0.4169  0.2187  0.7693
 4878SOL    HW126270   3.439   0.776   5.731  1.2846 -3.6350 -0.4572
 4878SOL    HW226271   3.533   0.732   5.629 -2.0985 -1.2981  0.7931
 4879SOL     OW26272   3.728   1.321  16.784 -0.1600 -0.4556  0.1387
 4879SOL    HW126273   3.790   1.393  16.796 -0.6788 -0.0112  0.1619
 4879SOL    HW226274   3.701   1.289  16.870  0.1922 -0.1864  0.3494
 4880SOL     OW26275   2.868   3.101   6.025 -0.2115  0.1901  0.3315
 4880SOL    HW126276   2.826   3.019   6.048 -1.3410  0.4116 -0.9813
 4880SOL    HW226277   2.812   3.132   5.954  1.3350 -2.8864 -2.2126
 4881SOL     OW26278   0.153   1.596   6.559 -0.4552  0.2219 -0.0904
 4881SOL    HW126279   0.059   1.580   6.557 -0.4551  0.3841 -1.3127
 4881SOL    HW226280   0.163   1.669   6.620  1.7446 -1.2151  1.2721
 4882SOL     OW26281   2.869   3.762   5.830 -0.0056  0.7835 -0.0227
 4882SOL    HW126282   2.810   3.813   5.885 -1.4163  1.0026 -1.7305
 4882SOL    HW226283   2.814   3.685   5.816 -0.3132  1.2115 -1.1802
 4883SOL     OW26284   2.120   1.084   3.237 -0.0750  0.0433 -0.0570
 4883SOL    HW126285   2.099   1.175   3.257  0.1883 -0.0117  0.4874
 4883SOL    HW226286   2.097   1.037   3.318  0.9383  1.3487  0.9905
 4884SOL     OW26287   2.315   1.798  10.577  0.5718 -0.4907  0.1868
 4884SOL    HW126288   2.372   1.722  10.586 -0.5641 -1.3345  0.2190
 4884SOL    HW226289   2.358   1.848  10.508 -0.7055 -0.0980 -0.3296
 4885SOL     OW26290   0.204   4.597   7.828 -0.0724  0.0371 -0.0267
 4885SOL    HW126291   0.138   4.659   7.858 -1.9015 -2.2094  0.5628
 4885SOL    HW226292   0.191   4.527   7.892 -0.5451 -0.7475 -0.9840
 4886SOL     OW26293   2.332   1.313   2.894  0.3297  0.0555 -0.3812
 4886SOL    HW126294   2.309   1.400   2.927 -2.8883 -1.2863  0.8804
 4886SOL    HW226295   2.356   1.268   2.975  1.5116  0.3958 -0.5361
 4887SOL     OW26296   2.462   3.798  15.030  0.4479 -0.0136  0.3449
 4887SOL    HW126297   2.520   3.861  14.989  0.5391  0.3001  0.9528
 4887SOL    HW226298   2.426   3.846  15.105  1.4941 -0.1809  0.9500
 4888SOL     OW26299   3.214   4.159   7.627  0.2728  0.1231 -0.3569
 4888SOL    HW126300   3.217   4.191   7.717  2.0957 -0.8573 -0.0511
 4888SOL    HW226301   3.254   4.073   7.640  0.7591  0.2602 -0.9177
 4889SOL     OW26302   2.218   1.178  13.182 -0.2325  0.4365 -0.0524
 4889SOL    HW126303   2.208   1.216  13.269 -0.9181  0.2386 -0.0486
 4889SOL    HW226304   2.289   1.116  13.203  0.7970  0.3728 -3.5965
 4890SOL     OW26305   2.376   3.184  14.403 -0.3079 -0.5189 -0.2739
 4890SOL    HW126306   2.340   3.259  14.355 -0.2164 -0.2074  0.1410
 4890SOL    HW226307   2.298   3.175  14.457  0.5247 -1.9200  0.7024
 4891SOL     OW26308   0.017   4.629   6.158  0.1909  0.0963  0.3045
 4891SOL    HW126309   0.025   4.722   6.176 -2.4945  1.0414 -3.5946
 4891SOL    HW226310   0.111   4.608   6.162  0.0590 -0.0790  2.9069
 4892SOL     OW26311   2.366   3.821   6.963  0.2902 -0.4363 -0.2013
 4892SOL    HW126312   2.314   3.837   7.042 -0.5869 -1.2999 -0.6149
 4892SOL    HW226313   2.360   3.906   6.919  1.7446  0.8309  1.9989
 4893SOL     OW26314   3.160   0.913   4.857 -0.0059  0.0353 -0.6339
 4893SOL    HW126315   3.250   0.922   4.889 -0.3594  1.3572  0.0088
 4893SOL    HW226316   3.139   0.997   4.816 -0.2060  1.1640  1.7934
 4894SOL     OW26317   3.683   3.703   7.217  0.3346  0.0130  0.1670
 4894SOL    HW126318   3.635   3.728   7.296 -3.1093 -2.6681 -1.0479
 4894SOL    HW226319   3.674   3.608   7.221 -2.2022  0.0682 -3.4767
 4895SOL     OW26320   1.068   1.452  12.791  0.0344 -0.3800  0.3286
 4895SOL    HW126321   1.076   1.526  12.851 -0.1407 -0.3761  0.3495
 4895SOL    HW226322   1.063   1.385  12.859 -1.8178  0.6379  1.2055
 4896SOL     OW26323   0.907   1.834  13.344  0.1354 -0.7927 -0.2713
 4896SOL    HW126324   0.863   1.886  13.276  2.1850  0.3445 -0.7220
 4896SOL    HW226325   0.935   1.902  13.405 -1.6235 -1.0164  0.8070
 4897SOL     OW26326   0.336   0.828   8.421 -0.0099  0.3693 -0.6926
 4897SOL    HW126327   0.281   0.907   8.419 -0.6080 -0.0189  0.0964
 4897SOL    HW226328   0.268   0.765   8.398 -0.0319  0.0846  0.1379
 4898SOL     OW26329   4.215   3.825   3.654  0.1306  0.1422  0.0826
 4898SOL    HW126330   4.159   3.747   3.660 -0.0160  0.0971 -1.8435
 4898SOL    HW226331   4.272   3.807   3.580  0.5765 -0.3749  0.5530
 4899SOL     OW26332   1.674   3.419   5.087  0.3513 -0.1437  0.4595
 4899SOL    HW126333   1.697   3.486   5.022  1.3621  1.2106  2.2099
 4899SOL    HW226334   1.694   3.467   5.168  0.1277  0.5065  0.1299
 4900SOL     OW26335   0.552   2.549   3.455  0.0312  0.3528  0.4427
 4900SOL    HW126336   0.572   2.623   3.398 -1.8376 -0.4377 -1.2538
 4900SOL    HW226337   0.596   2.482   3.402 -0.0759  1.3088 -0.8735
 4901SOL     OW26338   3.269   0.996  12.026  0.3055 -0.0829 -0.6066
 4901SOL    HW126339   3.290   0.975  11.935  0.2550 -3.9063  0.2999
 4901SOL    HW226340   3.314   0.923  12.068 -0.3326  0.5667  1.2508
 4902SOL     OW26341   0.184   1.961   1.874 -0.3041 -0.3261 -0.1975
 4902SOL    HW126342   0.160   2.038   1.823 -0.5142  0.2132  0.7027
 4902SOL    HW226343   0.230   2.008   1.943 -1.4139  0.1162  0.2489
 4903SOL     OW26344   0.255   3.393   8.013  0.2347 -0.6375 -0.0273
 4903SOL    HW126345   0.230   3.480   8.046 -1.7058 -0.0921 -2.9375
 4903SOL    HW226346   0.313   3.356   8.080  1.5849 -0.0509 -0.8672
 4904SOL     OW26347   0.420   2.084   4.154  0.2740  0.5439  0.0405
 4904SOL    HW126348   0.417   1.990   4.135  1.1774  0.5445 -0.0841
 4904SOL    HW226349   0.440   2.113   4.065 -0.4967 -1.7753 -0.8863
 4905SOL     OW26350   4.424   2.084   3.259  0.3644 -0.1384 -0.2037
 4905SOL    HW126351   4.347   2.077   3.315  0.1770 -0.8214 -0.5471
 4905SOL    HW226352   4.456   1.994   3.256 -2.4884 -1.2482  4.1859
 4906SOL     OW26353   3.079   3.227  11.524 -0.7345 -0.5963  0.4241
 4906SOL    HW126354   3.023   3.180  11.463  0.6144 -1.4422 -0.1689
 4906SOL    HW226355   3.025   3.234  11.603 -0.2417 -0.6982  0.7665
 4907SOL     OW26356   2.008   3.066   0.139  0.5233  0.1840 -0.8493
 4907SOL    HW126357   2.003   3.044   0.047 -1.0480  1.1416 -0.9999
 4907SOL    HW226358   1.987   3.159   0.140 -0.9793 -0.1643  1.6482
 4908SOL     OW26359   3.573   1.373   8.220  0.4112  0.2042 -0.4304
 4908SOL    HW126360   3.653   1.413   8.186 -0.5302  1.4630 -1.1768
 4908SOL    HW226361   3.600   1.283   8.236 -1.8706 -0.5253 -0.7097
 4909SOL     OW26362   2.949   2.833   5.693 -0.1075  0.1597 -0.0718
 4909SOL    HW126363   2.913   2.816   5.780  2.8963 -0.2972  1.0838
 4909SOL    HW226364   2.961   2.745   5.660  2.5439 -0.2370  1.9387
 4910SOL     OW26365   1.236   3.801   5.394 -0.0821 -0.1354 -0.0499
 4910SOL    HW126366   1.266   3.713   5.372 -0.6384 -0.1828 -0.6008
 4910SOL    HW226367   1.217   3.793   5.488 -1.9221  1.6927 -0.2746
 4911SOL     OW26368   1.479   3.535   2.364  0.2444 -0.1123 -0.2392
 4911SOL    HW126369   1.432   3.591   2.302  2.7371 -2.2595 -4.0010
 4911SOL    HW226370   1.546   3.599   2.389 -0.0506  0.0654  0.1033
 4912SOL     OW26371   3.924   4.119   8.964  0.2598 -0.9405 -0.2431
 4912SOL    HW126372   3.897   4.139   9.054  1.1260  1.7782 -0.5708
 4912SOL    HW226373   3.838   4.114   8.922  0.1852 -0.2426 -0.1836
 4913SOL     OW26374   0.873   1.988  13.132  1.1083 -0.0457 -0.5358
 4913SOL    HW126375   0.964   2.016  13.121  0.3237  2.5820 -0.2240
 4913SOL    HW226376   0.848   1.957  13.045  1.0206 -0.7762 -0.2526
 4914SOL     OW26377   2.215   2.319   0.750 -0.0719  0.1932 -0.6849
 4914SOL    HW126378   2.163   2.392   0.719  0.4957  1.0606  0.4003
 4914SOL    HW226379   2.295   2.341   0.703  0.8575  1.5002  1.4947
 4915SOL     OW26380   3.304   2.041   6.052  0.1987 -0.7101  0.5998
 4915SOL    HW126381   3.293   2.087   6.136  2.4693 -0.2985  0.6753
 4915SOL    HW226382   3.246   2.099   6.003  0.4427  0.6855  1.9508
 4916SOL     OW26383   0.620   4.177   6.707 -0.2885  0.3842 -0.5811
 4916SOL    HW126384   0.671   4.221   6.638 -2.4496  4.1152  0.2204
 4916SOL    HW226385   0.539   4.227   6.711 -0.0835  0.5470  1.2718
 4917SOL     OW26386   1.535   3.757   8.120  0.2164  0.0227  0.1656
 4917SOL    HW126387   1.551   3.683   8.062 -3.6855 -1.5856  1.1591
 4917SOL    HW226388   1.526   3.819   8.048 -1.2144  1.9756  2.0309
 4918SOL     OW26389   2.648   1.828   7.098 -0.4577  0.2254  0.0627
 4918SOL    HW126390   2.703   1.758   7.062 -2.7604 -1.1704 -0.7109
 4918SOL    HW226391   2.669   1.818   7.191  0.2256 -0.9442 -0.2215
 4919SOL     OW26392   1.284   4.643  15.886 -0.1327  0.1690 -0.3116
 4919SOL    HW126393   1.343   4.584  15.839  0.1933 -1.2655  1.9147
 4919SOL    HW226394   1.348   4.693  15.936 -0.4037  1.4030 -1.1802
 4920SOL     OW26395   2.977   2.672  16.756  0.7832  0.1851  0.4986
 4920SOL    HW126396   3.007   2.703  16.671  1.8220  1.6118  1.3761
 4920SOL    HW226397   2.919   2.600  16.731  0.8247 -0.1701  1.4421
 4921SOL     OW26398   0.187   0.833   0.898  0.1247  0.1291 -0.3937
 4921SOL    HW126399   0.101   0.854   0.934  1.1163  0.1343  1.9809
 4921SOL    HW226400   0.239   0.826   0.978 -0.2215 -1.7409 -0.3230
 4922SOL     OW26401   1.042   1.700  15.378 -0.1373 -0.2168 -0.3599
 4922SOL    HW126402   1.062   1.647  15.300 -1.5361  0.5130 -1.2007
 4922SOL    HW226403   1.094   1.643  15.435  1.0299  2.4469  1.1841
 4923SOL     OW26404   2.239   3.423  15.764 -0.0416  0.2703  0.6551
 4923SOL    HW126405   2.265   3.440  15.673  1.1390  2.1858  1.3548
 4923SOL    HW226406   2.214   3.514  15.774 -0.7183  0.0150  1.2768
 4924SOL     OW26407   2.106   2.155   8.807  0.2440  0.1732 -0.4480
 4924SOL    HW126408   2.064   2.093   8.746  0.4229  0.8971 -1.3143
 4924SOL    HW226409   2.091   2.233   8.754  3.7038  0.2202 -1.3439
 4925SOL     OW26410   0.507   4.329   8.875  0.0414 -0.3520 -0.1870
 4925SOL    HW126411   0.475   4.377   8.952  1.1645 -0.5372  0.3875
 4925SOL    HW226412   0.538   4.249   8.918  1.0040 -0.2549 -0.6959
 4926SOL     OW26413   1.206   1.549   1.782 -0.2479 -0.2935  0.5127
 4926SOL    HW126414   1.264   1.521   1.712 -0.3124  3.0181 -0.8620
 4926SOL    HW226415   1.116   1.518   1.767 -0.0785 -0.2056 -0.7064
 4927SOL     OW26416   3.224   3.552  17.751  0.0677  0.1690 -0.7292
 4927SOL    HW126417   3.276   3.596  17.685  0.6446 -0.2054 -0.5189
 4927SOL    HW226418   3.204   3.468  17.710  3.2714 -0.3712 -1.1724
 4928SOL     OW26419   1.074   2.244   8.655 -0.1716  0.2780 -0.0109
 4928SOL    HW126420   1.092   2.313   8.591  3.6018 -0.8881 -0.1684
 4928SOL    HW226421   1.133   2.174   8.628 -0.1359  0.3681 -0.1680
 4929SOL     OW26422   1.057   4.276  15.954 -0.1333  0.0194 -0.4963
 4929SOL    HW126423   0.975   4.232  15.930 -0.3697 -0.1824  0.6983
 4929SOL    HW226424   1.055   4.278  16.049 -0.1355 -0.4470 -0.4889
 4930SOL     OW26425   0.388   4.045   1.992 -0.3539 -0.0614  0.2101
 4930SOL    HW126426   0.452   4.097   2.038  2.0516 -2.9231  0.1229
 4930SOL    HW226427   0.308   4.082   2.030  0.2059  0.7740  0.5562
 4931SOL     OW26428   2.998   0.351   6.353  0.5355 -0.4414  0.6218
 4931SOL    HW126429   2.934   0.400   6.404  0.6842 -1.1476  1.4880
 4931SOL    HW226430   2.951   0.354   6.270 -0.4874  0.7357  1.2379
 4932SOL     OW26431   2.230   3.606   9.297  0.0570 -0.4950  0.4581
 4932SOL    HW126432   2.181   3.524   9.301 -3.1889  1.3841 -0.3570
 4932SOL    HW226433   2.316   3.570   9.318  0.0157 -2.1490 -2.1786
 4933SOL     OW26434   3.172   2.889   5.446 -0.5135 -0.1268 -0.0842
 4933SOL    HW126435   3.106   2.839   5.396 -0.3604 -1.4379  1.0336
 4933SOL    HW226436   3.227   2.934   5.382  1.2473 -0.8342  0.9615
 4934SOL     OW26437   2.553   3.179   9.270 -0.5362  0.4369  0.3338
 4934SOL    HW126438   2.479   3.130   9.306  0.5703 -2.6987 -1.5680
 4934SOL    HW226439   2.622   3.169   9.336  0.9737 -0.0495 -1.3015
 4935SOL     OW26440   3.714   3.050   3.979  0.5627 -0.4348 -0.3802
 4935SOL    HW126441   3.627   3.082   4.003  0.6382 -0.8169  0.4176
 4935SOL    HW226442   3.694   2.959   3.958 -0.2463 -0.6215  1.1595
 4936SOL     OW26443   4.691   1.785   2.334 -0.3641  0.0777 -0.2003
 4936SOL    HW126444   4.737   1.868   2.321 -0.7942  0.4950  0.9689
 4936SOL    HW226445   4.665   1.745   2.250  1.1237  3.2337 -2.1698
 4937SOL     OW26446   2.555   3.910  17.512 -0.3161  0.3968 -0.2539
 4937SOL    HW126447   2.469   3.929  17.474 -0.5784 -1.4301 -0.5931
 4937SOL    HW226448   2.518   3.869  17.590 -0.8388 -1.5140 -1.5040
 4938SOL     OW26449   1.559   1.073   9.486  0.0246  0.1139 -0.2857
 4938SOL    HW126450   1.626   1.141   9.481  1.3988 -1.2495 -0.4103
 4938SOL    HW226451   1.528   1.075   9.396  2.9327 -1.6725 -1.3131
 4939SOL     OW26452   3.113   0.993   9.155  0.4392  0.3872 -0.0951
 4939SOL    HW126453   3.146   1.067   9.205  0.6242  1.3506 -1.6372
 4939SOL    HW226454   3.120   0.920   9.216 -2.5219 -0.5727 -0.8789
 4940SOL     OW26455   4.536   1.733   5.413 -0.0328 -0.2211  0.0804
 4940SOL    HW126456   4.534   1.659   5.352  1.1634  0.3322 -0.6329
 4940SOL    HW226457   4.452   1.778   5.402  0.1650  0.4072  1.1134
 4941SOL     OW26458   0.885   1.030   3.064 -0.2672 -0.2473 -0.2839
 4941SOL    HW126459   0.803   1.000   3.024 -2.1929  1.0986  2.7200
 4941SOL    HW226460   0.850   1.040   3.152 -0.2755  0.0532 -0.3211
 4942SOL     OW26461   0.794   1.276   2.932 -0.3321 -0.3147  0.6186
 4942SOL    HW126462   0.737   1.213   2.887  0.6021  0.8366 -2.2196
 4942SOL    HW226463   0.861   1.222   2.974 -0.3733 -0.3534  0.6347
 4943SOL     OW26464   1.262   4.523   1.974  0.2589 -0.4049 -1.1567
 4943SOL    HW126465   1.189   4.555   2.027  0.6551 -0.2821 -0.6898
 4943SOL    HW226466   1.270   4.580   1.897 -2.5772  1.0282 -0.4042
 4944SOL     OW26467   1.109   2.636   4.558 -0.0716 -0.3832  0.2313
 4944SOL    HW126468   1.141   2.587   4.634  0.7392 -1.5211 -0.8295
 4944SOL    HW226469   1.015   2.619   4.563 -0.0445  0.1464  2.7941
 4945SOL     OW26470   3.467   2.100  13.899 -0.5134 -0.4088  0.5671
 4945SOL    HW126471   3.399   2.132  13.958 -0.1686  0.1998  0.6317
 4945SOL    HW226472   3.460   2.164  13.827  1.4343  1.2602  1.8771
 4946SOL     OW26473   0.135   0.267   7.738 -0.4563  0.0757 -0.3832
 4946SOL    HW126474   0.091   0.339   7.783  2.7211  1.7398  0.1001
 4946SOL    HW226475   0.229   0.284   7.748  0.0369 -1.6604 -2.1477
 4947SOL     OW26476   3.369   0.939   5.436 -0.2688  0.1045 -0.3558
 4947SOL    HW126477   3.284   0.964   5.473 -0.6320  0.4759 -1.4234
 4947SOL    HW226478   3.404   0.900   5.515  1.9823 -0.5115 -1.6681
 4948SOL     OW26479   4.253   0.990   3.127  0.7115 -0.2251  0.1694
 4948SOL    HW126480   4.188   1.031   3.071  2.3411  0.8209 -0.9378
 4948SOL    HW226481   4.253   1.041   3.208 -1.3282  0.7256 -0.4194
 4949SOL     OW26482   1.529   4.318   0.273 -0.2085  0.8190  0.0989
 4949SOL    HW126483   1.472   4.249   0.306 -2.1845  2.3107 -0.1650
 4949SOL    HW226484   1.465   4.386   0.252 -1.6193 -0.6391 -0.3689
 4950SOL     OW26485   2.184   3.822   0.945 -0.7104 -0.4135 -0.5421
 4950SOL    HW126486   2.146   3.843   1.030 -1.1432 -1.0807 -0.5727
 4950SOL    HW226487   2.276   3.839   0.968 -1.3871 -2.0823  3.2754
 4951SOL     OW26488   0.838   1.106   6.634 -0.4572 -0.7086  0.1525
 4951SOL    HW126489   0.838   1.197   6.602  1.0726 -0.9708 -0.5973
 4951SOL    HW226490   0.849   1.118   6.728  1.7686 -3.8755  0.2727
 4952SOL     OW26491   3.148   3.732  17.484 -0.6958  0.3500 -0.2508
 4952SOL    HW126492   3.088   3.802  17.459  0.3285  0.6857 -1.6985
 4952SOL    HW226493   3.078   3.675  17.516  0.0374 -0.5974 -0.3199
 4953SOL     OW26494   4.535   4.381   6.569  0.0734 -0.6736 -0.7741
 4953SOL    HW126495   4.471   4.398   6.500  4.1198  0.7211 -4.2073
 4953SOL    HW226496   4.580   4.313   6.520 -2.0774  0.7175 -4.7222
 4954SOL     OW26497   1.501   1.670  15.710  0.2502  0.0875  0.6476
 4954SOL    HW126498   1.553   1.594  15.732  1.4587  0.8543  0.4200
 4954SOL    HW226499   1.432   1.661  15.776  0.6928  0.5623  1.1731
 4955SOL     OW26500   1.528   2.209   2.895 -0.6204 -0.7328 -0.3436
 4955SOL    HW126501   1.466   2.195   2.823 -2.0659 -4.0854  1.5309
 4955SOL    HW226502   1.611   2.172   2.866 -0.0986 -0.6801  1.0868
 4956SOL     OW26503   1.816   1.966   9.384 -0.3983  0.1078  0.0444
 4956SOL    HW126504   1.818   2.010   9.299 -3.2471 -0.7025 -0.4540
 4956SOL    HW226505   1.883   2.011   9.435  1.3789 -1.5224 -0.8680
 4957SOL     OW26506   3.998   1.842  12.217  0.3768  0.1234 -0.0021
 4957SOL    HW126507   3.974   1.759  12.257  1.4347  0.2066  0.7810
 4957SOL    HW226508   4.069   1.876  12.271  1.0091  1.5814 -1.7366
 4958SOL     OW26509   1.362   1.372  10.373  0.7177  0.5390  0.0852
 4958SOL    HW126510   1.399   1.284  10.361  0.9945  0.5466  0.8692
 4958SOL    HW226511   1.284   1.361  10.320 -0.0093 -0.4454  1.3614
 4959SOL     OW26512   0.172   1.665  13.259 -0.0861 -0.2351 -0.1777
 4959SOL    HW126513   0.079   1.674  13.238  0.1557  1.4954 -0.4714
 4959SOL    HW226514   0.194   1.746  13.305  0.2034 -0.3494 -0.1168
 4960SOL     OW26515   2.277   4.235  17.662 -0.0673 -0.3894  0.3608
 4960SOL    HW126516   2.326   4.162  17.700  0.9978 -0.5760 -1.3494
 4960SOL    HW226517   2.199   4.182  17.644  1.1184 -2.2699  0.7927
 4961SOL     OW26518   2.914   0.803   6.654  0.6879  0.3796  0.1297
 4961SOL    HW126519   2.825   0.787   6.688  1.6300 -1.5234  1.7764
 4961SOL    HW226520   2.957   0.839   6.731  0.1605  0.3020  0.4626
 4962SOL     OW26521   2.400   1.846   3.273  0.3085  0.6674  0.5911
 4962SOL    HW126522   2.466   1.847   3.204  0.9871  1.3329  1.2645
 4962SOL    HW226523   2.416   1.759   3.311  0.9429  0.0313 -1.1325
 4963SOL     OW26524   2.057   3.672   7.723  0.0753 -0.9400  0.1884
 4963SOL    HW126525   2.139   3.646   7.766  0.0927 -0.9707  0.1364
 4963SOL    HW226526   2.080   3.760   7.694 -0.6818  0.1688  2.9238
 4964SOL     OW26527   2.808   3.832   9.318  0.3715  0.1285  0.4036
 4964SOL    HW126528   2.749   3.792   9.382 -1.5197 -0.9443 -1.9765
 4964SOL    HW226529   2.890   3.786   9.337  1.3915  1.9397  0.4091
 4965SOL     OW26530   2.087   3.363   5.176  0.2953  0.1382  0.0717
 4965SOL    HW126531   2.055   3.397   5.093 -0.0316 -2.3516 -0.8335
 4965SOL    HW226532   2.066   3.434   5.237  0.6423  1.1863 -1.0258
 4966SOL     OW26533   2.119   4.365   0.906 -0.4244  0.1643 -0.3633
 4966SOL    HW126534   2.051   4.365   0.838  1.0597  0.2758 -1.8433
 4966SOL    HW226535   2.180   4.430   0.872  0.2183 -0.1038  0.2801
 4967SOL     OW26536   4.641   2.770  15.246  0.0391 -0.3745 -0.1212
 4967SOL    HW126537   4.683   2.831  15.186  0.2426  0.9161  1.3361
 4967SOL    HW226538   4.667   2.692  15.197 -1.8093 -1.0295 -0.0490
 4968SOL     OW26539   2.253   2.488   1.595 -0.1377  0.5989 -0.3028
 4968SOL    HW126540   2.198   2.440   1.657  0.5456 -1.4504 -1.2809
 4968SOL    HW226541   2.270   2.569   1.643 -4.0528  0.6503  0.9625
 4969SOL     OW26542   3.235   2.107   3.110  0.4307 -0.2694  0.1252
 4969SOL    HW126543   3.315   2.158   3.122  0.4841 -0.1271 -0.8179
 4969SOL    HW226544   3.197   2.133   3.026  0.4093  1.0803  0.5459
 4970SOL     OW26545   4.062   3.733   4.306  0.4602 -0.3258  0.4689
 4970SOL    HW126546   4.029   3.743   4.395  2.4842 -0.3291  1.2351
 4970SOL    HW226547   4.156   3.724   4.323  0.2240 -2.4107  0.7554
 4971SOL     OW26548   3.998   3.186   3.100  0.6237 -0.3407 -0.2531
 4971SOL    HW126549   4.041   3.147   3.024 -0.1513  0.5119 -1.1421
 4971SOL    HW226550   4.063   3.172   3.169  0.9235  0.3917 -0.3817
 4972SOL     OW26551   1.613   0.117   6.300  0.1545  0.6921  0.0527
 4972SOL    HW126552   1.568   0.192   6.259 -1.9953 -0.2022  0.7908
 4972SOL    HW226553   1.559   0.046   6.266 -0.0306  1.5201 -1.4117
 4973SOL     OW26554   2.188   3.249   3.173 -0.1403  0.1826 -0.2200
 4973SOL    HW126555   2.127   3.176   3.190 -1.9262  1.4910 -1.0051
 4973SOL    HW226556   2.146   3.325   3.214  2.6340  1.4751  0.2174
 4974SOL     OW26557   1.178   0.740   9.008 -0.3396 -0.1930 -0.1491
 4974SOL    HW126558   1.100   0.736   8.954 -0.2613 -1.2944 -0.1945
 4974SOL    HW226559   1.225   0.659   8.984  0.5428  0.0752  0.6525
 4975SOL     OW26560   1.216   4.297   2.441 -0.0375 -0.1324  0.2037
 4975SOL    HW126561   1.235   4.272   2.531  2.9438  1.6558  0.0730
 4975SOL    HW226562   1.199   4.391   2.451  3.0199  0.5140 -0.7820
 4976SOL     OW26563   1.063   1.787   1.941 -0.2192 -0.3140  0.4330
 4976SOL    HW126564   1.137   1.758   1.888 -0.7999 -2.6773  0.9152
 4976SOL    HW226565   1.007   1.828   1.875  0.6004 -1.2260 -0.8161
 4977SOL     OW26566   1.945   0.653   7.796 -0.1396  0.0471 -0.0869
 4977SOL    HW126567   1.913   0.730   7.843  2.2234 -0.5323  2.4763
 4977SOL    HW226568   1.890   0.662   7.718  0.5938  1.0664 -0.4987
 4978SOL     OW26569   1.045   0.870   6.212  0.4013  0.3143 -0.0309
 4978SOL    HW126570   0.951   0.868   6.194  0.5932  2.0738 -1.2445
 4978SOL    HW226571   1.033   0.884   6.306  4.2402  1.6917  0.2728
 4979SOL     OW26572   3.552   1.158   2.573  0.1757 -0.4884  0.0535
 4979SOL    HW126573   3.460   1.140   2.591  0.1387  0.4850  0.8498
 4979SOL    HW226574   3.563   1.253   2.578 -2.8218 -0.2821  2.8063
 4980SOL     OW26575   0.675   3.793   8.948  0.0050 -0.0860 -0.0192
 4980SOL    HW126576   0.717   3.811   8.864  2.8901  1.4011  1.7461
 4980SOL    HW226577   0.589   3.831   8.933  0.4687  0.6779 -0.6799
 4981SOL     OW26578   0.789   1.083   4.460  0.2669  0.3556  0.6078
 4981SOL    HW126579   0.729   1.074   4.386  0.9905  0.6640 -0.0231
 4981SOL    HW226580   0.846   1.017   4.421 -2.4757 -2.4963  1.4142
 4982SOL     OW26581   2.598   1.074  16.980 -0.1889 -0.6727 -0.6598
 4982SOL    HW126582   2.681   1.071  16.932 -0.9761  2.0520 -2.1626
 4982SOL    HW226583   2.537   1.042  16.914 -1.3214  0.7324 -0.2817
 4983SOL     OW26584   3.662   2.625   2.463  0.2222  0.4961  0.5364
 4983SOL    HW126585   3.653   2.689   2.393 -1.3207 -0.3173  0.0036
 4983SOL    HW226586   3.715   2.557   2.424 -2.1738 -0.7628 -0.5163
 4984SOL     OW26587   1.298   1.896   8.832 -0.4237 -0.5273 -0.1588
 4984SOL    HW126588   1.207   1.873   8.813 -0.5175 -0.2470 -0.0510
 4984SOL    HW226589   1.271   1.958   8.900  1.3345  2.6900 -2.3758
 4985SOL     OW26590   0.063   1.007   6.444 -0.6154  0.6051 -0.3318
 4985SOL    HW126591   0.136   1.065   6.467 -0.1652 -0.6163  1.3281
 4985SOL    HW226592   0.008   1.061   6.388 -0.6638  0.2910 -0.5867
 4986SOL     OW26593   4.660   1.408   4.524  0.0818  0.3104  0.0912
 4986SOL    HW126594   4.668   1.448   4.437 -0.7823  0.7386  0.2062
 4986SOL    HW226595   4.628   1.320   4.504  3.1995 -0.9754  0.8782
 4987SOL     OW26596   0.868   3.094   6.816  0.7103  0.4834 -0.1870
 4987SOL    HW126597   0.818   3.030   6.765 -0.8940 -0.0225  1.9885
 4987SOL    HW226598   0.870   3.172   6.761  1.3238  0.7409  0.1995
 4988SOL     OW26599   1.818   1.531   2.996  0.3004 -0.2682 -0.1542
 4988SOL    HW126600   1.893   1.510   3.052  1.3027  1.3942 -0.8886
 4988SOL    HW226601   1.757   1.555   3.066  0.9291 -0.6869  0.5406
 4989SOL     OW26602   2.486   3.588  17.673 -0.3963 -0.7551 -0.5250
 4989SOL    HW126603   2.398   3.552  17.683 -0.5515  0.1031  1.0460
 4989SOL    HW226604   2.536   3.509  17.650 -0.2259 -0.9700  0.6179
 4990SOL     OW26605   0.967   3.547   8.770 -0.1473 -0.1502  0.4884
 4990SOL    HW126606   0.968   3.523   8.678  1.2715  0.9498  0.2246
 4990SOL    HW226607   0.988   3.640   8.767 -1.1477  0.0944  0.9527
 4991SOL     OW26608   4.253   0.242   5.516 -0.1278 -0.4240  0.0680
 4991SOL    HW126609   4.271   0.326   5.558  0.1398 -1.0574  1.2427
 4991SOL    HW226610   4.331   0.223   5.464 -0.8997 -1.6919 -0.6499
 4992SOL     OW26611   2.275   1.250   8.868  0.7562  0.3678 -0.1761
 4992SOL    HW126612   2.261   1.233   8.961 -0.8894 -2.9302 -1.0294
 4992SOL    HW226613   2.269   1.346   8.871  2.5426  0.5227 -1.3759
 4993SOL     OW26614   3.660   3.444   6.682  0.0787  0.2161 -0.0680
 4993SOL    HW126615   3.629   3.524   6.723  0.0196 -0.7915  1.8611
 4993SOL    HW226616   3.584   3.417   6.630  1.8748 -0.4969 -2.3315
 4994SOL     OW26617   3.923   1.071  10.270  0.2177  0.3026  0.4664
 4994SOL    HW126618   3.866   1.137  10.310  1.4314  2.0920 -0.7695
 4994SOL    HW226619   4.009   1.110  10.257  1.0240 -0.8294  2.2759
 4995SOL     OW26620   3.246   1.795   8.879 -0.1048 -0.2608  0.7673
 4995SOL    HW126621   3.273   1.753   8.961 -0.4406  0.4910  1.2592
 4995SOL    HW226622   3.216   1.879   8.911  0.5377 -0.4468  1.8693
 4996SOL     OW26623   1.026   3.010   3.662  0.3480  0.1624 -0.1369
 4996SOL    HW126624   1.057   3.031   3.574  1.1226 -0.4052  0.0006
 4996SOL    HW226625   1.047   3.088   3.713  0.0100  0.1480  0.0216
 4997SOL     OW26626   3.283   2.607   9.231  0.2023  0.3208 -0.4729
 4997SOL    HW126627   3.242   2.521   9.224 -1.5503  1.3378 -2.7020
 4997SOL    HW226628   3.284   2.604   9.326 -2.5841  2.0919 -0.3846
 4998SOL     OW26629   2.342   0.333   7.490 -0.8337  0.1004  0.4236
 4998SOL    HW126630   2.320   0.280   7.567 -1.3080 -0.5319 -0.1501
 4998SOL    HW226631   2.256   0.372   7.471 -0.5213 -0.2147 -1.6743
 4999SOL     OW26632   3.606   2.546   4.138  0.1181  0.1518 -0.2072
 4999SOL    HW126633   3.668   2.484   4.176 -0.3557 -0.0056  0.3085
 4999SOL    HW226634   3.671   2.615   4.122  1.5645 -0.3090  3.7523
 5000SOL     OW26635   0.853   4.513   3.753 -0.4149 -0.6260  0.6122
 5000SOL    HW126636   0.888   4.425   3.743  1.7478  0.0860  1.9948
 5000SOL    HW226637   0.797   4.479   3.823  0.8787 -4.0365 -0.0033
 5001SOL     OW26638   0.329   1.070   2.876 -0.1434  0.0616 -0.9298
 5001SOL    HW126639   0.300   1.133   2.810  1.2383  1.1142 -0.5110
 5001SOL    HW226640   0.378   1.010   2.820 -1.8023 -1.1922 -1.0635
 5002SOL     OW26641   1.083   4.658   7.442  0.1489  0.5478  0.4968
 5002SOL    HW126642   1.081   4.693   7.531 -2.0272  0.7134  0.3780
 5002SOL    HW226643   1.032   4.577   7.450 -0.8015  0.9971 -0.8898
 5003SOL     OW26644   3.562   3.901   1.493  0.5241 -0.3635 -0.4118
 5003SOL    HW126645   3.502   3.921   1.421 -0.6617 -2.0517  0.1131
 5003SOL    HW226646   3.524   3.821   1.529 -0.5968 -0.3840 -1.6066
 5004SOL     OW26647   1.490   1.590   4.659  0.2181  0.2540 -0.6602
 5004SOL    HW126648   1.517   1.527   4.592 -2.6547 -0.4418 -1.1483
 5004SOL    HW226649   1.486   1.672   4.610 -1.8260  0.8702  0.5369
 5005SOL     OW26650   4.082   3.137   1.851  0.3639 -0.2119 -0.3429
 5005SOL    HW126651   4.140   3.211   1.871 -1.2057  0.3549  1.9819
 5005SOL    HW226652   4.158   3.078   1.850 -0.8454 -1.7645  0.8933
 5006SOL     OW26653   0.318   1.547  11.068  0.2336  0.4337  0.0496
 5006SOL    HW126654   0.280   1.621  11.021 -1.1771 -0.6381 -0.4809
 5006SOL    HW226655   0.239   1.499  11.093 -0.7299  0.7879 -2.3454
 5007SOL     OW26656   3.813   4.395   8.280  0.3477 -0.0313 -0.0516
 5007SOL    HW126657   3.847   4.480   8.251  1.9650 -0.9839 -0.9585
 5007SOL    HW226658   3.848   4.391   8.369  1.0044  0.4834 -0.2862
 5008SOL     OW26659   2.974   0.758   0.741  0.2876 -0.1857 -0.1265
 5008SOL    HW126660   3.021   0.748   0.824 -1.6978  0.1491  1.0434
 5008SOL    HW226661   2.902   0.695   0.751 -0.2727  0.8642  2.4909
 5009SOL     OW26662   3.557   1.439   2.687 -0.4872 -0.0912 -0.3493
 5009SOL    HW126663   3.519   1.505   2.744  0.7943 -0.8371  1.3600
 5009SOL    HW226664   3.559   1.469   2.596 -0.8070  0.4064 -0.1902
 5010SOL     OW26665   1.363   1.048  10.473 -0.0234 -0.2834  0.0538
 5010SOL    HW126666   1.457   1.047  10.492 -0.1874  2.2695  0.8898
 5010SOL    HW226667   1.362   0.964  10.426 -2.2331 -0.8775  1.1517
 5011SOL     OW26668   3.720   2.854   8.493  0.1161 -0.0823 -0.3261
 5011SOL    HW126669   3.659   2.826   8.561 -1.9185  2.6788 -1.0490
 5011SOL    HW226670   3.751   2.938   8.527  0.5670 -0.2433 -0.3399
 5012SOL     OW26671   4.703   2.146   3.606 -0.0047  0.0181 -0.2020
 5012SOL    HW126672   4.613   2.164   3.632 -0.3898 -2.2834  0.0453
 5012SOL    HW226673   4.726   2.097   3.685  1.4173  0.5724 -0.2739
 5013SOL     OW26674   1.706   3.599  13.069 -0.1002  0.5080 -0.8537
 5013SOL    HW126675   1.623   3.644  13.086 -1.8084 -2.4021 -1.6194
 5013SOL    HW226676   1.697   3.531  13.137  0.9118  0.3357 -0.8893
 5014SOL     OW26677   3.002   2.314   2.099 -0.4733 -0.5942  0.0178
 5014SOL    HW126678   2.961   2.373   2.162  2.8720 -0.3146  1.8821
 5014SOL    HW226679   3.093   2.317   2.128 -0.2992  1.6709 -0.7757
 5015SOL     OW26680   4.298   2.706   5.512 -0.0090  0.1375 -0.2781
 5015SOL    HW126681   4.243   2.740   5.441 -1.3006 -1.8512 -0.2382
 5015SOL    HW226682   4.240   2.637   5.546  1.8848 -1.2646  0.1232
 5016SOL     OW26683   1.054   3.571  11.916 -0.3010  0.5896  0.2399
 5016SOL    HW126684   1.107   3.561  11.995  0.2837  1.0862 -0.0863
 5016SOL    HW226685   0.990   3.509  11.951  0.7597 -0.8420 -0.3488
 5017SOL     OW26686   0.667   0.545   2.509 -0.0060  0.2932  0.1482
 5017SOL    HW126687   0.718   0.468   2.532  0.9021  0.5997 -0.8566
 5017SOL    HW226688   0.732   0.615   2.513  1.0431 -0.6229 -0.8646
 5018SOL     OW26689   3.442   0.570   2.658  0.4792  0.2144  0.3819
 5018SOL    HW126690   3.442   0.492   2.714 -0.9178 -1.0319 -1.3790
 5018SOL    HW226691   3.350   0.593   2.673  0.1280  0.0442 -1.6298
 5019SOL     OW26692   2.110   4.047  17.542  0.3398 -0.0902  0.0931
 5019SOL    HW126693   2.195   4.030  17.503  0.6732 -0.3013  0.9114
 5019SOL    HW226694   2.049   3.999  17.487 -2.0472  2.6779  0.2710
 5020SOL     OW26695   0.769   3.245   8.593  0.3115  0.1307  0.3540
 5020SOL    HW126696   0.747   3.180   8.526 -1.2066  0.0929  0.8819
 5020SOL    HW226697   0.808   3.314   8.538  1.7762 -0.9951 -0.0100
 5021SOL     OW26698   2.834   4.506   2.941  0.4004 -0.7321 -0.4901
 5021SOL    HW126699   2.767   4.445   2.972 -1.8482  1.2480 -1.4471
 5021SOL    HW226700   2.862   4.555   3.018 -0.2728  0.3990 -0.9587
 5022SOL     OW26701   1.819   3.871   8.684 -0.3372  0.4055 -0.0243
 5022SOL    HW126702   1.732   3.837   8.704  0.3622 -0.2734  1.8923
 5022SOL    HW226703   1.872   3.842   8.758 -1.5245 -0.2318  0.5738
 5023SOL     OW26704   2.933   3.944  15.766  0.3813  0.2738 -0.1276
 5023SOL    HW126705   2.994   3.905  15.703 -2.0468 -1.1236 -1.6090
 5023SOL    HW226706   2.896   3.867  15.809  3.9729 -1.1135  0.4803
 5024SOL     OW26707   4.217   4.718   3.690 -0.5900 -0.1779 -0.0713
 5024SOL    HW126708   4.177   0.063   3.666 -1.0675 -0.4777 -0.3201
 5024SOL    HW226709   4.232   4.730   3.784  2.0754  2.8792 -0.8553
 5025SOL     OW26710   0.335   0.354   4.405 -0.0616 -0.1153 -0.3599
 5025SOL    HW126711   0.417   0.330   4.360  1.0841 -1.6038  2.5442
 5025SOL    HW226712   0.296   0.417   4.345  1.2966  1.4172  0.3554
 5026SOL     OW26713   1.923   3.608   6.071 -0.3348 -0.1244 -0.3195
 5026SOL    HW126714   1.955   3.611   5.981  0.0767 -1.9765 -0.2440
 5026SOL    HW226715   1.999   3.643   6.117  0.1610 -0.7300 -0.6765
 5027SOL     OW26716   4.153   0.426   5.804  0.1943 -0.1688 -0.0329
 5027SOL    HW126717   4.190   0.511   5.828  0.5623 -0.1243 -0.7833
 5027SOL    HW226718   4.151   0.437   5.709  0.3681  0.8460  0.0798
 5028SOL     OW26719   4.547   0.045   4.622 -0.8978  0.6076  0.0691
 5028SOL    HW126720   4.473   4.733   4.654 -0.6290 -0.1671 -0.5077
 5028SOL    HW226721   4.617   0.002   4.672 -1.8632 -0.6307  0.3458
 5029SOL     OW26722   2.443   4.704   1.309 -0.7515  0.7761  0.2170
 5029SOL    HW126723   2.502   4.723   1.236 -0.2763  1.9127  0.8881
 5029SOL    HW226724   2.513   4.684   1.371  0.4200  0.2626 -1.2595
 5030SOL     OW26725   4.312   2.555  10.238 -0.2994  0.2414 -0.4213
 5030SOL    HW126726   4.357   2.637  10.220  1.2335 -0.1854  1.3960
 5030SOL    HW226727   4.390   2.499  10.240  1.4611  2.7348  1.2647
 5031SOL     OW26728   3.494   0.295  16.654 -0.6886  0.1827 -0.4185
 5031SOL    HW126729   3.538   0.378  16.673  1.9717 -0.4785 -3.9035
 5031SOL    HW226730   3.451   0.318  16.572 -1.2394 -0.0375 -0.1962
 5032SOL     OW26731   2.849   4.050   8.537  0.1957 -0.1137 -0.1252
 5032SOL    HW126732   2.806   4.136   8.540 -0.6248 -0.5570  0.6262
 5032SOL    HW226733   2.944   4.056   8.531  0.0406  2.5200  0.1353
 5033SOL     OW26734   3.143   0.094   9.132 -0.3663  0.4925  0.1502
 5033SOL    HW126735   3.168   0.134   9.049  1.5075 -0.6294  0.1941
 5033SOL    HW226736   3.223   0.124   9.174 -0.3864  0.5362  0.1572
 5034SOL     OW26737   0.481   0.103  12.506  0.1581  0.2457  0.6695
 5034SOL    HW126738   0.482   0.046  12.583 -0.4724 -2.2817 -1.2048
 5034SOL    HW226739   0.464   0.046  12.431  0.9522  0.1323  0.5727
 5035SOL     OW26740   4.143   2.622   4.193  0.3313 -0.3670 -0.0690
 5035SOL    HW126741   4.076   2.690   4.202  2.4814  1.6986  0.4245
 5035SOL    HW226742   4.184   2.634   4.108 -0.2760  0.7700 -0.2044
 5036SOL     OW26743   3.054   4.607  17.244  0.2662 -0.0961  0.0339
 5036SOL    HW126744   3.142   4.569  17.245  1.2412  2.1847 -0.5032
 5036SOL    HW226745   3.063   4.687  17.296 -1.7647  0.2299 -0.0955
 5037SOL     OW26746   4.474   3.645   5.478 -0.4880 -0.0349  0.4302
 5037SOL    HW126747   4.460   3.730   5.437 -3.8831 -1.4222 -1.2921
 5037SOL    HW226748   4.515   3.611   5.398  0.4182 -0.7515  1.1956
 5038SOL     OW26749   0.579   4.305   8.060 -0.5823 -0.1084 -0.1136
 5038SOL    HW126750   0.643   4.341   8.122 -0.0744 -2.0912  0.4871
 5038SOL    HW226751   0.600   4.212   8.061  2.4919  0.6038  1.1774
 5039SOL     OW26752   4.569   2.299   9.936 -0.2908 -0.2402 -0.3028
 5039SOL    HW126753   4.577   2.394   9.937  1.4873 -0.4174  1.9240
 5039SOL    HW226754   4.598   2.273   9.848 -2.4466 -1.3463 -0.6849
 5040SOL     OW26755   0.871   4.274   9.343 -0.0677  0.3239  0.1181
 5040SOL    HW126756   0.840   4.349   9.293  1.3019  0.4815 -0.5028
 5040SOL    HW226757   0.920   4.320   9.412 -1.0001 -0.5500  1.3646
 5041SOL     OW26758   1.825   3.996   0.314  0.4815  0.1970  0.5443
 5041SOL    HW126759   1.864   4.052   0.247 -2.3899  1.4534 -0.0502
 5041SOL    HW226760   1.737   3.990   0.278  0.5979 -1.0042  0.4397
 5042SOL     OW26761   2.388   2.828   5.340 -0.6896 -0.0709  0.2379
 5042SOL    HW126762   2.472   2.873   5.337 -0.0018 -1.3280  0.5773
 5042SOL    HW226763   2.394   2.761   5.409 -1.8054  0.0322  0.4448
 5043SOL     OW26764   4.669   0.723   7.941  0.6652 -0.1599  0.2482
 5043SOL    HW126765   4.575   0.720   7.926  0.9222 -0.0858 -1.4667
 5043SOL    HW226766   4.670   0.721   8.036  0.4349 -1.7085  0.2122
 5044SOL     OW26767   4.194   1.830  14.634  0.3435 -0.2244 -0.2621
 5044SOL    HW126768   4.163   1.898  14.575  0.2269  0.3382  0.4483
 5044SOL    HW226769   4.116   1.794  14.675 -0.2070 -0.0425 -1.1605
 5045SOL     OW26770   3.779   4.000   8.214  0.0556  0.2219 -0.2147
 5045SOL    HW126771   3.824   3.984   8.297  0.4960  0.7204 -0.3561
 5045SOL    HW226772   3.754   3.910   8.194 -1.4318  0.6324 -0.1800
 5046SOL     OW26773   1.092   3.021  13.418 -0.1741  0.7407 -0.2057
 5046SOL    HW126774   1.062   3.112  13.416  1.6523  1.3363 -0.4292
 5046SOL    HW226775   1.160   3.020  13.350  0.1283  0.4631  0.1028
 5047SOL     OW26776   4.436   0.835   5.353 -0.2107  0.0397 -1.0216
 5047SOL    HW126777   4.499   0.835   5.425 -2.0245 -1.0074  0.5648
 5047SOL    HW226778   4.466   0.759   5.302  3.1948  1.2747 -0.9002
 5048SOL     OW26779   3.817   1.358   5.365  0.7184 -0.6913 -0.0728
 5048SOL    HW126780   3.835   1.300   5.291  2.6403  2.0491 -1.7640
 5048SOL    HW226781   3.723   1.373   5.356  0.9888  1.2561  0.4488
 5049SOL     OW26782   0.274   4.463   7.056 -0.2430  0.3652 -0.3023
 5049SOL    HW126783   0.228   4.480   6.974 -2.1389  0.4471  0.7650
 5049SOL    HW226784   0.236   4.522   7.121 -0.7291 -0.2599 -0.0160
 5050SOL     OW26785   3.878   0.082   8.989  0.2097  0.0771  0.3620
 5050SOL    HW126786   3.923   0.134   8.922  0.9284 -0.6373  0.3007
 5050SOL    HW226787   3.828   0.033   8.923  0.7459  0.1020 -0.0637
 5051SOL     OW26788   3.995   2.243   2.619  0.0707  0.0876  1.1850
 5051SOL    HW126789   4.033   2.267   2.703  3.0717 -1.2091  0.2239
 5051SOL    HW226790   4.059   2.192   2.568 -0.6955  0.6559 -0.3505
 5052SOL     OW26791   0.174   1.529   7.419 -0.3943  0.7305 -0.1174
 5052SOL    HW126792   0.120   1.607   7.416 -1.7070 -0.1375  0.8762
 5052SOL    HW226793   0.104   1.464   7.416 -0.6537  1.1152 -2.4949
 5053SOL     OW26794   1.326   4.639   7.338 -0.5389 -0.6829 -0.1458
 5053SOL    HW126795   1.236   4.632   7.369 -0.5933 -0.3021 -0.2151
 5053SOL    HW226796   1.336   4.728   7.304 -1.2102  0.2685  2.1442
 5054SOL     OW26797   4.423   2.179   0.697  0.0908 -0.3453  0.2346
 5054SOL    HW126798   4.449   2.241   0.629  1.5630  0.5044  1.5564
 5054SOL    HW226799   4.330   2.202   0.700  0.2327  0.2451  0.0498
 5055SOL     OW26800   0.445   0.535   8.101  0.2709 -0.1981 -0.2585
 5055SOL    HW126801   0.436   0.586   8.020  1.9259 -1.7555 -1.4218
 5055SOL    HW226802   0.539   0.516   8.092  0.4609  0.6885 -0.1027
 5056SOL     OW26803   0.264   2.132   7.858 -0.2578  0.0775 -0.0038
 5056SOL    HW126804   0.303   2.124   7.771 -1.1736 -1.6246 -0.2686
 5056SOL    HW226805   0.257   2.040   7.885 -1.2370  0.5783  1.4269
 5057SOL     OW26806   2.203   2.474   4.056  0.2495 -0.0517  0.2649
 5057SOL    HW126807   2.159   2.558   4.045 -0.8992 -0.7209 -0.3044
 5057SOL    HW226808   2.155   2.427   4.125 -0.3316  0.2496  0.0663
 5058SOL     OW26809   3.960   4.365   6.602 -0.5370 -0.1789 -0.3040
 5058SOL    HW126810   3.960   4.303   6.529 -2.2948 -0.8118  0.2300
 5058SOL    HW226811   4.048   4.361   6.639 -0.1860  1.1746 -0.9651
 5059SOL     OW26812   4.118   1.483   6.362 -0.7068 -0.1613 -0.1346
 5059SOL    HW126813   4.046   1.466   6.300 -1.9132 -2.2744  1.8313
 5059SOL    HW226814   4.189   1.494   6.298  2.1872 -0.5865  3.0383
 5060SOL     OW26815   2.426   4.338  12.396  0.3867 -0.0033 -0.3988
 5060SOL    HW126816   2.499   4.390  12.431 -0.4068  0.4418  0.5827
 5060SOL    HW226817   2.383   4.403  12.342 -0.0237  0.6887  0.7576
 5061SOL     OW26818   3.398   3.503   2.973 -0.2670 -0.0588 -0.2730
 5061SOL    HW126819   3.435   3.575   2.922 -0.5243  0.0609 -0.2868
 5061SOL    HW226820   3.403   3.540   3.061 -1.5101  1.3332 -0.7855
 5062SOL     OW26821   1.983   3.193   4.637 -0.2850  0.0802  0.3084
 5062SOL    HW126822   1.983   3.136   4.714  0.8568  0.4130  0.5498
 5062SOL    HW226823   2.074   3.218   4.621 -0.8612  2.4547  0.7025
 5063SOL     OW26824   0.922   0.153   9.153 -0.1282  0.2115 -0.3893
 5063SOL    HW126825   0.934   0.131   9.245  0.7196  0.2223 -0.4909
 5063SOL    HW226826   0.855   0.095   9.119 -0.4395 -0.4086  1.3297
 5064SOL     OW26827   0.324   0.394   9.047  0.3160 -0.4815  0.4488
 5064SOL    HW126828   0.288   0.306   9.050  0.9651 -0.7775 -0.7399
 5064SOL    HW226829   0.295   0.437   8.966  0.3013  0.9833  1.2192
 5065SOL     OW26830   4.184   4.274   5.319 -0.3462 -0.0390  0.3420
 5065SOL    HW126831   4.094   4.275   5.351 -0.4243 -1.1065  0.1631
 5065SOL    HW226832   4.176   4.298   5.227  0.1372 -1.2283 -0.0088
 5066SOL     OW26833   0.825   2.477   9.743 -0.6592  0.0120  0.0714
 5066SOL    HW126834   0.752   2.473   9.806 -1.0829  0.8811 -0.3747
 5066SOL    HW226835   0.803   2.415   9.673 -0.3530  0.5637 -0.5112
 5067SOL     OW26836   0.536   1.544  12.789 -0.2187  0.1159  0.4040
 5067SOL    HW126837   0.541   1.600  12.867  1.9199 -0.7455  0.8742
 5067SOL    HW226838   0.612   1.574  12.740  1.1419 -0.7559  2.0118
 5068SOL     OW26839   4.208   0.841   7.000  0.0174  0.0250 -0.6325
 5068SOL    HW126840   4.113   0.849   6.991 -0.1991 -1.1834  0.6408
 5068SOL    HW226841   4.206   0.756   7.045  0.0818 -0.1175 -0.8947
 5069SOL     OW26842   3.582   3.814   5.613  1.1007  0.0843  0.8695
 5069SOL    HW126843   3.576   3.846   5.703  0.4490  1.8065  0.2159
 5069SOL    HW226844   3.602   3.721   5.617 -0.7167 -0.3060  0.8015
 5070SOL     OW26845   0.185   3.616   2.488 -0.0058  0.1776  0.1314
 5070SOL    HW126846   0.213   3.696   2.533  1.4473  0.5172 -1.3904
 5070SOL    HW226847   0.243   3.550   2.526  0.0845  0.0194 -0.2819
 5071SOL     OW26848   1.135   1.628  13.025 -0.2299 -0.4418  0.2581
 5071SOL    HW126849   1.083   1.622  13.105  0.8145 -0.4223  0.9430
 5071SOL    HW226850   1.218   1.581  13.035  0.2616  0.2350 -0.6477
 5072SOL     OW26851   0.496   4.406   5.595 -0.2284  1.1199 -0.3030
 5072SOL    HW126852   0.438   4.330   5.596  0.6003  0.5107  2.2910
 5072SOL    HW226853   0.484   4.436   5.685  0.8009  0.4060  0.0846
 5073SOL     OW26854   3.691   2.809   4.498  0.9504  0.1529 -0.1160
 5073SOL    HW126855   3.605   2.846   4.519  0.1933 -1.0007 -1.1428
 5073SOL    HW226856   3.734   2.867   4.435  1.0461  1.6734  1.3615
 5074SOL     OW26857   1.480   4.720   9.192  0.2002  0.4792 -0.3041
 5074SOL    HW126858   1.521   0.063   9.220  0.7789 -0.0431  0.3831
 5074SOL    HW226859   1.392   4.730   9.228  0.0906  1.5478 -0.8808
 5075SOL     OW26860   3.236   4.137  15.131  0.6348  0.4094 -0.0387
 5075SOL    HW126861   3.261   4.106  15.218 -1.3825 -4.3905 -1.1194
 5075SOL    HW226862   3.305   4.112  15.070 -0.2241 -1.2829 -0.3367
 5076SOL     OW26863   0.785   0.401   2.192  0.5466  0.3628  0.2489
 5076SOL    HW126864   0.828   0.385   2.108 -0.2691  2.1828 -0.5091
 5076SOL    HW226865   0.850   0.366   2.253  0.8794 -2.7088 -1.8609
 5077SOL     OW26866   4.008   2.204   9.577  0.1552  0.2368  0.0114
 5077SOL    HW126867   4.072   2.243   9.516  2.7492 -2.1468  1.2329
 5077SOL    HW226868   3.964   2.288   9.590  0.6931  0.7110 -1.1384
 5078SOL     OW26869   4.292   3.468   6.866 -0.8071  0.4357 -0.1061
 5078SOL    HW126870   4.213   3.449   6.917 -0.4910 -2.1327 -0.5780
 5078SOL    HW226871   4.343   3.388   6.880 -1.4670 -0.0693 -0.5914
 5079SOL     OW26872   0.467   3.922  14.913 -0.1392  0.3880 -0.3967
 5079SOL    HW126873   0.540   3.970  14.952 -0.1710  0.3017 -0.2317
 5079SOL    HW226874   0.519   3.904  14.834  0.4208  1.3856 -0.2603
 5080SOL     OW26875   2.243   1.108   2.077  0.2236  0.3311 -0.1390
 5080SOL    HW126876   2.155   1.080   2.051 -0.2420  1.3872  0.3266
 5080SOL    HW226877   2.229   1.127   2.170  1.3619  0.0959  0.0695
 5081SOL     OW26878   4.506   3.218   3.505 -0.5541 -0.5036 -0.4463
 5081SOL    HW126879   4.521   3.268   3.586 -1.0794 -0.3977 -0.4183
 5081SOL    HW226880   4.583   3.239   3.452  0.8492 -1.8182  1.0485
 5082SOL     OW26881   0.094   3.094   6.817  0.1818  0.0943  0.0353
 5082SOL    HW126882   0.022   3.088   6.754  1.3299 -2.5113 -1.0627
 5082SOL    HW226883   0.149   3.160   6.775 -0.4977  1.6321  1.6145
 5083SOL     OW26884   0.983   3.492   1.353 -0.2492  0.4889  0.6447
 5083SOL    HW126885   0.889   3.483   1.367 -0.3120  0.1436  0.0407
 5083SOL    HW226886   1.011   3.552   1.422  0.5559 -0.6722  1.3352
 5084SOL     OW26887   2.948   1.207  17.498  0.5713 -0.2653 -0.0657
 5084SOL    HW126888   3.020   1.161  17.541  0.7246 -0.4194 -0.4838
 5084SOL    HW226889   2.881   1.143  17.475 -1.5912  1.8211  0.4685
 5085SOL     OW26890   4.117   3.650   3.835  0.0560  0.0309 -0.4093
 5085SOL    HW126891   4.050   3.585   3.857 -0.8013  0.8744 -0.5220
 5085SOL    HW226892   4.099   3.706   3.911  0.4719  3.4872 -2.8658
 5086SOL     OW26893   3.869   1.674   9.267  0.5362 -0.2179 -0.5141
 5086SOL    HW126894   3.836   1.713   9.348 -1.6478 -3.7205  0.2642
 5086SOL    HW226895   3.875   1.755   9.215  2.4627 -0.0853 -0.1022
 5087SOL     OW26896   1.755   3.293   3.912  1.0850 -0.0910  0.0330
 5087SOL    HW126897   1.716   3.326   3.993  0.3312  1.6078 -1.0135
 5087SOL    HW226898   1.672   3.257   3.882  0.5839 -0.3441  1.7077
 5088SOL     OW26899   0.327   3.320   2.198  0.5519 -0.2362  0.3654
 5088SOL    HW126900   0.372   3.316   2.114  1.3287 -0.9342  0.8192
 5088SOL    HW226901   0.343   3.414   2.191  0.0175 -0.3357 -2.2955
 5089SOL     OW26902   0.555   1.320   9.688  0.7359  0.1131 -0.0296
 5089SOL    HW126903   0.491   1.294   9.622  1.1368  0.5383 -0.5859
 5089SOL    HW226904   0.563   1.413   9.666  0.7913 -0.3809 -2.0498
 5090SOL     OW26905   2.074   0.439   0.153 -0.4657 -0.0939 -0.0838
 5090SOL    HW126906   2.007   0.506   0.146  0.9653  1.0922 -2.3939
 5090SOL    HW226907   2.057   0.397   0.069 -2.0917 -0.3649  0.3806
 5091SOL     OW26908   1.831   3.774   3.771  0.3000 -0.6577 -0.2983
 5091SOL    HW126909   1.768   3.705   3.750 -1.7148  0.1404  2.9933
 5091SOL    HW226910   1.888   3.764   3.695  0.8042  0.4296 -0.0594
 5092SOL     OW26911   4.044   2.781   4.484  0.1726  0.2903  0.4286
 5092SOL    HW126912   4.108   2.745   4.546  0.7776 -0.6393 -0.7349
 5092SOL    HW226913   3.970   2.721   4.493 -0.0570  0.4505 -0.3887
 5093SOL     OW26914   0.574   0.442   8.698  0.0173  0.1096 -0.7393
 5093SOL    HW126915   0.619   0.358   8.699 -0.5017 -0.1434  0.7436
 5093SOL    HW226916   0.625   0.483   8.768  0.0960  2.3883 -2.1302
 5094SOL     OW26917   2.372   4.419   1.409 -0.3625 -0.3039 -0.0137
 5094SOL    HW126918   2.356   4.512   1.391 -0.5456 -0.4383 -0.5369
 5094SOL    HW226919   2.355   4.380   1.323 -1.6387 -0.0900  0.1290
 5095SOL     OW26920   0.419   1.428   4.787  0.3442 -0.1612  0.2683
 5095SOL    HW126921   0.375   1.344   4.796 -0.8239  0.4148 -0.1177
 5095SOL    HW226922   0.347   1.480   4.753  1.8098  1.0260 -1.0316
 5096SOL     OW26923   3.898   4.371  15.486  0.0231  0.2811 -0.3803
 5096SOL    HW126924   3.806   4.388  15.465 -0.2670  0.4877  1.0251
 5096SOL    HW226925   3.930   4.455  15.518  1.9546  0.3906 -2.6333
 5097SOL     OW26926   3.730   3.791   0.508  0.4767 -0.5327 -0.1680
 5097SOL    HW126927   3.652   3.834   0.542 -0.4535 -1.7479 -0.8025
 5097SOL    HW226928   3.788   3.783   0.584  0.6318  0.3502 -0.1870
 5098SOL     OW26929   1.961   3.602   7.393 -0.2521 -0.5608 -0.0380
 5098SOL    HW126930   2.047   3.568   7.418  0.2186  1.6439  1.3171
 5098SOL    HW226931   1.911   3.528   7.428  1.2281 -1.3841  0.3537
 5099SOL     OW26932   4.585   2.876   5.557 -0.3895 -0.1957  0.2658
 5099SOL    HW126933   4.564   2.783   5.562 -0.0254 -0.3139 -0.3729
 5099SOL    HW226934   4.580   2.883   5.461 -2.0003  3.4457  0.6022
 5100SOL     OW26935   0.685   0.092  16.351  0.0959  0.5132  0.8066
 5100SOL    HW126936   0.749   0.029  16.319  0.3533  0.0774  2.2077
 5100SOL    HW226937   0.698   0.158  16.282 -1.7586  1.2942  1.1890
 5101SOL     OW26938   1.846   4.204   3.629  0.0517 -0.1383  0.2992
 5101SOL    HW126939   1.888   4.258   3.696 -0.3625 -1.3746  1.5365
 5101SOL    HW226940   1.804   4.271   3.574  0.7442  0.4540  0.4835
 5102SOL     OW26941   0.628   2.103   9.123  0.3903  0.5434 -0.0349
 5102SOL    HW126942   0.566   2.065   9.186 -0.2903 -1.0258 -1.6454
 5102SOL    HW226943   0.614   2.042   9.050  0.3490 -1.5141  1.6918
 5103SOL     OW26944   4.646   3.775   9.882 -0.1921  0.0270 -0.5103
 5103SOL    HW126945   4.684   3.694   9.917  0.5004  0.2026 -0.8540
 5103SOL    HW226946   4.681   3.784   9.794  0.3499  1.2678 -0.1692
 5104SOL     OW26947   4.030   0.640   8.592 -0.5985 -0.4758 -0.6963
 5104SOL    HW126948   4.098   0.645   8.524 -0.3733 -2.8860 -0.6347
 5104SOL    HW226949   4.045   0.718   8.646  1.3748 -0.8392 -0.7400
 5105SOL     OW26950   0.007   0.616   2.631  0.0867 -0.1600  0.5278
 5105SOL    HW126951   4.700   0.634   2.549  1.2504  1.8334  0.3246
 5105SOL    HW226952   4.675   0.629   2.694  0.4862 -0.8383  1.1085
 5106SOL     OW26953   2.000   4.118   4.712  0.1407 -0.1587  0.3475
 5106SOL    HW126954   1.921   4.120   4.658  0.0222 -2.2083  0.4422
 5106SOL    HW226955   1.978   4.166   4.791 -2.7855 -0.9437 -0.0035
 5107SOL     OW26956   3.031   2.584   8.350  0.2081  0.1043  0.5079
 5107SOL    HW126957   3.063   2.609   8.263 -1.0746 -0.9104 -0.2595
 5107SOL    HW226958   2.950   2.535   8.336 -0.0021  0.1583  1.5125
 5108SOL     OW26959   2.056   0.265   9.852  0.1798  0.4270 -0.0998
 5108SOL    HW126960   2.012   0.199   9.906 -0.9247  0.8809 -0.4427
 5108SOL    HW226961   2.123   0.211   9.810 -0.1978  0.6129 -0.9525
 5109SOL     OW26962   1.381   1.084  10.064 -0.7039 -0.5076 -0.5092
 5109SOL    HW126963   1.442   1.089   9.991 -0.3332  1.1492 -0.0831
 5109SOL    HW226964   1.424   1.139  10.129 -2.7557  2.3116 -1.5368
 5110SOL     OW26965   1.922   1.726  10.610 -0.6939 -0.1979 -0.2731
 5110SOL    HW126966   1.944   1.816  10.632 -0.3253 -0.6615  1.2688
 5110SOL    HW226967   1.994   1.699  10.553 -1.9996 -0.7556 -1.6655
 5111SOL     OW26968   4.393   2.432   4.787  0.1790 -0.0978 -0.0547
 5111SOL    HW126969   4.410   2.338   4.781 -2.1638 -0.5131 -0.2295
 5111SOL    HW226970   4.370   2.456   4.697  2.0696 -1.0441 -0.7877
 5112SOL     OW26971   4.376   1.721  11.269  0.7672  0.3778 -0.4565
 5112SOL    HW126972   4.294   1.742  11.315  1.9957 -0.1840  1.9783
 5112SOL    HW226973   4.443   1.747  11.332  2.9778 -1.5440 -2.0568
 5113SOL     OW26974   3.075   0.102  15.404  0.1242  0.7265  0.2946
 5113SOL    HW126975   3.013   0.099  15.331  2.5966  0.4949 -1.7825
 5113SOL    HW226976   3.150   0.137  15.357 -0.1113 -1.3230 -1.5949
 5114SOL     OW26977   2.966   0.431  13.944 -0.3103  0.6254 -0.0815
 5114SOL    HW126978   2.981   0.336  13.937 -1.2662  0.3266  2.0264
 5114SOL    HW226979   2.968   0.450  13.850  2.1630 -0.8070 -0.3329
 5115SOL     OW26980   3.696   3.307   9.889  0.9547  1.1065  0.5554
 5115SOL    HW126981   3.734   3.328   9.974 -0.3032 -2.4906  2.0176
 5115SOL    HW226982   3.720   3.215   9.888 -2.8123  0.1743 -3.0029
 5116SOL     OW26983   0.765   3.483  12.166  0.3178  0.4118 -0.1630
 5116SOL    HW126984   0.692   3.545  12.156 -1.0898 -1.4880 -1.7071
 5116SOL    HW226985   0.836   3.544  12.186  1.5192 -1.5250  1.3839
 5117SOL     OW26986   3.226   0.049  14.347  0.1247  0.5125  0.0404
 5117SOL    HW126987   3.149   0.105  14.354  0.9705  1.6661  0.1086
 5117SOL    HW226988   3.184   4.732  14.281 -1.0802  0.3764  0.9050
 5118SOL     OW26989   2.059   2.685   3.350  0.5594  0.3787  0.8332
 5118SOL    HW126990   1.976   2.713   3.311  0.8049 -0.4091 -0.2744
 5118SOL    HW226991   2.098   2.766   3.383  0.7625  0.0640  1.3687
 5119SOL     OW26992   4.428   4.685   0.073  0.1828  0.5710 -0.3575
 5119SOL    HW126993   4.376   4.605   0.074 -1.0250  1.3541 -0.0088
 5119SOL    HW226994   4.513   4.664   0.034 -0.6697  0.4462 -2.1325
 5120SOL     OW26995   1.295   4.381   8.694 -0.3844  0.5464  0.1158
 5120SOL    HW126996   1.301   4.300   8.644 -2.4405 -0.3016  1.2802
 5120SOL    HW226997   1.347   4.360   8.772 -1.9263  1.1849  1.3048
 5121SOL     OW26998   3.644   1.819   3.494  0.0191  0.4006 -0.2240
 5121SOL    HW126999   3.707   1.789   3.560  0.7931  0.3826 -0.9652
 5121SOL    HW227000   3.658   1.914   3.494  0.8131  0.2841 -1.1417
 5122SOL     OW27001   1.713   0.286   7.568 -0.3014 -0.1778 -0.6632
 5122SOL    HW127002   1.661   0.206   7.561  0.7559 -0.9479  0.2245
 5122SOL    HW227003   1.788   0.252   7.616 -1.8851 -0.8181  1.3511
 5123SOL     OW27004   2.427   1.726   8.055 -0.2560  0.4121  0.4335
 5123SOL    HW127005   2.461   1.639   8.038 -0.7198  0.8554 -2.6854
 5123SOL    HW227006   2.351   1.732   7.997  0.0477 -1.0852 -0.1030
 5124SOL     OW27007   0.378   1.419  10.292 -0.1116 -0.8800  0.9335
 5124SOL    HW127008   0.347   1.392  10.205  1.0750  0.3094  0.1333
 5124SOL    HW227009   0.301   1.456  10.335 -0.9193 -0.3817 -0.9282
 5125SOL     OW27010   3.858   0.942  10.030 -0.2215  0.8388  0.1033
 5125SOL    HW127011   3.890   0.957  10.118 -1.6200  2.7413  0.2658
 5125SOL    HW227012   3.772   0.909  10.055 -0.7055  1.4064 -0.7856
 5126SOL     OW27013   4.145   1.047  16.055 -0.6464  0.0213  0.4576
 5126SOL    HW127014   4.190   1.052  15.971  0.6035  2.1221  1.2360
 5126SOL    HW227015   4.108   1.135  16.067  1.0041  0.5726  1.4670
 5127SOL     OW27016   0.036   2.212  10.660  0.3779  0.2678 -0.0422
 5127SOL    HW127017   0.040   2.300  10.697 -1.0265  0.0229  0.6859
 5127SOL    HW227018   0.051   2.227  10.566 -1.2495  1.0944 -0.1699
 5128SOL     OW27019   4.716   3.914   1.388  0.2758  0.2328  0.1630
 5128SOL    HW127020   4.651   3.844   1.383 -0.4187  1.0343 -1.7205
 5128SOL    HW227021   4.668   3.988   1.352  0.1724  0.7569  1.3498
 5129SOL     OW27022   1.883   3.656   3.406  0.1686  0.2931 -0.0622
 5129SOL    HW127023   1.851   3.585   3.461  1.2183  0.6240  0.9772
 5129SOL    HW227024   1.945   3.698   3.466 -1.0453  0.5357  1.0268
 5130SOL     OW27025   1.989   1.049  10.695  0.4504  1.0612 -0.1089
 5130SOL    HW127026   1.940   1.103  10.758 -1.6602  0.9513 -1.6608
 5130SOL    HW227027   1.939   1.073  10.618 -0.6465  0.4540  0.4104
 5131SOL     OW27028   3.554   0.598   9.074  0.1114 -0.4095  0.3790
 5131SOL    HW127029   3.554   0.592   9.169  2.8751 -0.7159  0.3651
 5131SOL    HW227030   3.606   0.522   9.047  1.6609  0.8513 -0.1852
 5132SOL     OW27031   4.510   4.444   9.379 -0.2329 -0.4974 -0.2119
 5132SOL    HW127032   4.463   4.437   9.296 -0.5257 -0.4262 -0.0542
 5132SOL    HW227033   4.514   4.540   9.382  1.6824 -0.5954  0.6086
 5133SOL     OW27034   1.942   1.988   6.689 -0.6510  0.3338  0.4009
 5133SOL    HW127035   1.911   2.024   6.772  1.2478  1.2377  0.7043
 5133SOL    HW227036   2.032   2.019   6.684 -0.7116  0.9201  3.1636
 5134SOL     OW27037   2.289   1.274   4.739  0.1621  0.1404 -0.5193
 5134SOL    HW127038   2.228   1.220   4.789  2.1552 -2.8328 -1.2753
 5134SOL    HW227039   2.374   1.251   4.777  0.3123 -0.1203 -1.0060
 5135SOL     OW27040   4.732   3.666   2.835 -0.0599  0.1831  0.6258
 5135SOL    HW127041   4.708   3.714   2.755  1.1288 -1.8513 -0.9522
 5135SOL    HW227042   4.669   3.594   2.827  0.1838  0.0522 -0.0761
 5136SOL     OW27043   3.383   4.528   9.404 -0.2442 -0.3057  0.0321
 5136SOL    HW127044   3.293   4.498   9.400 -0.0892 -0.7525 -0.1108
 5136SOL    HW227045   3.382   4.577   9.485  0.7116  0.2251 -0.2667
 5137SOL     OW27046   1.551   0.440   3.860  0.4085 -0.0316 -0.3404
 5137SOL    HW127047   1.510   0.496   3.926 -1.8955  0.4660 -2.1931
 5137SOL    HW227048   1.485   0.400   3.803  1.0529 -1.8613  0.1838
 5138SOL     OW27049   1.545   0.752   8.907  0.5172  0.3062 -0.1407
 5138SOL    HW127050   1.551   0.669   8.952 -1.4262 -1.1822 -2.6049
 5138SOL    HW227051   1.509   0.726   8.822  0.5065 -0.6533  0.1632
 5139SOL     OW27052   2.663   3.083   6.459  0.1926 -0.2725 -0.3912
 5139SOL    HW127053   2.595   3.133   6.414 -0.0791  0.0210  0.3414
 5139SOL    HW227054   2.657   3.143   6.533 -0.0390 -1.4681  0.5522
 5140SOL     OW27055   4.647   3.596   7.730 -0.3164 -0.7477 -0.0639
 5140SOL    HW127056   4.678   3.577   7.641  0.5291 -1.0139  0.2822
 5140SOL    HW227057   4.607   3.514   7.760  0.3335 -1.7146 -1.8464
 5141SOL     OW27058   4.360   1.922   8.637  0.3212  0.1953  0.5197
 5141SOL    HW127059   4.366   2.015   8.659  2.4016 -0.1062  1.2274
 5141SOL    HW227060   4.275   1.926   8.593  0.3137 -0.0144  0.5137
 5142SOL     OW27061   2.105   0.817   6.482 -0.1241  0.3769 -0.3405
 5142SOL    HW127062   2.106   0.733   6.436 -0.6704 -0.0653  0.4654
 5142SOL    HW227063   2.115   0.788   6.573  0.8819 -0.2111 -0.6355
 5143SOL     OW27064   4.263   4.453   2.089 -0.0380 -0.3849 -0.0078
 5143SOL    HW127065   4.322   4.507   2.036  0.3370  0.2465  1.0524
 5143SOL    HW227066   4.322   4.390   2.130 -0.6802 -0.9178  0.0947
 5144SOL     OW27067   2.193   1.358   2.645 -0.0703  0.0456 -0.2750
 5144SOL    HW127068   2.174   1.438   2.694 -0.7292 -0.6100  0.5561
 5144SOL    HW227069   2.113   1.308   2.661 -1.1051  1.6122 -0.5150
 5145SOL     OW27070   1.622   3.449   7.487  0.1277 -0.0782  0.4496
 5145SOL    HW127071   1.540   3.420   7.447 -1.8075 -0.3599  4.6494
 5145SOL    HW227072   1.610   3.406   7.571  0.4505  0.1841  0.6306
 5146SOL     OW27073   3.288   3.623   4.225 -0.2340 -0.1709  0.4562
 5146SOL    HW127074   3.308   3.553   4.164 -1.3191  1.6027 -1.9131
 5146SOL    HW227075   3.197   3.603   4.249 -0.6600  0.4458 -0.6522
 5147SOL     OW27076   4.541   1.006   1.256 -0.1673  0.1688 -0.1874
 5147SOL    HW127077   4.592   0.980   1.179 -0.8457 -0.6803 -0.3541
 5147SOL    HW227078   4.482   1.070   1.216 -2.3327 -2.8240 -1.7267
 5148SOL     OW27079   2.045   3.228   7.292  0.1942 -0.1562 -0.2583
 5148SOL    HW127080   2.084   3.149   7.330  0.7549  0.4700  0.4391
 5148SOL    HW227081   1.973   3.259   7.347  1.1382  1.8893 -0.2148
 5149SOL     OW27082   1.480   2.660  15.623 -0.3929  0.1877  0.0675
 5149SOL    HW127083   1.495   2.569  15.595 -2.6670 -0.2807  0.3367
 5149SOL    HW227084   1.501   2.659  15.717 -1.2782  0.1708  0.2651
 5150SOL     OW27085   1.971   3.962   6.823 -0.2553  0.1326 -0.3946
 5150SOL    HW127086   1.912   3.931   6.891  2.3797 -1.5793  1.1103
 5150SOL    HW227087   1.938   4.049   6.799  0.4905  0.6657  0.4694
 5151SOL     OW27088   3.582   3.096   7.150 -0.4314 -0.0888 -0.3866
 5151SOL    HW127089   3.565   3.134   7.064  1.5665  0.6213 -0.4565
 5151SOL    HW227090   3.609   3.171   7.202  1.7012  0.9235 -2.9459
 5152SOL     OW27091   3.940   2.895   9.161  0.0332 -0.2711 -0.4351
 5152SOL    HW127092   3.896   2.965   9.210  0.6924 -0.9979  1.2081
 5152SOL    HW227093   4.009   2.941   9.114  0.0639  1.3743  1.2274
 5153SOL     OW27094   2.012   3.543   5.387  0.0583 -0.2656 -0.0892
 5153SOL    HW127095   2.090   3.566   5.438 -1.1851  0.5695  1.4417
 5153SOL    HW227096   1.994   3.626   5.343  0.4966  0.4138  1.0245
 5154SOL     OW27097   2.545   0.287   8.136 -0.2205  0.2978  0.5235
 5154SOL    HW127098   2.457   0.292   8.173 -0.1762 -0.0313  0.6698
 5154SOL    HW227099   2.590   0.307   8.218  0.8855  0.0464 -0.0256
 5155SOL     OW27100   2.165   2.663   0.909  0.4502 -1.1619 -0.0984
 5155SOL    HW127101   2.165   2.636   1.000 -1.9353 -0.6163  0.0784
 5155SOL    HW227102   2.247   2.708   0.891  0.0167 -0.0888  0.6116
 5156SOL     OW27103   0.423   3.246   5.485 -0.5556  0.3527  0.3311
 5156SOL    HW127104   0.336   3.282   5.500 -0.0173  0.7162  2.6156
 5156SOL    HW227105   0.412   3.172   5.426 -1.7291  1.3984 -0.7517
 5157SOL     OW27106   3.509   0.050  14.320  0.6649 -0.6903  1.0771
 5157SOL    HW127107   3.419   0.046  14.287  0.5051  2.1484  1.2041
 5157SOL    HW227108   3.539   4.701  14.295  1.0077 -0.3932  0.4391
 5158SOL     OW27109   4.402   1.866   6.767  0.3330 -0.4306 -0.1654
 5158SOL    HW127110   4.347   1.832   6.696  3.5225  0.3466 -3.0492
 5158SOL    HW227111   4.437   1.779   6.786  1.3847  0.0055 -0.1269
 5159SOL     OW27112   3.504   1.177   1.430  0.5946 -0.2023 -0.7383
 5159SOL    HW127113   3.454   1.241   1.482  0.1595 -1.6065  0.5775
 5159SOL    HW227114   3.434   1.131   1.384  0.9576  0.5290 -2.0075
 5160SOL     OW27115   1.523   4.558   8.922  0.2391  0.0622 -0.4238
 5160SOL    HW127116   1.448   4.609   8.893  0.2453  0.2257 -0.1502
 5160SOL    HW227117   1.521   4.587   9.013 -1.6783 -1.9177  0.1406
 5161SOL     OW27118   3.441   2.204   4.924 -0.2651  0.2235  0.0183
 5161SOL    HW127119   3.473   2.115   4.915  1.0037  0.6533  0.3042
 5161SOL    HW227120   3.358   2.213   4.878  0.7819  2.2548 -1.4520
 5162SOL     OW27121   4.436   0.954   7.339  0.4938 -0.6577  0.3979
 5162SOL    HW127122   4.350   0.988   7.313  0.0006 -0.9875  1.5901
 5162SOL    HW227123   4.411   0.912   7.422  1.1659  0.2965  1.0739
 5163SOL     OW27124   1.362   3.744   8.316 -0.2365  0.4530 -0.0688
 5163SOL    HW127125   1.430   3.729   8.250  0.1982  2.8087 -0.1587
 5163SOL    HW227126   1.413   3.802   8.372 -1.8356  1.3131  0.4858
 5164SOL     OW27127   3.332   4.071   5.222 -0.3268 -0.0925 -0.3952
 5164SOL    HW127128   3.237   4.072   5.213 -0.4258  0.8589  0.8339
 5164SOL    HW227129   3.339   4.031   5.309 -1.4684 -1.4510 -0.9154
 5165SOL     OW27130   3.534   0.059   5.414 -0.0099 -0.0929  0.2359
 5165SOL    HW127131   3.474   0.064   5.488 -0.1333 -0.4049  0.1570
 5165SOL    HW227132   3.528   4.708   5.382 -0.4487  0.2556 -0.6422
 5166SOL     OW27133   1.870   4.015   6.441  0.0922  0.1243 -0.1362
 5166SOL    HW127134   1.872   3.934   6.492 -0.8171 -0.6948 -1.3991
 5166SOL    HW227135   1.784   4.040   6.475 -0.3928 -2.3853  0.4750
 5167SOL     OW27136   3.418   0.523   6.655 -0.1680  0.0736  0.2893
 5167SOL    HW127137   3.329   0.553   6.638  0.0796 -0.4426 -1.9405
 5167SOL    HW227138   3.465   0.606   6.668  0.6943 -0.4309  0.3966
 5168SOL     OW27139   1.615   0.487   4.136  0.1166 -0.3367  0.5532
 5168SOL    HW127140   1.638   0.525   4.051 -2.1813  0.8758  0.4515
 5168SOL    HW227141   1.546   0.543   4.172 -0.3194 -0.4676 -0.0513
 5169SOL     OW27142   2.927   1.511   2.715  0.4672  0.3037 -0.2447
 5169SOL    HW127143   2.842   1.483   2.680  1.3629 -0.4954 -1.7497
 5169SOL    HW227144   2.916   1.504   2.810  3.5303 -0.5025  0.0319
 5170SOL     OW27145   0.136   2.773  16.585 -0.4992  0.0457 -0.4540
 5170SOL    HW127146   0.074   2.738  16.521  1.8002  0.6274 -2.9808
 5170SOL    HW227147   0.143   2.862  16.553  0.3163  0.0092 -0.3760
 5171SOL     OW27148   2.470   0.060  12.115  0.1356 -0.4232  0.0480
 5171SOL    HW127149   2.506   0.017  12.192  1.0558  0.8704  0.3374
 5171SOL    HW227150   2.467   4.722  12.058  2.1219  1.7183 -2.9033
 5172SOL     OW27151   4.362   4.717   3.466  0.1469 -0.1098  0.2037
 5172SOL    HW127152   4.362   4.625   3.440 -0.2176 -0.4232  1.3072
 5172SOL    HW227153   4.306   4.716   3.544  1.9703  0.8564  1.5202
 5173SOL     OW27154   2.920   0.087   3.371 -0.4046 -0.3138  0.2974
 5173SOL    HW127155   2.876   0.026   3.429 -2.6163  2.1692  1.2321
 5173SOL    HW227156   3.009   0.052   3.374  1.1477  3.4278 -0.9626
 5174SOL     OW27157   0.633   3.222   4.783 -0.3468 -0.4564  0.1402
 5174SOL    HW127158   0.698   3.289   4.804 -0.3160 -0.0547 -1.2112
 5174SOL    HW227159   0.584   3.207   4.864 -0.6900 -1.9849 -0.3560
 5175SOL     OW27160   0.547   0.335   4.211 -0.0727 -0.7138  0.1146
 5175SOL    HW127161   0.587   0.281   4.143  0.0347 -0.9258  0.3456
 5175SOL    HW227162   0.476   0.373   4.158  1.8940  3.5528  0.5958
 5176SOL     OW27163   1.209   1.825   0.136 -0.3057 -0.0417 -0.0012
 5176SOL    HW127164   1.151   1.825   0.060 -1.3380 -0.5173  0.7852
 5176SOL    HW227165   1.242   1.914   0.127  1.3551 -0.7935 -1.2488
 5177SOL     OW27166   3.400   3.923  14.668  0.1342 -0.3608 -0.2618
 5177SOL    HW127167   3.381   4.014  14.643  1.3509  0.1575  0.6939
 5177SOL    HW227168   3.311   3.890  14.655 -0.6221  1.7661 -0.5005
 5178SOL     OW27169   4.498   4.037  12.052 -0.1546 -0.3597  0.4427
 5178SOL    HW127170   4.563   4.040  11.982 -0.5018 -0.2905  0.1207
 5178SOL    HW227171   4.485   3.943  12.069 -2.7240  0.4363  2.8652
 5179SOL     OW27172   1.987   2.271   5.079  0.3253 -0.5268 -0.0519
 5179SOL    HW127173   1.923   2.303   5.143  0.7336  1.1631 -0.4876
 5179SOL    HW227174   1.943   2.194   5.042  2.7863 -1.2280 -1.5113
 5180SOL     OW27175   0.183   4.065   4.467  0.2797  0.8659 -0.7910
 5180SOL    HW127176   0.228   4.097   4.545 -0.1429 -2.5120  0.8448
 5180SOL    HW227177   0.263   4.046   4.418 -0.9969 -4.1811 -0.8764
 5181SOL     OW27178   0.404   2.773   1.365 -0.5457 -0.1377  0.0317
 5181SOL    HW127179   0.462   2.762   1.440 -1.2015 -0.1430  0.5435
 5181SOL    HW227180   0.468   2.820   1.313 -1.7081  2.2419  0.7408
 5182SOL     OW27181   0.194   2.260   1.116 -0.8772  0.4475 -0.2045
 5182SOL    HW127182   0.176   2.241   1.208 -1.6820 -2.3822 -0.9418
 5182SOL    HW227183   0.142   2.336   1.089 -1.0532  0.8675  1.2845
 5183SOL     OW27184   4.696   1.536  10.861  0.1139 -0.0039 -0.0067
 5183SOL    HW127185   4.643   1.613  10.881  1.5130  1.3990 -1.6249
 5183SOL    HW227186   4.707   1.496  10.947  0.0541 -2.3271 -1.0757
 5184SOL     OW27187   1.786   3.686   1.119 -0.1471 -0.2323  0.2613
 5184SOL    HW127188   1.805   3.747   1.190 -1.1529 -0.9439  1.1487
 5184SOL    HW227189   1.868   3.638   1.105  0.4388  0.8835 -0.1129
 5185SOL     OW27190   2.132   2.385   4.889 -0.4479  0.0751  0.2629
 5185SOL    HW127191   2.050   2.373   4.842 -0.3270 -0.0497  0.0829
 5185SOL    HW227192   2.103   2.339   4.968 -1.6821  1.4386  0.6054
 5186SOL     OW27193   0.996   4.509   5.129 -0.5890 -0.2567  0.2352
 5186SOL    HW127194   0.938   4.569   5.177 -0.8926 -0.5497  0.2402
 5186SOL    HW227195   1.031   4.459   5.202  1.4469 -3.0361 -2.6426
 5187SOL     OW27196   3.878   0.280   7.333  0.4641  0.0554  0.2399
 5187SOL    HW127197   3.901   0.359   7.285  0.0825 -0.0007 -0.0352
 5187SOL    HW227198   3.870   0.323   7.419  0.3609 -2.1640  1.3513
 5188SOL     OW27199   2.688   3.703   4.748 -0.7275 -0.6511 -0.4306
 5188SOL    HW127200   2.627   3.703   4.822  0.6468  0.2645  0.6978
 5188SOL    HW227201   2.705   3.797   4.751 -2.3261 -0.3520 -0.6129
 5189SOL     OW27202   3.178   0.518   6.054 -0.4282 -0.5486  0.1476
 5189SOL    HW127203   3.100   0.565   6.085 -1.9041 -1.4461 -2.2397
 5189SOL    HW227204   3.202   0.481   6.139  0.9156  0.0413  0.0133
 5190SOL     OW27205   4.014   0.788   3.530  0.5491 -0.1519  0.0856
 5190SOL    HW127206   4.000   0.836   3.448 -1.1631  0.6714  0.8513
 5190SOL    HW227207   4.099   0.825   3.553 -0.8889  0.0970  5.0048
 5191SOL     OW27208   0.153   2.672   4.828  0.1812  0.4237  0.0472
 5191SOL    HW127209   0.128   2.600   4.886 -0.1680 -0.5509 -1.3087
 5191SOL    HW227210   0.182   2.739   4.891  3.0735 -0.3042 -0.4926
 5192SOL     OW27211   0.559   2.253   2.061  0.0514 -0.3110  0.2585
 5192SOL    HW127212   0.564   2.347   2.082 -2.1076  0.1926 -1.4828
 5192SOL    HW227213   0.633   2.218   2.110 -1.0530  0.3226  2.3733
 5193SOL     OW27214   3.854   0.088  17.030  0.3346  0.1498 -0.5417
 5193SOL    HW127215   3.878   0.176  17.059 -2.3908 -0.0102  2.1840
 5193SOL    HW227216   3.909   0.071  16.954 -0.2050  0.6890 -1.0626
 5194SOL     OW27217   0.385   3.257   8.473  0.3052 -0.3321 -0.2906
 5194SOL    HW127218   0.375   3.257   8.378 -0.6996 -0.1443 -0.1869
 5194SOL    HW227219   0.330   3.332   8.498  0.7731  0.8339 -2.7393
 5195SOL     OW27220   0.314   4.494   3.840 -0.2908 -0.5466 -0.3877
 5195SOL    HW127221   0.230   4.534   3.865  0.3856  1.4818 -1.2932
 5195SOL    HW227222   0.293   4.436   3.767  2.1469 -0.6396 -0.9983
 5196SOL     OW27223   0.745   1.450   3.942  0.5125 -0.2807  0.1849
 5196SOL    HW127224   0.676   1.512   3.919  1.8704 -0.0421 -3.1915
 5196SOL    HW227225   0.803   1.508   3.991 -1.4893  1.9268 -0.0447
 5197SOL     OW27226   3.616   2.683   6.978 -0.3896 -0.2295  0.0692
 5197SOL    HW127227   3.574   2.641   6.903  0.9491 -0.8166 -0.3431
 5197SOL    HW227228   3.549   2.674   7.046 -1.5884  1.3946 -0.8929
 5198SOL     OW27229   0.362   0.163  12.154  0.3274 -0.0315  0.0249
 5198SOL    HW127230   0.278   0.171  12.201  1.2471 -0.6273  1.7625
 5198SOL    HW227231   0.385   0.074  12.180  1.0265  0.1483  0.0034
 5199SOL     OW27232   1.896   4.334   2.509 -0.1585 -0.4838 -0.0882
 5199SOL    HW127233   1.816   4.350   2.459 -0.2916 -1.9782 -0.3325
 5199SOL    HW227234   1.884   4.364   2.599  1.7409  2.1051 -0.6841
 5200SOL     OW27235   2.595   3.132   3.459  0.1591  0.3062  0.0916
 5200SOL    HW127236   2.649   3.085   3.523 -0.1927 -1.6861 -1.0888
 5200SOL    HW227237   2.646   3.209   3.433  1.4575 -0.5812 -0.0120
 5201SOL     OW27238   2.707   4.731  14.318  0.0680 -0.0486  0.0367
 5201SOL    HW127239   2.637   4.672  14.292 -0.9847  1.0728  0.2998
 5201SOL    HW227240   2.753   0.008  14.236  1.8408  0.0669  1.0584
 5202SOL     OW27241   2.575   2.335   6.131  0.2777  0.3656 -0.0911
 5202SOL    HW127242   2.491   2.291   6.116  1.0147 -0.5800 -1.4012
 5202SOL    HW227243   2.569   2.382   6.047  0.4311 -2.1149 -1.4715
 5203SOL     OW27244   2.629   2.941  10.268 -0.8172 -0.0370 -0.6358
 5203SOL    HW127245   2.651   2.850  10.247 -0.1151  0.3607 -1.6281
 5203SOL    HW227246   2.623   2.924  10.363 -1.3141 -0.3837 -0.7310
 5204SOL     OW27247   4.104   4.155   4.975 -0.4061  0.2462 -0.1678
 5204SOL    HW127248   4.014   4.168   5.006 -0.7606 -1.5909 -0.4480
 5204SOL    HW227249   4.085   4.105   4.895 -2.2702 -0.1593  0.5166
 5205SOL     OW27250   3.218   3.539   0.998 -0.9992  0.0088 -0.0812
 5205SOL    HW127251   3.293   3.592   0.971  0.5083 -2.7056 -1.2471
 5205SOL    HW227252   3.229   3.530   1.093  1.5731  1.3692 -0.2641
 5206SOL     OW27253   0.585   2.506   8.716 -0.0734 -0.0845  0.0728
 5206SOL    HW127254   0.626   2.426   8.750  0.5975  0.3499  0.2852
 5206SOL    HW227255   0.649   2.534   8.651  1.5249  0.0483  1.6815
 5207SOL     OW27256   1.184   1.220   2.518 -0.6098  0.1499  0.3164
 5207SOL    HW127257   1.096   1.205   2.553 -0.2008 -2.2341  0.3280
 5207SOL    HW227258   1.172   1.221   2.423  0.7487  0.5425  0.1522
 5208SOL     OW27259   0.222   3.304   3.209 -0.0007 -0.3343  0.3476
 5208SOL    HW127260   0.229   3.287   3.115 -0.7073  0.6694  0.1108
 5208SOL    HW227261   0.128   3.312   3.224 -0.2548 -1.0224 -0.8712
 5209SOL     OW27262   0.256   1.675   7.095 -0.1224 -0.8048  0.0722
 5209SOL    HW127263   0.319   1.697   7.026  1.6086 -0.2088  1.8224
 5209SOL    HW227264   0.191   1.743   7.083  1.5349  0.7200 -0.2486
 5210SOL     OW27265   0.398   1.733   7.640 -0.2823 -0.0725 -0.1865
 5210SOL    HW127266   0.378   1.756   7.731  3.3012  0.8850  0.3748
 5210SOL    HW227267   0.432   1.643   7.635 -0.8647 -0.3646  0.9409
 5211SOL     OW27268   4.507   2.266   0.938 -0.5423  0.4427  0.1901
 5211SOL    HW127269   4.493   2.221   0.855 -0.4877 -0.0464  0.4406
 5211SOL    HW227270   4.422   2.252   0.980 -0.4611  1.3513  0.6363
 5212SOL     OW27271   2.507   0.788  12.595 -0.2539 -0.3461 -0.4399
 5212SOL    HW127272   2.425   0.835  12.612 -0.6367 -1.7191  1.5194
 5212SOL    HW227273   2.542   0.832  12.518  1.0913  0.1800  0.4774
 5213SOL     OW27274   0.234   3.306   6.730 -0.3092  0.5679  0.1268
 5213SOL    HW127275   0.171   3.378   6.735 -1.4746 -0.4342 -0.2398
 5213SOL    HW227276   0.286   3.335   6.655  0.2626 -0.3489  0.1662
 5214SOL     OW27277   4.618   1.879   3.247  0.1033  0.1193 -0.2968
 5214SOL    HW127278   4.653   1.842   3.328  0.5423 -0.7955 -0.8973
 5214SOL    HW227279   4.700   1.900   3.204  0.6772  0.9731  1.2360
 5215SOL     OW27280   0.010   1.166   3.338  0.2288 -0.1712  0.4050
 5215SOL    HW127281   0.104   1.171   3.319  0.0539 -1.1712 -0.7484
 5215SOL    HW227282   4.716   1.228   3.272  0.8050  1.0516  1.2772
 5216SOL     OW27283   3.257   2.105   6.520  0.0694 -0.0368 -0.0757
 5216SOL    HW127284   3.242   2.134   6.430 -5.2722  1.0021  1.1494
 5216SOL    HW227285   3.345   2.142   6.532 -0.0804  0.5756 -0.8164
 5217SOL     OW27286   2.737   3.926  17.295 -0.2529 -0.2472  0.3058
 5217SOL    HW127287   2.692   4.009  17.279 -1.5500 -0.9409  0.3679
 5217SOL    HW227288   2.681   3.896  17.366 -1.3485 -1.1920 -0.9624
 5218SOL     OW27289   0.930   4.391   7.357  0.2950 -0.0138 -0.3214
 5218SOL    HW127290   0.920   4.334   7.280  1.1084  0.5780 -0.8674
 5218SOL    HW227291   0.874   4.466   7.338 -1.2110 -1.1124 -0.2687
 5219SOL     OW27292   3.716   3.371  13.315 -0.2428  0.2544  0.2076
 5219SOL    HW127293   3.776   3.445  13.320  0.0769  0.0667 -0.7549
 5219SOL    HW227294   3.686   3.377  13.405 -0.6957 -2.4551  0.2458
 5220SOL     OW27295   1.589   1.340   1.744 -0.1907  0.0342  0.0742
 5220SOL    HW127296   1.532   1.291   1.685  2.9709 -0.5689 -2.4830
 5220SOL    HW227297   1.634   1.398   1.683  0.9136 -0.2089  0.6468
 5221SOL     OW27298   3.988   4.011   5.919 -0.1022  0.1020 -0.1439
 5221SOL    HW127299   3.985   4.107   5.916 -0.7144  0.0818 -0.1509
 5221SOL    HW227300   4.080   4.003   5.892 -0.4804  0.2568 -1.4773
 5222SOL     OW27301   3.473   2.273   8.755  0.2368  0.3892  0.3172
 5222SOL    HW127302   3.524   2.269   8.836 -0.9109  2.6954  1.1287
 5222SOL    HW227303   3.540   2.313   8.700  0.8836 -1.5234 -0.2811
 5223SOL     OW27304   1.043   3.448   3.868 -0.1028 -0.2427  0.3272
 5223SOL    HW127305   0.965   3.504   3.862 -0.5537 -0.8245  0.6432
 5223SOL    HW227306   1.056   3.466   3.961  0.3119  1.3753 -0.0542
 5224SOL     OW27307   1.734   0.057   2.557 -0.0741 -0.4023  0.1321
 5224SOL    HW127308   1.719   0.095   2.470  1.5168 -1.4114 -0.5746
 5224SOL    HW227309   1.711   0.136   2.606 -0.4459 -0.5961  0.2725
 5225SOL     OW27310   0.693   0.664   6.817  0.3653 -0.1264 -0.4493
 5225SOL    HW127311   0.613   0.683   6.768  0.2709 -1.5915 -0.8585
 5225SOL    HW227312   0.651   0.607   6.881 -0.3754 -0.0668 -0.8852
 5226SOL     OW27313   0.333   4.156   5.895  0.1256 -0.6632 -0.7129
 5226SOL    HW127314   0.342   4.145   5.801  1.2361 -1.4901 -0.5149
 5226SOL    HW227315   0.377   4.079   5.932  1.4042 -0.5393 -1.9815
 5227SOL     OW27316   4.515   3.236   3.008 -0.1180 -0.4553  0.1931
 5227SOL    HW127317   4.563   3.298   3.063  0.8602  0.2008 -1.3946
 5227SOL    HW227318   4.474   3.192   3.083 -0.2392  0.9526  0.9516
 5228SOL     OW27319   2.586   1.713   4.759  0.7786 -0.1299  0.4904
 5228SOL    HW127320   2.665   1.766   4.767  0.6925 -0.3262  2.5077
 5228SOL    HW227321   2.534   1.754   4.827  1.3763  1.6821 -0.1607
 5229SOL     OW27322   1.996   3.241   8.584 -0.5806 -0.3545 -0.1174
 5229SOL    HW127323   2.045   3.268   8.506 -0.7549  2.1756  0.6495
 5229SOL    HW227324   1.984   3.320   8.636 -2.8502 -0.6346 -0.2242
 5230SOL     OW27325   3.017   2.392   6.247  0.7112 -0.4680 -0.3736
 5230SOL    HW127326   3.056   2.477   6.226  0.1391  0.1024  0.8563
 5230SOL    HW227327   2.969   2.368   6.167  1.2411 -2.1240 -0.1848
 5231SOL     OW27328   1.448   3.768  16.019  0.8778 -0.4812 -0.4150
 5231SOL    HW127329   1.513   3.698  16.012  1.4813  0.1070 -0.6214
 5231SOL    HW227330   1.395   3.735  15.947 -0.7097  0.1567  0.4732
 5232SOL     OW27331   1.112   0.935  11.759  1.0169 -0.0588  0.3606
 5232SOL    HW127332   1.074   0.881  11.690  0.9134  0.8293 -0.2684
 5232SOL    HW227333   1.058   0.923  11.837  0.8648 -0.6216  0.1746
 5233SOL     OW27334   1.704   1.307  17.307  0.5075 -0.2725 -0.3099
 5233SOL    HW127335   1.776   1.307  17.244  0.1600  1.8989 -0.6978
 5233SOL    HW227336   1.664   1.389  17.279  0.6734  0.0778  0.4842
 5234SOL     OW27337   2.619   4.582  10.460  0.0054  0.7368 -0.1769
 5234SOL    HW127338   2.703   4.627  10.457  0.8861 -0.9657 -1.2129
 5234SOL    HW227339   2.558   4.656  10.467 -0.1565  0.4645  1.2186
 5235SOL     OW27340   0.669   3.431   0.207 -0.1883  0.0301 -0.6065
 5235SOL    HW127341   0.581   3.451   0.238 -0.1660  0.3647 -0.7658
 5235SOL    HW227342   0.722   3.489   0.262  0.3486 -1.3137  0.3055
 5236SOL     OW27343   0.181   3.754   7.410  0.0267  0.8020  0.0345
 5236SOL    HW127344   0.133   3.820   7.460 -1.4675 -1.0623  1.0700
 5236SOL    HW227345   0.111   3.689   7.406 -0.6426  1.4364  1.2712
 5237SOL     OW27346   1.650   0.040   3.228 -0.3707  0.7392  0.0317
 5237SOL    HW127347   1.580   0.024   3.165  0.5701 -0.5253 -0.6799
 5237SOL    HW227348   1.724   0.077   3.180  0.4558  0.5426  1.1236
 5238SOL     OW27349   4.634   3.619   8.387 -0.4107 -0.5963 -0.4942
 5238SOL    HW127350   4.563   3.654   8.333 -0.2930  1.4522  0.6479
 5238SOL    HW227351   4.594   3.559   8.450  0.9634  0.0131  0.9662
 5239SOL     OW27352   0.824   0.328   2.565  0.3998 -0.6940  0.0751
 5239SOL    HW127353   0.826   0.238   2.531 -0.7837  0.4668 -3.1024
 5239SOL    HW227354   0.868   0.314   2.649 -2.5126 -0.6703  1.5983
 5240SOL     OW27355   0.010   0.940  13.951  0.7854 -0.4474  0.1376
 5240SOL    HW127356   4.690   0.884  14.003 -2.4666  1.7182 -1.1762
 5240SOL    HW227357   4.702   0.954  13.869 -0.2990 -0.3139  0.7652
 5241SOL     OW27358   2.606   2.190   7.347  0.5532  0.5975  0.2443
 5241SOL    HW127359   2.598   2.109   7.297  1.8401 -0.3598  1.5476
 5241SOL    HW227360   2.697   2.195   7.317  0.8493  0.4144  1.0886
 5242SOL     OW27361   4.400   2.485   8.631  0.2167 -0.1042  0.0471
 5242SOL    HW127362   4.315   2.475   8.588  1.2062 -0.5032 -1.8074
 5242SOL    HW227363   4.373   2.513   8.718  0.2071  2.3870 -0.7697
 5243SOL     OW27364   0.241   0.624   9.546  0.1560  0.7883  0.1343
 5243SOL    HW127365   0.192   0.641   9.465 -0.0794 -0.8495 -0.0603
 5243SOL    HW227366   0.331   0.623   9.512  0.5684 -0.3651  1.2575
 5244SOL     OW27367   3.943   4.170   2.763  0.5548  0.0735  0.9064
 5244SOL    HW127368   3.977   4.136   2.680  0.8163 -1.6321  1.7138
 5244SOL    HW227369   3.905   4.255   2.740 -0.7398 -0.8869 -0.5365
 5245SOL     OW27370   2.187   0.865   5.668  0.2785 -0.4904 -0.7647
 5245SOL    HW127371   2.194   0.769   5.675  0.2420 -0.5377 -1.3604
 5245SOL    HW227372   2.219   0.884   5.756  0.4190 -1.5341 -0.5815
 5246SOL     OW27373   0.341   0.436   4.672  0.4624 -0.1641  0.4271
 5246SOL    HW127374   0.261   0.486   4.660  0.0685 -0.6729  0.9072
 5246SOL    HW227375   0.339   0.387   4.590  2.7089  0.2893  0.0989
 5247SOL     OW27376   3.863   4.215   3.576 -0.4778 -0.4090  0.8622
 5247SOL    HW127377   3.931   4.206   3.643 -1.7568 -3.1588  1.8247
 5247SOL    HW227378   3.851   4.306   3.552 -1.2580 -0.5037  0.8784
 5248SOL     OW27379   2.660   4.311   3.045  0.4404 -0.2063 -0.1550
 5248SOL    HW127380   2.589   4.263   3.002 -0.4255  2.0798 -1.2957
 5248SOL    HW227381   2.625   4.321   3.134  3.3807 -0.0393  0.9703
 5249SOL     OW27382   1.528   3.378   8.554 -0.1184  0.2905  0.6878
 5249SOL    HW127383   1.597   3.388   8.619  0.1012  1.1377  0.3218
 5249SOL    HW227384   1.453   3.430   8.581 -1.0245 -1.1454  0.9454
 5250SOL     OW27385   3.229   0.920   6.332 -0.8156 -0.5574  0.4914
 5250SOL    HW127386   3.187   0.865   6.266 -0.5666 -0.3397  0.1585
 5250SOL    HW227387   3.155   0.967   6.371 -0.3607 -2.2787  3.4258
 5251SOL     OW27388   2.027   1.178  13.954  0.3605  0.0022  0.1355
 5251SOL    HW127389   1.989   1.178  14.042 -0.1110 -1.7774 -0.0693
 5251SOL    HW227390   2.116   1.212  13.959 -0.4475  2.0573  0.7562
 5252SOL     OW27391   0.044   1.195   8.615  0.1204  0.0244  0.0019
 5252SOL    HW127392   4.715   1.131   8.638  2.1462 -2.6168 -1.3591
 5252SOL    HW227393   4.737   1.269   8.654 -0.3092 -0.0300 -0.3947
 5253SOL     OW27394   0.430   2.084   7.295  0.0375  0.3575 -0.3534
 5253SOL    HW127395   0.366   2.154   7.280 -2.8186 -2.3177 -0.8293
 5253SOL    HW227396   0.378   2.022   7.345  0.7676  0.2530  0.2691
 5254SOL     OW27397   0.885   4.713   8.737  0.0152  0.3322 -0.0964
 5254SOL    HW127398   0.918   4.704   8.826 -0.9515 -0.9226  0.1346
 5254SOL    HW227399   0.919   4.635   8.693 -2.1192 -1.5597  1.6242
 5255SOL     OW27400   3.197   2.580   3.209  0.3820 -0.3381  0.0328
 5255SOL    HW127401   3.238   2.530   3.280  0.1270 -0.1420  0.3158
 5255SOL    HW227402   3.275   2.606   3.159  0.6830 -0.3151  0.5090
 5256SOL     OW27403   1.290   3.494   8.672 -0.0695 -0.2986 -0.8130
 5256SOL    HW127404   1.269   3.557   8.603  0.7804  0.1592 -0.6452
 5256SOL    HW227405   1.278   3.555   8.744  0.8032 -1.0845 -0.0040
 5257SOL     OW27406   3.036   3.180   3.173 -0.2086 -0.3697 -0.5599
 5257SOL    HW127407   3.047   3.265   3.131 -0.5509 -0.0897 -0.0793
 5257SOL    HW227408   3.100   3.193   3.243 -0.4886 -2.4478  0.0870
 5258SOL     OW27409   0.341   1.356   8.002 -0.6612  0.0550  0.3029
 5258SOL    HW127410   0.297   1.359   8.087 -0.7341 -0.3719  0.2817
 5258SOL    HW227411   0.315   1.269   7.971 -0.8967  1.0106 -2.1981
 5259SOL     OW27412   1.606   3.316  15.753 -0.1185 -0.6044  0.1482
 5259SOL    HW127413   1.633   3.406  15.737 -0.2527 -0.7938 -1.0801
 5259SOL    HW227414   1.605   3.274  15.668  2.2442  0.4200 -0.4071
 5260SOL     OW27415   2.726   4.016   1.321 -0.0090 -0.2350 -0.4564
 5260SOL    HW127416   2.756   3.939   1.273  1.1559  0.1515 -0.3521
 5260SOL    HW227417   2.660   3.977   1.378 -0.8453 -0.2175 -1.4267
 5261SOL     OW27418   2.275   1.433   8.288 -0.7287  0.0488  0.3211
 5261SOL    HW127419   2.333   1.509   8.295 -1.2176  0.5131 -0.6128
 5261SOL    HW227420   2.337   1.363   8.264 -1.9682 -0.4866 -1.3590
 5262SOL     OW27421   0.899   2.491   4.029  0.2911  0.1837 -0.4758
 5262SOL    HW127422   0.834   2.427   4.059 -0.8076  1.2317 -0.6203
 5262SOL    HW227423   0.850   2.560   3.984  1.9813  0.2271 -2.2509
 5263SOL     OW27424   4.122   2.932   4.765  0.0340 -0.6549  0.4933
 5263SOL    HW127425   4.207   2.923   4.809 -0.5149 -0.6859  1.5587
 5263SOL    HW227426   4.076   2.849   4.780 -0.8166  0.0749  1.9973
 5264SOL     OW27427   1.485   2.167   4.976 -0.0831 -0.0727  0.3919
 5264SOL    HW127428   1.522   2.079   4.975 -1.4591 -0.6626  2.7462
 5264SOL    HW227429   1.532   2.216   5.044  2.3336 -1.4586 -0.2883
 5265SOL     OW27430   3.477   2.635   7.218  0.6034  0.4418  0.0467
 5265SOL    HW127431   3.392   2.661   7.252  1.0882  0.1163  1.4841
 5265SOL    HW227432   3.444   2.569   7.157 -1.3577  2.5403 -1.1745
 5266SOL     OW27433   1.863   0.458   4.263 -0.2723 -0.0318 -0.2132
 5266SOL    HW127434   1.857   0.485   4.355  0.1553  1.2759 -0.5694
 5266SOL    HW227435   1.771   0.448   4.242 -0.5937 -1.0797  1.6831
 5267SOL     OW27436   3.640   2.573  16.834 -0.3310 -0.4755  0.7270
 5267SOL    HW127437   3.674   2.654  16.796  2.0676 -0.1407  3.6078
 5267SOL    HW227438   3.651   2.599  16.925 -0.5283  1.4612  0.2029
 5268SOL     OW27439   1.307   1.319   0.670  0.2404  0.4618 -0.2403
 5268SOL    HW127440   1.245   1.337   0.599 -0.4307 -1.5515 -0.1391
 5268SOL    HW227441   1.321   1.228   0.645  0.9284  0.0228  1.7147
 5269SOL     OW27442   4.481   2.708   8.442  0.1818 -0.1471 -0.5939
 5269SOL    HW127443   4.562   2.723   8.491  0.5676  1.7842 -1.8147
 5269SOL    HW227444   4.453   2.623   8.476  2.7009 -0.8796 -0.3804
 5270SOL     OW27445   4.189   3.356  17.356 -0.5746  0.6264 -0.3599
 5270SOL    HW127446   4.178   3.400  17.440 -1.6102  1.1914 -0.7848
 5270SOL    HW227447   4.260   3.409  17.321  0.0157 -0.7614 -1.2599
 5271SOL     OW27448   1.922   1.836   4.311 -0.6933 -0.0565 -0.3911
 5271SOL    HW127449   1.982   1.804   4.378 -1.9882 -0.0547  0.7751
 5271SOL    HW227450   1.963   1.824   4.225 -0.6541  1.3364 -0.5681
 5272SOL     OW27451   1.969   0.021   6.035 -0.2498 -0.0844 -0.1978
 5272SOL    HW127452   1.909   0.063   6.096  0.9798  1.6840 -0.2129
 5272SOL    HW227453   2.020   0.094   6.001 -2.1959  0.8625 -1.0842
 5273SOL     OW27454   0.332   0.277   8.332  0.9199  0.2339  0.1316
 5273SOL    HW127455   0.410   0.330   8.318  1.9290 -1.2620  0.0338
 5273SOL    HW227456   0.368   0.193   8.361  0.9669  0.1852 -0.0663
 5274SOL     OW27457   2.342   3.107  14.039 -0.0195  0.4491  0.4032
 5274SOL    HW127458   2.369   3.016  14.028  2.3009  1.1436  0.4428
 5274SOL    HW227459   2.282   3.083  14.111 -1.2263 -0.4928 -0.9227
 5275SOL     OW27460   3.488   4.534   2.019  0.1910  0.0836 -0.3320
 5275SOL    HW127461   3.468   4.622   2.051 -3.1734 -0.0290 -2.0544
 5275SOL    HW227462   3.583   4.531   2.026  0.3747 -0.2871 -3.2222
 5276SOL     OW27463   1.280   1.161  14.513  0.1745  0.4039 -0.1648
 5276SOL    HW127464   1.348   1.103  14.480  0.5358  1.4823 -1.3143
 5276SOL    HW227465   1.218   1.167  14.440 -2.4261  0.2305  2.0297
 5277SOL     OW27466   1.083   0.083   3.655 -0.4225  0.2273 -0.1742
 5277SOL    HW127467   1.113   0.003   3.698  0.1938  0.2695 -0.5127
 5277SOL    HW227468   1.037   0.049   3.578 -2.1547 -0.7503  1.3251
 5278SOL     OW27469   3.121   3.177   2.614  0.4144  0.1258 -0.0320
 5278SOL    HW127470   3.130   3.211   2.703  1.6238 -0.1868 -0.0311
 5278SOL    HW227471   3.144   3.258   2.569 -2.9138 -0.1296 -2.1859
 5279SOL     OW27472   4.619   1.516   8.438  0.1935  0.3168  0.7150
 5279SOL    HW127473   4.544   1.486   8.388  1.9991 -1.7712 -0.7139
 5279SOL    HW227474   4.583   1.588   8.489  1.7789  0.3041  1.8705
 5280SOL     OW27475   0.871   2.063   6.532 -0.2131 -0.1949  0.1143
 5280SOL    HW127476   0.831   1.987   6.491 -1.1109 -0.7914  2.0712
 5280SOL    HW227477   0.920   2.096   6.457  1.2279  1.9072  1.9579
 5281SOL     OW27478   1.277   0.216  17.603  0.0977 -0.1235  0.0269
 5281SOL    HW127479   1.299   0.199  17.695 -1.8973 -3.2070 -0.0708
 5281SOL    HW227480   1.362   0.199  17.562 -0.3602 -0.9518 -0.5645
 5282SOL     OW27481   0.303   0.019  16.843 -0.0642  0.2945  0.2701
 5282SOL    HW127482   0.306   0.023  16.747  2.0752 -0.8648  0.2897
 5282SOL    HW227483   0.375   4.696  16.856 -1.0956 -0.8629  0.4871
 5283SOL     OW27484   2.026   2.008   8.410  0.3483 -0.0054  0.1486
 5283SOL    HW127485   2.009   2.038   8.321 -1.4414  1.0599  0.8569
 5283SOL    HW227486   2.100   2.067   8.427 -0.0113  0.2161  0.9620
 5284SOL     OW27487   0.868   4.299   7.921  0.2276  0.3231 -0.0990
 5284SOL    HW127488   0.839   4.234   7.986 -0.6816 -1.0362 -1.8691
 5284SOL    HW227489   0.951   4.320   7.964  0.4512  1.8508 -1.3091
 5285SOL     OW27490   1.384   4.533   9.493  0.9275 -0.9980  0.4160
 5285SOL    HW127491   1.370   4.622   9.525  2.4592 -1.1373  1.4636
 5285SOL    HW227492   1.332   4.484   9.556  1.0059 -3.7079 -1.6354
 5286SOL     OW27493   2.739   2.508   7.343 -0.2153 -0.4920 -0.1043
 5286SOL    HW127494   2.674   2.461   7.396  0.1933 -2.4363 -1.3100
 5286SOL    HW227495   2.702   2.480   7.259  1.6801  0.1340 -1.1369
 5287SOL     OW27496   3.392   1.674   3.018 -0.5701  0.1842  0.0770
 5287SOL    HW127497   3.337   1.605   3.054 -2.2607 -0.2240 -3.2617
 5287SOL    HW227498   3.385   1.670   2.923  1.9678  0.0108 -0.1072
 5288SOL     OW27499   1.297   2.872   4.552  0.0081  0.9804  0.4451
 5288SOL    HW127500   1.242   2.793   4.553  1.5413 -0.1082 -1.1996
 5288SOL    HW227501   1.343   2.867   4.636  1.9214 -0.6816 -0.6870
 5289SOL     OW27502   0.204   0.562   7.006  0.1181  0.2626 -0.3509
 5289SOL    HW127503   0.255   0.566   6.925 -0.2131  0.6280 -0.5371
 5289SOL    HW227504   0.276   0.531   7.061 -0.3378 -0.4002 -0.1289
 5290SOL     OW27505   0.718   4.473   9.202 -0.0596 -0.2930 -0.3805
 5290SOL    HW127506   0.686   4.561   9.221 -1.7296 -0.9173 -0.3316
 5290SOL    HW227507   0.637   4.437   9.166 -1.6761  2.3025  0.6421
 5291SOL     OW27508   1.200   0.236   8.337 -0.5064 -0.0110  0.1580
 5291SOL    HW127509   1.185   0.328   8.360  0.1037  0.0272  0.3973
 5291SOL    HW227510   1.274   0.220   8.394 -0.8843 -0.7442  0.4357
 5292SOL     OW27511   2.860   1.774   4.770  0.7539 -0.4365 -0.0631
 5292SOL    HW127512   2.919   1.821   4.711  0.5031 -0.6973 -0.5149
 5292SOL    HW227513   2.867   1.682   4.745  1.4122 -0.1693 -0.8756
 5293SOL     OW27514   3.812   3.653   8.541  0.4929 -0.1350  0.3208
 5293SOL    HW127515   3.817   3.605   8.458  0.4309 -0.2958  0.4117
 5293SOL    HW227516   3.898   3.636   8.580 -0.5782 -1.4335  2.1289
 5294SOL     OW27517   1.963   3.068   4.887  0.4562 -0.5753  0.5965
 5294SOL    HW127518   1.995   2.979   4.900 -0.0285 -0.8660 -0.2170
 5294SOL    HW227519   2.002   3.109   4.965 -0.3639  1.4767 -0.0674
 5295SOL     OW27520   0.627   1.870  14.028  0.0704 -0.1736 -0.3696
 5295SOL    HW127521   0.638   1.892  13.935  0.1081  0.7007 -0.1577
 5295SOL    HW227522   0.572   1.943  14.057 -1.2810 -2.1538  2.0869
 5296SOL     OW27523   2.170   2.578  11.766 -0.6537  0.2235 -0.4629
 5296SOL    HW127524   2.159   2.667  11.800  1.9151  0.8165 -1.1848
 5296SOL    HW227525   2.261   2.578  11.736 -0.2851 -1.9569  0.7015
 5297SOL     OW27526   0.121   2.512   6.208  0.4553 -0.4020  0.1489
 5297SOL    HW127527   0.171   2.593   6.200  0.3940 -0.4001 -0.2129
 5297SOL    HW227528   0.083   2.525   6.295  2.2859 -0.6553  0.9866
 5298SOL     OW27529   0.397   4.129   5.610 -0.2449 -0.2174 -0.3344
 5298SOL    HW127530   0.438   4.063   5.554 -1.2558 -0.0370 -1.2966
 5298SOL    HW227531   0.306   4.109   5.588 -0.6066  1.7299 -0.5717
 5299SOL     OW27532   4.572   1.573   9.098  0.4146  0.3158 -0.3560
 5299SOL    HW127533   4.597   1.486   9.130 -0.0882  0.5964  0.7969
 5299SOL    HW227534   4.476   1.574   9.091  0.2522  1.1435  1.8224
 5300SOL     OW27535   0.073   4.196  17.567  0.1914 -0.5124  0.1621
 5300SOL    HW127536   0.094   4.113  17.525 -0.2820  0.1774 -1.4330
 5300SOL    HW227537   0.145   4.255  17.545  2.3029 -2.5895  1.4670
 5301SOL     OW27538   2.574   1.185  10.943 -0.1666  0.1433  0.2904
 5301SOL    HW127539   2.587   1.128  11.019 -0.2589 -0.7233 -0.3461
 5301SOL    HW227540   2.481   1.205  10.956 -0.6752 -0.3843 -2.4984
 5302SOL     OW27541   2.432   3.734  12.600  0.5779  0.6754  0.0005
 5302SOL    HW127542   2.519   3.771  12.588 -0.3338  2.7045 -0.5184
 5302SOL    HW227543   2.377   3.800  12.557  0.6216  0.6127 -0.1515
 5303SOL     OW27544   0.513   2.970   5.324  0.3835  0.0295  0.7728
 5303SOL    HW127545   0.551   3.013   5.247 -0.3960  0.3654  0.5708
 5303SOL    HW227546   0.583   2.918   5.362  2.6913  1.4942 -1.4161
 5304SOL     OW27547   1.598   3.911  10.192 -0.2440 -0.1650 -0.0863
 5304SOL    HW127548   1.595   3.911  10.287 -1.4489 -0.5071 -0.1229
 5304SOL    HW227549   1.692   3.919  10.176 -0.1524 -0.1320  0.4833
 5305SOL     OW27550   3.557   0.254  16.925  0.4787 -0.5377 -0.1030
 5305SOL    HW127551   3.575   0.160  16.917  0.0698 -0.8417  2.5720
 5305SOL    HW227552   3.533   0.267  16.833  1.9781  0.3181 -0.3764
 5306SOL     OW27553   4.471   1.076   2.983 -0.4107  0.5807 -0.1169
 5306SOL    HW127554   4.407   1.023   3.031 -0.8896 -0.2932 -1.7179
 5306SOL    HW227555   4.472   1.043   2.893  1.1620 -4.1456  1.6138
 5307SOL     OW27556   3.655   1.996   2.971  0.2603  0.0717  0.2105
 5307SOL    HW127557   3.608   1.972   2.891  0.6549 -0.1157  0.0375
 5307SOL    HW227558   3.592   1.979   3.042  0.7847  0.3491  0.7409
 5308SOL     OW27559   3.757   2.592   3.474  0.1211 -0.1155 -0.6901
 5308SOL    HW127560   3.845   2.577   3.509 -0.6027 -1.7351  0.4507
 5308SOL    HW227561   3.772   2.681   3.442  0.9926  0.6744  1.8585
 5309SOL     OW27562   0.086   0.601   4.641 -0.2689 -0.0497 -0.0443
 5309SOL    HW127563   0.076   0.679   4.586 -1.3642  0.4485  0.8668
 5309SOL    HW227564   0.047   0.538   4.581 -1.9186  2.3062 -1.4333
 5310SOL     OW27565   2.545   1.174   3.392  0.7246  0.2883 -0.3398
 5310SOL    HW127566   2.555   1.197   3.485 -2.0882 -1.7599  0.4606
 5310SOL    HW227567   2.616   1.224   3.353 -0.1673  0.1807 -2.0716
 5311SOL     OW27568   3.469   1.212   5.661 -0.4030  0.2921  0.5015
 5311SOL    HW127569   3.404   1.270   5.621 -0.7836 -0.4170  0.0785
 5311SOL    HW227570   3.406   1.163   5.714  0.3886  0.7329  1.8462
 5312SOL     OW27571   1.178   2.554   4.308 -0.2034  0.2216 -0.0664
 5312SOL    HW127572   1.195   2.624   4.245 -0.5126 -1.4732 -2.0089
 5312SOL    HW227573   1.139   2.596   4.385  0.3917  0.6148  0.0183
 5313SOL     OW27574   0.009   1.034  10.171 -0.9238  0.2281 -0.5607
 5313SOL    HW127575   0.104   1.037  10.164 -0.7805 -0.4036  1.1361
 5313SOL    HW227576   4.723   1.126  10.159 -1.2066  0.2851  0.4965
 5314SOL     OW27577   0.773   2.431   3.307  0.1266  0.4383 -0.1928
 5314SOL    HW127578   0.756   2.440   3.213  0.0612 -2.0195 -0.3959
 5314SOL    HW227579   0.846   2.490   3.328  2.2856 -1.6963 -1.7787
 5315SOL     OW27580   0.465   1.463  12.531  0.1122  0.5251  0.1168
 5315SOL    HW127581   0.460   1.492  12.622  2.8032 -4.0674  1.7057
 5315SOL    HW227582   0.466   1.548  12.485 -1.7079 -0.0332 -0.9599
 5316SOL     OW27583   0.951   1.091   4.972 -0.2675  0.5614 -0.2779
 5316SOL    HW127584   0.874   1.086   5.029 -0.5895 -0.0596 -0.7669
 5316SOL    HW227585   1.005   1.031   5.023  1.6772  0.8757 -1.9747
 5317SOL     OW27586   4.049   2.958   6.711 -0.2194 -0.0704 -0.3202
 5317SOL    HW127587   3.996   2.966   6.791  0.8027  0.7278  0.2875
 5317SOL    HW227588   4.141   2.980   6.729  0.4552 -0.9225 -2.7631
 5318SOL     OW27589   4.659   1.055   8.009  0.7248  0.3332  0.0347
 5318SOL    HW127590   4.696   1.086   7.926  1.1175 -1.5642 -0.4933
 5318SOL    HW227591   4.659   1.131   8.067  1.2593 -0.7871  1.5040
 5319SOL     OW27592   2.594   0.589  15.282  0.2807 -0.4897 -0.3218
 5319SOL    HW127593   2.555   0.621  15.364  2.1999  1.1067 -0.0087
 5319SOL    HW227594   2.631   0.675  15.259 -0.6939  0.5649  1.9371
 5320SOL     OW27595   0.704   0.791   7.691 -0.1487  0.8437 -0.2082
 5320SOL    HW127596   0.764   0.829   7.626  1.4269  0.1317  0.8397
 5320SOL    HW227597   0.755   0.782   7.771  0.1461 -0.0853 -0.5098
 5321SOL     OW27598   1.904   1.518   2.057  0.4487 -0.1825  0.4190
 5321SOL    HW127599   1.887   1.452   2.124 -1.9360 -0.3203 -0.3169
 5321SOL    HW227600   1.811   1.539   2.046  0.3902 -0.7868 -0.2582
 5322SOL     OW27601   4.077   0.166  17.459  0.1333  0.7126 -0.0410
 5322SOL    HW127602   4.141   0.174  17.389  0.4916  1.3896  0.3682
 5322SOL    HW227603   4.120   0.104  17.519 -0.2222  2.4718  2.0373
 5323SOL     OW27604   0.552   0.712   6.118 -0.2029 -0.0880  0.2420
 5323SOL    HW127605   0.493   0.757   6.059  1.1041  1.2437 -0.0429
 5323SOL    HW227606   0.488   0.655   6.161  0.6014 -0.9775  0.2781
 5324SOL     OW27607   0.892   3.299  10.805  0.0722 -0.5112 -0.0021
 5324SOL    HW127608   0.939   3.352  10.740 -0.8818  0.6491  0.2463
 5324SOL    HW227609   0.914   3.356  10.879  2.6455  0.4791 -1.5276
 5325SOL     OW27610   3.873   0.197  12.501 -0.2316 -0.4351 -0.0858
 5325SOL    HW127611   3.786   0.157  12.505 -1.0274  1.3753  0.7831
 5325SOL    HW227612   3.874   0.218  12.594  0.7755  0.8402 -0.3923
 5326SOL     OW27613   1.412   4.235   5.623  0.2951  0.2025 -0.6737
 5326SOL    HW127614   1.346   4.169   5.646 -0.0866  1.7585  2.7906
 5326SOL    HW227615   1.481   4.221   5.688 -1.0320  0.9368  0.9072
 5327SOL     OW27616   2.460   3.276   9.548  0.3208 -0.2626  0.0925
 5327SOL    HW127617   2.533   3.256   9.607 -0.2532 -1.6605  0.3205
 5327SOL    HW227618   2.444   3.190   9.510  1.8678 -1.6277  2.5109
 5328SOL     OW27619   2.117   4.126   2.931 -0.3756 -0.2813 -0.1780
 5328SOL    HW127620   2.197   4.092   2.893 -0.4635 -2.3922  1.5227
 5328SOL    HW227621   2.107   4.059   2.999 -0.6691  2.7051  2.7447
 5329SOL     OW27622   0.002   2.002   1.405 -0.1532 -0.0068  0.0639
 5329SOL    HW127623   0.078   2.059   1.416  1.1947 -1.4769 -1.6617
 5329SOL    HW227624   0.022   1.944   1.480  1.7171 -0.3596 -0.6942
 5330SOL     OW27625   2.069   3.561   9.034  1.1080 -0.6519  0.1397
 5330SOL    HW127626   2.044   3.477   8.994 -0.9600  0.2203 -0.3948
 5330SOL    HW227627   2.043   3.545   9.125  0.5458  0.1271  0.1134
 5331SOL     OW27628   1.384   3.386   6.246  0.1653  0.3650  0.5122
 5331SOL    HW127629   1.378   3.477   6.276  3.3066  1.5649 -2.5328
 5331SOL    HW227630   1.303   3.352   6.284  0.8696  0.0023  1.6909
 5332SOL     OW27631   0.593   3.782   1.982 -0.3096  0.1213  0.8026
 5332SOL    HW127632   0.662   3.731   1.939 -0.0501  0.7360  0.5042
 5332SOL    HW227633   0.511   3.742   1.952 -0.8644  1.4712  0.5417
 5333SOL     OW27634   0.955   0.313   4.051 -0.0018  1.0148 -1.0611
 5333SOL    HW127635   1.021   0.253   4.085 -2.5294 -0.2943  1.4995
 5333SOL    HW227636   0.894   0.246   4.021 -0.3445 -0.1479  2.1852
 5334SOL     OW27637   2.156   3.596   7.177  0.0188 -0.3176 -0.0670
 5334SOL    HW127638   2.068   3.595   7.215 -1.0001 -1.0141 -2.4300
 5334SOL    HW227639   2.206   3.566   7.253  0.6230 -0.0427 -0.3550
 5335SOL     OW27640   0.981   1.335   8.833 -0.4529 -0.1792 -0.1451
 5335SOL    HW127641   1.074   1.311   8.834 -0.3218  0.3799  1.3738
 5335SOL    HW227642   0.924   1.260   8.847 -1.3432  0.7714  1.3209
 5336SOL     OW27643   4.674   3.771   3.496 -0.1085  0.1213 -0.1024
 5336SOL    HW127644   4.722   3.699   3.537  0.2463  1.0370  1.0919
 5336SOL    HW227645   4.673   3.745   3.404 -0.8467 -0.5109  0.0879
 5337SOL     OW27646   1.649   1.031   6.055  0.1483  0.3834 -0.4295
 5337SOL    HW127647   1.693   1.093   6.114  1.3902  0.6133 -1.5966
 5337SOL    HW227648   1.681   0.944   6.079  1.5635  0.7948 -0.8242
 5338SOL     OW27649   2.492   4.571   0.068  0.6241  0.3727 -0.1475
 5338SOL    HW127650   2.408   4.585   0.024  0.1775  0.4207  0.7214
 5338SOL    HW227651   2.489   4.641   0.134 -1.8600  0.3860 -0.2697
 5339SOL     OW27652   0.675   0.392   9.091 -0.3918  0.2526 -0.0245
 5339SOL    HW127653   0.584   0.368   9.105 -0.7454  0.4249 -2.0264
 5339SOL    HW227654   0.716   0.306   9.079  1.0321  1.0067 -0.6374
 5340SOL     OW27655   2.682   3.513   3.169 -0.8302  0.2252  0.2506
 5340SOL    HW127656   2.711   3.551   3.252  2.3289 -0.6387 -0.4329
 5340SOL    HW227657   2.678   3.420   3.191 -0.9641  0.0696 -0.4174
 5341SOL     OW27658   4.386   4.310   4.756 -0.0872 -0.2409  0.3305
 5341SOL    HW127659   4.368   4.216   4.760 -1.3342 -0.0404 -0.5491
 5341SOL    HW227660   4.372   4.342   4.845 -2.5306  1.4456 -0.6424
 5342SOL     OW27661   1.248   4.426   9.696 -0.4428 -0.0610 -0.0669
 5342SOL    HW127662   1.269   4.353   9.755  0.4187  0.0949 -0.1821
 5342SOL    HW227663   1.232   4.491   9.765  2.5941 -0.3603  0.9461
 5343SOL     OW27664   0.875   1.625   7.324  0.3470 -0.3016  0.1751
 5343SOL    HW127665   0.781   1.616   7.340  0.7027 -1.8859  1.3885
 5343SOL    HW227666   0.909   1.589   7.405 -0.1583 -2.6046 -0.6301
 5344SOL     OW27667   2.447   2.989   4.907  0.3865  1.3112  0.2899
 5344SOL    HW127668   2.431   2.986   4.813  0.4361  0.9192  0.2925
 5344SOL    HW227669   2.454   3.083   4.923  4.0961  1.0273  0.4526
 5345SOL     OW27670   1.456   0.686   5.694 -0.6381  0.8175 -0.7754
 5345SOL    HW127671   1.535   0.633   5.703 -0.1590  1.1831 -2.7917
 5345SOL    HW227672   1.415   0.648   5.616  0.2785  1.8265 -1.7444
 5346SOL     OW27673   2.484   4.195  11.778  0.0821  0.0597 -0.1679
 5346SOL    HW127674   2.480   4.106  11.742  0.5698  0.6907 -1.7949
 5346SOL    HW227675   2.556   4.237  11.731  0.9766  1.3216  2.3479
 5347SOL     OW27676   4.724   0.674   8.233 -0.0155 -0.0032  0.1086
 5347SOL    HW127677   0.080   0.667   8.243  0.0297 -0.8693 -0.8383
 5347SOL    HW227678   4.697   0.678   8.325  0.9686 -1.4353  0.4716
 5348SOL     OW27679   1.599   2.616   3.044  0.0963  0.2119 -0.2442
 5348SOL    HW127680   1.621   2.615   2.951 -1.1617  4.1485 -0.5741
 5348SOL    HW227681   1.520   2.669   3.053 -0.7977 -1.1909  0.0123
 5349SOL     OW27682   0.836   3.751  15.791 -0.4383 -0.2135  0.5760
 5349SOL    HW127683   0.786   3.773  15.870  0.0463 -3.9568  1.9394
 5349SOL    HW227684   0.915   3.802  15.805 -0.1267 -0.1955 -1.2467
 5350SOL     OW27685   0.792   1.716   3.205  0.4488 -0.0440  0.0804
 5350SOL    HW127686   0.750   1.796   3.173  2.0654  0.7110 -0.1643
 5350SOL    HW227687   0.762   1.650   3.143 -0.2113  1.1448 -0.8717
 5351SOL     OW27688   0.907   4.004   3.587 -0.0008  0.6910  0.6403
 5351SOL    HW127689   0.826   3.990   3.637  0.6492 -0.8874  1.2650
 5351SOL    HW227690   0.964   3.964   3.652 -1.5492 -0.1865  1.4602
 5352SOL     OW27691   1.194   2.852   5.559  0.3926 -0.6226 -0.5101
 5352SOL    HW127692   1.178   2.840   5.653 -2.0583 -0.5814 -0.9330
 5352SOL    HW227693   1.187   2.760   5.536 -1.6315 -0.7029  0.3756
 5353SOL     OW27694   0.326   0.913   2.078 -0.1776 -0.4108  0.1644
 5353SOL    HW127695   0.279   0.883   2.156 -3.3645  1.7619 -0.9669
 5353SOL    HW227696   0.343   1.004   2.101  1.1065  0.0491 -2.6473
 5354SOL     OW27697   3.514   3.940   5.846  0.4323  0.0999 -0.2714
 5354SOL    HW127698   3.542   4.028   5.822  1.3092 -0.6373 -2.0324
 5354SOL    HW227699   3.474   3.959   5.930 -0.0009  0.1867 -0.4985
 5355SOL     OW27700   3.945   3.472   3.915 -0.1326  0.1693  0.3137
 5355SOL    HW127701   3.898   3.487   3.998 -1.0522 -2.2708  0.2388
 5355SOL    HW227702   3.971   3.381   3.929 -2.3011 -0.0726  2.7306
 5356SOL     OW27703   2.040   1.076   1.755  0.0983  0.0511  0.5860
 5356SOL    HW127704   2.127   1.039   1.740 -1.2678 -2.2969 -1.5221
 5356SOL    HW227705   2.055   1.163   1.717 -2.6439  1.0976  1.9083
 5357SOL     OW27706   3.967   0.583   1.809  0.0438  0.7002 -0.1765
 5357SOL    HW127707   4.034   0.536   1.859 -0.1358  0.1264 -0.4688
 5357SOL    HW227708   3.951   0.664   1.857  0.3526  0.8045 -0.2518
 5358SOL     OW27709   1.242   0.292   1.728  0.0485  0.6068 -0.1310
 5358SOL    HW127710   1.179   0.290   1.656 -1.5404  0.1711  1.2781
 5358SOL    HW227711   1.313   0.243   1.687  2.1038  2.0821  1.6602
 5359SOL     OW27712   2.130   0.284   0.522 -0.0174 -0.2939  0.4522
 5359SOL    HW127713   2.040   0.250   0.519  0.4492 -1.4408 -0.5947
 5359SOL    HW227714   2.115   0.378   0.512 -1.2095 -0.4449  0.8289
 5360SOL     OW27715   3.671   0.893   4.550 -0.5600 -0.4428 -0.5339
 5360SOL    HW127716   3.683   0.798   4.543  2.6369  0.2124 -3.5121
 5360SOL    HW227717   3.737   0.919   4.486 -0.8772 -1.2001 -1.1637
 5361SOL     OW27718   1.833   0.200   7.044 -0.7343 -0.1365  0.5551
 5361SOL    HW127719   1.779   0.191   6.965 -2.7724 -1.7138  2.1534
 5361SOL    HW227720   1.922   0.206   7.008 -0.6429 -0.9774  0.6435
 5362SOL     OW27721   0.575   3.512   4.002 -0.0919 -0.0219 -0.3341
 5362SOL    HW127722   0.491   3.537   3.962 -0.1250  1.2994  0.5605
 5362SOL    HW227723   0.579   3.417   3.993  1.7661  0.0748 -0.5014
 5363SOL     OW27724   4.152   2.425   9.212 -0.2050  0.6806  0.2084
 5363SOL    HW127725   4.103   2.507   9.211  0.7606  1.2596  0.7057
 5363SOL    HW227726   4.237   2.454   9.244  0.0242  0.3161 -0.0774
 5364SOL     OW27727   3.963   2.854   2.253  0.2882 -0.6582 -0.1079
 5364SOL    HW127728   3.926   2.872   2.167 -1.1314 -0.3652  0.5641
 5364SOL    HW227729   3.966   2.942   2.290 -0.1155 -1.2827  1.4124
 5365SOL     OW27730   4.180   4.444  11.400 -0.6663 -0.4250 -0.4028
 5365SOL    HW127731   4.189   4.380  11.471  1.6849 -0.6509 -0.8867
 5365SOL    HW227732   4.273   4.454  11.378 -0.3107  1.5758  1.9585
 5366SOL     OW27733   3.050   3.857   8.119 -0.2666 -0.2631 -0.2716
 5366SOL    HW127734   3.046   3.805   8.038 -2.0258  1.8206 -1.5372
 5366SOL    HW227735   3.008   3.810   8.191 -0.1365  0.8354  0.5193
 5367SOL     OW27736   0.463   0.891   1.836 -0.2814  0.4681  0.5928
 5367SOL    HW127737   0.530   0.938   1.884 -0.6721  1.5708  0.0702
 5367SOL    HW227738   0.396   0.883   1.904  0.0475 -1.5016  0.6958
 5368SOL     OW27739   1.579   3.162  17.504 -0.2629 -0.2248 -0.1105
 5368SOL    HW127740   1.531   3.144  17.585  2.1845 -2.2185  0.9283
 5368SOL    HW227741   1.543   3.093  17.449 -1.7904  0.3654  0.1519
 5369SOL     OW27742   3.772   2.521  11.386  0.3524  0.1103 -0.2162
 5369SOL    HW127743   3.852   2.479  11.418  0.3324 -0.1573 -0.5017
 5369SOL    HW227744   3.800   2.609  11.364  0.5265 -0.1538 -1.0623
 5370SOL     OW27745   1.985   3.488   4.962  0.0246 -0.1290  0.0313
 5370SOL    HW127746   1.929   3.438   4.902 -0.2482 -0.8700  0.9005
 5370SOL    HW227747   2.052   3.508   4.898  2.4981 -1.4016  2.2493
 5371SOL     OW27748   3.849   1.290   0.208 -0.9681 -0.1390  0.4298
 5371SOL    HW127749   3.820   1.263   0.121 -1.7495 -3.0079  1.6014
 5371SOL    HW227750   3.827   1.384   0.207 -1.8424 -0.3435  0.3330
 5372SOL     OW27751   2.855   3.333   2.099  0.0942 -0.2842 -0.3027
 5372SOL    HW127752   2.859   3.385   2.019 -2.4620 -0.2772 -0.4182
 5372SOL    HW227753   2.855   3.398   2.169  1.7247 -0.7188  0.1094
 5373SOL     OW27754   2.232   3.650   5.197 -0.1544  0.0313 -0.0173
 5373SOL    HW127755   2.142   3.680   5.182  0.1033  0.1829 -1.2554
 5373SOL    HW227756   2.249   3.708   5.271  2.8529 -1.3139  0.3320
 5374SOL     OW27757   0.073   2.880   5.740  0.1550  0.2311  0.0351
 5374SOL    HW127758   0.102   2.801   5.694  1.0691  0.4885  0.1828
 5374SOL    HW227759   4.737   2.892   5.681 -0.0808 -0.8232  0.1167
 5375SOL     OW27760   3.671   1.592  15.305 -0.3831 -0.4386  0.2945
 5375SOL    HW127761   3.726   1.544  15.243  0.4700 -0.7851  1.3317
 5375SOL    HW227762   3.592   1.607  15.252 -0.9813 -0.7100  1.1101
 5376SOL     OW27763   4.428   3.925  15.038 -0.1085  0.0419  0.1403
 5376SOL    HW127764   4.441   3.997  14.976  1.1839 -0.2805  0.0441
 5376SOL    HW227765   4.338   3.948  15.063 -0.0897  1.7381 -1.3582
 5377SOL     OW27766   0.887   3.353  13.340 -0.2901 -0.4605  0.6721
 5377SOL    HW127767   0.918   3.440  13.316 -0.7709 -0.7433 -0.9816
 5377SOL    HW227768   0.793   3.369  13.355 -0.3080  1.7888 -1.9370
 5378SOL     OW27769   2.823   2.686  11.334 -0.3020  0.0855  0.0764
 5378SOL    HW127770   2.856   2.698  11.245 -1.4767 -2.2721 -0.6755
 5378SOL    HW227771   2.898   2.634  11.364 -1.6406 -2.6675 -1.2900
 5379SOL     OW27772   0.053   2.734   7.264 -0.1850  0.1241 -0.0679
 5379SOL    HW127773   4.712   2.684   7.284 -0.7967  0.5515 -1.4634
 5379SOL    HW227774   0.055   2.786   7.344  1.4258 -1.2708  0.8149
 5380SOL     OW27775   0.753   0.093   0.020  0.6458 -0.5020 -0.1927
 5380SOL    HW127776   0.840   0.132   0.030 -0.7520  1.7994  2.9541
 5380SOL    HW227777   0.719   0.105   0.109  2.0862  0.6508  0.2062
 5381SOL     OW27778   0.880   0.511  10.444  0.0890 -0.0549  1.0900
 5381SOL    HW127779   0.949   0.576  10.435  0.5604 -0.8624 -1.0532
 5381SOL    HW227780   0.837   0.534  10.526  0.0602  1.2980  0.6915
 5382SOL     OW27781   3.507   3.128  15.215 -0.0545 -0.0346  0.5329
 5382SOL    HW127782   3.425   3.176  15.203  0.4602  0.6629 -0.1669
 5382SOL    HW227783   3.552   3.187  15.155  1.2043 -1.9372 -0.3835
 5383SOL     OW27784   3.766   2.467   5.659  0.1824  0.3772 -0.5836
 5383SOL    HW127785   3.822   2.449   5.734 -0.7695  0.5366  0.1655
 5383SOL    HW227786   3.682   2.491   5.698  1.3106  1.5320  1.0935
 5384SOL     OW27787   3.969   1.005   5.695  0.0456 -0.1239  0.3912
 5384SOL    HW127788   3.912   0.969   5.627 -1.2352 -0.2323  1.5054
 5384SOL    HW227789   3.921   0.962   5.766  0.6703 -0.1754  0.7805
 5385SOL     OW27790   2.729   0.030   7.708 -0.0333 -0.1909  0.0356
 5385SOL    HW127791   2.741   4.677   7.683  1.6525  0.2181 -0.7059
 5385SOL    HW227792   2.810   0.074   7.684 -0.5014  0.2574 -0.7500
 5386SOL     OW27793   0.253   0.762   0.533 -0.2471  0.4917 -0.2049
 5386SOL    HW127794   0.167   0.804   0.538 -0.1298  0.5072  2.0191
 5386SOL    HW227795   0.307   0.838   0.554  1.5948 -1.7650  3.2481
 5387SOL     OW27796   3.442   1.747   7.098 -0.4725 -0.1433  0.0034
 5387SOL    HW127797   3.485   1.829   7.073 -1.0999  0.2449  0.1985
 5387SOL    HW227798   3.355   1.779   7.075 -1.0243 -1.1724  0.6860
 5388SOL     OW27799   2.581   0.551  17.151 -0.0645 -0.1567  0.1855
 5388SOL    HW127800   2.544   0.476  17.197  2.1816 -2.4411 -1.7500
 5388SOL    HW227801   2.652   0.516  17.098  1.0646  0.4843  1.2943
 5389SOL     OW27802   3.684   3.349   2.637 -0.3389 -0.5182 -0.3249
 5389SOL    HW127803   3.741   3.357   2.561  1.0535 -1.2912  0.6377
 5389SOL    HW227804   3.705   3.427   2.690 -0.5333 -0.1174 -0.8342
 5390SOL     OW27805   1.158   2.840   1.689  0.3091  0.4437  0.2306
 5390SOL    HW127806   1.085   2.902   1.689 -0.2758 -0.2446  2.8481
 5390SOL    HW227807   1.212   2.875   1.759  2.1580 -1.0908 -0.4293
 5391SOL     OW27808   2.799   2.091  16.190  0.2808 -0.5890 -0.3615
 5391SOL    HW127809   2.813   2.036  16.113  0.0921 -0.3955 -0.5354
 5391SOL    HW227810   2.748   2.025  16.237 -0.8453 -1.2967 -2.5895
 5392SOL     OW27811   3.112   0.293   9.403  0.4745 -0.9402 -0.1788
 5392SOL    HW127812   3.114   0.331   9.316  2.9071  1.0109  0.7368
 5392SOL    HW227813   3.122   0.372   9.457 -1.2146 -0.8541  0.0016
 5393SOL     OW27814   1.837   4.219  16.758 -0.1615  0.0287 -0.3476
 5393SOL    HW127815   1.776   4.229  16.686  0.1454 -3.1439 -1.0801
 5393SOL    HW227816   1.920   4.207  16.713 -2.6363 -0.4612 -4.7143
 5394SOL     OW27817   2.748   4.203  17.410 -0.3309 -0.0834 -0.0863
 5394SOL    HW127818   2.777   4.213  17.319  2.5555 -2.1252  0.5920
 5394SOL    HW227819   2.700   4.283  17.427  1.4408  1.3112 -1.6275
 5395SOL     OW27820   4.625   3.157  13.021  0.0680  0.1440  0.4696
 5395SOL    HW127821   4.672   3.131  13.101  2.7331  2.5702 -0.3114
 5395SOL    HW227822   4.599   3.070  12.992 -0.7966  0.1632  1.1772
 5396SOL     OW27823   4.362   4.144   2.174 -0.3146 -0.2111  1.0512
 5396SOL    HW127824   4.344   4.128   2.267 -0.8031  0.7421  1.1213
 5396SOL    HW227825   4.314   4.074   2.130  0.2075 -0.5309  0.9916
 5397SOL     OW27826   2.492   0.581   0.853  0.2264  0.2830  0.2253
 5397SOL    HW127827   2.446   0.659   0.822 -0.7882  0.1476  1.4022
 5397SOL    HW227828   2.457   0.518   0.790 -1.4104 -0.2336  1.6608
 5398SOL     OW27829   3.832   2.633   1.464  0.6133 -0.0045  0.1779
 5398SOL    HW127830   3.798   2.706   1.516 -1.5822 -1.1003  0.2799
 5398SOL    HW227831   3.776   2.565   1.502 -1.2362  0.9439 -0.8260
 5399SOL     OW27832   2.740   1.745   2.459 -0.3629 -0.3580  0.2390
 5399SOL    HW127833   2.647   1.734   2.444 -0.0651 -2.6199 -0.0543
 5399SOL    HW227834   2.782   1.703   2.384 -2.3710  0.3420 -1.2562
 5400SOL     OW27835   1.094   4.167   4.306  0.4075  0.4925 -0.1319
 5400SOL    HW127836   1.021   4.219   4.274 -2.6843 -3.0667  1.1715
 5400SOL    HW227837   1.121   4.111   4.233  0.5042 -0.1517  0.4020
 5401SOL     OW27838   1.810   0.049   1.272 -0.3513  0.1006  0.7829
 5401SOL    HW127839   1.805   0.076   1.180 -0.1076  0.9671  1.0246
 5401SOL    HW227840   1.895   0.084   1.300  0.8342 -0.6877 -1.8740
 5402SOL     OW27841   2.329   4.106   2.727  0.4815 -0.0942  0.1720
 5402SOL    HW127842   2.384   4.070   2.658  1.8234  1.7172  0.3158
 5402SOL    HW227843   2.246   4.108   2.680  0.5782 -0.8216 -0.0241
 5403SOL     OW27844   1.668   3.063   7.744  0.0581 -0.4934 -1.0704
 5403SOL    HW127845   1.742   3.058   7.683  1.5444 -0.1128  0.6929
 5403SOL    HW227846   1.693   3.020   7.826 -0.9114 -0.2293 -0.6354
 5404SOL     OW27847   3.811   4.325  16.839  0.0962  0.1010 -0.0104
 5404SOL    HW127848   3.880   4.328  16.905 -0.0774  1.9377  0.0864
 5404SOL    HW227849   3.821   4.408  16.793 -1.2032 -0.5618 -1.4842
 5405SOL     OW27850   3.317   3.864   0.347  0.1277 -0.1916  0.3813
 5405SOL    HW127851   3.243   3.815   0.312 -0.4216  1.1761 -0.3786
 5405SOL    HW227852   3.371   3.880   0.270  0.1015 -0.2370  0.3540
 5406SOL     OW27853   1.692   0.606   7.912 -0.6107  0.3198 -0.2887
 5406SOL    HW127854   1.722   0.692   7.883  0.2195  0.9695  2.4015
 5406SOL    HW227855   1.760   0.586   7.977  0.9711 -1.8545 -2.5970
 5407SOL     OW27856   0.012   0.834  13.156  0.5907  0.1116  0.2668
 5407SOL    HW127857   0.102   0.823  13.124  1.0030  0.8584  1.1603
 5407SOL    HW227858   0.012   0.766  13.224  0.2412  1.1956  1.3566
 5408SOL     OW27859   0.326   0.102   4.731 -0.7688  0.0011  0.1289
 5408SOL    HW127860   0.416   0.114   4.764 -0.8967  0.2500  0.3891
 5408SOL    HW227861   0.280   0.077   4.811  4.3346 -2.1187  2.4520
 5409SOL     OW27862   4.104   3.896   1.838  0.2555  0.3276  0.1926
 5409SOL    HW127863   4.013   3.869   1.828  1.1540 -2.1913 -1.1786
 5409SOL    HW227864   4.091   3.976   1.788  0.7537  1.6201  2.1169
 5410SOL     OW27865   1.501   1.833  12.835 -0.2026 -0.2518 -0.7431
 5410SOL    HW127866   1.434   1.769  12.862 -1.7185  1.4597 -0.4442
 5410SOL    HW227867   1.497   1.890  12.912 -0.9312  0.3609 -1.2319
 5411SOL     OW27868   2.228   4.276   9.764 -0.1555  0.2764 -0.4389
 5411SOL    HW127869   2.180   4.319   9.835  2.2327  1.5622  0.4258
 5411SOL    HW227870   2.256   4.356   9.719  3.0209 -0.9667 -0.6469
 5412SOL     OW27871   2.557   4.333   5.823  0.1317 -0.4030  0.9340
 5412SOL    HW127872   2.638   4.374   5.852  0.7442 -0.8398 -0.1373
 5412SOL    HW227873   2.591   4.264   5.766 -0.4737  2.3965 -2.8235
 5413SOL     OW27874   1.063   0.329  11.013 -0.1315  0.4467  0.2273
 5413SOL    HW127875   1.053   0.355  11.104  1.0886 -0.9613  0.7842
 5413SOL    HW227876   1.113   0.404  10.981  0.0626  0.2466  0.0511
 5414SOL     OW27877   3.758   4.545   5.333  0.1830  0.4814  0.1051
 5414SOL    HW127878   3.673   4.589   5.326  0.0353 -0.0431 -1.2669
 5414SOL    HW227879   3.739   4.452   5.324  1.4548  0.1741  0.6195
 5415SOL     OW27880   4.092   4.244  13.603 -0.6533 -0.1307 -0.0563
 5415SOL    HW127881   4.063   4.247  13.695 -1.5294 -0.2986 -0.3289
 5415SOL    HW227882   4.180   4.207  13.616 -0.0425  1.1878 -0.4555
 5416SOL     OW27883   3.901   4.523  11.423  0.2016  0.5587  0.0920
 5416SOL    HW127884   3.880   4.583  11.351 -2.9671 -0.1181  0.4607
 5416SOL    HW227885   3.990   4.501  11.394 -0.3679 -0.8481 -0.5709
 5417SOL     OW27886   1.083   4.716   0.141 -0.3391 -0.3739  0.4627
 5417SOL    HW127887   1.046   4.637   0.103  1.7221 -1.0670 -0.1166
 5417SOL    HW227888   1.026   4.738   0.214 -0.2584 -2.5991  1.1944
 5418SOL     OW27889   3.527   4.660   3.495  0.1113  0.2262 -0.1462
 5418SOL    HW127890   3.605   4.626   3.453 -1.4955 -1.4489 -1.8003
 5418SOL    HW227891   3.471   4.671   3.418 -0.4346  1.3237  0.4060
 5419SOL     OW27892   3.387   1.135   6.079  0.6365 -0.5874 -0.0512
 5419SOL    HW127893   3.480   1.151   6.095  0.2939  2.0510 -0.8200
 5419SOL    HW227894   3.342   1.157   6.161 -0.2152 -1.3224 -0.3241
 5420SOL     OW27895   1.152   3.136   7.481  0.3740  0.0667  0.1165
 5420SOL    HW127896   1.066   3.154   7.519  1.1460  2.7645  0.5628
 5420SOL    HW227897   1.124   3.092   7.401 -1.1245  1.0832  0.0786
 5421SOL     OW27898   1.079   0.954   3.276  0.3194 -0.0498  0.1384
 5421SOL    HW127899   0.992   0.980   3.245  1.5746  0.6421 -2.8426
 5421SOL    HW227900   1.079   0.983   3.367  0.0589 -2.2421  0.8286
 5422SOL     OW27901   1.195   1.013   7.576  0.6160  0.2381  0.6571
 5422SOL    HW127902   1.236   1.058   7.650  0.5212 -0.5183  1.1658
 5422SOL    HW227903   1.218   0.922   7.595  0.0949  0.2872  1.5472
 5423SOL     OW27904   1.585   4.720  16.884 -0.3836 -0.1714  0.0185
 5423SOL    HW127905   1.587   4.713  16.789  0.6836  2.0274 -0.1132
 5423SOL    HW227906   1.669   0.022  16.905 -1.1294  0.9456  0.8704
 5424SOL     OW27907   1.650   1.420   9.209  0.0466  0.2632 -0.3373
 5424SOL    HW127908   1.629   1.328   9.201 -3.8555  0.9966  1.3529
 5424SOL    HW227909   1.564   1.447   9.242  0.0964 -1.4681  1.2113
 5425SOL     OW27910   0.511   1.641  10.181  0.0931  0.0515 -0.6687
 5425SOL    HW127911   0.470   1.555  10.188 -0.8367  0.5390 -0.0024
 5425SOL    HW227912   0.601   1.613  10.197  0.7261  2.3436 -0.1629
 5426SOL     OW27913   0.412   2.410   5.580 -0.5194 -0.1541 -0.3028
 5426SOL    HW127914   0.485   2.444   5.529 -0.7864 -0.8988 -1.1770
 5426SOL    HW227915   0.347   2.378   5.516 -1.6895  0.9978  0.3090
 5427SOL     OW27916   1.235   0.040   9.278  0.4106 -0.1908  0.5446
 5427SOL    HW127917   1.140   0.051   9.275  0.6128  0.5952 -2.6018
 5427SOL    HW227918   1.253   0.063   9.370 -1.6895  0.2691  0.8312
 5428SOL     OW27919   3.362   0.759   3.847  0.0644 -0.1336  0.0171
 5428SOL    HW127920   3.302   0.693   3.881 -1.1643  0.6321 -0.6790
 5428SOL    HW227921   3.315   0.810   3.781  0.4133 -1.7790 -1.4951
 5429SOL     OW27922   4.172   1.343   9.887  0.7063  0.4649 -0.8112
 5429SOL    HW127923   4.247   1.292   9.919 -0.1779 -1.2472 -1.4529
 5429SOL    HW227924   4.224   1.408   9.840  0.5793  0.5399 -0.8464
 5430SOL     OW27925   3.083   4.278   4.387  0.0415  0.1838 -0.0024
 5430SOL    HW127926   3.166   4.316   4.358 -0.0262 -0.5592 -1.1736
 5430SOL    HW227927   3.024   4.290   4.312 -1.5025  3.0838  1.6755
 5431SOL     OW27928   4.563   4.308   2.453  0.8326  0.7938  0.0228
 5431SOL    HW127929   4.577   4.322   2.360 -1.3035 -3.8066 -0.9805
 5431SOL    HW227930   4.609   4.227   2.472  1.0171  0.7205 -0.7559
 5432SOL     OW27931   2.437   1.661   2.627 -0.7956  0.7058 -0.1151
 5432SOL    HW127932   2.371   1.724   2.656 -0.7627 -0.0676  1.6245
 5432SOL    HW227933   2.388   1.637   2.548 -0.0201  0.9912 -0.6844
 5433SOL     OW27934   4.095   2.262   3.115  0.1321  0.7556 -0.0794
 5433SOL    HW127935   4.112   2.179   3.071  1.1087  1.4577 -1.0332
 5433SOL    HW227936   4.000   2.252   3.121  0.2418 -0.0986  0.2251
 5434SOL     OW27937   4.500   2.141  16.375  0.8373  0.2295 -0.2112
 5434SOL    HW127938   4.415   2.114  16.342  1.0235 -0.9216  0.2501
 5434SOL    HW227939   4.519   2.077  16.444  1.0256 -0.4917 -0.9412
 5435SOL     OW27940   3.051   0.922   5.260 -0.2943 -0.0908  0.3232
 5435SOL    HW127941   3.004   0.913   5.177 -1.2257  3.5182  0.4580
 5435SOL    HW227942   3.139   0.938   5.226 -0.2494  1.4382  1.1622
 5436SOL     OW27943   2.629   3.104   4.615  0.1730  0.1189 -0.2878
 5436SOL    HW127944   2.593   3.023   4.579 -0.1363  0.7346 -1.3684
 5436SOL    HW227945   2.720   3.100   4.584  0.1290  3.1663 -0.7444
 5437SOL     OW27946   2.746   2.280   9.428 -0.0235  0.4499  0.4226
 5437SOL    HW127947   2.680   2.341   9.395  1.8152  2.1071 -0.2393
 5437SOL    HW227948   2.704   2.195   9.416  0.0688  0.2896  1.2665
 5438SOL     OW27949   2.926   2.923   1.685  0.1269 -0.1628 -0.2198
 5438SOL    HW127950   2.914   2.901   1.592  0.9592 -1.3480 -0.0474
 5438SOL    HW227951   3.022   2.927   1.687  0.1841 -1.0812 -0.9589
 5439SOL     OW27952   1.929   2.726   4.071 -0.3030 -0.3264 -0.1275
 5439SOL    HW127953   1.968   2.742   3.985  1.0339 -0.8042  0.3917
 5439SOL    HW227954   1.866   2.657   4.052 -1.8277  1.6403 -2.2356
 5440SOL     OW27955   4.273   2.302   2.075  0.3512  0.6179 -0.0976
 5440SOL    HW127956   4.192   2.263   2.107 -0.4223  0.6092 -2.0244
 5440SOL    HW227957   4.247   2.391   2.053  0.7956  0.2080 -2.3621
 5441SOL     OW27958   0.165   0.154   4.025  0.0009 -0.2223  0.5229
 5441SOL    HW127959   0.077   0.171   4.058 -0.0242  1.0530 -0.1958
 5441SOL    HW227960   0.203   0.109   4.100  1.7109 -1.4373 -1.0886
 5442SOL     OW27961   1.641   0.834   4.144  0.0342 -0.2695 -0.4591
 5442SOL    HW127962   1.693   0.914   4.149  1.2409 -1.1020  0.3041
 5442SOL    HW227963   1.696   0.786   4.082 -1.5200 -2.9582  0.2130
 5443SOL     OW27964   4.365   2.322   5.973  0.1453 -0.7883  0.5994
 5443SOL    HW127965   4.326   2.235   5.985 -1.9216  0.1448  0.4850
 5443SOL    HW227966   4.320   2.365   6.045 -0.7040 -0.5943 -0.0558
 5444SOL     OW27967   2.335   1.278   6.882  0.2595  0.5677  0.2076
 5444SOL    HW127968   2.322   1.371   6.864 -0.3737  0.3604 -0.4122
 5444SOL    HW227969   2.311   1.248   6.794 -2.8497 -0.6709  1.5083
 5445SOL     OW27970   3.322   0.291   5.752  0.0412  0.0132 -1.1021
 5445SOL    HW127971   3.349   0.301   5.844  1.8058 -2.4693 -1.3446
 5445SOL    HW227972   3.403   0.309   5.704  0.6440 -2.4829 -1.0384
 5446SOL     OW27973   4.523   2.156   4.901  0.0331  0.5615 -0.6320
 5446SOL    HW127974   4.570   2.206   4.834 -0.8874  1.2071 -0.8003
 5446SOL    HW227975   4.468   2.097   4.850  0.6203 -0.7914  0.3096
 5447SOL     OW27976   3.991   2.657   8.534  0.1120 -0.2927  0.4000
 5447SOL    HW127977   4.071   2.607   8.516  0.4228  0.8540 -1.3619
 5447SOL    HW227978   3.944   2.603   8.597 -2.7141  1.4733 -0.2300
 5448SOL     OW27979   2.865   3.502   4.852 -0.5534  0.2446  0.3293
 5448SOL    HW127980   2.871   3.589   4.814  0.4669  0.0014 -0.0838
 5448SOL    HW227981   2.893   3.523   4.941  0.6151 -0.0210  0.0252
 5449SOL     OW27982   4.340   1.979   9.059  0.3072 -0.6542  0.4397
 5449SOL    HW127983   4.323   1.914   9.127  1.1028  0.1799  1.4325
 5449SOL    HW227984   4.261   1.963   9.007  0.6147  2.8396 -1.1402
 5450SOL     OW27985   0.037   1.637   8.770 -0.1517  0.1341  0.3607
 5450SOL    HW127986   4.725   1.694   8.712  0.7578  1.4352  0.8645
 5450SOL    HW227987   0.052   1.697   8.843 -3.1196  1.2148  0.0883
 5451SOL     OW27988   2.914   3.017   8.973  0.2208 -0.0910  0.7295
 5451SOL    HW127989   2.959   3.068   9.040 -1.4193 -1.3830  2.8215
 5451SOL    HW227990   2.940   2.926   8.991 -1.6260 -0.7634  0.0026
 5452SOL     OW27991   1.146   1.201  11.765 -0.4225  0.2233 -0.5123
 5452SOL    HW127992   1.083   1.230  11.699  0.8708 -0.8323 -2.1939
 5452SOL    HW227993   1.129   1.107  11.772 -0.3013  0.2203 -0.2607
 5453SOL     OW27994   4.416   4.625   1.954  0.4249 -0.4468  0.2171
 5453SOL    HW127995   4.344   4.688   1.944 -2.2139 -3.8137 -2.1890
 5453SOL    HW227996   4.450   4.636   1.865  0.8746 -0.4160  0.3951
 5454SOL     OW27997   2.454   3.888  10.004  0.1151  0.0630 -0.2811
 5454SOL    HW127998   2.365   3.860  10.026  0.1676 -0.2592 -0.4763
 5454SOL    HW227999   2.513   3.860  10.074 -1.4698  1.4017  1.6066
 5455SOL     OW28000   1.898   1.855  10.026 -0.4319  0.3985  0.3586
 5455SOL    HW128001   1.840   1.924  10.057 -1.7422 -0.0736 -1.0428
 5455SOL    HW228002   1.959   1.915   9.984 -0.5050 -1.1945 -2.0089
 5456SOL     OW28003   2.483   4.337   2.746 -0.2172 -0.3423  0.2347
 5456SOL    HW128004   2.438   4.257   2.771  0.3804 -0.1173  2.0103
 5456SOL    HW228005   2.540   4.309   2.674 -0.7652 -0.6669 -0.0678
 5457SOL     OW28006   2.646   3.239   8.426 -0.5302 -0.1923 -0.0561
 5457SOL    HW128007   2.556   3.234   8.458 -0.0214 -0.2334  1.3859
 5457SOL    HW228008   2.692   3.282   8.498 -0.9828  1.7328 -0.9274
 5458SOL     OW28009   2.599   1.408   7.129 -0.0292 -0.0622 -0.3716
 5458SOL    HW128010   2.531   1.468   7.159  1.4121  0.6191  1.5906
 5458SOL    HW228011   2.562   1.325   7.161 -1.2361  0.7777  0.3909
 5459SOL     OW28012   3.195   0.729   1.790  0.4623  0.3962  0.0009
 5459SOL    HW128013   3.210   0.759   1.879 -2.0720  0.0080  0.5481
 5459SOL    HW228014   3.126   0.664   1.801 -1.4735  1.9709 -2.6717
 5460SOL     OW28015   1.360   1.057   0.662 -0.1428 -0.8577  0.3573
 5460SOL    HW128016   1.343   0.996   0.590  2.1086  0.6383 -1.4415
 5460SOL    HW228017   1.453   1.078   0.652 -0.6169 -0.2147 -2.6554
 5461SOL     OW28018   4.107   4.089   4.694 -0.1313 -0.4330 -0.2590
 5461SOL    HW128019   4.098   3.995   4.703  0.8028 -0.4790  0.2260
 5461SOL    HW228020   4.114   4.082   4.598  0.3385 -2.7679 -0.0397
 5462SOL     OW28021   0.746   2.013  12.440  0.3563  0.1562 -0.6261
 5462SOL    HW128022   0.773   2.074  12.372  0.7932  1.6671  0.9112
 5462SOL    HW228023   0.811   1.943  12.439 -1.8879 -1.9829  2.2951
 5463SOL     OW28024   4.279   2.402   6.890 -0.3296 -0.1961  0.0779
 5463SOL    HW128025   4.269   2.496   6.880  0.0372 -0.1263  0.4007
 5463SOL    HW228026   4.229   2.374   6.968 -0.9401 -2.4390 -1.1096
 5464SOL     OW28027   1.904   1.140   5.246 -0.5751 -0.0872 -0.3566
 5464SOL    HW128028   1.972   1.126   5.179  0.7776 -2.3452  1.4898
 5464SOL    HW228029   1.846   1.064   5.235 -2.5600  1.1665  1.6534
 5465SOL     OW28030   1.604   2.174   6.854  0.4576  0.0210 -0.1970
 5465SOL    HW128031   1.529   2.219   6.815 -0.3270 -1.4985 -0.4535
 5465SOL    HW228032   1.594   2.083   6.828 -0.1800  0.3648 -1.1724
 5466SOL     OW28033   3.952   0.431   3.975 -0.5588  0.6230 -0.2083
 5466SOL    HW128034   3.900   0.394   4.046 -1.7376  2.1128 -0.3054
 5466SOL    HW228035   4.043   0.402   3.990 -0.6539  0.8788  0.8943
 5467SOL     OW28036   0.399   1.337   5.150 -0.1953  0.5684  0.4800
 5467SOL    HW128037   0.362   1.252   5.126 -0.2645  1.0685 -1.1780
 5467SOL    HW228038   0.481   1.308   5.190 -0.0141  0.9861  0.4151
 5468SOL     OW28039   2.940   1.756   6.976  0.6464  0.2678  0.3457
 5468SOL    HW128040   2.924   1.671   7.018  0.8250 -0.0240 -0.1805
 5468SOL    HW228041   2.929   1.813   7.052 -2.2148 -0.3204  0.4028
 5469SOL     OW28042   3.030   0.953   9.475 -0.1338  0.3467 -0.5784
 5469SOL    HW128043   3.041   0.948   9.380  2.0991 -0.6378 -0.2837
 5469SOL    HW228044   3.026   1.046   9.495 -1.3542  0.8513 -3.0761
 5470SOL     OW28045   1.979   4.664   1.899  0.1988  0.0337  0.0889
 5470SOL    HW128046   2.052   4.712   1.860 -1.7106  2.1077 -0.9243
 5470SOL    HW228047   1.913   4.732   1.917 -1.1408 -1.8405  2.3766
 5471SOL     OW28048   1.416   3.080  17.698  0.9574  0.4901  0.1012
 5471SOL    HW128049   1.377   3.013   0.001  0.3729  0.6589 -0.1125
 5471SOL    HW228050   1.391   3.047  17.612 -0.1193 -0.8273  0.9222
 5472SOL     OW28051   3.414   1.509  10.200 -0.1782  0.0949  0.3208
 5472SOL    HW128052   3.366   1.530  10.120  0.1087  1.6972  0.5586
 5472SOL    HW228053   3.505   1.495  10.174 -0.5509 -0.2769 -0.7674
 5473SOL     OW28054   4.540   0.168   5.871 -0.7163 -0.1889  1.0020
 5473SOL    HW128055   4.625   0.125   5.860 -2.2029 -2.3359 -2.2899
 5473SOL    HW228056   4.475   0.107   5.835 -1.6866  2.4770 -1.7988
 5474SOL     OW28057   3.605   0.545   5.927 -0.6061  0.1562 -0.3307
 5474SOL    HW128058   3.624   0.580   6.014  1.8996  1.3016 -1.3295
 5474SOL    HW228059   3.694   0.517   5.904 -1.2479  0.6563 -3.3941
 5475SOL     OW28060   2.489   1.103   1.934 -0.0820 -0.1447  0.5903
 5475SOL    HW128061   2.402   1.109   1.975 -0.0455 -0.4452  0.7153
 5475SOL    HW228062   2.489   1.175   1.871 -1.7326  0.6070  1.4360
 5476SOL     OW28063   1.012   3.102   6.439 -0.0755 -0.9308 -0.2920
 5476SOL    HW128064   0.949   3.134   6.504  0.2002  0.0771 -0.5172
 5476SOL    HW228065   1.066   3.054   6.502  1.0784  0.7849  0.0457
 5477SOL     OW28066   3.757   4.480  12.879 -0.2792 -0.0977  0.4490
 5477SOL    HW128067   3.849   4.493  12.860 -0.5559  0.5993 -0.3830
 5477SOL    HW228068   3.720   4.539  12.814 -0.5442 -0.3147  0.4025
 5478SOL     OW28069   1.927   1.237   8.668  0.2784  0.1746  0.1765
 5478SOL    HW128070   1.868   1.185   8.614  0.5766  0.0263 -0.0097
 5478SOL    HW228071   1.992   1.265   8.603 -1.5492 -0.3687 -1.9097
 5479SOL     OW28072   3.112   4.434   3.485  0.0853 -0.2904 -0.4547
 5479SOL    HW128073   3.091   4.352   3.441  0.5451 -0.4690 -0.3407
 5479SOL    HW228074   3.198   4.413   3.521 -0.6017  1.4116  2.1985
 5480SOL     OW28075   3.534   3.021  10.931 -0.3026  0.1817  0.0593
 5480SOL    HW128076   3.585   2.948  10.964 -0.0743  0.0090 -0.6990
 5480SOL    HW228077   3.590   3.059  10.864 -2.4052  0.2909 -1.6358
 5481SOL     OW28078   4.271   2.695   1.869 -0.6317  0.1186 -0.0095
 5481SOL    HW128079   4.271   2.674   1.776 -1.0559  0.8344 -0.1756
 5481SOL    HW228080   4.226   2.613   1.889 -1.3827  0.7531  0.8957
 5482SOL     OW28081   3.357   2.624   4.802 -0.0116  0.6208  0.8340
 5482SOL    HW128082   3.305   2.617   4.722 -0.1011  0.1332  0.9324
 5482SOL    HW228083   3.357   2.718   4.820 -1.3947  0.5077  1.4533
 5483SOL     OW28084   0.891   4.645   2.510 -0.2811  0.1305  0.5399
 5483SOL    HW128085   0.894   4.570   2.450 -0.9574  1.8739 -1.6702
 5483SOL    HW228086   0.799   4.670   2.502 -0.4897 -0.3332  1.5611
 5484SOL     OW28087   2.298   0.788   2.716 -0.0123  0.2272  0.1637
 5484SOL    HW128088   2.242   0.742   2.653  0.9004 -1.5692  0.6743
 5484SOL    HW228089   2.268   0.743   2.795 -1.9355  0.1334 -0.6303
 5485SOL     OW28090   3.064   3.407   2.478 -0.9908 -0.0050  0.9499
 5485SOL    HW128091   3.081   3.483   2.533 -1.0416  0.1704  0.7225
 5485SOL    HW228092   2.972   3.391   2.501 -1.1852 -0.2228  0.0190
 5486SOL     OW28093   2.961   0.798   2.608  0.2347 -0.3015 -0.1933
 5486SOL    HW128094   2.904   0.753   2.546  0.3450 -0.6599 -0.0319
 5486SOL    HW228095   2.985   0.870   2.549 -2.0181  0.2773 -0.4089
 5487SOL     OW28096   0.681   1.334   2.552  0.4126  0.2469  0.1457
 5487SOL    HW128097   0.604   1.279   2.538  0.3507  0.2239  0.5860
 5487SOL    HW228098   0.748   1.267   2.544 -1.1795 -1.6112  2.5131
 5488SOL     OW28099   1.505   1.361   3.304 -0.3251 -0.7276 -0.2686
 5488SOL    HW128100   1.578   1.326   3.355  1.0745  2.6301  0.0646
 5488SOL    HW228101   1.487   1.294   3.239 -0.5669  1.2053 -2.2033
 5489SOL     OW28102   3.402   2.450   6.984  0.1945  0.0027  0.1589
 5489SOL    HW128103   3.448   2.472   6.903  1.2384  0.5836  0.8987
 5489SOL    HW228104   3.354   2.367   6.976 -1.5165  0.8166  2.0831
 5490SOL     OW28105   2.604   2.866   4.245  0.1273  0.6242 -0.4735
 5490SOL    HW128106   2.577   2.941   4.191 -0.5442  1.0510  0.4445
 5490SOL    HW228107   2.652   2.818   4.178  2.8520  2.0633  0.4589
 5491SOL     OW28108   0.056   1.888   6.132  0.5145 -0.0833  0.0181
 5491SOL    HW128109   0.006   1.907   6.212 -0.1049  0.5659 -0.5244
 5491SOL    HW228110   0.106   1.811   6.161  2.6507  1.0434 -0.7345
 5492SOL     OW28111   4.378   2.929   8.540 -0.0975 -0.4958 -0.1224
 5492SOL    HW128112   4.383   2.882   8.624  1.1724 -1.2115 -0.5994
 5492SOL    HW228113   4.389   2.855   8.481  3.5066 -0.6829  0.7535
 5493SOL     OW28114   1.556   4.574  14.254 -0.1997  0.3169  0.0092
 5493SOL    HW128115   1.483   4.514  14.237 -0.5860  0.7991 -0.0283
 5493SOL    HW228116   1.525   4.652  14.208  0.8133  0.5153 -0.3493
 5494SOL     OW28117   0.725   2.308   4.149 -0.3333  0.1023  0.0492
 5494SOL    HW128118   0.736   2.214   4.158 -0.4046  0.0574 -0.3050
 5494SOL    HW228119   0.640   2.299   4.104  0.0237 -0.3280 -0.5318
 5495SOL     OW28120   2.157   3.571  10.797 -0.4455  1.6661  0.2146
 5495SOL    HW128121   2.085   3.616  10.841  0.1523  1.6208  1.2427
 5495SOL    HW228122   2.239   3.607  10.832 -1.8196  3.9959  1.0197
 5496SOL     OW28123   4.683   1.265   9.562 -0.8277  0.2354  0.4218
 5496SOL    HW128124   4.634   1.338   9.524 -2.7985 -0.8246  0.9226
 5496SOL    HW228125   0.027   1.300   9.596 -1.4961  3.9074 -1.7156
 5497SOL     OW28126   0.121   0.531   3.188  0.3332 -0.2850  0.3983
 5497SOL    HW128127   0.153   0.509   3.275  1.9585  1.6178  0.2856
 5497SOL    HW228128   0.155   0.619   3.172 -0.0076  0.0037  1.3127
 5498SOL     OW28129   1.166   4.028  17.298  0.5999 -0.0043 -0.1413
 5498SOL    HW128130   1.154   3.974  17.376 -0.3083 -3.0570 -2.4118
 5498SOL    HW228131   1.247   4.077  17.314  1.3225 -1.4166  0.5915
 5499SOL     OW28132   2.862   4.248   4.570 -0.1286 -0.3999 -0.1964
 5499SOL    HW128133   2.883   4.332   4.530 -0.3844  0.6743  1.8810
 5499SOL    HW228134   2.946   4.207   4.552  0.2192 -0.3919  1.3287
 5500SOL     OW28135   0.217   0.588   1.767 -0.5000 -0.4294  0.5236
 5500SOL    HW128136   0.259   0.557   1.687 -1.8673 -0.1798 -0.2912
 5500SOL    HW228137   0.268   0.538   1.831  0.7901 -1.0981 -1.0254
 5501SOL     OW28138   1.332   0.295   8.059  0.2120  0.1260 -0.0199
 5501SOL    HW128139   1.398   0.234   8.028  0.2590  0.1904 -0.0464
 5501SOL    HW228140   1.332   0.280   8.154 -0.2234 -0.6206 -0.1376
 5502SOL     OW28141   1.306   2.740   3.378  0.0680  0.4493  0.6457
 5502SOL    HW128142   1.333   2.649   3.390 -2.6771 -0.1481  2.3249
 5502SOL    HW228143   1.227   2.737   3.323 -0.3278 -0.4337  1.2509
 5503SOL     OW28144   0.131   3.763  12.454  0.1586 -0.0970  0.3240
 5503SOL    HW128145   0.144   3.852  12.421 -1.9752 -0.9262 -2.7437
 5503SOL    HW228146   0.038   3.758  12.434  0.5756 -0.3494 -1.4857
 5504SOL     OW28147   3.404   4.396  10.785  0.0688  0.1330 -0.2450
 5504SOL    HW128148   3.388   4.303  10.799 -1.1370  0.2931 -0.5700
 5504SOL    HW228149   3.320   4.428  10.817 -0.0690 -1.0175  0.5333
 5505SOL     OW28150   0.400   0.470   5.791  0.2684  0.5214  0.0920
 5505SOL    HW128151   0.348   0.470   5.710 -0.6478 -1.3763  0.6773
 5505SOL    HW228152   0.442   0.555   5.776 -0.5709  0.8644 -0.3038
 5506SOL     OW28153   2.840   0.604   1.104  0.6515 -0.4141 -0.0484
 5506SOL    HW128154   2.748   0.607   1.127  0.9944  1.3741  1.1207
 5506SOL    HW228155   2.827   0.578   1.013  1.6169 -1.9510  0.2464
 5507SOL     OW28156   0.230   1.019   7.090 -0.2867  0.3782  0.0776
 5507SOL    HW128157   0.261   0.931   7.111 -0.9650  0.1767  0.2572
 5507SOL    HW228158   0.188   1.000   7.006 -1.2226  1.4363  0.2996
 5508SOL     OW28159   3.754   3.568   5.094  0.3824 -0.2513 -0.1918
 5508SOL    HW128160   3.780   3.476   5.099  0.4529 -0.3104 -1.7474
 5508SOL    HW228161   3.834   3.608   5.061 -0.8238  2.2393 -0.0867
 5509SOL     OW28162   0.125   2.867   7.898  0.1492 -0.1081 -0.4165
 5509SOL    HW128163   0.217   2.878   7.923 -0.7039  1.9354  1.7855
 5509SOL    HW228164   0.076   2.838   7.975  0.9445  1.3423  0.6243
 5510SOL     OW28165   3.174   1.308   5.183  0.5743  0.7037 -0.1483
 5510SOL    HW128166   3.106   1.330   5.120  0.7392  1.0473 -0.2092
 5510SOL    HW228167   3.186   1.224   5.139  0.8171  1.2778 -1.1753
 5511SOL     OW28168   3.484   3.672   6.648 -0.4431  0.5558  0.2621
 5511SOL    HW128169   3.485   3.699   6.556  1.2741 -1.6684 -0.3700
 5511SOL    HW228170   3.409   3.612   6.654 -1.5996  2.0410  0.7153
 5512SOL     OW28171   0.022   3.309   7.862  0.3760  0.3769  0.0386
 5512SOL    HW128172   4.691   3.291   7.925 -0.6852 -0.5798 -1.3799
 5512SOL    HW228173   0.098   3.307   7.920 -0.1586  0.3183  0.7353
 5513SOL     OW28174   2.890   3.970   4.263 -0.1271  0.5338  0.4860
 5513SOL    HW128175   2.880   4.066   4.263 -0.3752  0.4912  2.4156
 5513SOL    HW228176   2.802   3.949   4.293 -0.1407  0.3301  0.3057
 5514SOL     OW28177   2.328   2.092   1.686 -0.3006 -0.3225  0.5497
 5514SOL    HW128178   2.264   2.159   1.711  0.0093 -0.8798  2.8566
 5514SOL    HW228179   2.334   2.021   1.749  0.8187  0.0233  0.8455
 5515SOL     OW28180   1.767   1.407  16.380  0.0738 -0.2586  0.4113
 5515SOL    HW128181   1.832   1.478  16.379 -1.1209  0.8073 -1.2242
 5515SOL    HW228182   1.684   1.454  16.373 -0.9902 -2.0246  1.2218
 5516SOL     OW28183   2.282   3.315   8.137 -0.1909  0.5121  0.4181
 5516SOL    HW128184   2.244   3.285   8.054  1.4940 -0.9485  0.1762
 5516SOL    HW228185   2.376   3.325   8.123 -0.1499  0.9110  0.9768
 5517SOL     OW28186   3.657   1.029   5.782  0.3330  0.7025 -0.1928
 5517SOL    HW128187   3.604   0.951   5.762  2.3435 -0.7899  0.3004
 5517SOL    HW228188   3.606   1.107   5.762 -1.9787 -0.6251  0.4449
 5518SOL     OW28189   0.920   0.247   2.843 -0.7169  0.7685  0.8393
 5518SOL    HW128190   0.958   0.167   2.877 -0.3438  0.3805 -0.5101
 5518SOL    HW228191   0.851   0.259   2.909  0.3498  1.5307  1.8222
 5519SOL     OW28192   0.958   1.497   1.703 -0.3120 -0.2732  0.2424
 5519SOL    HW128193   0.956   1.447   1.622  2.2076  2.2594 -1.3968
 5519SOL    HW228194   0.864   1.509   1.714 -0.3593 -1.1836  0.8531
 5520SOL     OW28195   4.620   3.713   6.632 -0.0660  0.0707  0.5807
 5520SOL    HW128196   4.538   3.745   6.670  1.5839  2.0086  2.5031
 5520SOL    HW228197   4.679   3.784   6.659 -0.3279  0.9049 -1.0327
 5521SOL     OW28198   2.062   4.232   8.554 -0.1446  0.2818  0.0034
 5521SOL    HW128199   2.152   4.201   8.543 -0.3460 -0.4837  0.4785
 5521SOL    HW228200   2.031   4.199   8.638  0.9949  1.2365  0.7984
 5522SOL     OW28201   2.981   0.126  12.657 -0.2339 -0.1039 -0.3219
 5522SOL    HW128202   2.990   0.116  12.562  0.6556  0.7408 -0.3317
 5522SOL    HW228203   2.886   0.121  12.669  0.0711  0.3341  2.2286
 5523SOL     OW28204   4.448   4.052   3.503 -0.1666 -0.0427  1.0779
 5523SOL    HW128205   4.469   4.068   3.595 -2.5514  2.6742  1.1399
 5523SOL    HW228206   4.515   3.997   3.462  0.8792 -0.4002  3.2968
 5524SOL     OW28207   1.415   0.294  13.041  0.3699  0.3248 -0.4168
 5524SOL    HW128208   1.390   0.223  13.101 -0.5892  2.4430  1.6964
 5524SOL    HW228209   1.473   0.245  12.983  0.1066 -0.4641 -0.0291
 5525SOL     OW28210   3.137   3.801   6.457 -0.3839  0.1402 -0.7665
 5525SOL    HW128211   3.223   3.813   6.416 -0.8350 -0.8282 -1.9776
 5525SOL    HW228212   3.119   3.709   6.439 -0.3267 -0.4099  1.9982
 5526SOL     OW28213   2.315   2.953   6.166  0.4929  0.1740 -0.2709
 5526SOL    HW128214   2.370   2.877   6.186  0.5173  0.3811  0.4443
 5526SOL    HW228215   2.225   2.928   6.185  0.9175 -1.1624 -0.0325
 5527SOL     OW28216   4.593   1.926   4.424  0.3745 -0.0834  0.4987
 5527SOL    HW128217   4.590   1.860   4.493  1.3005 -2.0678 -1.3780
 5527SOL    HW228218   4.528   1.991   4.451 -1.5514 -1.2351 -1.3281
 5528SOL     OW28219   3.341   4.514   8.715  0.5360 -0.4983  0.5680
 5528SOL    HW128220   3.373   4.547   8.799 -1.6598  0.4766  1.0331
 5528SOL    HW228221   3.311   4.429   8.746  0.0317 -0.8129 -0.8005
 5529SOL     OW28222   4.255   2.954  15.857  0.6324  0.5591  0.2998
 5529SOL    HW128223   4.184   2.953  15.793  1.6100 -1.7502 -0.7587
 5529SOL    HW228224   4.280   3.045  15.837 -0.2263  0.7983  0.3027
 5530SOL     OW28225   2.525   4.110   7.264  0.1362  0.5307 -0.5338
 5530SOL    HW128226   2.466   4.184   7.275 -2.4377 -1.5069 -0.5826
 5530SOL    HW228227   2.534   4.111   7.168 -1.1496 -2.1917 -0.7061
 5531SOL     OW28228   0.970   0.922   8.632  0.0622 -0.4298 -0.3929
 5531SOL    HW128229   0.963   0.834   8.593  0.2119 -1.4485  1.9026
 5531SOL    HW228230   0.881   0.953   8.650 -0.0161 -1.7797  1.5751
 5532SOL     OW28231   2.022   0.819   2.186 -0.8057 -0.2926 -0.3541
 5532SOL    HW128232   1.947   0.823   2.246 -0.1478  2.6728  0.2746
 5532SOL    HW228233   2.004   0.906   2.150  4.5169  1.3230  0.9148
 5533SOL     OW28234   2.946   0.475   4.105  0.4536 -0.6937 -0.1345
 5533SOL    HW128235   2.964   0.561   4.067  0.2833 -0.5119  0.1960
 5533SOL    HW228236   2.912   0.433   4.026 -0.5136 -0.9028  0.4015
 5534SOL     OW28237   2.151   1.409  13.717  0.2055 -0.6725 -0.7581
 5534SOL    HW128238   2.137   1.412  13.812 -1.9732  0.1776 -1.1055
 5534SOL    HW228239   2.160   1.314  13.709  1.2382 -0.6049 -0.4134
 5535SOL     OW28240   0.789   1.678   0.286 -0.0752  0.0887  0.1867
 5535SOL    HW128241   0.784   1.611   0.219 -0.0778 -0.0474  0.3235
 5535SOL    HW228242   0.778   1.625   0.365 -4.1667 -1.8887 -1.7858
 5536SOL     OW28243   4.613   3.109   6.644  0.4777 -0.1000 -0.5126
 5536SOL    HW128244   4.620   3.156   6.561 -0.5034  1.3237  0.2054
 5536SOL    HW228245   4.594   3.020   6.615  2.9563 -0.1535 -1.9587
 5537SOL     OW28246   3.103   2.219  15.209 -0.4560  0.4388  0.1188
 5537SOL    HW128247   3.163   2.292  15.197 -0.8081  1.0057  1.8162
 5537SOL    HW228248   3.122   2.178  15.125 -3.0907 -0.2404 -0.1678
 5538SOL     OW28249   2.143   4.054   5.627  0.5604  0.4663  0.8681
 5538SOL    HW128250   2.164   4.099   5.709 -0.2438 -1.2699  2.0177
 5538SOL    HW228251   2.153   4.128   5.567  2.3112 -1.7731 -1.6303
 5539SOL     OW28252   4.237   1.017   2.002  0.2755 -0.5166  0.2282
 5539SOL    HW128253   4.247   1.079   2.074  0.1356 -0.7639  0.4582
 5539SOL    HW228254   4.213   1.082   1.936  3.0554  0.1520 -0.1466
 5540SOL     OW28255   0.296   3.464   8.618  0.2627  0.0210  0.0128
 5540SOL    HW128256   0.350   3.497   8.689  2.9941 -0.0361 -2.0075
 5540SOL    HW228257   0.246   3.542   8.596 -1.8238 -0.8817  1.5938
 5541SOL     OW28258   1.959   4.566   7.444 -0.2187 -0.2125  0.2099
 5541SOL    HW128259   2.024   4.633   7.468  0.2595 -0.8198  0.6194
 5541SOL    HW228260   1.884   4.576   7.502 -0.0122  1.2138  0.2266
 5542SOL     OW28261   1.489   3.892   7.885  0.3546  0.9501  0.5161
 5542SOL    HW128262   1.522   3.975   7.851  0.2413  0.6303 -0.3735
 5542SOL    HW228263   1.488   3.847   7.801 -1.6228  2.0661 -0.0346
 5543SOL     OW28264   0.896   3.645   2.020  0.2593 -0.4971 -0.6056
 5543SOL    HW128265   0.932   3.733   2.015 -0.9652 -0.1048 -2.3682
 5543SOL    HW228266   0.925   3.603   1.939  2.5581  0.4117 -0.2571
 5544SOL     OW28267   0.979   0.899   7.468  0.3183 -0.6696 -0.1547
 5544SOL    HW128268   0.922   0.970   7.438  1.1745 -0.4277 -1.2187
 5544SOL    HW228269   1.058   0.950   7.487  0.4721 -2.1597  3.1631
 5545SOL     OW28270   4.566   4.364   7.700  0.1349  0.1763 -0.9619
 5545SOL    HW128271   4.657   4.338   7.683  0.9611  1.9262  0.8080
 5545SOL    HW228272   4.579   4.457   7.717  2.4964 -0.3711  0.1787
 5546SOL     OW28273   4.709   4.029   5.813  0.0041  0.2773 -0.3360
 5546SOL    HW128274   4.725   4.076   5.732  1.9418  0.7946  0.3581
 5546SOL    HW228275   4.683   4.107   5.862  2.4264  1.2460 -0.6215
 5547SOL     OW28276   4.162   1.026   9.422  0.8962 -0.2774  0.2938
 5547SOL    HW128277   4.092   1.006   9.485 -1.1549 -1.3031 -2.3494
 5547SOL    HW228278   4.130   1.107   9.381 -1.8581 -1.3384  0.3606
 5548SOL     OW28279   2.745   4.172   8.947  0.4256 -0.0867  0.0481
 5548SOL    HW128280   2.669   4.115   8.951  1.8935 -2.0267  0.0250
 5548SOL    HW228281   2.778   4.162   9.037  0.7672  1.5870  0.1163
 5549SOL     OW28282   1.857   1.746   5.748 -0.4866  0.3257  0.5468
 5549SOL    HW128283   1.871   1.651   5.741 -3.3220  0.1628 -3.2772
 5549SOL    HW228284   1.766   1.755   5.777 -1.7426 -1.5503 -2.8077
 5550SOL     OW28285   0.899   1.249   8.217 -0.4060  0.0774  0.3051
 5550SOL    HW128286   0.945   1.237   8.300  0.4460 -1.9233 -0.4713
 5550SOL    HW228287   0.835   1.179   8.225  0.6780 -1.1374 -1.5993
 5551SOL     OW28288   0.761   1.279  15.785 -0.5762 -0.3154  0.7565
 5551SOL    HW128289   0.706   1.357  15.783 -0.3306 -0.2152 -2.1630
 5551SOL    HW228290   0.737   1.235  15.867  2.3094  1.2915  2.4732
 5552SOL     OW28291   0.714   4.228  14.337 -0.5849 -0.2192 -0.0660
 5552SOL    HW128292   0.724   4.145  14.290 -2.7294 -0.5283  0.0135
 5552SOL    HW228293   0.625   4.241  14.305 -1.3813 -0.4517  2.0832
 5553SOL     OW28294   2.894   3.206  16.973  0.9745 -0.1425 -0.5757
 5553SOL    HW128295   2.891   3.247  17.059  2.4009  1.9027 -1.4807
 5553SOL    HW228296   2.844   3.126  16.985 -0.3626  0.7694 -0.0237
 5554SOL     OW28297   0.995   0.041   4.605 -0.5226  0.1347  0.2115
 5554SOL    HW128298   0.960   0.078   4.525  2.1554  2.6711  0.1829
 5554SOL    HW228299   1.083   0.013   4.578 -0.3523  0.4532  0.4322
 5555SOL     OW28300   2.277   2.645   2.673  0.6328 -0.0403  0.0355
 5555SOL    HW128301   2.222   2.666   2.748 -0.5146 -1.4766 -0.4188
 5555SOL    HW228302   2.326   2.568   2.700 -1.5485 -1.9007 -1.3193
 5556SOL     OW28303   4.186   3.333   5.954 -0.2540 -0.1009 -0.2741
 5556SOL    HW128304   4.151   3.400   6.013  3.3649  0.9192  0.6858
 5556SOL    HW228305   4.200   3.256   6.009  1.6662 -0.1668 -0.8725
 5557SOL     OW28306   2.562   1.381   5.125  0.1937 -0.6834  0.7089
 5557SOL    HW128307   2.547   1.443   5.197  1.8469  0.0250  0.4474
 5557SOL    HW228308   2.582   1.441   5.053 -2.1606 -1.7440 -0.8516
 5558SOL     OW28309   0.907   0.739   6.989 -0.2926  0.3092 -0.1125
 5558SOL    HW128310   0.858   0.772   7.064  1.6683  1.8339  0.4840
 5558SOL    HW228311   0.840   0.752   6.922 -0.4233 -0.1021 -0.0635
 5559SOL     OW28312   2.586   2.803  13.043 -0.1960 -0.3861 -0.8006
 5559SOL    HW128313   2.661   2.777  12.990 -0.1418  0.5840 -1.1959
 5559SOL    HW228314   2.545   2.859  12.977  0.1440  1.1131  0.2442
 5560SOL     OW28315   0.015   1.618  16.707 -0.7435  0.0835  0.3132
 5560SOL    HW128316   0.027   1.677  16.781  2.4475 -1.6964  1.1955
 5560SOL    HW228317   4.712   1.681  16.648  1.0536  1.1719  0.1974
 5561SOL     OW28318   3.722   1.742   5.995  0.3595 -0.3181 -0.2696
 5561SOL    HW128319   3.683   1.827   6.017  0.3549 -0.6001  0.8111
 5561SOL    HW228320   3.813   1.759   6.020  0.2613 -0.4679  0.1847
 5562SOL     OW28321   2.460   4.379  17.189 -0.4966 -0.5691  0.0293
 5562SOL    HW128322   2.510   4.446  17.142 -1.7278  1.3290  1.4260
 5562SOL    HW228323   2.377   4.427  17.195 -0.6594 -0.7904 -0.5010
 5563SOL     OW28324   4.121   0.544  10.739 -0.5496  0.2082 -0.3241
 5563SOL    HW128325   4.126   0.639  10.737  1.3096  0.1282  0.0607
 5563SOL    HW228326   4.202   0.514  10.698  0.6297 -1.3979  3.1819
 5564SOL     OW28327   3.357   4.011   6.289  0.3228 -0.4616 -0.3340
 5564SOL    HW128328   3.267   4.002   6.258 -0.3750  0.9576  1.2667
 5564SOL    HW228329   3.394   3.927   6.263 -0.6833 -0.7915 -0.7228
 5565SOL     OW28330   0.323   2.785   8.466 -0.1906 -0.1699  0.1770
 5565SOL    HW128331   0.291   2.872   8.444  0.6983 -0.4965 -2.4111
 5565SOL    HW228332   0.255   2.759   8.529 -1.9605 -1.2283 -2.1847
 5566SOL     OW28333   0.056   3.636   3.832  0.9158  0.0579  0.0673
 5566SOL    HW128334   0.110   3.691   3.888 -0.9935  0.8263  1.1424
 5566SOL    HW228335   4.723   3.698   3.821  0.0802 -1.0370 -0.6675
 5567SOL     OW28336   1.099   3.450  15.863 -0.8296 -0.2679  0.4487
 5567SOL    HW128337   1.121   3.428  15.772 -0.7755  0.0787  0.3775
 5567SOL    HW228338   1.003   3.448  15.867 -0.7740 -1.8741  1.2409
 5568SOL     OW28339   1.357   0.025   4.078 -0.2679  0.1977 -0.0755
 5568SOL    HW128340   1.397   0.092   4.023 -0.5698 -1.6243 -2.5078
 5568SOL    HW228341   1.367   4.689   4.019  0.2307 -0.8748  1.3564
 5569SOL     OW28342   0.376   3.844   3.397  0.8642 -0.3675 -0.1547
 5569SOL    HW128343   0.423   3.832   3.480  1.0930  1.0360 -0.0776
 5569SOL    HW228344   0.316   3.915   3.420 -2.2903 -3.4086  0.9507
 5570SOL     OW28345   1.522   3.237   3.834 -0.3456 -0.2117  0.0503
 5570SOL    HW128346   1.478   3.179   3.897 -1.8066  0.3456 -0.4501
 5570SOL    HW228347   1.452   3.293   3.800  0.5981  0.1363 -1.2805
 5571SOL     OW28348   3.659   2.568  13.458  0.3430  0.2094 -0.8008
 5571SOL    HW128349   3.647   2.629  13.385  0.8575  1.0599 -0.1823
 5571SOL    HW228350   3.658   2.631  13.530 -2.0887  2.0611 -2.4390
 5572SOL     OW28351   3.322   2.351   0.959  0.1423 -0.3364 -0.8242
 5572SOL    HW128352   3.392   2.344   1.025  0.0789  0.1836 -0.6987
 5572SOL    HW228353   3.276   2.267   0.963  0.4867 -0.5433 -1.1589
 5573SOL     OW28354   4.525   4.088   1.660  0.3409 -0.0496  0.0923
 5573SOL    HW128355   4.569   4.003   1.656 -0.4667 -0.3805 -1.8950
 5573SOL    HW228356   4.528   4.104   1.566 -0.5755 -1.6702 -0.2216
 5574SOL     OW28357   3.570   1.718   9.141  0.5344  0.5006 -0.1128
 5574SOL    HW128358   3.479   1.720   9.112  0.4349 -0.0004  0.1624
 5574SOL    HW228359   3.565   1.770   9.221 -2.7619 -0.0663  0.0442
 5575SOL     OW28360   2.867   3.765   5.407  0.0638  0.3379  0.3845
 5575SOL    HW128361   2.936   3.821   5.443  1.5007 -1.2687  0.1101
 5575SOL    HW228362   2.902   3.681   5.434 -0.9320 -0.4946 -0.9233
 5576SOL     OW28363   0.255   2.543   8.122  0.4080  0.2090  0.2162
 5576SOL    HW128364   0.289   2.512   8.038  2.3546  1.6025  0.4808
 5576SOL    HW228365   0.206   2.465   8.149  0.5974  0.2875  0.7899
 5577SOL     OW28366   4.358   0.276   2.801 -0.3865 -0.3613 -0.0773
 5577SOL    HW128367   4.283   0.288   2.743  0.9708 -1.8490 -2.1576
 5577SOL    HW228368   4.330   0.206   2.860 -2.9771 -0.4884 -1.4817
 5578SOL     OW28369   4.052   3.152   5.371 -0.3740 -0.5258  0.0885
 5578SOL    HW128370   4.133   3.169   5.420 -0.6677 -0.2587  0.4771
 5578SOL    HW228371   4.057   3.056   5.373 -4.3530 -0.7246 -0.2266
 5579SOL     OW28372   1.281   0.552   0.273 -0.0869  0.6776  0.0838
 5579SOL    HW128373   1.270   0.538   0.367 -0.5899 -0.0098 -0.0804
 5579SOL    HW228374   1.372   0.581   0.274  0.2450 -0.5074  3.2998
 5580SOL     OW28375   1.108   1.677   5.230  0.1436 -0.3729  0.1051
 5580SOL    HW128376   1.102   1.611   5.162 -0.5545 -1.0986  0.8700
 5580SOL    HW228377   1.051   1.745   5.194  1.2012 -0.2992 -1.4153
 5581SOL     OW28378   0.593   2.888   4.350 -0.3344 -0.1017  0.4527
 5581SOL    HW128379   0.574   2.862   4.440 -0.6124 -1.3752  0.0187
 5581SOL    HW228380   0.565   2.807   4.309 -1.0755  0.9827 -1.2001
 5582SOL     OW28381   3.036   3.587   0.405  0.3304 -0.2079  0.1240
 5582SOL    HW128382   2.984   3.653   0.450  0.1575 -1.0987  1.2234
 5582SOL    HW228383   3.086   3.538   0.470  0.3692 -0.4037 -0.0515
 5583SOL     OW28384   3.491   4.543   2.537  0.2721  0.5658 -0.0178
 5583SOL    HW128385   3.564   4.490   2.505 -1.6324 -0.9991 -1.8178
 5583SOL    HW228386   3.415   4.499   2.498  0.5603  0.7783 -0.8387
 5584SOL     OW28387   4.001   2.866   4.233  0.3386 -0.5982  0.4599
 5584SOL    HW128388   3.927   2.926   4.244 -0.2599 -0.8953 -1.9717
 5584SOL    HW228389   4.038   2.864   4.321 -1.3368  0.3962  1.1863
 5585SOL     OW28390   0.631   0.134   3.741  0.2736  0.8625 -0.1192
 5585SOL    HW128391   0.643   0.163   3.832  1.7660 -0.4876  0.1153
 5585SOL    HW228392   0.546   0.091   3.745  1.3711 -1.3469 -0.1404
 5586SOL     OW28393   2.842   0.496   1.995 -0.1416  0.4480 -0.1493
 5586SOL    HW128394   2.849   0.409   2.035 -2.7948  0.0850 -0.4641
 5586SOL    HW228395   2.871   0.546   2.072 -0.2831 -0.3918  0.4547
 5587SOL     OW28396   3.162   0.561   2.740  0.1841  0.0281  0.7891
 5587SOL    HW128397   3.100   0.619   2.695  0.9513  0.8754  0.8322
 5587SOL    HW228398   3.110   0.480   2.745  2.1775 -1.2730  0.3289
 5588SOL     OW28399   2.928   0.780  15.406 -0.2444 -0.0279 -0.3488
 5588SOL    HW128400   2.977   0.799  15.486 -0.4327 -1.2364  0.0445
 5588SOL    HW228401   2.982   0.709  15.372  0.2475  0.4521 -0.5622
 5589SOL     OW28402   1.341   2.929  16.680 -0.3145 -0.0802  0.3949
 5589SOL    HW128403   1.319   2.940  16.773  0.9728  0.5815  0.6220
 5589SOL    HW228404   1.379   3.016  16.668 -0.0931 -0.0788  1.0990
 5590SOL     OW28405   0.834   3.547   5.960 -0.1714 -0.2755 -0.7263
 5590SOL    HW128406   0.924   3.559   5.991 -1.0700  0.2546  1.6647
 5590SOL    HW228407   0.855   3.544   5.867 -0.6154 -2.2757 -0.7603
 5591SOL     OW28408   3.170   0.754   4.313  0.3085  1.0139  0.0311
 5591SOL    HW128409   3.260   0.734   4.287  0.3767 -0.7452  1.5897
 5591SOL    HW228410   3.127   0.787   4.234 -1.4402 -0.7271  0.2428
 5592SOL     OW28411   2.700   2.882   3.581 -0.5523 -0.0227 -0.3529
 5592SOL    HW128412   2.750   2.851   3.505 -1.3434  1.8288 -1.6243
 5592SOL    HW228413   2.629   2.817   3.586 -2.0188  1.4297 -2.2421
 5593SOL     OW28414   1.241   4.237   7.478  0.2935 -0.3936  0.2694
 5593SOL    HW128415   1.170   4.261   7.537 -0.9575 -0.9875 -0.9782
 5593SOL    HW228416   1.304   4.309   7.482  0.2208 -0.1195 -2.7989
 5594SOL     OW28417   3.327   4.685   7.945 -0.0549  0.0372 -0.6875
 5594SOL    HW128418   3.413   4.716   7.918 -0.0373  0.3120 -0.3189
 5594SOL    HW228419   3.346   4.623   8.015 -1.1552  1.1759  0.6057
 5595SOL     OW28420   0.310   3.617   6.238  0.0164  0.4597  0.0408
 5595SOL    HW128421   0.359   3.694   6.211 -0.5875  0.7998 -0.0915
 5595SOL    HW228422   0.223   3.651   6.217 -1.0314 -2.1157  0.1033
 5596SOL     OW28423   3.584   1.761  16.617  0.2254 -0.5102  0.0808
 5596SOL    HW128424   3.678   1.764  16.596 -0.2240 -3.1204 -2.3226
 5596SOL    HW228425   3.554   1.840  16.572 -1.3764 -1.2736 -0.2165
 5597SOL     OW28426   3.379   1.835   4.316 -0.2291 -0.7806  0.1680
 5597SOL    HW128427   3.295   1.796   4.294  0.3653 -2.1295  0.3223
 5597SOL    HW228428   3.373   1.917   4.267 -1.4484  1.9635  4.8464
 5598SOL     OW28429   4.599   1.813  15.265 -0.1962  0.7841 -0.0938
 5598SOL    HW128430   4.514   1.812  15.310 -0.2042 -1.1856 -0.1465
 5598SOL    HW228431   4.594   1.727  15.224 -0.4778  1.0426 -0.6007
 5599SOL     OW28432   2.123   3.795   4.102  0.4081 -0.3614 -1.0440
 5599SOL    HW128433   2.213   3.818   4.124  0.0851  0.5112 -0.6724
 5599SOL    HW228434   2.102   3.753   4.186  2.7985  0.7318  0.0790
 5600SOL     OW28435   0.754   4.338   3.532 -0.4241  0.0397  0.1117
 5600SOL    HW128436   0.765   4.415   3.588  0.7914  0.5465 -0.8326
 5600SOL    HW228437   0.685   4.290   3.578 -0.5829  0.6904  0.5587
 5601SOL     OW28438   1.465   0.788  11.942 -0.3541 -0.3722  0.0594
 5601SOL    HW128439   1.513   0.838  12.009  1.1907  2.2134 -2.9462
 5601SOL    HW228440   1.451   0.859  11.879  1.1429 -0.6057 -0.5459
 5602SOL     OW28441   4.127   0.304  14.347 -0.1629  0.1341 -0.0365
 5602SOL    HW128442   4.081   0.386  14.329 -1.6730 -0.5426  0.7404
 5602SOL    HW228443   4.204   0.336  14.394 -0.6370  0.6511  0.3903
 5603SOL     OW28444   3.978   1.794   6.550  0.4043  0.0282 -0.8102
 5603SOL    HW128445   3.985   1.864   6.615  3.0030 -0.0174 -1.0602
 5603SOL    HW228446   3.901   1.806   6.494 -1.3796 -0.1184  1.6250
 5604SOL     OW28447   3.309   3.808   4.514 -0.0670 -0.1861 -0.1830
 5604SOL    HW128448   3.402   3.823   4.497 -0.3932  0.6214 -1.2744
 5604SOL    HW228449   3.257   3.861   4.454  1.9805  2.6982  0.5792
 5605SOL     OW28450   0.865   4.140   7.152 -0.2183  0.0763 -0.2105
 5605SOL    HW128451   0.794   4.116   7.211 -1.5877  0.6348 -1.6256
 5605SOL    HW228452   0.834   4.113   7.066  0.0407 -3.0221  0.6773
 5606SOL     OW28453   2.144   3.680   6.396 -0.3529  0.0758 -0.2715
 5606SOL    HW128454   2.060   3.686   6.443 -1.6304 -0.3774 -2.5294
 5606SOL    HW228455   2.205   3.658   6.467 -1.5313  0.4489  0.8608
 5607SOL     OW28456   4.612   2.232   1.203 -0.2426 -0.3408  0.2123
 5607SOL    HW128457   4.667   2.310   1.210  0.8112 -0.7540 -3.3536
 5607SOL    HW228458   4.593   2.231   1.109  0.4045 -2.2834  0.0978
 5608SOL     OW28459   1.526   1.617  15.434 -0.2792  0.1553 -0.2826
 5608SOL    HW128460   1.521   1.684  15.365  0.9158 -0.9315 -1.4200
 5608SOL    HW228461   1.489   1.667  15.507 -1.9564 -0.1125 -0.9568
 5609SOL     OW28462   0.708   3.859   9.292  0.4510  0.3979  0.2097
 5609SOL    HW128463   0.737   3.773   9.322 -1.3336 -1.3645 -3.0361
 5609SOL    HW228464   0.643   3.840   9.224  1.8088  1.9148 -1.5056
 5610SOL     OW28465   3.656   0.490   8.073  0.2487 -0.6332  0.3064
 5610SOL    HW128466   3.671   0.575   8.115  1.5350 -1.2096  1.0358
 5610SOL    HW228467   3.744   0.452   8.075  0.2164 -0.7804 -0.7063
 5611SOL     OW28468   1.034   0.928   6.485  0.1056 -0.4343 -0.2862
 5611SOL    HW128469   0.976   0.989   6.530  1.1034  0.3650 -0.0777
 5611SOL    HW228470   1.001   0.846   6.521 -0.0096 -0.8401 -1.2987
 5612SOL     OW28471   0.143   4.715   0.755 -0.5593 -0.6164  0.3827
 5612SOL    HW128472   0.216   4.711   0.817  0.0591  0.3418 -0.2796
 5612SOL    HW228473   0.067   0.004   0.806 -0.9330  0.9250 -0.9958
 5613SOL     OW28474   0.562   0.928   5.906  0.6670  0.0905  0.2041
 5613SOL    HW128475   0.607   1.005   5.871  1.8084 -0.4204  0.5488
 5613SOL    HW228476   0.553   0.954   5.998 -0.0720  1.2316 -0.1895
 5614SOL     OW28477   2.649   1.186   5.651  0.5507 -0.6370 -0.1188
 5614SOL    HW128478   2.744   1.182   5.660  0.7146  1.9100 -0.7315
 5614SOL    HW228479   2.633   1.269   5.607  0.2279  0.6085  2.3365
 5615SOL     OW28480   0.767   4.530   2.125  0.6042 -0.4122  0.2973
 5615SOL    HW128481   0.709   4.574   2.064 -0.3719 -1.2681  0.6018
 5615SOL    HW228482   0.847   4.508   2.078  0.3616  0.1412 -0.3671
 5616SOL     OW28483   3.477   1.203  11.927 -0.2270 -0.0432  0.1068
 5616SOL    HW128484   3.537   1.277  11.939 -0.5428  0.1214  0.6784
 5616SOL    HW228485   3.523   1.126  11.959  1.1305  0.3965 -0.7797
 5617SOL     OW28486   2.516   3.016   4.044 -0.2343  0.6494  0.3529
 5617SOL    HW128487   2.457   3.084   4.011  1.3844  2.3660  0.9991
 5617SOL    HW228488   2.526   2.953   3.972  0.4614  2.2652 -0.9740
 5618SOL     OW28489   1.131   4.694   6.495  0.1953 -0.3245 -0.2236
 5618SOL    HW128490   1.081   4.704   6.575  2.2497 -2.1291  1.2918
 5618SOL    HW228491   1.069   4.639   6.446  1.3885  0.7419 -2.9361
 5619SOL     OW28492   3.252   1.837   3.220 -0.3565 -0.0364 -0.2993
 5619SOL    HW128493   3.237   1.910   3.160 -0.3998  1.2117  1.2636
 5619SOL    HW228494   3.298   1.769   3.170  2.2058  1.3658  0.2016
 5620SOL     OW28495   1.733   1.841   0.249  0.2458  0.2310 -0.4736
 5620SOL    HW128496   1.778   1.857   0.332  1.9945  3.2512 -1.9913
 5620SOL    HW228497   1.640   1.846   0.268  0.3403  2.4193 -0.6582
 5621SOL     OW28498   1.438   3.719  14.247  0.0435  0.2366  0.2795
 5621SOL    HW128499   1.389   3.637  14.256 -0.0362  0.0147 -2.2488
 5621SOL    HW228500   1.512   3.682  14.199 -0.3243  1.5881 -1.3343
 5622SOL     OW28501   3.958   1.452   4.097  0.0497 -0.3356  0.1354
 5622SOL    HW128502   4.050   1.478   4.097 -0.1739  0.4122  3.8248
 5622SOL    HW228503   3.907   1.527   4.128 -1.3062 -0.3240 -2.1385
 5623SOL     OW28504   2.739   4.326   6.124 -0.2188 -0.3276  0.7052
 5623SOL    HW128505   2.646   4.327   6.143 -0.2633 -0.6169  0.5151
 5623SOL    HW228506   2.774   4.414   6.109 -0.8742 -0.7733 -3.4058
 5624SOL     OW28507   0.711   1.588  15.780  0.5259 -0.4584  0.1078
 5624SOL    HW128508   0.670   1.673  15.799 -1.4623 -1.2688 -0.5064
 5624SOL    HW228509   0.648   1.544  15.722 -1.0570  0.3867  1.1676
 5625SOL     OW28510   3.400   3.723   0.927 -0.1207  0.1027  0.1073
 5625SOL    HW128511   3.424   3.813   0.952  0.2952 -0.6160  2.3323
 5625SOL    HW228512   3.445   3.725   0.843 -1.1794  0.3414 -0.4467
 5626SOL     OW28513   4.282   4.470   5.506 -0.1772  0.1326  0.0450
 5626SOL    HW128514   4.193   4.482   5.539 -0.6472 -0.0671 -1.1554
 5626SOL    HW228515   4.270   4.384   5.466  0.9386 -1.3382  2.8526
 5627SOL     OW28516   2.504   3.318   1.894 -0.8277  0.2216 -0.5682
 5627SOL    HW128517   2.426   3.312   1.950  0.5481  1.4991  1.5114
 5627SOL    HW228518   2.470   3.331   1.806  1.2284  0.8019 -1.2776
 5628SOL     OW28519   1.606   1.012  10.967 -0.3237  0.1714 -0.1123
 5628SOL    HW128520   1.511   1.011  10.977 -0.4337  2.9514 -0.9496
 5628SOL    HW228521   1.617   0.947  10.896 -0.3269  0.7981 -0.6860
 5629SOL     OW28522   0.676   3.797   8.138  0.3045 -0.3893  0.0207
 5629SOL    HW128523   0.674   3.765   8.229 -1.0766 -1.7595 -0.4817
 5629SOL    HW228524   0.770   3.808   8.128  0.3215 -1.1144 -0.5578
 5630SOL     OW28525   1.608   3.268  12.516  0.2731 -0.1338  0.0508
 5630SOL    HW128526   1.613   3.283  12.611  0.3006  0.7530 -0.0881
 5630SOL    HW228527   1.516   3.244  12.508  0.5924 -1.6836  0.9011
 5631SOL     OW28528   1.128   2.836   2.151  0.6059 -0.4440  0.3301
 5631SOL    HW128529   1.151   2.756   2.198  1.8282  0.4114  1.2142
 5631SOL    HW228530   1.120   2.902   2.221 -0.2335 -0.4228  0.2145
 5632SOL     OW28531   3.215   0.025   1.729  0.0302  0.1616  0.1474
 5632SOL    HW128532   3.307   0.051   1.732  0.1408 -0.1609 -0.6308
 5632SOL    HW228533   3.217   4.674   1.695 -3.3436  1.1897 -2.7081
 5633SOL     OW28534   1.691   3.840   0.786  0.2053  0.6624 -0.4761
 5633SOL    HW128535   1.781   3.868   0.772  0.9750 -0.5490  2.0758
 5633SOL    HW228536   1.646   3.855   0.703  1.4777  0.5238 -1.1970
 5634SOL     OW28537   1.637   2.180   7.691  0.0316  0.0763 -0.4504
 5634SOL    HW128538   1.712   2.175   7.632 -0.0503  0.3886 -0.5816
 5634SOL    HW228539   1.664   2.255   7.743 -1.7208  0.1646  0.3371
 5635SOL     OW28540   3.056   1.875  15.876  0.2080 -0.7827 -0.2619
 5635SOL    HW128541   3.086   1.934  15.807  1.8982 -2.8546 -1.2686
 5635SOL    HW228542   2.961   1.881  15.861  0.3701 -0.3437 -1.0953
 5636SOL     OW28543   1.766   0.649   2.624  0.3452 -0.4460  0.2230
 5636SOL    HW128544   1.719   0.667   2.705 -0.3934 -2.4753  0.2544
 5636SOL    HW228545   1.721   0.575   2.583  0.1779 -0.2889  0.1249
 5637SOL     OW28546   1.824   2.265  16.376  0.0966  0.3231 -0.2816
 5637SOL    HW128547   1.741   2.257  16.422  0.5287 -2.2141  0.0312
 5637SOL    HW228548   1.789   2.258  16.287  1.2123  3.1099 -0.9391
 5638SOL     OW28549   4.545   2.846   9.539 -0.7263  0.2746 -0.1215
 5638SOL    HW128550   4.607   2.777   9.515 -0.2322  1.2473 -1.6279
 5638SOL    HW228551   4.461   2.801   9.553 -1.0518  0.4611 -1.4629
 5639SOL     OW28552   1.143   4.467   9.231 -0.1781  0.1522  0.2729
 5639SOL    HW128553   1.093   4.457   9.313 -1.7836  2.8140 -0.3565
 5639SOL    HW228554   1.102   4.544   9.191  0.0478  0.7065  1.0893
 5640SOL     OW28555   4.587   0.814   5.555  0.1370 -0.5592  0.3721
 5640SOL    HW128556   4.669   0.790   5.596  0.5662  2.6118  1.3360
 5640SOL    HW228557   4.541   0.863   5.623 -1.0646 -1.5280  0.2659
 5641SOL     OW28558   2.801   4.177   7.810  0.0549 -0.4712  0.3233
 5641SOL    HW128559   2.840   4.262   7.833  0.6532 -0.3119 -1.3170
 5641SOL    HW228560   2.798   4.135   7.896 -1.7110 -0.0977  0.4627
 5642SOL     OW28561   0.880   0.001   3.911 -0.2392 -0.3704  0.3651
 5642SOL    HW128562   0.966   4.719   3.876 -0.0556 -1.0569  1.2243
 5642SOL    HW228563   0.838   4.672   3.857  0.7389 -1.8434  1.4550
 5643SOL     OW28564   1.849   0.948   5.788  0.5097  0.0455 -0.1826
 5643SOL    HW128565   1.812   0.919   5.705  1.8932 -0.8861 -0.4691
 5643SOL    HW228566   1.763   0.979   5.818  0.3608  1.3474 -1.9479
 5644SOL     OW28567   0.327   3.313   9.628  1.1124  0.5772  0.5577
 5644SOL    HW128568   0.416   3.328   9.660  1.5489  1.4000 -1.0074
 5644SOL    HW228569   0.289   3.261   9.698 -1.0215  1.6690  0.2198
 5645SOL     OW28570   0.364   1.154   7.293 -0.1258 -0.1155 -0.3064
 5645SOL    HW128571   0.306   1.121   7.225  0.6758 -1.3142 -0.4037
 5645SOL    HW228572   0.363   1.249   7.281  1.4535  0.1908  1.9523
 5646SOL     OW28573   0.183   1.946   8.545  0.4036  0.0340  0.1490
 5646SOL    HW128574   0.091   1.931   8.564  0.1582 -0.0419 -1.0833
 5646SOL    HW228575   0.190   2.035   8.509 -0.6979  0.7079  1.5987
 5647SOL     OW28576   0.702   0.735   3.300 -0.2534  0.8559 -0.1497
 5647SOL    HW128577   0.790   0.770   3.286  0.2517  0.5054  2.1567
 5647SOL    HW228578   0.709   0.705   3.391 -3.1191  0.4099 -0.0746
 5648SOL     OW28579   4.177   1.508   1.473 -0.3335 -0.4122 -0.2470
 5648SOL    HW128580   4.134   1.569   1.533 -1.1159 -1.0024 -0.2194
 5648SOL    HW228581   4.124   1.429   1.484  0.3923 -1.3682 -3.5292
 5649SOL     OW28582   3.610   2.962   8.269  0.0587  0.1101  0.0716
 5649SOL    HW128583   3.667   2.909   8.324  0.1079  0.4312  0.3304
 5649SOL    HW228584   3.528   2.915   8.284  0.0385  1.1235  3.1906
 5650SOL     OW28585   3.967   3.802  11.243  0.2365 -1.3923 -0.6017
 5650SOL    HW128586   4.023   3.880  11.247 -1.4846 -0.2848  2.0568
 5650SOL    HW228587   3.958   3.780  11.150 -1.4422  0.3949 -0.8584
 5651SOL     OW28588   3.071   4.088   6.334  0.5647  0.8910  0.0487
 5651SOL    HW128589   3.089   4.028   6.406  0.7136  0.5277 -0.2916
 5651SOL    HW228590   3.055   4.164   6.389 -2.4709  0.3713 -0.0960
 5652SOL     OW28591   0.918   2.555   5.011 -0.4218 -0.5316 -0.7702
 5652SOL    HW128592   0.952   2.513   4.933  1.1200  1.1277 -1.0083
 5652SOL    HW228593   0.941   2.647   4.996  2.1206 -1.1739 -0.8092
 5653SOL     OW28594   3.788   0.396   5.580  0.3838 -0.2116  0.4511
 5653SOL    HW128595   3.805   0.329   5.513  0.2327  3.1166 -2.8746
 5653SOL    HW228596   3.861   0.457   5.575 -1.1045  1.4641 -0.6753
 5654SOL     OW28597   1.433   3.457   3.077 -0.2754 -0.6369 -0.0958
 5654SOL    HW128598   1.461   3.547   3.060  0.9911 -1.1982 -0.9948
 5654SOL    HW228599   1.361   3.452   3.015 -0.0688 -1.0378 -0.3063
 5655SOL     OW28600   0.492   3.138   1.252 -0.9120 -0.4442 -0.0164
 5655SOL    HW128601   0.478   3.054   1.207 -3.7477 -0.4016  0.7900
 5655SOL    HW228602   0.416   3.191   1.229  0.3017  0.9102 -0.9245
 5656SOL     OW28603   1.248   3.176   3.556  0.1811 -0.2256 -0.3182
 5656SOL    HW128604   1.279   3.265   3.539 -1.2300  0.0445 -1.4715
 5656SOL    HW228605   1.245   3.182   3.651 -1.2654  1.2303 -0.4499
 5657SOL     OW28606   2.326   2.350   3.056 -0.0367 -0.0421  0.0845
 5657SOL    HW128607   2.348   2.294   3.131 -1.6625 -0.0809  0.5267
 5657SOL    HW228608   2.288   2.428   3.096 -0.9790  0.2442 -1.3722
 5658SOL     OW28609   4.409   0.229   6.640 -0.1807  0.1036  0.3456
 5658SOL    HW128610   4.469   0.175   6.691 -0.4614 -0.0384  0.5282
 5658SOL    HW228611   4.325   0.193   6.669  0.2262 -0.6054  0.6395
 5659SOL     OW28612   3.164   4.162  12.028  0.0348 -0.3874 -0.0014
 5659SOL    HW128613   3.178   4.237  12.086  0.8171 -0.3984 -0.1785
 5659SOL    HW228614   3.182   4.092  12.091 -1.3284 -0.5818  0.1756
 5660SOL     OW28615   1.070   1.609  12.414 -0.1828 -0.3125 -0.0567
 5660SOL    HW128616   1.128   1.640  12.484 -1.2757 -0.3406  0.8471
 5660SOL    HW228617   1.013   1.552  12.465  1.2392 -0.2252  1.6371
 5661SOL     OW28618   3.752   0.643  12.166 -0.6618  0.5952  0.1114
 5661SOL    HW128619   3.699   0.722  12.155 -0.5276  0.4077 -1.8225
 5661SOL    HW228620   3.740   0.597  12.083 -2.2670 -0.4804  0.9269
 5662SOL     OW28621   4.488   1.968   6.186  0.4717  0.5052 -0.0775
 5662SOL    HW128622   4.394   1.953   6.175  0.0337  3.1569 -0.0682
 5662SOL    HW228623   4.496   2.036   6.118  0.7227  1.4263  0.8699
 5663SOL     OW28624   1.457   4.096  15.882  0.4569 -0.3034  0.4463
 5663SOL    HW128625   1.532   4.130  15.929  2.2386 -1.2771 -1.6926
 5663SOL    HW228626   1.484   4.110  15.791 -0.5045  1.1118  0.3727
 5664SOL     OW28627   0.450   3.582   8.791  0.0383  0.1600 -0.6229
 5664SOL    HW128628   0.450   3.674   8.816  2.9576  0.4797 -1.7268
 5664SOL    HW228629   0.516   3.545   8.850  1.9950  0.1978 -2.7318
 5665SOL     OW28630   4.496   1.506   5.284 -0.1852  0.0239  0.0200
 5665SOL    HW128631   4.412   1.475   5.249  0.4297  0.7998 -2.1091
 5665SOL    HW228632   4.543   1.535   5.206 -0.3099 -0.4596 -0.2342
 5666SOL     OW28633   0.426   2.149   1.550  0.1643  0.1935 -0.1987
 5666SOL    HW128634   0.418   2.192   1.634  0.3245  1.6804 -0.9445
 5666SOL    HW228635   0.449   2.061   1.581  2.2320  0.6443 -0.4657
 5667SOL     OW28636   0.890   0.116   7.816  0.3757 -0.4585  0.7690
 5667SOL    HW128637   0.897   0.044   7.878 -2.2549  0.8852  2.6347
 5667SOL    HW228638   0.978   0.117   7.778 -1.0495 -1.9357 -2.5367
 5668SOL     OW28639   3.990   1.443   2.185 -0.5532 -0.3697  0.1659
 5668SOL    HW128640   4.022   1.386   2.116 -0.7878 -1.3372  0.8611
 5668SOL    HW228641   4.073   1.470   2.224  0.9728 -3.7997 -0.7064
 5669SOL     OW28642   0.150   3.851  11.451  0.5387 -0.3169 -0.5505
 5669SOL    HW128643   0.067   3.898  11.457 -0.1729 -2.1153  3.5443
 5669SOL    HW228644   0.214   3.919  11.430  0.9293 -0.7110 -0.6429
 5670SOL     OW28645   1.282   1.188  14.786  0.4079 -0.3105 -0.1966
 5670SOL    HW128646   1.286   1.172  14.692  0.4923 -0.8817 -0.0971
 5670SOL    HW228647   1.364   1.156  14.824  0.4032 -3.1518 -2.6423
 5671SOL     OW28648   3.531   2.134  11.076 -0.4656  0.3118  0.2298
 5671SOL    HW128649   3.574   2.057  11.037  0.8263  0.6769  0.9328
 5671SOL    HW228650   3.596   2.166  11.138  0.0515  2.0909 -1.2282
 5672SOL     OW28651   3.378   4.081  17.368 -0.3199 -0.0019 -0.1932
 5672SOL    HW128652   3.443   4.062  17.435  0.1217  0.1029 -0.5935
 5672SOL    HW228653   3.353   3.995  17.334  0.7612 -0.5732  0.4916
 5673SOL     OW28654   0.885   2.339   1.868  0.1674 -0.4113  0.0855
 5673SOL    HW128655   0.975   2.369   1.876  0.2025 -1.3044  2.9370
 5673SOL    HW228656   0.850   2.340   1.957  0.4981  0.5879  0.1978
 5674SOL     OW28657   0.428   1.148   7.701  0.1871  0.1678  0.3357
 5674SOL    HW128658   0.428   1.221   7.763  1.1745  1.0284 -0.6847
 5674SOL    HW228659   0.436   1.077   7.765  0.3943 -0.9353 -0.9248
 5675SOL     OW28660   1.970   2.868   8.450  0.3436  0.3871 -0.4634
 5675SOL    HW128661   2.036   2.903   8.390  0.2869  0.5908 -0.4093
 5675SOL    HW228662   1.938   2.950   8.489  2.8970  1.6903 -1.0625
 5676SOL     OW28663   0.791   1.739   3.860 -0.0803 -0.1324 -0.0086
 5676SOL    HW128664   0.832   1.825   3.855 -1.0266  0.4060  1.4615
 5676SOL    HW228665   0.775   1.741   3.954 -0.5321  0.7856 -0.1060
 5677SOL     OW28666   4.153   2.651  14.585  0.1747 -0.8388  0.5261
 5677SOL    HW128667   4.111   2.699  14.513  0.6355  2.4773  2.4535
 5677SOL    HW228668   4.227   2.700  14.622 -1.6069  0.9548  1.7325
 5678SOL     OW28669   0.700   0.593   8.897 -0.4350 -0.5200 -0.0887
 5678SOL    HW128670   0.622   0.640   8.926 -1.0117 -1.2470 -0.4559
 5678SOL    HW228671   0.698   0.538   8.976 -0.1238 -2.9737 -1.8057
 5679SOL     OW28672   1.279   0.460   6.577 -0.3576 -0.1791 -0.4104
 5679SOL    HW128673   1.213   0.395   6.554 -1.2208  0.1339  1.2075
 5679SOL    HW228674   1.277   0.520   6.502 -0.9711  1.0485  0.5978
 5680SOL     OW28675   2.040   0.604   7.119  0.0264  0.0325 -0.4250
 5680SOL    HW128676   2.039   0.669   7.189  0.2759  0.1557 -0.5342
 5680SOL    HW228677   2.086   0.529   7.157  1.8928  0.1648 -2.4061
 5681SOL     OW28678   3.439   4.583   7.071  0.0695 -0.3845 -0.8836
 5681SOL    HW128679   3.475   4.528   7.001  1.8506 -0.9191  0.4445
 5681SOL    HW228680   3.380   4.513   7.101  0.2077 -0.1746 -0.1306
 5682SOL     OW28681   1.030   0.836  11.323 -0.2447  0.3790  0.0220
 5682SOL    HW128682   1.017   0.822  11.229  0.7728  1.3900 -0.2660
 5682SOL    HW228683   1.113   0.883  11.323  0.7720 -1.4095  2.2470
 5683SOL     OW28684   2.401   1.074   0.132 -0.0866  0.7074 -0.3658
 5683SOL    HW128685   2.449   1.153   0.159  0.5758 -0.5724  2.1885
 5683SOL    HW228686   2.393   1.085   0.038 -0.8500  2.3305 -0.1030
 5684SOL     OW28687   2.945   0.759   5.453  0.3491 -0.6023 -0.2678
 5684SOL    HW128688   2.993   0.676   5.459  0.7015 -0.5237 -2.0530
 5684SOL    HW228689   2.994   0.814   5.392  0.3731 -0.2953  0.0236
 5685SOL     OW28690   2.269   3.468   8.742  0.5076  0.2814  0.7473
 5685SOL    HW128691   2.174   3.462   8.734  0.5360 -0.4388  0.9813
 5685SOL    HW228692   2.294   3.559   8.725 -0.3319  0.3402 -0.2026
 5686SOL     OW28693   2.363   1.718   5.913 -0.3155  0.0027  0.0639
 5686SOL    HW128694   2.296   1.654   5.937  0.9647 -0.8105  1.4495
 5686SOL    HW228695   2.421   1.672   5.853 -0.3847  2.0526 -1.5794
 5687SOL     OW28696   2.910   0.378   7.972  0.1789  0.2413  0.2850
 5687SOL    HW128697   2.871   0.291   7.984  0.4795  0.0118 -0.4536
 5687SOL    HW228698   2.877   0.405   7.886  0.3532  0.5660  0.3208
 5688SOL     OW28699   4.205   0.088   2.966 -0.1522 -0.1570  0.3536
 5688SOL    HW128700   4.142   0.038   2.913 -0.5708  2.3107 -1.4557
 5688SOL    HW228701   4.190   0.054   3.055  1.9906 -0.8107  0.4717
 5689SOL     OW28702   1.253   3.603   2.783  0.4609 -0.3159 -0.0171
 5689SOL    HW128703   1.300   3.540   2.728  0.6645  1.5744 -2.0245
 5689SOL    HW228704   1.194   3.645   2.720  1.4335  1.2137  0.1076
 5690SOL     OW28705   0.498   3.237   3.666 -0.0622  0.2937 -0.4299
 5690SOL    HW128706   0.588   3.205   3.657 -0.4164 -0.8526  0.1570
 5690SOL    HW228707   0.506   3.255   3.760  0.5309  2.5183 -0.9224
 5691SOL     OW28708   1.735   2.815   5.890  0.4438  0.7185 -0.7359
 5691SOL    HW128709   1.714   2.729   5.853 -2.5017  0.7472  0.8758
 5691SOL    HW228710   1.831   2.812   5.884  0.3866  1.6341 -1.9956
 5692SOL     OW28711   0.441   4.540   6.662 -0.1880  0.3059  0.2184
 5692SOL    HW128712   0.480   4.613   6.710  0.7987 -0.2903  0.3364
 5692SOL    HW228713   0.514   4.504   6.612 -0.4466  0.6845 -0.4211
 5693SOL     OW28714   2.452   3.704  15.868  0.1920  0.5559  0.2818
 5693SOL    HW128715   2.498   3.625  15.839 -1.4253 -0.5151  0.6258
 5693SOL    HW228716   2.359   3.689  15.854  0.4089  1.1074 -1.7945
 5694SOL     OW28717   2.470   0.856   1.092 -0.6390  0.5951  0.0073
 5694SOL    HW128718   2.394   0.860   1.150 -0.5845 -2.2508  0.3140
 5694SOL    HW228719   2.532   0.922   1.123 -0.5576  0.3993  0.2629
 5695SOL     OW28720   0.713   3.196   1.361 -0.3513  0.6526 -0.3705
 5695SOL    HW128721   0.623   3.180   1.333 -1.1037  1.4864  1.6385
 5695SOL    HW228722   0.725   3.291   1.359 -0.3687  0.6124 -2.2028
 5696SOL     OW28723   0.357   2.214   4.670  0.7985  0.5791  0.3786
 5696SOL    HW128724   0.392   2.191   4.757  1.3937  2.0685  0.5221
 5696SOL    HW228725   0.436   2.221   4.615  0.6638 -0.9308 -0.0299
 5697SOL     OW28726   1.302   3.752   3.984  0.0749 -0.3739  0.2382
 5697SOL    HW128727   1.391   3.785   3.978 -0.5968  1.3557 -0.1734
 5697SOL    HW228728   1.268   3.779   3.899  0.1765 -0.2213  0.2469
 5698SOL     OW28729   2.588   3.505   2.470  0.7499  0.3284  0.5812
 5698SOL    HW128730   2.496   3.499   2.441  0.7283  0.8075  0.5541
 5698SOL    HW228731   2.603   3.412   2.487 -2.0267 -0.2738 -0.0966
 5699SOL     OW28732   2.054   2.501  15.020 -0.2716  0.6671  0.2473
 5699SOL    HW128733   2.140   2.540  15.006 -0.1128  0.7026  1.2780
 5699SOL    HW228734   2.020   2.508  14.931 -1.2665  0.5514  0.6153
 5700SOL     OW28735   1.565   4.136   0.678 -0.0497  0.2227  0.0051
 5700SOL    HW128736   1.554   4.041   0.671  0.6448  0.4218 -3.4330
 5700SOL    HW228737   1.650   4.139   0.722 -0.2995  0.2475  0.4918
 5701SOL     OW28738   3.742   2.171   2.611 -0.2482  0.4010 -0.1249
 5701SOL    HW128739   3.835   2.189   2.614 -0.4481  1.7009 -2.3335
 5701SOL    HW228740   3.710   2.229   2.681 -2.7114  0.3159 -1.1608
 5702SOL     OW28741   4.319   3.431   3.145 -0.3394 -0.1713  0.1677
 5702SOL    HW128742   4.354   3.346   3.171  1.2334  0.8658  1.4308
 5702SOL    HW228743   4.290   3.397   3.060  0.3211  0.9474 -0.4940
 5703SOL     OW28744   1.716   2.558   7.672 -0.9207 -0.0377 -0.3825
 5703SOL    HW128745   1.796   2.588   7.629 -0.2936 -0.3702  0.5497
 5703SOL    HW228746   1.743   2.494   7.738 -0.1789  1.7351  1.0391
 5704SOL     OW28747   3.106   3.101   1.921  0.5083 -0.0191 -0.2952
 5704SOL    HW128748   3.167   3.092   1.847 -0.0921 -0.5637 -0.7271
 5704SOL    HW228749   3.163   3.139   1.987  0.2443  0.5294 -0.3807
 5705SOL     OW28750   3.577   2.296  13.719  0.0422  0.1853  0.1217
 5705SOL    HW128751   3.502   2.298  13.659  0.1180  1.0572  0.0505
 5705SOL    HW228752   3.567   2.386  13.750  0.1257  0.7757 -1.5666
 5706SOL     OW28753   2.983   0.710   3.988  0.1705  0.2726  0.2820
 5706SOL    HW128754   3.012   0.727   3.899  0.2562  0.8313  0.4181
 5706SOL    HW228755   3.004   0.784   4.045  0.7545  1.2529 -1.2252
 5707SOL     OW28756   4.367   1.702   2.009  0.1071 -0.3372  0.2064
 5707SOL    HW128757   4.313   1.773   2.043 -1.8440 -0.1430 -3.3222
 5707SOL    HW228758   4.399   1.733   1.925  2.6267  2.4988  2.2315
 5708SOL     OW28759   4.471   0.870   2.276  0.4559 -0.3023 -0.3381
 5708SOL    HW128760   4.442   0.941   2.219  0.9726 -0.3736 -0.6858
 5708SOL    HW228761   4.510   0.917   2.349 -2.8927 -0.6899  1.7190
 5709SOL     OW28762   0.132   1.190   2.372 -0.0068 -0.9265 -0.2687
 5709SOL    HW128763   0.189   1.115   2.387  1.3377  0.5981  2.3724
 5709SOL    HW228764   0.096   1.204   2.459 -0.4171  0.0013 -0.5889
 5710SOL     OW28765   3.276   3.907  10.069 -0.1998 -0.0751  0.1887
 5710SOL    HW128766   3.218   3.834  10.052 -0.2255 -0.2337  0.9501
 5710SOL    HW228767   3.323   3.913   9.986 -1.5833  1.5908 -0.4727
 5711SOL     OW28768   4.447   2.239   9.043 -0.4359  0.7312  0.5224
 5711SOL    HW128769   4.366   2.275   9.008  1.2408 -0.5541 -4.6330
 5711SOL    HW228770   4.428   2.145   9.040 -0.6477  0.7295  1.9106
 5712SOL     OW28771   3.301   2.886   2.942 -0.5498 -0.4400 -0.0929
 5712SOL    HW128772   3.367   2.919   3.002 -0.3053 -0.2056 -0.4951
 5712SOL    HW228773   3.299   2.951   2.872 -0.1259  0.0045  0.3059
 5713SOL     OW28774   1.065   0.560   4.345 -0.1001  0.0843 -0.1032
 5713SOL    HW128775   0.975   0.527   4.344  0.0924 -0.4528  0.1632
 5713SOL    HW228776   1.072   0.621   4.272  1.6233 -0.0115 -0.0266
 5714SOL     OW28777   0.174   1.389   9.607  0.5906 -0.1174 -0.3702
 5714SOL    HW128778   0.238   1.319   9.591  1.1620  0.5391 -0.9357
 5714SOL    HW228779   0.235   1.455   9.639 -0.2820  0.8310 -0.6575
 5715SOL     OW28780   2.934   0.091  12.390 -0.4978  0.1909  0.5684
 5715SOL    HW128781   2.848   0.132  12.377 -1.1745 -0.9773  1.3730
 5715SOL    HW228782   2.972   0.086  12.303 -0.2462  2.2100  0.5606
 5716SOL     OW28783   2.071   1.275   4.295  0.3031  0.1546 -0.6194
 5716SOL    HW128784   2.009   1.263   4.367 -0.3481  0.6085 -1.1030
 5716SOL    HW228785   2.149   1.253   4.345  0.4253  0.3204 -0.7379
 5717SOL     OW28786   3.015   4.145   2.582 -0.9778 -0.0203 -0.1690
 5717SOL    HW128787   2.982   4.179   2.665 -0.0091 -0.8737  0.5707
 5717SOL    HW228788   3.104   4.181   2.578 -1.7411  2.1150  1.7908
 5718SOL     OW28789   3.629   3.095  13.889 -0.3389 -0.2290 -0.1673
 5718SOL    HW128790   3.557   3.059  13.940 -0.2197 -0.0308  0.1417
 5718SOL    HW228791   3.585   3.172  13.853  0.1178  0.8716  1.6207
 5719SOL     OW28792   1.301   3.388   4.218  0.3640  0.6724 -0.3525
 5719SOL    HW128793   1.277   3.480   4.205  0.3108  0.6678 -0.2868
 5719SOL    HW228794   1.302   3.373   4.312 -2.5368  0.5810 -0.3453
 5720SOL     OW28795   1.453   1.438  12.666  0.9304 -0.2416 -0.2640
 5720SOL    HW128796   1.520   1.411  12.603  0.9929  1.3093 -0.8654
 5720SOL    HW228797   1.474   1.383  12.741 -0.5580 -0.4384  0.0027
 5721SOL     OW28798   3.159   1.958   7.939 -0.1776 -0.5138 -0.1046
 5721SOL    HW128799   3.162   1.864   7.956  0.3426  0.0008  2.6494
 5721SOL    HW228800   3.122   1.964   7.851  1.2152 -2.6887 -0.8393
 5722SOL     OW28801   2.393   2.802   8.761  0.2677 -0.2248  0.1158
 5722SOL    HW128802   2.487   2.783   8.759  0.5720  1.3599 -1.1659
 5722SOL    HW228803   2.372   2.737   8.694  1.5743 -1.1599  0.6052
 5723SOL     OW28804   0.641   3.596   2.582  0.8665  0.0230 -0.0581
 5723SOL    HW128805   0.567   3.543   2.611  2.4867 -2.1471  0.1049
 5723SOL    HW228806   0.718   3.548   2.613 -1.1745 -2.9508  0.4035
 5724SOL     OW28807   1.961   4.288   6.443 -0.2198  0.3627  0.2344
 5724SOL    HW128808   1.876   4.332   6.452 -1.0616 -0.9829 -1.2478
 5724SOL    HW228809   1.933   4.197   6.451  0.7469 -0.0449 -0.9312
 5725SOL     OW28810   0.468   1.719   9.930  0.1111  0.5212  0.6602
 5725SOL    HW128811   0.555   1.727   9.892  0.1714 -2.5123  0.2372
 5725SOL    HW228812   0.484   1.670  10.011  3.1505  1.2531  0.5002
 5726SOL     OW28813   2.956   4.061  15.091 -0.1266  0.0777  0.1531
 5726SOL    HW128814   2.985   3.989  15.147 -1.3348 -0.7815 -0.3447
 5726SOL    HW228815   3.035   4.085  15.043 -1.0029  0.9700 -0.8343
 5727SOL     OW28816   1.270   0.554   1.094 -0.5710 -0.0745 -0.1013
 5727SOL    HW128817   1.194   0.604   1.124  0.9244  1.6270  0.7937
 5727SOL    HW228818   1.304   0.624   1.038  1.4978 -1.0689 -0.0808
 5728SOL     OW28819   0.721   4.627   7.043 -0.2033 -0.3401  0.1980
 5728SOL    HW128820   0.672   4.551   7.011  0.7381 -0.7024 -0.3698
 5728SOL    HW228821   0.733   4.597   7.134  0.1936 -1.3482 -0.1863
 5729SOL     OW28822   2.062   2.274   9.265 -0.3328  0.0538 -0.5394
 5729SOL    HW128823   2.062   2.200   9.204  1.9222 -0.6010  0.2529
 5729SOL    HW228824   2.021   2.342   9.212 -0.6853  0.1539 -0.1381
 5730SOL     OW28825   4.114   3.579   2.212 -0.1270  0.0824 -0.5861
 5730SOL    HW128826   4.196   3.619   2.243 -0.0038  0.5401 -1.4869
 5730SOL    HW228827   4.050   3.598   2.281  0.7395  2.3678 -0.3934
 5731SOL     OW28828   4.548   4.084   7.489  1.0705 -0.4762 -0.0256
 5731SOL    HW128829   4.574   4.143   7.418  2.4470 -1.0702 -0.0198
 5731SOL    HW228830   4.485   4.136   7.537  0.9409 -0.6588  0.0014
 5732SOL     OW28831   3.604   3.138   3.707 -0.1258  0.0529 -0.0806
 5732SOL    HW128832   3.696   3.146   3.731  0.2561  3.1772 -2.6867
 5732SOL    HW228833   3.601   3.062   3.649 -4.3620  0.5026 -0.4349
 5733SOL     OW28834   0.115   4.351   3.238 -0.1422 -0.2875 -0.6068
 5733SOL    HW128835   0.078   4.396   3.162  1.1931  0.6187 -0.7099
 5733SOL    HW228836   0.182   4.295   3.198 -0.1224 -0.4706 -0.3188
 5734SOL     OW28837   0.630   1.135   6.921 -0.0437 -0.0973 -1.2100
 5734SOL    HW128838   0.607   1.189   6.845 -0.0475 -0.7779 -1.6961
 5734SOL    HW228839   0.621   1.194   6.995  2.8340 -0.2379 -0.7791
 5735SOL     OW28840   4.112   3.621   6.015 -1.0708  0.0776 -0.1688
 5735SOL    HW128841   4.201   3.652   6.026 -1.1222  0.9311 -2.0783
 5735SOL    HW228842   4.099   3.580   6.100  0.6488 -1.7751 -0.8096
 5736SOL     OW28843   2.565   2.322  13.959  0.2074 -0.1063 -0.1156
 5736SOL    HW128844   2.485   2.345  13.912  0.0276 -2.1564 -0.8015
 5736SOL    HW228845   2.631   2.328  13.889 -0.4680  2.0028 -0.5642
 5737SOL     OW28846   3.783   3.125   8.530 -0.3703 -0.0068 -1.0424
 5737SOL    HW128847   3.799   3.196   8.593 -2.0962 -0.4919 -0.0577
 5737SOL    HW228848   3.703   3.159   8.491 -1.5256  0.4128  1.6534
 5738SOL     OW28849   2.233   2.276   3.721 -0.7429 -0.0424 -0.2093
 5738SOL    HW128850   2.250   2.342   3.653  0.3943 -1.2701 -1.1213
 5738SOL    HW228851   2.140   2.258   3.707 -0.6771 -1.1618  0.7453
 5739SOL     OW28852   0.154   0.118   5.270  0.8244  0.2413  0.1235
 5739SOL    HW128853   0.117   0.111   5.358 -1.1542  0.3744 -0.6913
 5739SOL    HW228854   0.075   0.137   5.219 -0.9160 -1.6626  2.0771
 5740SOL     OW28855   2.046   2.707   9.648  0.8077  0.2068 -0.7809
 5740SOL    HW128856   1.959   2.740   9.625 -0.5840 -1.6544  1.8495
 5740SOL    HW228857   2.095   2.773   9.697 -0.7601  0.5908  0.3140
 5741SOL     OW28858   2.750   0.920   4.578  0.1072 -0.3401 -0.6799
 5741SOL    HW128859   2.773   0.836   4.537  0.0110 -0.9579  0.5429
 5741SOL    HW228860   2.833   0.964   4.562  0.5679 -1.7932 -2.3402
 5742SOL     OW28861   1.385   2.310   2.020  0.0445 -0.0319 -0.1431
 5742SOL    HW128862   1.335   2.323   2.101  2.0635 -0.8487  1.2166
 5742SOL    HW228863   1.315   2.304   1.954  0.0427  1.5165 -0.2689
 5743SOL     OW28864   2.713   0.233  12.277 -0.2750  0.0201  0.1646
 5743SOL    HW128865   2.662   0.307  12.310 -0.0136  0.9319 -1.4812
 5743SOL    HW228866   2.669   0.165  12.328 -0.7196 -1.2846 -1.9209
 5744SOL     OW28867   0.523   2.183   6.433  0.1846  0.4186 -0.1891
 5744SOL    HW128868   0.486   2.260   6.475  2.2406  1.6763 -0.6920
 5744SOL    HW228869   0.570   2.217   6.357  1.2393  0.7330  0.6114
 5745SOL     OW28870   2.178   1.993   6.379  0.7540 -0.4292 -0.2412
 5745SOL    HW128871   2.229   1.915   6.358 -0.5557 -1.4070  0.1672
 5745SOL    HW228872   2.093   1.976   6.338  0.6269  0.8091 -0.4779
 5746SOL     OW28873   2.472   4.285   3.868  0.1189 -0.2982  0.1598
 5746SOL    HW128874   2.464   4.200   3.912 -0.5480 -2.2019 -3.6200
 5746SOL    HW228875   2.453   4.257   3.779  1.2315 -0.4753 -0.0245
 5747SOL     OW28876   1.674   3.423   2.620  0.0610  0.3036  0.1808
 5747SOL    HW128877   1.687   3.481   2.695 -1.0394  0.6657  0.0964
 5747SOL    HW228878   1.758   3.437   2.576 -0.5377  1.2139 -0.6586
 5748SOL     OW28879   4.030   2.173   2.225 -0.4192  0.0154  0.3911
 5748SOL    HW128880   3.950   2.222   2.247  0.0409  1.2034 -0.5731
 5748SOL    HW228881   4.083   2.185   2.303  0.6258 -1.4219 -0.0948
 5749SOL     OW28882   1.656   1.750   7.000 -0.5336  0.4396 -0.4239
 5749SOL    HW128883   1.594   1.752   7.073 -0.0475  0.9009 -0.0272
 5749SOL    HW228884   1.609   1.797   6.930  1.4884 -0.2496 -2.2441
 5750SOL     OW28885   3.126   2.140   0.067  0.0240 -0.0922 -0.4807
 5750SOL    HW128886   3.192   2.117   0.001 -1.9033 -2.6794 -1.4959
 5750SOL    HW228887   3.100   2.052   0.094 -0.1379  0.3412  0.7500
 5751SOL     OW28888   0.877   2.965   5.669 -0.4574  0.2001  0.5431
 5751SOL    HW128889   0.923   3.049   5.668 -0.0885  0.0193  2.8758
 5751SOL    HW228890   0.876   2.953   5.764  2.9891 -1.3133  0.3918
 5752SOL     OW28891   1.713   0.493   5.759 -0.8415  0.4095 -1.1656
 5752SOL    HW128892   1.694   0.487   5.665 -3.2422 -0.7499 -0.6142
 5752SOL    HW228893   1.744   0.403   5.767 -1.0814  0.4975  0.7282
 5753SOL     OW28894   3.320   3.146   9.275  0.5157 -0.4495  0.1228
 5753SOL    HW128895   3.370   3.069   9.250  0.7764 -0.6205  1.1908
 5753SOL    HW228896   3.379   3.184   9.339  1.2301 -0.7220 -0.3824
 5754SOL     OW28897   2.978   0.165   7.678 -0.0378  0.2469 -0.3341
 5754SOL    HW128898   3.026   0.219   7.741  0.4926 -1.6843  0.9023
 5754SOL    HW228899   3.043   0.095   7.673 -2.1921 -1.8388  0.8769
 5755SOL     OW28900   2.473   3.392   7.529  0.3686 -0.4038 -0.3736
 5755SOL    HW128901   2.553   3.359   7.487 -0.1732 -2.0052 -0.1321
 5755SOL    HW228902   2.499   3.375   7.620 -1.4496 -0.0767  0.2111
 5756SOL     OW28903   2.445   4.009   5.899 -0.3646  0.0618  0.1561
 5756SOL    HW128904   2.497   3.934   5.870  0.2188  0.3482  0.4825
 5756SOL    HW228905   2.400   3.977   5.977 -2.3435  0.5733 -0.7699
 5757SOL     OW28906   3.848   2.419  13.276  0.6100 -0.0421 -0.5335
 5757SOL    HW128907   3.781   2.477  13.240 -0.8609 -1.0614  0.5470
 5757SOL    HW228908   3.884   2.477  13.343  0.9138 -1.9333  0.9381
 5758SOL     OW28909   2.250   3.806   3.421  0.0016 -0.1086  0.5336
 5758SOL    HW128910   2.292   3.724   3.393 -0.9732 -0.5845  0.4722
 5758SOL    HW228911   2.325   3.855   3.456  0.4872  0.7659 -1.7526
 5759SOL     OW28912   0.602   1.966   6.269  0.5664 -0.3088 -0.5208
 5759SOL    HW128913   0.632   1.875   6.278  0.9223 -0.2162 -0.7539
 5759SOL    HW228914   0.572   1.986   6.357 -0.0529 -2.1670 -0.3134
 5760SOL     OW28915   2.401   3.711   3.956  0.1516  0.3003 -0.6278
 5760SOL    HW128916   2.356   3.627   3.962  0.4547  0.2928  1.4140
 5760SOL    HW228917   2.357   3.757   3.884 -4.1693 -2.3522  0.3146
 5761SOL     OW28918   3.973   3.061   2.449 -0.0276  0.1088 -0.1022
 5761SOL    HW128919   3.992   3.143   2.494 -2.5229  0.6005  0.0953
 5761SOL    HW228920   3.926   3.015   2.518 -1.1722 -0.9595 -1.5750
 5762SOL     OW28921   0.913   0.531   8.277  0.1607 -0.5963  0.1309
 5762SOL    HW128922   0.945   0.464   8.216 -2.3728  0.5193 -2.3837
 5762SOL    HW228923   0.846   0.487   8.329 -1.0638  0.1059 -0.8520
 5763SOL     OW28924   1.982   3.254  16.699  0.0863  0.2489  0.0383
 5763SOL    HW128925   2.056   3.309  16.673 -1.0825  2.7241  1.9461
 5763SOL    HW228926   1.982   3.266  16.794 -1.3325  0.2270  0.0371
 5764SOL     OW28927   3.196   2.173   9.786  0.6651  0.1589 -0.0778
 5764SOL    HW128928   3.182   2.260   9.823 -1.0354  0.1611 -0.7302
 5764SOL    HW228929   3.128   2.165   9.718  0.1929 -1.1647  0.5501
 5765SOL     OW28930   2.646   4.531  17.423  0.3665 -0.2103 -0.1384
 5765SOL    HW128931   2.573   4.490  17.471  0.1143  1.5413  0.9501
 5765SOL    HW228932   2.691   4.581  17.490 -0.8070  1.9465 -0.9816
 5766SOL     OW28933   1.053   0.541   5.262 -0.1626 -0.5091 -0.4102
 5766SOL    HW128934   1.011   0.598   5.326  0.2327  1.0296 -1.5107
 5766SOL    HW228935   1.062   0.456   5.305 -1.2905  1.2930  3.3886
 5767SOL     OW28936   3.230   2.079   1.509  0.5436 -0.2168  0.3504
 5767SOL    HW128937   3.251   2.124   1.427  0.5756  0.6476  0.8316
 5767SOL    HW228938   3.187   1.999   1.479 -0.7768  0.2980  0.9189
 5768SOL     OW28939   1.069   0.746   0.460  0.7359 -0.8754  0.3080
 5768SOL    HW128940   1.107   0.823   0.419 -0.5423 -0.4457 -0.0746
 5768SOL    HW228941   1.103   0.759   0.548  0.8161  1.3553 -0.0599
 5769SOL     OW28942   1.963   2.854  16.036  0.4740 -0.0491 -0.5931
 5769SOL    HW128943   2.015   2.783  16.074  1.5174  0.1176 -1.7052
 5769SOL    HW228944   1.906   2.874  16.110  0.5328  1.8017 -1.0667
 5770SOL     OW28945   4.402   0.036   2.258  0.3159  0.2301  0.4124
 5770SOL    HW128946   4.349   0.000   2.187  0.5446  1.0639 -0.1812
 5770SOL    HW228947   4.335   0.092   2.297  1.1539  1.3752  0.2115
 5771SOL     OW28948   4.223   1.072   5.593 -0.0259 -0.3742  0.3610
 5771SOL    HW128949   4.240   1.141   5.657  0.5451 -0.9767  0.8654
 5771SOL    HW228950   4.132   1.050   5.614 -1.3332  3.5236 -1.4395
 5772SOL     OW28951   4.199   0.896   5.944 -0.3945  0.6427 -0.0239
 5772SOL    HW128952   4.152   0.936   6.017 -0.2435  0.8306 -0.0313
 5772SOL    HW228953   4.186   0.806   5.974  3.6605  0.8843  2.4891
 5773SOL     OW28954   2.931   0.148   9.274 -0.2296  0.2464 -0.0265
 5773SOL    HW128955   3.002   0.118   9.218 -0.6993  0.2402 -0.6225
 5773SOL    HW228956   2.977   0.208   9.334  1.7455 -0.8835 -0.4311
 5774SOL     OW28957   3.875   3.930   1.461 -0.5586  0.3217  0.1728
 5774SOL    HW128958   3.782   3.953   1.467 -0.3254  1.0809  0.8947
 5774SOL    HW228959   3.883   3.862   1.528  2.5460  0.7923  0.2469
 5775SOL     OW28960   1.989   1.044   7.549  0.3701 -0.2710 -0.2697
 5775SOL    HW128961   2.012   1.088   7.631  1.1137 -2.1565  0.5368
 5775SOL    HW228962   1.897   1.027   7.570  0.2689 -0.4369 -0.8428
 5776SOL     OW28963   2.896   2.791   7.511 -0.1819 -0.1064 -0.6437
 5776SOL    HW128964   2.937   2.714   7.472  0.3338 -1.3961  2.3964
 5776SOL    HW228965   2.860   2.746   7.588  0.8509 -1.0066 -0.7024
 5777SOL     OW28966   1.038   3.901  16.262 -0.5746 -0.3068  0.0542
 5777SOL    HW128967   0.997   3.971  16.312 -0.4318 -0.2133  0.0388
 5777SOL    HW228968   1.099   3.951  16.209  0.0392 -2.6013 -1.4079
 5778SOL     OW28969   2.176   2.126   6.656  0.3618 -0.4149  0.5846
 5778SOL    HW128970   2.240   2.060   6.683  2.0038  0.7901 -0.3685
 5778SOL    HW228971   2.195   2.140   6.563  0.2323  1.1315  0.7841
 5779SOL     OW28972   4.278   3.136   7.392 -0.6034 -0.0889 -0.2163
 5779SOL    HW128973   4.322   3.062   7.435 -1.4481  0.1998  1.1467
 5779SOL    HW228974   4.216   3.087   7.339 -0.0675 -0.5941 -0.3782
 5780SOL     OW28975   4.578   2.465   2.364 -0.4338  0.1344  0.4949
 5780SOL    HW128976   4.658   2.510   2.390 -1.3820  1.2387  1.4917
 5780SOL    HW228977   4.512   2.525   2.399  0.5211  0.4487  1.7296
 5781SOL     OW28978   2.427   4.407   9.312 -0.1416  0.1126  0.4329
 5781SOL    HW128979   2.441   4.485   9.258 -1.7238 -0.7617 -1.2304
 5781SOL    HW228980   2.384   4.339   9.260  0.7579  0.5531 -0.8865
 5782SOL     OW28981   2.579   1.593  15.523 -0.5511 -0.3710  0.9072
 5782SOL    HW128982   2.500   1.540  15.533 -0.1805 -0.7004  2.0464
 5782SOL    HW228983   2.553   1.652  15.452 -0.5590 -1.6928 -0.1876
 5783SOL     OW28984   2.170   0.342   7.204  0.2520  0.6037 -0.2830
 5783SOL    HW128985   2.120   0.275   7.250  1.0139 -1.1674 -2.0497
 5783SOL    HW228986   2.141   0.324   7.114  0.9441 -1.1645 -0.1387
 5784SOL     OW28987   2.869   4.382  10.674  0.3772  0.4628 -0.5344
 5784SOL    HW128988   2.915   4.439  10.734 -0.0648  0.4687 -0.2014
 5784SOL    HW228989   2.790   4.436  10.663  0.5893  0.6784 -1.0036
 5785SOL     OW28990   0.138   3.995  16.565  0.1957 -0.5432 -0.2145
 5785SOL    HW128991   0.197   4.067  16.586  1.9140 -1.4512 -1.9054
 5785SOL    HW228992   0.176   3.961  16.484  2.4466  1.1357  0.1496
 5786SOL     OW28993   1.023   0.174   0.766 -0.6198 -0.4165 -0.0084
 5786SOL    HW128994   1.114   0.199   0.750 -1.2451  2.5306  0.9526
 5786SOL    HW228995   0.968   0.246   0.733  0.9080  0.0775 -1.4673
 5787SOL     OW28996   1.105   3.727   2.622  0.0247  0.3573 -0.3456
 5787SOL    HW128997   1.082   3.775   2.543 -1.1879  0.1882 -0.0823
 5787SOL    HW228998   1.058   3.769   2.694  1.3184  0.8330  0.2414
 5788SOL     OW28999   2.751   1.322   1.535  0.0873 -0.4055 -0.3468
 5788SOL    HW129000   2.788   1.368   1.611 -1.5157 -3.3094  2.1996
 5788SOL    HW229001   2.739   1.230   1.561 -0.4962 -0.0125  0.7538
 5789SOL     OW29002   3.321   1.942   9.802 -0.4105  0.0595  0.5726
 5789SOL    HW129003   3.286   2.024   9.768 -1.9902 -0.8406 -0.0119
 5789SOL    HW229004   3.262   1.885   9.752  1.8071 -1.9379  0.2345
 5790SOL     OW29005   4.594   3.748   1.739 -0.4190  0.1503 -0.1890
 5790SOL    HW129006   4.500   3.730   1.748 -0.4369  0.0620 -0.5628
 5790SOL    HW229007   4.602   3.725   1.647  1.6033 -0.3187  0.1131
 5791SOL     OW29008   3.103   0.374  16.714  0.3658 -1.0099 -0.0794
 5791SOL    HW129009   3.196   0.365  16.737  0.3399 -0.4895  0.2289
 5791SOL    HW229010   3.100   0.344  16.623 -0.3012 -1.9441  0.2436
 5792SOL     OW29011   1.542   2.510  16.107  0.0479 -0.1996 -0.2246
 5792SOL    HW129012   1.500   2.582  16.155  4.6187  1.0942  1.8059
 5792SOL    HW229013   1.560   2.549  16.021  0.9034  1.0845  0.5351
 5793SOL     OW29014   4.048   3.310   6.978 -0.0018  0.2322 -0.1932
 5793SOL    HW129015   4.096   3.246   7.030 -0.7850  0.4626  0.8235
 5793SOL    HW229016   3.977   3.253   6.947  1.7854 -1.8643 -0.4126
 5794SOL     OW29017   2.077   2.876   7.714 -0.1193  0.8081  0.9419
 5794SOL    HW129018   1.995   2.845   7.753 -0.5675  1.5439  0.5734
 5794SOL    HW229019   2.146   2.836   7.768  1.0296  0.2089 -0.9946
 5795SOL     OW29020   0.374   4.171   3.107 -0.3201  0.0831  0.3388
 5795SOL    HW129021   0.451   4.124   3.076 -0.3199 -0.5933  1.3334
 5795SOL    HW229022   0.403   4.207   3.191  3.0193 -0.3035 -0.6453
 5796SOL     OW29023   1.870   2.804   2.701 -0.1702 -0.4186  0.0436
 5796SOL    HW129024   1.865   2.784   2.607  3.1552  1.2033 -0.4825
 5796SOL    HW229025   1.799   2.867   2.708 -1.5223 -2.1625  2.1965
 5797SOL     OW29026   0.542   3.967  16.500 -0.5201 -0.4754 -0.6795
 5797SOL    HW129027   0.596   3.888  16.503 -1.1991 -0.8967  0.3024
 5797SOL    HW229028   0.485   3.946  16.574  0.0155  0.2927 -0.0467
 5798SOL     OW29029   3.188   1.504  13.572 -0.3950 -0.5732 -0.8460
 5798SOL    HW129030   3.098   1.532  13.585  0.1397  0.4126  0.8578
 5798SOL    HW229031   3.192   1.441  13.644 -2.4802  0.2274 -0.0198
 5799SOL     OW29032   4.686   3.439  15.433  0.0750  0.1022  0.5744
 5799SOL    HW129033   0.018   3.375  15.445  1.1165  0.8816 -1.2613
 5799SOL    HW229034   4.728   3.516  15.472  1.7141 -0.0831 -0.7726
 5800SOL     OW29035   1.000   0.122  17.070  0.1345  0.3469 -0.2342
 5800SOL    HW129036   1.003   0.216  17.085  0.7037 -0.0820  2.3854
 5800SOL    HW229037   1.074   0.093  17.123  1.5762  0.8987 -1.9593
 5801SOL     OW29038   4.519   0.138  15.474  0.1094  0.8380  0.1161
 5801SOL    HW129039   4.448   0.114  15.535  0.6662  0.4749  0.6246
 5801SOL    HW229040   4.542   0.225  15.507  0.8874  1.1928 -1.4000
 5802SOL     OW29041   1.025   1.421   5.649 -0.4722  0.0345  0.3291
 5802SOL    HW129042   1.107   1.392   5.610  0.2267  1.2619  0.8981
 5802SOL    HW229043   0.965   1.372   5.592 -0.4175 -0.2633  0.5283
 5803SOL     OW29044   3.310   0.818   3.423  0.2664 -0.0712 -0.1802
 5803SOL    HW129045   3.283   0.733   3.388  0.3260 -1.0060  2.0411
 5803SOL    HW229046   3.284   0.871   3.348  2.6487  0.8517 -0.3634
 5804SOL     OW29047   2.615   3.880  14.279  0.4057 -0.6449 -0.1626
 5804SOL    HW129048   2.532   3.835  14.295  1.2018 -1.8464  0.6590
 5804SOL    HW229049   2.676   3.825  14.329  1.5253 -0.2069 -1.0646
 5805SOL     OW29050   2.949   2.340  17.502  0.4930  0.3327  0.3927
 5805SOL    HW129051   2.879   2.382  17.552  0.6225 -0.8777  1.6013
 5805SOL    HW229052   2.961   2.257  17.548 -1.6967 -0.8895 -1.2775
 5806SOL     OW29053   1.388   3.525   5.569 -0.2031 -0.5822  0.1739
 5806SOL    HW129054   1.467   3.473   5.584  1.0535  1.1244 -0.5705
 5806SOL    HW229055   1.364   3.509   5.478 -0.5348  4.1168 -0.5291
 5807SOL     OW29056   3.853   1.594   4.925 -0.4628  0.6979  0.5580
 5807SOL    HW129057   3.860   1.687   4.903 -1.1890  0.5486 -0.3102
 5807SOL    HW229058   3.771   1.596   4.973  0.3706 -0.0044  2.0143
 5808SOL     OW29059   0.676   0.948   8.742  0.4078 -0.6218  0.4612
 5808SOL    HW129060   0.662   0.871   8.687  2.1690  1.7981 -3.4214
 5808SOL    HW229061   0.598   0.942   8.796 -0.8991 -2.4241 -1.6227
 5809SOL     OW29062   1.067   0.279   6.571 -0.4747 -0.1458  0.3091
 5809SOL    HW129063   1.005   0.247   6.505  0.2254 -3.7442  1.4301
 5809SOL    HW229064   1.001   0.310   6.634 -0.1418 -0.3624  0.7618
 5810SOL     OW29065   3.626   0.433   0.018 -0.3906  0.0477 -0.1793
 5810SOL    HW129066   3.562   0.487  17.723  1.4163  2.0537 -0.3095
 5810SOL    HW229067   3.696   0.492  17.742  1.2414 -0.8091  2.0395
 5811SOL     OW29068   4.669   1.853   8.344  0.0384 -0.0679  0.0105
 5811SOL    HW129069   4.627   1.858   8.258  0.0445  2.2266  0.1403
 5811SOL    HW229070   0.022   1.855   8.318  0.0779  0.0153  0.1604
 5812SOL     OW29071   0.262   3.949  10.832 -0.0742 -0.0005 -0.1332
 5812SOL    HW129072   0.301   3.953  10.919 -1.0750 -2.3564  0.4310
 5812SOL    HW229073   0.214   4.031  10.821  0.3340  0.1593 -0.7413
 5813SOL     OW29074   2.221   4.395   6.688 -0.9110  0.5511  0.7174
 5813SOL    HW129075   2.126   4.403   6.680 -1.4581 -4.3445  2.4768
 5813SOL    HW229076   2.222   4.334   6.762 -2.5106 -0.2695  0.0445
 5814SOL     OW29077   1.160   2.199   9.355 -0.7320 -0.1169 -0.1058
 5814SOL    HW129078   1.168   2.221   9.449  0.7433 -0.7281 -0.0885
 5814SOL    HW229079   1.185   2.107   9.354  2.3144  0.6466  2.8491
 5815SOL     OW29080   4.443   2.246  10.413 -0.1930 -0.5466 -0.0013
 5815SOL    HW129081   4.506   2.296  10.361  0.1248  0.5662  1.4585
 5815SOL    HW229082   4.427   2.175  10.351  1.3596 -0.5557 -0.3831
 5816SOL     OW29083   3.362   1.155   7.646 -0.3463  0.0621 -0.2296
 5816SOL    HW129084   3.306   1.228   7.620 -2.7610 -1.0491  1.8633
 5816SOL    HW229085   3.448   1.177   7.610 -0.4983  1.0429  0.0200
 5817SOL     OW29086   3.468   0.538   8.402 -0.4735  0.1226 -0.6884
 5817SOL    HW129087   3.420   0.493   8.332 -1.7851  1.1006 -0.4073
 5817SOL    HW229088   3.514   0.608   8.355  2.0772 -2.1747 -1.6240
 5818SOL     OW29089   3.467   0.241   4.443 -0.6928 -0.2637  0.1715
 5818SOL    HW129090   3.533   0.180   4.410 -0.9518 -0.3891 -0.1184
 5818SOL    HW229091   3.443   0.286   4.362 -2.1541  0.5234  1.0455
 5819SOL     OW29092   1.702   4.324   8.691  0.5349  0.1311 -0.2601
 5819SOL    HW129093   1.683   4.329   8.598  0.7810 -0.1321 -0.3267
 5819SOL    HW229094   1.776   4.263   8.690 -0.4922 -1.1774  2.8983
 5820SOL     OW29095   0.254   1.069   7.992 -0.2353 -0.1521 -0.2666
 5820SOL    HW129096   0.236   1.009   7.920  0.8094  2.3723 -2.6317
 5820SOL    HW229097   0.310   1.018   8.050  0.0505  0.7841  0.2852
 5821SOL     OW29098   2.465   3.981   5.606  0.4044  0.2699  0.0494
 5821SOL    HW129099   2.534   4.038   5.573  1.8671 -1.8726 -0.5697
 5821SOL    HW229100   2.462   4.013   5.696 -2.0794 -1.3183  0.5446
 5822SOL     OW29101   2.092   2.343   2.550 -0.1275  0.1684 -0.0856
 5822SOL    HW129102   2.072   2.256   2.518  1.6155 -0.8474  1.5276
 5822SOL    HW229103   2.079   2.328   2.644 -0.7399 -0.5429 -0.2860
 5823SOL     OW29104   1.265   4.433  12.716 -0.3596 -0.2906  0.3046
 5823SOL    HW129105   1.243   4.514  12.761  0.5750  0.4192 -0.5293
 5823SOL    HW229106   1.358   4.441  12.694 -1.0062 -0.6296 -2.5582
 5824SOL     OW29107   2.273   1.511  10.789  0.1797  0.1236 -0.2550
 5824SOL    HW129108   2.231   1.539  10.870 -1.2726 -1.3188 -0.5237
 5824SOL    HW229109   2.197   1.492  10.734  1.2501 -1.2322 -1.2741
 5825SOL     OW29110   4.104   2.506   2.005  0.0815  0.0021  0.0392
 5825SOL    HW129111   4.034   2.517   1.942 -0.1385 -1.3052  0.0596
 5825SOL    HW229112   4.097   2.585   2.058  0.8216  2.4828 -3.6041
 5826SOL     OW29113   1.077   4.283   1.856 -0.3334  0.3825  0.0917
 5826SOL    HW129114   1.112   4.310   1.771  2.5245 -0.3785  1.0215
 5826SOL    HW229115   1.146   4.284   1.923 -0.0715 -0.0679 -0.1664
 5827SOL     OW29116   4.444   4.177  11.753 -0.1770 -0.2954  0.0963
 5827SOL    HW129117   4.483   4.234  11.820  0.1193  0.3450 -0.6121
 5827SOL    HW229118   4.521   4.119  11.754  0.1103  0.0769 -0.3234
 5828SOL     OW29119   2.150   0.957   2.994  0.6523  0.0697  0.0887
 5828SOL    HW129120   2.211   0.903   3.044 -0.9593 -2.4947 -0.7523
 5828SOL    HW229121   2.116   1.009   3.067  0.2351 -2.7859  1.9448
 5829SOL     OW29122   0.017   4.367   0.502  0.0092 -0.1591 -0.3332
 5829SOL    HW129123   4.702   4.301   0.546 -1.8216  1.0619 -0.7552
 5829SOL    HW229124   0.023   4.334   0.413 -1.3405 -1.2572 -0.0160
 5830SOL     OW29125   2.591   1.742  13.122 -0.2823 -0.1858 -0.4191
 5830SOL    HW129126   2.514   1.696  13.089 -1.1581  1.3123 -0.4602
 5830SOL    HW229127   2.575   1.830  13.088  1.9348  0.7165  0.8146
 5831SOL     OW29128   4.617   0.281   3.860  0.3195 -0.4181 -0.5790
 5831SOL    HW129129   4.597   0.199   3.905 -0.0014  0.7162  1.3604
 5831SOL    HW229130   4.555   0.337   3.907  1.1913  0.4677 -0.4633
 5832SOL     OW29131   2.848   4.219   5.785 -0.2023  0.3511  0.2622
 5832SOL    HW129132   2.890   4.188   5.866  1.1893  0.7700 -0.3022
 5832SOL    HW229133   2.922   4.241   5.728  0.7879  2.3477  2.3137
 5833SOL     OW29134   4.712   3.423   4.538  0.1469 -0.6169  0.2683
 5833SOL    HW129135   0.030   3.395   4.610  0.5037 -2.6569 -0.7937
 5833SOL    HW229136   4.698   3.335   4.503 -1.2227 -0.1960 -0.2256
 5834SOL     OW29137   1.390   2.546   2.812 -0.2045 -0.4061 -0.4465
 5834SOL    HW129138   1.389   2.505   2.899  2.2423 -1.8505 -1.1016
 5834SOL    HW229139   1.385   2.640   2.827 -0.7804 -0.8778  2.3521
 5835SOL     OW29140   4.595   3.448   3.693 -0.0165  0.9393 -0.2236
 5835SOL    HW129141   4.524   3.502   3.728 -0.6325 -1.1675  1.7974
 5835SOL    HW229142   4.665   3.470   3.755  0.4299 -0.1785 -0.3216
 5836SOL     OW29143   1.117   4.448   7.972 -0.7968 -0.3615  0.1562
 5836SOL    HW129144   1.140   4.505   8.045  1.7998 -0.0215 -0.9261
 5836SOL    HW229145   1.185   4.381   7.969 -0.2516  0.1610  0.9327
 5837SOL     OW29146   4.356   4.346   7.942  0.1896 -0.3331 -0.0691
 5837SOL    HW129147   4.305   4.296   7.879  1.9938  0.1379 -1.9201
 5837SOL    HW229148   4.443   4.306   7.946  1.1263  1.8246  1.2924
 5838SOL     OW29149   4.568   1.314   3.674  0.1968 -0.1852 -0.1569
 5838SOL    HW129150   4.580   1.362   3.591  1.9635 -0.1707  0.1035
 5838SOL    HW229151   4.641   1.253   3.662 -1.4465 -1.8833 -1.6659
 5839SOL     OW29152   3.651   4.569  14.442 -0.1893  0.5817  0.2721
 5839SOL    HW129153   3.570   4.534  14.405  1.1072 -1.6003 -0.4586
 5839SOL    HW229154   3.680   4.489  14.485 -0.2477 -0.2669 -1.2862
 5840SOL     OW29155   0.847   4.138   9.092 -0.4036  0.4366 -0.1646
 5840SOL    HW129156   0.911   4.072   9.121 -1.1661  0.2484  1.0949
 5840SOL    HW229157   0.867   4.203   9.160 -3.0884  0.8727  0.1897
 5841SOL     OW29158   1.274   1.135   5.819  0.4276  0.0591 -0.0460
 5841SOL    HW129159   1.219   1.114   5.744 -0.8795 -1.2209  1.2679
 5841SOL    HW229160   1.265   1.063   5.881  0.2756  1.5167  1.6523
 5842SOL     OW29161   2.101   2.156  13.522  0.5541 -0.1131  0.0676
 5842SOL    HW129162   2.105   2.220  13.451  0.6868 -0.5252 -0.2954
 5842SOL    HW229163   2.019   2.181  13.566  0.6176 -1.1661  0.7885
 5843SOL     OW29164   0.530   2.853   1.109  0.3697 -0.3280  0.2647
 5843SOL    HW129165   0.569   2.921   1.054 -1.4654 -0.4003 -1.1042
 5843SOL    HW229166   0.599   2.831   1.172  0.2598 -3.6125 -0.7429
 5844SOL     OW29167   2.738   1.072   6.460  0.3517 -0.1282 -0.0605
 5844SOL    HW129168   2.717   1.060   6.553  0.0005 -3.8597 -0.6402
 5844SOL    HW229169   2.685   1.005   6.418 -1.5103  1.3073  0.0155
 5845SOL     OW29170   3.925   1.308   8.652 -0.4628 -0.4087 -0.1343
 5845SOL    HW129171   3.875   1.390   8.658 -0.8236 -0.6981  0.8797
 5845SOL    HW229172   3.905   1.277   8.564 -1.4168 -1.4814  0.4614
 5846SOL     OW29173   1.786   0.389   2.007 -0.0181 -0.1553  0.5736
 5846SOL    HW129174   1.701   0.429   2.023 -0.1197 -0.0856 -0.1398
 5846SOL    HW229175   1.828   0.377   2.092  0.8622  0.4082  0.2180
 5847SOL     OW29176   2.881   2.487   4.035  0.0262  0.5359  0.2215
 5847SOL    HW129177   2.968   2.446   4.025  1.1251  3.2058 -1.1163
 5847SOL    HW229178   2.846   2.484   3.946  2.8511  2.0303 -0.9491
 5848SOL     OW29179   4.217   3.465   6.240 -0.2458 -0.5165 -0.3321
 5848SOL    HW129180   4.203   3.480   6.334  0.5524 -1.2275 -0.0950
 5848SOL    HW229181   4.312   3.455   6.242 -0.1003  1.0168  0.7150
 5849SOL     OW29182   1.436   1.966  15.723 -0.2338 -0.0024  0.0559
 5849SOL    HW129183   1.459   1.947  15.632  0.7752  0.2111  0.2646
 5849SOL    HW229184   1.447   1.877  15.758 -0.5139 -0.5880 -1.3662
 5850SOL     OW29185   0.564   0.677  10.857  0.2333  0.0379  0.3608
 5850SOL    HW129186   0.487   0.633  10.822  1.0780 -0.1344 -1.2714
 5850SOL    HW229187   0.615   0.606  10.897 -0.0269  0.6554  1.7978
 5851SOL     OW29188   2.945   0.134   4.066  0.2812 -0.8419  0.2309
 5851SOL    HW129189   3.000   0.210   4.086  0.4021 -0.5438 -1.2306
 5851SOL    HW229190   2.961   0.119   3.973  0.7500  2.1812 -0.1773
 5852SOL     OW29191   0.549   4.419   7.087 -0.1694  0.7975 -0.2254
 5852SOL    HW129192   0.561   4.368   7.168  1.9911  0.5439 -0.6892
 5852SOL    HW229193   0.455   4.430   7.099 -0.6201 -2.1141 -1.0960
 5853SOL     OW29194   2.711   4.570   9.948  0.5526 -0.0448  0.5013
 5853SOL    HW129195   2.669   4.562  10.034 -0.7180  1.6359  0.0256
 5853SOL    HW229196   2.802   4.568   9.977  0.6692  1.3407  0.2128
 5854SOL     OW29197   3.127   1.037   7.220 -0.0629 -0.1880  0.5540
 5854SOL    HW129198   3.192   1.094   7.260 -0.5023  0.0064  0.9971
 5854SOL    HW229199   3.061   1.020   7.288 -0.6153  3.9970  1.0912
 5855SOL     OW29200   0.260   2.806   5.058  0.6008 -0.1895  0.0088
 5855SOL    HW129201   0.318   2.743   5.102 -2.7037 -1.1161  3.0242
 5855SOL    HW229202   0.202   2.825   5.132  0.1823 -1.3913 -0.0098
 5856SOL     OW29203   4.522   3.923   6.014  0.5525 -0.2414  0.2887
 5856SOL    HW129204   4.552   3.897   5.926  0.4288 -1.6961  0.6658
 5856SOL    HW229205   4.478   3.841   6.038  2.2271 -0.5208  2.4371
 5857SOL     OW29206   3.334   3.140   3.801 -0.6600 -0.7449  0.4145
 5857SOL    HW129207   3.424   3.145   3.768 -1.0117  0.3130 -0.4163
 5857SOL    HW229208   3.354   3.106   3.888  2.2371  3.2439  1.2805
 5858SOL     OW29209   3.653   3.470   2.285  0.3154 -0.1107  0.2892
 5858SOL    HW129210   3.566   3.431   2.272 -0.2569  1.1879  0.3058
 5858SOL    HW229211   3.696   3.388   2.308 -0.3627  0.3555  3.2266
 5859SOL     OW29212   3.480   4.265   0.813 -0.4946  0.0334 -0.0574
 5859SOL    HW129213   3.445   4.326   0.877 -0.1949  1.0537 -0.8663
 5859SOL    HW229214   3.573   4.272   0.832 -0.0925 -1.0385 -1.6095
 5860SOL     OW29215   3.609   0.297   7.053 -0.1998  0.0392  0.0179
 5860SOL    HW129216   3.531   0.293   6.997 -0.4585  1.6247  0.2522
 5860SOL    HW229217   3.623   0.391   7.063  2.9892 -0.2547 -1.7984
 5861SOL     OW29218   2.172   1.936   3.388 -0.7593 -0.0115  0.3705
 5861SOL    HW129219   2.262   1.942   3.357 -0.5147 -0.6785  0.9396
 5861SOL    HW229220   2.170   1.859   3.445 -1.3782 -0.4505 -0.2574
 5862SOL     OW29221   4.420   0.455  12.788  0.3936  0.4938 -0.0915
 5862SOL    HW129222   4.389   0.544  12.804 -2.2934 -0.4594  0.0321
 5862SOL    HW229223   4.513   0.471  12.801  0.6024 -0.4674 -0.3930
 5863SOL     OW29224   0.533   2.438   6.680 -0.1599  0.2323  0.2372
 5863SOL    HW129225   0.469   2.508   6.669  1.8052  2.3466  2.2014
 5863SOL    HW229226   0.600   2.472   6.621  0.1221  1.0032  0.9975
 5864SOL     OW29227   0.626   2.853   3.501  0.0451  0.5191  0.1391
 5864SOL    HW129228   0.622   2.871   3.595  1.1312  1.5267 -0.0163
 5864SOL    HW229229   0.532   2.847   3.487 -0.2429 -0.6753  2.6358
 5865SOL     OW29230   0.821   0.790  14.136 -0.0683 -0.5472 -0.1275
 5865SOL    HW129231   0.869   0.848  14.078 -0.1890 -0.4054 -0.0858
 5865SOL    HW229232   0.877   0.808  14.211 -0.4398  1.3000 -0.2925
 5866SOL     OW29233   2.930   4.431   7.824  0.3931 -0.0982  0.0756
 5866SOL    HW129234   2.853   4.468   7.781  0.2813  1.0714  1.2912
 5866SOL    HW229235   2.963   4.373   7.755  0.3555  1.0449 -0.9080
 5867SOL     OW29236   3.976   3.768   4.581 -0.0572 -0.4766  0.3292
 5867SOL    HW129237   4.036   3.784   4.654  0.2368  2.5875 -0.5660
 5867SOL    HW229238   3.898   3.755   4.634  0.8290 -0.1673  1.7136
 5868SOL     OW29239   0.381   1.932   9.760 -0.1142 -0.3258  0.4965
 5868SOL    HW129240   0.352   1.891   9.678  2.8192 -0.0482 -0.6504
 5868SOL    HW229241   0.409   1.858   9.815 -2.5820 -1.5225  0.1620
 5869SOL     OW29242   1.220   1.178   7.364  0.6520 -0.6434 -0.0410
 5869SOL    HW129243   1.204   1.118   7.437 -2.2928  0.7491  0.4588
 5869SOL    HW229244   1.143   1.234   7.370  0.4076 -1.2153  2.3577
 5870SOL     OW29245   0.915   3.265  12.204 -0.0470  0.6338 -0.1348
 5870SOL    HW129246   0.858   3.305  12.269 -0.4508 -2.8598  1.6509
 5870SOL    HW229247   0.904   3.335  12.139 -2.2451  0.1763 -0.2545
 5871SOL     OW29248   1.218   4.232   8.263  0.4622 -0.7491  0.1011
 5871SOL    HW129249   1.248   4.181   8.188  0.0619 -1.0558  0.1539
 5871SOL    HW229250   1.222   4.325   8.238  0.7352 -0.6030  0.6871
 5872SOL     OW29251   2.981   0.085   5.010 -0.3498  0.1252  0.4062
 5872SOL    HW129252   3.068   0.078   5.050 -0.4823  1.0131  0.8633
 5872SOL    HW229253   2.987   0.132   4.927  0.3358  1.2388  1.0773
 5873SOL     OW29254   3.453   2.274  14.261  0.3652  0.2552  0.6273
 5873SOL    HW129255   3.444   2.368  14.276  2.9316  0.6251 -0.0927
 5873SOL    HW229256   3.544   2.276  14.229  0.2956  0.2244  0.4249
 5874SOL     OW29257   0.721   0.370   8.435 -0.3265 -0.2707 -0.6246
 5874SOL    HW129258   0.736   0.316   8.513  0.0954 -0.2450 -0.6873
 5874SOL    HW229259   0.640   0.417   8.455  0.1983  0.0967  0.6389
 5875SOL     OW29260   3.409   2.821   3.955 -0.1650 -0.2720 -0.0896
 5875SOL    HW129261   3.381   2.913   3.954  3.1205  0.6996 -1.8050
 5875SOL    HW229262   3.459   2.814   3.874 -2.3042 -1.1293 -1.3501
 5876SOL     OW29263   3.208   3.519  17.306 -0.6600  0.2613 -0.0742
 5876SOL    HW129264   3.197   3.438  17.354  1.4736 -0.3982 -0.6883
 5876SOL    HW229265   3.223   3.580  17.378  1.2195  0.8777 -1.0024
 5877SOL     OW29266   1.676   1.817   6.053  0.4163  0.1011  0.1114
 5877SOL    HW129267   1.724   1.741   6.086  0.1995 -0.0857 -0.0013
 5877SOL    HW229268   1.660   1.790   5.963  0.3728  0.2426  0.0769
 5878SOL     OW29269   3.113   3.988   3.623  0.6927  0.4318 -0.2580
 5878SOL    HW129270   3.200   3.949   3.613  0.9179  0.7605  0.3996
 5878SOL    HW229271   3.075   3.938   3.696 -1.5069  0.7179 -1.2340
 5879SOL     OW29272   1.138   2.091  12.369  0.0179  0.0430 -0.5890
 5879SOL    HW129273   1.160   2.035  12.295 -2.2336 -0.9697 -0.4949
 5879SOL    HW229274   1.171   2.030  12.435 -0.4365  0.9893  0.5058
 5880SOL     OW29275   2.463   1.575   4.538 -0.4452  0.3666 -0.2976
 5880SOL    HW129276   2.494   1.610   4.621  0.7894 -3.3046  0.8227
 5880SOL    HW229277   2.417   1.652   4.505 -0.1682  0.2254 -1.0252
 5881SOL     OW29278   0.256   3.709   4.274 -0.1862  0.3624  0.4468
 5881SOL    HW129279   0.308   3.776   4.319 -1.0554  0.5604  1.1524
 5881SOL    HW229280   0.243   3.649   4.348 -0.6407  0.3428  0.3480
 5882SOL     OW29281   1.651   4.525   2.591  0.2204  0.2410  0.2822
 5882SOL    HW129282   1.660   4.488   2.503 -1.2677  2.8070 -0.9529
 5882SOL    HW229283   1.683   4.611   2.566  0.0818 -0.0531 -0.9309
 5883SOL     OW29284   1.683   2.811  10.557  0.1606 -0.4908 -0.4560
 5883SOL    HW129285   1.732   2.886  10.592  2.1875 -1.9457 -0.1810
 5883SOL    HW229286   1.747   2.746  10.586  0.5345 -0.2317 -0.7154
 5884SOL     OW29287   4.199   0.884   2.529  0.1979  0.2327 -0.1768
 5884SOL    HW129288   4.110   0.851   2.513 -0.5887  2.3379 -0.2338
 5884SOL    HW229289   4.253   0.814   2.493  1.0266  0.4726  0.6098
 5885SOL     OW29290   1.608   4.624   5.901 -0.2264 -0.3178  0.5710
 5885SOL    HW129291   1.589   4.532   5.885 -0.4043 -0.1979  0.0902
 5885SOL    HW229292   1.613   4.626   5.996 -1.0129  0.6607  0.5900
 5886SOL     OW29293   1.137   0.454   5.875 -0.0886 -0.0853 -0.4186
 5886SOL    HW129294   1.153   0.393   5.803  0.7177  1.4726 -1.5471
 5886SOL    HW229295   1.043   0.440   5.887  0.1117 -0.8922  0.1963
 5887SOL     OW29296   1.892   0.203   6.701 -0.3072  0.1856 -0.5897
 5887SOL    HW129297   1.815   0.198   6.758 -0.1461 -0.3788 -0.4292
 5887SOL    HW229298   1.871   0.131   6.642 -0.1075  0.0033 -0.4367
 5888SOL     OW29299   0.110   3.652   1.802 -0.1982  0.4846 -0.3122
 5888SOL    HW129300   0.097   3.557   1.809  1.0040  0.4262  1.1629
 5888SOL    HW229301   0.020   3.680   1.785 -0.9872 -1.4234  0.7260
 5889SOL     OW29302   3.609   0.750  15.614 -0.3972 -0.5796  0.3307
 5889SOL    HW129303   3.526   0.782  15.579 -0.0447 -0.6596 -0.5977
 5889SOL    HW229304   3.666   0.820  15.583 -1.8812  0.2426 -0.5353
 5890SOL     OW29305   4.148   4.039  11.911 -0.0381  0.4129 -0.4192
 5890SOL    HW129306   4.076   3.981  11.886  0.1204  0.3958 -0.8277
 5890SOL    HW229307   4.210   4.015  11.843  1.6868  1.0753  0.9203
 5891SOL     OW29308   1.118   2.373   4.129  0.0249  0.4093 -0.4398
 5891SOL    HW129309   1.134   2.436   4.198  2.6520 -2.1037  1.2635
 5891SOL    HW229310   1.034   2.400   4.093  0.7751 -0.5851 -2.9767
 5892SOL     OW29311   3.042   0.433   3.710  0.3738  0.3916  0.4995
 5892SOL    HW129312   3.032   0.528   3.716  1.5308  0.4471  1.5092
 5892SOL    HW229313   3.006   0.427   3.622  0.1954  1.3671  0.5001
 5893SOL     OW29314   0.211   4.174   6.604 -0.3911 -0.0109 -0.5483
 5893SOL    HW129315   0.274   4.106   6.627 -0.8217 -0.2895 -0.2052
 5893SOL    HW229316   0.270   4.220   6.544 -1.5970  0.9157 -1.0151
 5894SOL     OW29317   1.200   2.986   2.896 -0.7756 -0.1795  0.0358
 5894SOL    HW129318   1.290   3.017   2.882  0.0973 -1.5868  2.4298
 5894SOL    HW229319   1.189   2.921   2.827  0.4691 -0.2952 -0.0670
 5895SOL     OW29320   1.073   0.011   7.159 -0.1375 -0.0524 -0.0969
 5895SOL    HW129321   1.089   0.016   7.253 -0.1696  0.7624 -0.1328
 5895SOL    HW229322   1.105   4.663   7.134  0.2994  0.4891 -1.4070
 5896SOL     OW29323   4.496   0.419  12.185 -0.0924 -0.1033 -0.0314
 5896SOL    HW129324   4.413   0.434  12.229  0.1961 -2.5524  1.3484
 5896SOL    HW229325   4.524   0.336  12.224 -3.2477 -1.7929 -1.3726
 5897SOL     OW29326   0.851   3.055   2.753 -0.4703  0.1967 -0.3511
 5897SOL    HW129327   0.757   3.049   2.771 -0.4882 -1.5761 -1.0810
 5897SOL    HW229328   0.851   3.082   2.661 -0.9750  4.5262  0.8898
 5898SOL     OW29329   3.171   3.207  10.185 -0.2580 -0.1370 -0.2255
 5898SOL    HW129330   3.266   3.204  10.202 -0.1292  2.6450 -0.5514
 5898SOL    HW229331   3.169   3.232  10.093 -0.0192  0.8435  0.0383
 5899SOL     OW29332   3.840   3.359   2.084 -0.1198 -0.1562  0.1683
 5899SOL    HW129333   3.839   3.453   2.067 -1.2720 -0.4846 -1.6758
 5899SOL    HW229334   3.934   3.341   2.084 -0.0953 -0.0617 -0.9279
 5900SOL     OW29335   1.345   2.712   6.371  0.3502 -0.0203 -0.4548
 5900SOL    HW129336   1.408   2.713   6.443 -0.3005  2.7311  0.0886
 5900SOL    HW229337   1.392   2.650   6.315 -0.0582 -0.2254 -0.5698
 5901SOL     OW29338   0.407   1.812   8.589 -0.2385  0.1086 -0.5259
 5901SOL    HW129339   0.317   1.843   8.598 -0.1931  0.2790 -0.6693
 5901SOL    HW229340   0.435   1.870   8.519 -1.9339 -2.1993 -3.1089
 5902SOL     OW29341   2.160   4.433   2.482 -0.0824 -0.4001  0.4959
 5902SOL    HW129342   2.065   4.446   2.476 -0.1711 -1.8919 -1.2942
 5902SOL    HW229343   2.170   4.345   2.445  1.4134 -0.8617  1.9861
 5903SOL     OW29344   2.598   3.838   5.370 -0.0683 -0.2367 -0.0378
 5903SOL    HW129345   2.683   3.826   5.412 -1.0659 -2.0613  1.4572
 5903SOL    HW229346   2.594   3.750   5.331  0.4872  0.0016 -0.6229
 5904SOL     OW29347   3.173   0.083   2.803 -0.2728 -0.1531 -0.2131
 5904SOL    HW129348   3.168   0.032   2.884 -2.0154  1.8431  0.9263
 5904SOL    HW229349   3.104   0.050   2.746 -0.5464  1.3539 -0.7477
 5905SOL     OW29350   3.359   2.307  10.975 -0.3779 -0.1794  0.0150
 5905SOL    HW129351   3.279   2.255  10.985 -1.9720  2.2340 -0.4779
 5905SOL    HW229352   3.430   2.246  10.998 -0.7663 -1.0436 -1.1324
 5906SOL     OW29353   4.691   3.590   9.139 -0.5818  0.0189  0.0958
 5906SOL    HW129354   4.604   3.628   9.124  0.8565  3.5808  0.8704
 5906SOL    HW229355   0.002   3.607   9.059  0.6428 -0.7878  0.6991
 5907SOL     OW29356   2.067   2.896   1.341 -0.5592  0.1198  0.4359
 5907SOL    HW129357   2.125   2.872   1.413  0.2839 -1.3067 -0.7206
 5907SOL    HW229358   2.133   2.924   1.277  0.1179 -0.5624  0.8451
 5908SOL     OW29359   0.264   3.649  11.254 -0.2576 -0.4544 -0.3964
 5908SOL    HW129360   0.192   3.628  11.195 -0.9500 -2.7299  1.2591
 5908SOL    HW229361   0.231   3.703  11.326 -1.8531  1.9858 -2.9689
 5909SOL     OW29362   2.104   4.610   6.868  0.2515  0.3209  0.3715
 5909SOL    HW129363   2.038   4.588   6.802  1.0998 -0.9586 -0.0597
 5909SOL    HW229364   2.189   4.586   6.832  0.2850 -0.2971  0.8448
 5910SOL     OW29365   3.288   1.905   7.388 -0.3214 -0.1151 -0.3134
 5910SOL    HW129366   3.203   1.909   7.432 -0.4014 -3.0401 -0.2153
 5910SOL    HW229367   3.304   1.811   7.378 -0.1136 -0.0481 -0.6076
 5911SOL     OW29368   2.860   4.703  10.488 -0.1875  0.2162 -0.2087
 5911SOL    HW129369   2.830   4.713  10.578 -1.0017 -3.5895 -0.0636
 5911SOL    HW229370   2.946   0.006  10.488  0.9134 -2.0842  0.9525
 5912SOL     OW29371   1.663   4.084   5.191 -0.1174  0.0477 -0.4440
 5912SOL    HW129372   1.587   4.033   5.220  0.4271 -0.6726 -0.2973
 5912SOL    HW229373   1.727   4.013   5.195 -1.4488 -1.1174  0.7120
 5913SOL     OW29374   4.418   2.893   6.276  0.1353  0.0808 -0.1309
 5913SOL    HW129375   4.367   2.824   6.235  3.5258 -1.9071 -1.0169
 5913SOL    HW229376   4.376   2.973   6.246  0.4721  0.7629  1.2027
 5914SOL     OW29377   3.069   1.286   6.188  0.5866  0.1947 -0.5395
 5914SOL    HW129378   3.147   1.288   6.244  0.4341 -0.3329 -0.2995
 5914SOL    HW229379   3.101   1.322   6.105 -1.7175  2.7383 -0.3169
 5915SOL     OW29380   2.649   3.895   4.023 -0.5094 -0.7424  0.1011
 5915SOL    HW129381   2.695   3.848   3.954 -0.2188 -0.4401  0.0898
 5915SOL    HW229382   2.582   3.831   4.047 -0.3275 -1.5036 -1.4826
 5916SOL     OW29383   1.101   0.927   5.672  0.1423 -0.1187  0.2200
 5916SOL    HW129384   1.020   0.895   5.712  0.4272 -0.6965  0.3289
 5916SOL    HW229385   1.175   0.873   5.701  0.7326  1.3615  1.5658
 5917SOL     OW29386   0.045   3.052   6.354 -0.1513 -0.2218 -0.1851
 5917SOL    HW129387   0.049   2.993   6.279 -0.1268  0.4544 -0.7160
 5917SOL    HW229388   0.043   2.989   6.427 -0.4155  1.7615  1.5114
 5918SOL     OW29389   0.967   0.624   3.220 -0.4255  0.7152 -0.2547
 5918SOL    HW129390   0.991   0.646   3.310  1.0630  0.7118 -0.6522
 5918SOL    HW229391   1.018   0.544   3.218 -0.2497  0.8739 -2.0511
 5919SOL     OW29392   4.056   0.539  13.322 -0.1016  0.5473  0.4588
 5919SOL    HW129393   4.150   0.557  13.317  0.3083 -1.2799  1.3753
 5919SOL    HW229394   4.037   0.632  13.326 -2.4704  0.0786 -0.0575
 5920SOL     OW29395   2.109   1.030   9.035  0.4799  0.1495 -0.2396
 5920SOL    HW129396   2.145   1.029   8.946  3.5851 -0.0329  1.0320
 5920SOL    HW229397   2.019   1.048   9.007 -0.0266 -2.2406 -0.1994
 5921SOL     OW29398   2.347   1.015   3.883  0.4998  0.1918 -0.1829
 5921SOL    HW129399   2.375   0.924   3.892 -1.5613 -0.2315  1.7245
 5921SOL    HW229400   2.253   1.030   3.888  0.2712 -1.0035 -0.8297
 5922SOL     OW29401   1.265   1.565   4.039 -0.3989 -0.4257  0.6560
 5922SOL    HW129402   1.188   1.588   4.090 -1.4748 -3.9123  0.5823
 5922SOL    HW229403   1.257   1.641   3.981  0.2728 -1.0665 -0.2799
 5923SOL     OW29404   2.823   2.332   8.473 -0.0848 -0.2903  0.3617
 5923SOL    HW129405   2.900   2.339   8.528  1.0324  0.6133 -1.3026
 5923SOL    HW229406   2.852   2.281   8.397 -0.6547 -1.2678  0.8025
 5924SOL     OW29407   2.781   0.792   6.310 -0.5350  0.1009  0.3341
 5924SOL    HW129408   2.842   0.858   6.278  0.9217 -2.2370 -1.7319
 5924SOL    HW229409   2.697   0.822   6.277 -0.4943  2.0822  2.0464
 5925SOL     OW29410   0.788   1.017   3.719 -0.4056  0.0075  0.2034
 5925SOL    HW129411   0.784   1.003   3.813 -0.2430  0.4862  0.2788
 5925SOL    HW229412   0.716   1.079   3.704 -1.0402 -0.7072  0.3072
 5926SOL     OW29413   2.850   3.084  10.700 -0.8465  0.0356 -0.1671
 5926SOL    HW129414   2.781   3.027  10.667 -1.5350  0.8510 -0.1359
 5926SOL    HW229415   2.932   3.042  10.674 -0.1920  0.6406  0.9047
 5927SOL     OW29416   4.175   1.861   3.935 -0.1845  0.4016 -0.7194
 5927SOL    HW129417   4.090   1.853   3.979 -0.7089 -0.6916 -1.9375
 5927SOL    HW229418   4.152   1.937   3.880  1.7916  1.4741 -0.0640
 5928SOL     OW29419   3.175   0.839   5.809 -0.1050  0.4511 -0.4268
 5928SOL    HW129420   3.241   0.789   5.857 -1.5267  0.0792  1.1455
 5928SOL    HW229421   3.219   0.923   5.802 -1.2242  0.8612 -2.6161
 5929SOL     OW29422   2.492   1.866   6.103  0.4341  0.0648  0.5934
 5929SOL    HW129423   2.451   1.800   6.047 -2.4374  1.8591  0.5802
 5929SOL    HW229424   2.520   1.815   6.179  1.9433  1.6856  1.1469
 5930SOL     OW29425   4.327   4.124  15.364 -0.3440  0.0220 -0.4648
 5930SOL    HW129426   4.250   4.082  15.402 -0.9654 -1.9168 -3.8721
 5930SOL    HW229427   4.394   4.077  15.414 -0.4995  1.9258  1.5322
 5931SOL     OW29428   3.418   0.715   3.033 -0.2577 -0.3772  0.1541
 5931SOL    HW129429   3.352   0.780   3.010 -0.1041  0.0486  0.9086
 5931SOL    HW229430   3.370   0.657   3.094 -1.1103 -0.0046 -0.1632
 5932SOL     OW29431   2.002   0.010   2.650  0.4145 -0.1846  0.5236
 5932SOL    HW129432   2.054   0.088   2.630 -2.2984  1.5234  0.1972
 5932SOL    HW229433   1.922   0.031   2.603  0.8520 -1.3040 -0.7149
 5933SOL     OW29434   2.590   2.977   2.247  0.2882 -0.5337  0.5646
 5933SOL    HW129435   2.637   3.025   2.316  3.6678 -1.4398 -1.1005
 5933SOL    HW229436   2.630   3.015   2.169 -1.7675  0.6988  0.1155
 5934SOL     OW29437   0.302   3.174   9.942 -0.2413 -0.3883 -0.3698
 5934SOL    HW129438   0.388   3.137   9.959 -0.9179 -1.0347  1.6428
 5934SOL    HW229439   0.304   3.251   9.999 -2.3335  1.4400 -2.7526
 5935SOL     OW29440   2.195   0.742   3.873 -0.0957 -0.0582  0.4578
 5935SOL    HW129441   2.280   0.727   3.915  0.4099 -0.8116 -0.8436
 5935SOL    HW229442   2.133   0.701   3.934  1.1581  0.0888  1.8178
 5936SOL     OW29443   0.202   1.670  14.971  0.3207 -0.1510  0.8996
 5936SOL    HW129444   0.209   1.694  15.064  0.0064 -0.3790  0.9816
 5936SOL    HW229445   0.126   1.710  14.930  0.4157 -0.5800  0.3040
 5937SOL     OW29446   2.586   2.854  11.029 -0.1231  0.0702  0.1037
 5937SOL    HW129447   2.643   2.918  11.072  1.1078 -0.5712 -0.5577
 5937SOL    HW229448   2.500   2.868  11.067  0.0234  0.7904  0.1743
 5938SOL     OW29449   2.869   0.877   1.366  0.1926  0.2677 -0.1928
 5938SOL    HW129450   2.879   0.820   1.442  1.9865  3.0938  1.6784
 5938SOL    HW229451   2.941   0.852   1.309 -2.5052  0.5575 -3.7030
 5939SOL     OW29452   1.556   0.574  12.059 -0.2048  0.2839  0.1188
 5939SOL    HW129453   1.539   0.518  11.983  1.8035 -0.3111  0.0827
 5939SOL    HW229454   1.535   0.662  12.029 -0.7516 -0.0456 -0.4763
 5940SOL     OW29455   0.581   4.138   4.438  0.0473 -0.3494  0.4053
 5940SOL    HW129456   0.542   4.225   4.431 -0.7877 -0.6877  0.8457
 5940SOL    HW229457   0.638   4.157   4.513 -1.4937 -1.2495  1.8011
 5941SOL     OW29458   2.139   3.671   1.580 -0.5688 -0.2705  0.5123
 5941SOL    HW129459   2.173   3.643   1.665 -0.4352 -0.1539  0.4971
 5941SOL    HW229460   2.045   3.652   1.589 -0.6387 -0.6073 -0.8370
 5942SOL     OW29461   0.553   4.258   7.327 -0.4407 -0.1487  0.1704
 5942SOL    HW129462   0.567   4.284   7.418 -0.0028  1.0920 -0.2477
 5942SOL    HW229463   0.577   4.166   7.330  0.3814  0.0557 -0.0341
 5943SOL     OW29464   2.571   3.284   2.653  0.7296 -0.1172  0.2857
 5943SOL    HW129465   2.583   3.286   2.748  0.0845  0.9611  0.3479
 5943SOL    HW229466   2.476   3.281   2.638  0.8645 -0.2280 -0.5703
 5944SOL     OW29467   3.133   1.465   7.044 -0.4008  0.3028 -0.2875
 5944SOL    HW129468   3.115   1.401   7.112  0.7354  1.0833  0.7384
 5944SOL    HW229469   3.203   1.519   7.080  1.7275 -2.7358  0.1858
 5945SOL     OW29470   0.886   3.629   4.701  0.0253  0.4373  0.6374
 5945SOL    HW129471   0.844   3.716   4.701 -2.1720 -0.6174  0.5099
 5945SOL    HW229472   0.846   3.583   4.628 -0.4950  2.3550 -0.3028
 5946SOL     OW29473   2.778   3.052   5.173  0.4312  1.1623  0.4983
 5946SOL    HW129474   2.710   3.032   5.238  1.0665 -3.3688 -0.1818
 5946SOL    HW229475   2.769   3.146   5.161 -0.3735  1.2379  1.6799
 5947SOL     OW29476   0.672   2.664   6.295  0.2956 -0.1642 -0.1672
 5947SOL    HW129477   0.681   2.759   6.291 -0.8435 -0.0662 -0.2406
 5947SOL    HW229478   0.682   2.651   6.200  0.1876  2.4501 -0.5307
 5948SOL     OW29479   4.712   1.966   7.257 -0.1157 -0.1141 -0.4180
 5948SOL    HW129480   4.626   1.966   7.215 -0.5371  2.2261  0.4001
 5948SOL    HW229481   0.024   1.912   7.197  2.2422  1.5880  0.0649
 5949SOL     OW29482   1.522   1.940   8.685 -0.3948 -0.5447 -0.4574
 5949SOL    HW129483   1.533   2.035   8.686 -0.1566 -0.5920  1.2948
 5949SOL    HW229484   1.431   1.939   8.716  0.5798  1.5000  2.4448
 5950SOL     OW29485   0.947   0.338   1.955  0.1099 -0.1338  0.5532
 5950SOL    HW129486   1.041   0.322   1.947  1.2316  5.2791  2.3882
 5950SOL    HW229487   0.909   0.257   1.923 -1.5650  0.3156  1.4277
 5951SOL     OW29488   3.634   4.152   1.174 -0.2006  0.2035  0.4076
 5951SOL    HW129489   3.623   4.114   1.261  0.6909 -0.7070  0.1270
 5951SOL    HW229490   3.673   4.239   1.180 -0.0514  0.1628 -0.0259
 5952SOL     OW29491   0.488   4.065  14.003 -0.1340 -0.0453 -0.1693
 5952SOL    HW129492   0.469   4.060  13.909 -2.0508  0.5844  0.1908
 5952SOL    HW229493   0.462   4.155  14.022  0.2704  0.0470 -0.0452
 5953SOL     OW29494   3.499   0.343   0.224 -0.5118  0.3354 -0.0744
 5953SOL    HW129495   3.572   0.351   0.286 -0.7064  1.8078 -0.0220
 5953SOL    HW229496   3.552   0.362   0.147  2.4305 -0.0841  1.8298
 5954SOL     OW29497   3.826   0.085   4.636 -0.0957 -0.0004  0.4075
 5954SOL    HW129498   3.852   0.116   4.722 -1.0549  0.1869  0.6294
 5954SOL    HW229499   3.820   0.167   4.586 -2.4408 -0.6360 -0.3443
 5955SOL     OW29500   2.080   2.771   2.002  0.0778  0.1797 -0.1920
 5955SOL    HW129501   2.120   2.772   2.089 -0.0452 -1.8633 -0.1099
 5955SOL    HW229502   1.990   2.765   2.033 -0.0195  0.1243 -0.4857
 5956SOL     OW29503   2.343   4.177  12.863  0.3075  0.1570 -0.3034
 5956SOL    HW129504   2.252   4.192  12.836 -0.3588 -1.0029  1.2921
 5956SOL    HW229505   2.388   4.178  12.778  2.1284  0.6938  0.6683
 5957SOL     OW29506   0.777   0.054   1.240 -0.2748 -0.4198 -0.2345
 5957SOL    HW129507   0.821   4.734   1.178 -0.6174 -0.9656  0.0452
 5957SOL    HW229508   0.856   0.095   1.275  0.2837 -0.9629 -0.8674
 5958SOL     OW29509   1.667   1.753   2.012  0.1859  0.1424 -0.5989
 5958SOL    HW129510   1.604   1.723   2.078  0.0582 -0.0896 -0.8232
 5958SOL    HW229511   1.611   1.792   1.944  0.2423  2.2215  0.5480
 5959SOL     OW29512   2.690   2.446   3.540  0.3069 -0.4842  0.3917
 5959SOL    HW129513   2.750   2.452   3.466  1.0449 -1.0809  0.9386
 5959SOL    HW229514   2.659   2.536   3.546  1.3327 -0.1688  1.0928
 5960SOL     OW29515   0.743   0.368   0.097 -0.8903  0.0208 -0.3765
 5960SOL    HW129516   0.656   0.391   0.129 -0.3786 -1.1666  1.8472
 5960SOL    HW229517   0.770   0.327   0.179 -2.0552  0.1909  0.0852
 5961SOL     OW29518   2.733   3.184   5.805  0.3921  0.7146  0.1825
 5961SOL    HW129519   2.657   3.238   5.783 -0.5312 -0.3828  0.6805
 5961SOL    HW229520   2.751   3.152   5.716  0.8023 -0.3685  0.6502
 5962SOL     OW29521   2.520   3.717   1.101 -0.1408 -0.1222  1.1306
 5962SOL    HW129522   2.505   3.808   1.074 -0.5138  0.1331  2.2033
 5962SOL    HW229523   2.462   3.721   1.177  0.7546  1.2753  1.7236
 5963SOL     OW29524   1.931   2.732   4.657  0.4437 -0.3350 -0.6434
 5963SOL    HW129525   2.026   2.718   4.663  0.4573  0.3008  0.6142
 5963SOL    HW229526   1.919   2.750   4.750 -0.3109 -0.6100 -0.6923
 5964SOL     OW29527   2.277   4.546   7.182 -0.1549  0.3266  0.0569
 5964SOL    HW129528   2.357   4.570   7.229 -0.2379 -1.0939  0.9352
 5964SOL    HW229529   2.302   4.517   7.094 -1.1004  2.7315 -1.0166
 5965SOL     OW29530   0.371   4.162   2.627 -0.3053 -0.2036 -0.5761
 5965SOL    HW129531   0.334   4.161   2.715 -2.1716 -0.0603 -1.3495
 5965SOL    HW229532   0.320   4.234   2.589 -1.5708 -1.7334 -1.7663
 5966SOL     OW29533   1.156   2.958   6.625 -0.0974 -0.0979  0.3846
 5966SOL    HW129534   1.156   2.864   6.642  0.8193  0.2698  2.4663
 5966SOL    HW229535   1.249   2.979   6.626 -0.5641  1.9005  2.6601
 5967SOL     OW29536   0.651   0.231   4.582 -0.0912  0.0758  0.9165
 5967SOL    HW129537   0.626   0.256   4.671 -0.3818 -0.7884  1.0765
 5967SOL    HW229538   0.636   0.316   4.540  1.8170 -0.2952 -0.5106
 5968SOL     OW29539   2.384   4.482   1.689 -0.1426  0.1159 -0.1647
 5968SOL    HW129540   2.349   4.468   1.601  0.0553 -2.7421  0.2141
 5968SOL    HW229541   2.393   4.577   1.700  0.2939  0.1155 -0.5399
 5969SOL     OW29542   3.798   2.199   1.753 -0.1935  0.4776 -0.2484
 5969SOL    HW129543   3.799   2.177   1.846 -0.1589 -0.3248 -0.4395
 5969SOL    HW229544   3.892   2.192   1.735 -0.5142  2.8666 -3.0132
 5970SOL     OW29545   3.544   1.694  17.753  0.4829  0.1160 -0.4935
 5970SOL    HW129546   3.627   1.646  17.747 -0.2753 -1.2802  0.4494
 5970SOL    HW229547   3.522   1.724  17.664 -1.5696  1.0557  0.3469
 5971SOL     OW29548   3.436   3.744   6.334 -0.3491  0.8625  0.4331
 5971SOL    HW129549   3.507   3.806   6.350 -1.1099  1.1203  2.9046
 5971SOL    HW229550   3.453   3.730   6.241 -0.2759 -0.3296  0.6242
 5972SOL     OW29551   1.008   3.802   8.843 -0.1409 -0.3139 -0.0066
 5972SOL    HW129552   1.009   3.784   8.937  3.5092 -0.4877 -0.0814
 5972SOL    HW229553   1.084   3.860   8.841 -0.9097  0.7101  0.6479
 5973SOL     OW29554   2.696   4.494   2.273 -0.0710  0.1388  0.1419
 5973SOL    HW129555   2.658   4.410   2.247 -0.8864  0.4086  0.4700
 5973SOL    HW229556   2.763   4.459   2.332  1.0009  1.5622 -0.2127
 5974SOL     OW29557   4.636   0.366  15.603  0.5858  0.2468 -0.2757
 5974SOL    HW129558   4.636   0.462  15.600 -0.8627  0.2302 -1.0972
 5974SOL    HW229559   4.718   0.359  15.651  0.5082  1.9377  0.1272
 5975SOL     OW29560   3.102   0.159   8.839  0.1731 -0.8143  0.5260
 5975SOL    HW129561   3.184   0.191   8.801  1.2411 -1.8323  1.9702
 5975SOL    HW229562   3.107   0.067   8.814 -1.6578 -0.1841 -2.2392
 5976SOL     OW29563   4.169   1.699   3.446  0.2551 -0.3235  0.0067
 5976SOL    HW129564   4.226   1.751   3.389 -1.3840  0.5169 -0.8710
 5976SOL    HW229565   4.135   1.630   3.387 -0.3879 -0.3097  0.3553
 5977SOL     OW29566   0.311   1.890   6.375 -0.3883  0.3167 -0.6998
 5977SOL    HW129567   0.337   1.798   6.368  2.1534  1.1716 -2.4956
 5977SOL    HW229568   0.265   1.883   6.458 -0.5249 -1.3304 -0.9050
 5978SOL     OW29569   2.231   1.444   5.401  0.0152  0.2620 -0.0377
 5978SOL    HW129570   2.288   1.395   5.462  2.3097  1.4569 -1.2353
 5978SOL    HW229571   2.225   1.383   5.328 -0.4540 -0.6165  0.7247
 5979SOL     OW29572   0.116   3.651  15.546  0.1431 -0.9165  0.2441
 5979SOL    HW129573   0.205   3.646  15.583  1.2432  0.1863 -2.2426
 5979SOL    HW229574   0.064   3.673  15.623  0.0352  1.3420 -0.4531
 5980SOL     OW29575   2.420   3.596   3.317 -0.1861  0.3028  0.5425
 5980SOL    HW129576   2.453   3.506   3.305 -2.0342 -0.0429 -2.0413
 5980SOL    HW229577   2.446   3.636   3.234  2.3671  1.3258  1.8274
 5981SOL     OW29578   1.690   2.367  15.385 -0.9681  0.2114 -0.2024
 5981SOL    HW129579   1.634   2.350  15.461 -0.3674  1.0196  0.4115
 5981SOL    HW229580   1.726   2.451  15.413 -0.1195 -0.9433  2.1831
 5982SOL     OW29581   1.714   3.549   8.788 -0.2236 -0.1064 -0.8816
 5982SOL    HW129582   1.699   3.516   8.877 -0.4509  0.5162 -0.6847
 5982SOL    HW229583   1.662   3.628   8.802  2.2726  1.6072 -1.3445
 5983SOL     OW29584   3.933   2.445  17.084  0.1123 -0.3199  0.0381
 5983SOL    HW129585   3.963   2.438  17.174  1.7025  0.6987 -0.4090
 5983SOL    HW229586   3.869   2.374  17.073  0.5455 -0.3202 -2.4810
 5984SOL     OW29587   2.065   3.300  15.062  0.1752  0.0225  0.1571
 5984SOL    HW129588   2.142   3.295  15.118 -1.1754 -0.8228  1.9129
 5984SOL    HW229589   2.032   3.388  15.081 -1.4639 -0.3429 -1.0306
 5985SOL     OW29590   1.863   2.636   6.415  0.0772  0.4389 -0.1382
 5985SOL    HW129591   1.897   2.546   6.422  0.0952  0.6213  1.8783
 5985SOL    HW229592   1.847   2.654   6.507 -0.5781  0.9716 -0.3581
 5986SOL     OW29593   0.489   0.100   5.854  0.0835 -0.0412 -0.1687
 5986SOL    HW129594   0.544   0.152   5.911 -1.3491 -0.7013  1.8219
 5986SOL    HW229595   0.556   0.084   5.788 -0.4584 -1.4998 -0.3861
 5987SOL     OW29596   2.746   1.912   4.984 -0.0934 -0.1260 -0.2417
 5987SOL    HW129597   2.665   1.958   4.964 -0.1689  1.0743  2.7581
 5987SOL    HW229598   2.789   1.894   4.901 -1.2269 -0.2611 -0.7921
 5988SOL     OW29599   1.420   3.913   0.885  0.0801 -0.0008 -0.5983
 5988SOL    HW129600   1.465   3.852   0.826  1.3147  1.4875 -1.1824
 5988SOL    HW229601   1.491   3.925   0.948 -1.1520 -1.5751  1.0693
 5989SOL     OW29602   0.148   3.507  12.471  0.7891  0.0302 -0.7578
 5989SOL    HW129603   0.170   3.600  12.469 -0.1422  0.2730  0.1736
 5989SOL    HW229604   0.154   3.483  12.564 -0.5592  3.0337  0.1049
 5990SOL     OW29605   4.654   4.181  16.834  0.1864 -0.3737  0.7142
 5990SOL    HW129606   4.709   4.247  16.792  0.5643 -0.3660  1.2394
 5990SOL    HW229607   4.599   4.157  16.759  1.5884  0.5662 -0.6223
 5991SOL     OW29608   2.892   2.868   8.156  0.5911  0.4726 -0.5193
 5991SOL    HW129609   2.934   2.789   8.122 -2.4054 -1.8511  1.1685
 5991SOL    HW229610   2.891   2.920   8.076 -1.7130  1.3423  0.0755
 5992SOL     OW29611   2.701   1.693   8.230 -0.3601  0.2101 -0.2394
 5992SOL    HW129612   2.778   1.646   8.200  0.2563  0.9334  0.1950
 5992SOL    HW229613   2.633   1.652   8.176 -1.0329  2.1366 -0.8709
 5993SOL     OW29614   2.375   4.053   0.119  0.3577  0.3828 -0.0208
 5993SOL    HW129615   2.450   3.993   0.112 -0.7370 -0.8395 -1.2111
 5993SOL    HW229616   2.410   4.121   0.176 -1.0814  1.1080 -0.0167
 5994SOL     OW29617   3.498   1.435  13.609  0.0048 -0.4463  0.5142
 5994SOL    HW129618   3.480   1.375  13.682  2.8366 -1.1630  0.6343
 5994SOL    HW229619   3.551   1.505  13.645 -3.2943  1.3393  1.9090
 5995SOL     OW29620   4.509   4.685   0.360  0.7070  0.0335 -0.1211
 5995SOL    HW129621   4.489   0.029   0.317  2.4491  0.0524 -0.8786
 5995SOL    HW229622   4.539   4.624   0.293  0.6727 -0.2363  0.1057
 5996SOL     OW29623   1.398   2.450   3.577 -0.3667 -0.5322 -0.8285
 5996SOL    HW129624   1.462   2.521   3.581 -0.9810  0.0185 -0.8078
 5996SOL    HW229625   1.434   2.393   3.508 -1.4455 -0.7474 -1.2162
 5997SOL     OW29626   1.065   4.276   6.834 -0.8322  0.0733  0.3569
 5997SOL    HW129627   1.136   4.214   6.817 -0.7124  0.8111 -1.7484
 5997SOL    HW229628   1.000   4.215   6.869  0.3177 -0.1593  2.0999
 5998SOL     OW29629   0.365   2.282   4.350  0.3532 -0.5411 -0.2752
 5998SOL    HW129630   0.352   2.210   4.288 -1.5128 -0.8876  0.5298
 5998SOL    HW229631   0.294   2.269   4.413 -0.2528 -0.1772 -0.8776
 5999SOL     OW29632   3.864   0.011   5.207  0.2072 -0.0911 -0.2838
 5999SOL    HW129633   3.841   4.673   5.259  0.4557 -0.3922 -0.6217
 5999SOL    HW229634   3.846   4.719   5.118  0.5979 -0.2994 -0.2875
 6000SOL     OW29635   4.245   3.793   7.391 -0.4400  0.0440 -0.0733
 6000SOL    HW129636   4.208   3.857   7.451  1.1892  0.0473  0.9142
 6000SOL    HW229637   4.243   3.849   7.313  3.3338 -0.8609 -0.8191
 6001SOL     OW29638   4.497   2.595   0.112 -0.1071  0.0991 -0.7479
 6001SOL    HW129639   4.573   2.571   0.164 -1.0596 -3.0542 -0.7758
 6001SOL    HW229640   4.535   2.650   0.043  1.7706  0.9100  0.9557
 6002SOL     OW29641   3.745   1.366   5.674  0.2589 -0.5717  0.5184
 6002SOL    HW129642   3.743   1.337   5.583  1.2577  0.4238  0.1855
 6002SOL    HW229643   3.753   1.286   5.727 -0.5428 -1.3028 -0.4541
 6003SOL     OW29644   4.717   4.180  12.389 -0.0033  0.5236  0.8626
 6003SOL    HW129645   4.714   4.273  12.410  0.8989  0.7668 -0.0529
 6003SOL    HW229646   4.630   4.156  12.358  0.2381  0.0804  0.5058
 6004SOL     OW29647   2.373   1.607   4.995  0.6014  0.3467  0.2273
 6004SOL    HW129648   2.361   1.611   5.090  4.0198  1.8732  0.5789
 6004SOL    HW229649   2.459   1.647   4.991  0.4290  0.5634 -1.1028
 6005SOL     OW29650   3.781   2.221  14.312  0.1681 -0.4206 -0.3763
 6005SOL    HW129651   3.745   2.195  14.397  0.8375  1.3324  0.4477
 6005SOL    HW229652   3.863   2.263  14.337 -1.0916  0.5030  2.2292
 6006SOL     OW29653   2.205   4.356   6.372  0.3914 -0.7011  0.0592
 6006SOL    HW129654   2.114   4.331   6.386  0.5656  0.6157  3.6268
 6006SOL    HW229655   2.199   4.431   6.313  0.2293 -0.2548  0.6347
 6007SOL     OW29656   0.851   1.997   5.206  0.1550 -0.2237  0.2378
 6007SOL    HW129657   0.828   1.904   5.212  3.4566 -1.0187  0.6774
 6007SOL    HW229658   0.905   1.990   5.127  1.0780  0.2038  0.8339
 6008SOL     OW29659   1.413   0.627   1.649  0.5044 -0.1857 -0.7199
 6008SOL    HW129660   1.431   0.632   1.743 -0.9024  1.2104 -0.5188
 6008SOL    HW229661   1.337   0.569   1.651 -0.1975  0.7106 -1.1674
 6009SOL     OW29662   3.962   0.172   7.711  0.0437 -0.1087 -0.0916
 6009SOL    HW129663   3.892   0.120   7.750  0.4127 -0.8445 -0.4103
 6009SOL    HW229664   4.013   0.106   7.665 -0.4280 -0.8900  0.5034
 6010SOL     OW29665   0.390   1.953   3.147  0.1042  0.4662 -0.3149
 6010SOL    HW129666   0.398   2.047   3.128 -1.5688  0.1451 -2.6297
 6010SOL    HW229667   0.402   1.964   3.241 -0.5154 -1.1541 -0.0447
 6011SOL     OW29668   3.257   3.000  17.282 -0.3162  0.3017  0.0554
 6011SOL    HW129669   3.311   3.020  17.358  0.2643 -0.5673 -0.1308
 6011SOL    HW229670   3.204   2.934  17.327 -1.3331  1.9780  1.3489
 6012SOL     OW29671   1.706   3.809  13.314 -0.3480 -0.0653 -0.5330
 6012SOL    HW129672   1.727   3.749  13.242 -1.0793  0.1754 -0.9454
 6012SOL    HW229673   1.655   3.747  13.367 -0.0191 -0.3795 -0.5785
 6013SOL     OW29674   1.837   3.961  15.399 -0.0409  0.4986 -0.4565
 6013SOL    HW129675   1.815   4.052  15.383 -0.7446  0.3855 -0.1404
 6013SOL    HW229676   1.820   3.968  15.493 -0.3471  1.5330 -0.5905
 6014SOL     OW29677   4.552   4.227   4.266 -0.2353 -0.0359 -0.4413
 6014SOL    HW129678   4.611   4.288   4.309  0.1803 -0.2159 -0.7550
 6014SOL    HW229679   4.598   4.144   4.275 -1.4250 -0.7942 -1.3709
 6015SOL     OW29680   0.541   2.478   8.225 -0.1640  0.2076  0.1367
 6015SOL    HW129681   0.565   2.470   8.133 -0.9243 -1.4927  0.0843
 6015SOL    HW229682   0.450   2.449   8.228  0.2387 -0.9602  1.7476
 6016SOL     OW29683   0.097   2.220   8.837 -0.2981  0.0599 -0.3123
 6016SOL    HW129684   0.049   2.194   8.758  0.2996  1.7005 -1.2213
 6016SOL    HW229685   0.043   2.283   8.883 -1.4357 -1.3907  0.3438
 6017SOL     OW29686   1.823   1.275  13.804 -0.7286  0.4660  0.4527
 6017SOL    HW129687   1.899   1.227  13.837 -0.2806 -0.4740 -1.9521
 6017SOL    HW229688   1.844   1.279  13.711 -0.7279  1.3317  0.4935
 6018SOL     OW29689   1.922   2.813   5.187 -0.4782 -0.5055 -0.0851
 6018SOL    HW129690   1.845   2.864   5.212 -0.3960 -0.1648 -0.5226
 6018SOL    HW229691   1.983   2.839   5.256 -3.4823  0.0378  2.3708
 6019SOL     OW29692   2.824   1.057  15.638  0.3811 -0.0197  0.7763
 6019SOL    HW129693   2.903   1.068  15.586  0.4528 -0.0994  0.8676
 6019SOL    HW229694   2.838   1.130  15.698 -2.7178  0.6377  0.7060
 6020SOL     OW29695   2.024   4.187  16.582  0.0954 -0.3670 -0.2343
 6020SOL    HW129696   1.976   4.108  16.555 -0.6324 -0.2441  0.7116
 6020SOL    HW229697   2.032   4.222  16.493  2.1311  0.4392  0.2655
 6021SOL     OW29698   4.647   1.284   2.879 -0.2853 -0.3939 -0.5543
 6021SOL    HW129699   4.726   1.281   2.932  0.0718  2.9642 -0.8959
 6021SOL    HW229700   4.582   1.232   2.925 -0.5381 -0.6816 -1.2329
 6022SOL     OW29701   2.482   0.262   5.079  0.4484 -0.0987 -0.7168
 6022SOL    HW129702   2.396   0.221   5.085  0.7117 -0.3489  1.5956
 6022SOL    HW229703   2.478   0.335   5.140  0.7773 -0.3474 -0.3962
 6023SOL     OW29704   1.484   2.852   8.949  0.0556 -0.5251  0.0639
 6023SOL    HW129705   1.448   2.777   8.901 -0.0208  0.5806 -1.6300
 6023SOL    HW229706   1.398   2.892   8.961  0.7007  0.4728  1.3380
 6024SOL     OW29707   0.059   0.604   3.521  0.4521  0.0751  0.5064
 6024SOL    HW129708   0.023   0.517   3.538 -2.0932  1.5426  2.5865
 6024SOL    HW229709   0.138   0.582   3.471 -0.8921  4.0293 -3.3962
 6025SOL     OW29710   4.577   1.138   5.660 -0.1934 -0.4980  0.0602
 6025SOL    HW129711   4.502   1.160   5.714 -0.4809 -2.1534  0.3348
 6025SOL    HW229712   4.550   1.166   5.573 -1.1531 -0.1412  0.4799
 6026SOL     OW29713   2.483   2.875   4.510  0.6685 -0.2603 -0.1431
 6026SOL    HW129714   2.413   2.810   4.517 -0.5931  0.9679 -1.5239
 6026SOL    HW229715   2.509   2.860   4.419  1.0507  1.3809 -0.3054
 6027SOL     OW29716   1.586   4.122   4.913 -0.1391 -0.6923  0.1803
 6027SOL    HW129717   1.618   4.130   5.003 -0.3477  0.5913  0.1474
 6027SOL    HW229718   1.492   4.139   4.925  0.3471  1.0496  1.6291
 6028SOL     OW29719   1.364   0.878   0.456  0.1600  0.3199  0.2192
 6028SOL    HW129720   1.429   0.933   0.411  1.4391 -1.4968 -0.1422
 6028SOL    HW229721   1.295   0.883   0.391  0.5356  0.9435 -0.1376
 6029SOL     OW29722   4.127   4.307   8.160 -0.4695  0.1567  0.0563
 6029SOL    HW129723   4.059   4.256   8.115 -0.3758  0.5830 -0.5701
 6029SOL    HW229724   4.151   4.362   8.086 -2.1643 -0.2261 -0.7732
 6030SOL     OW29725   0.317   1.104   5.051  0.2735 -0.1985 -0.3015
 6030SOL    HW129726   0.404   1.095   5.013  0.4987  3.6028 -0.7615
 6030SOL    HW229727   0.271   1.049   4.987  1.4655 -2.1384  0.5360
 6031SOL     OW29728   0.259   0.818   2.641 -0.5555  0.2155  0.5989
 6031SOL    HW129729   0.341   0.862   2.662 -0.4331  0.0142  0.5492
 6031SOL    HW229730   0.281   0.725   2.629 -3.7433 -0.5346  0.5693
 6032SOL     OW29731   2.395   1.750   3.740  0.8030 -0.0657  0.0918
 6032SOL    HW129732   2.337   1.826   3.733  2.4334  1.1765  0.1152
 6032SOL    HW229733   2.475   1.785   3.701 -1.5753  3.2058 -1.9141
 6033SOL     OW29734   0.599   2.443   1.194  0.2805 -0.1853  0.2795
 6033SOL    HW129735   0.637   2.372   1.246  0.0137  1.2427  2.4663
 6033SOL    HW229736   0.558   2.405   1.117  0.9921 -1.7204  0.6583
 6034SOL     OW29737   0.977   4.658   1.069  0.7118 -0.1528 -0.0509
 6034SOL    HW129738   1.005   0.008   1.091 -1.6068 -0.0317  2.3964
 6034SOL    HW229739   0.952   4.659   0.976  1.4620  1.3398 -0.2306
 6035SOL     OW29740   4.285   0.721  12.782  0.1210  0.1816 -0.1460
 6035SOL    HW129741   4.257   0.793  12.837  1.2948  1.1453 -0.8214
 6035SOL    HW229742   4.209   0.700  12.728 -0.7716 -0.1832  1.2472
 6036SOL     OW29743   2.943   1.050   1.723 -0.3008 -0.0306  0.4714
 6036SOL    HW129744   2.864   1.009   1.757 -0.2494 -0.7289 -0.2424
 6036SOL    HW229745   2.943   1.024   1.631  2.0032  0.4395  0.3231
 6037SOL     OW29746   3.848   1.878  15.247  0.5500 -0.2779 -0.0982
 6037SOL    HW129747   3.812   1.835  15.169 -0.3933  3.2954 -1.6359
 6037SOL    HW229748   3.774   1.876  15.308  1.6364 -0.1315  1.1981
 6038SOL     OW29749   1.513   0.274   8.792  0.2895  0.4441  0.0091
 6038SOL    HW129750   1.478   0.363   8.794 -2.8337 -0.8234  1.6894
 6038SOL    HW229751   1.431   0.231   8.771 -0.4719  1.3561  1.1277
 6039SOL     OW29752   3.849   1.776   7.702 -0.7689  0.2906  0.2636
 6039SOL    HW129753   3.833   1.712   7.632  2.6343 -1.7059  1.2811
 6039SOL    HW229754   3.783   1.762   7.770 -0.5713 -4.0512 -0.4348
 6040SOL     OW29755   4.545   1.017   8.684 -0.7521  0.1460  0.0417
 6040SOL    HW129756   4.467   0.973   8.649 -1.8245  0.7469  1.6625
 6040SOL    HW229757   4.526   1.017   8.778 -1.8906  0.4936 -0.1765
 6041SOL     OW29758   1.017   3.603   4.390 -0.7907 -0.0325 -0.4639
 6041SOL    HW129759   1.111   3.606   4.374 -0.7114  0.3432  0.0510
 6041SOL    HW229760   0.990   3.687   4.352  0.8597  1.0856  0.8201
 6042SOL     OW29761   4.452   4.128  12.850 -0.6063 -0.3592  0.4712
 6042SOL    HW129762   4.411   4.131  12.936  1.1759  1.2012  1.2812
 6042SOL    HW229763   4.440   4.219  12.821  2.6069 -0.3525 -0.8779
 6043SOL     OW29764   0.598   1.609   6.518  0.0999  0.1890 -0.3207
 6043SOL    HW129765   0.622   1.642   6.432 -1.5509  1.0623 -0.4442
 6043SOL    HW229766   0.596   1.683   6.579  1.4416 -0.4361  0.5026
 6044SOL     OW29767   1.529   0.933   8.422 -0.5356  0.3548 -0.3495
 6044SOL    HW129768   1.557   0.978   8.342 -1.1134  0.3005 -0.5905
 6044SOL    HW229769   1.549   0.841   8.406 -1.7014 -0.0961  0.7233
 6045SOL     OW29770   3.124   1.650   5.735 -0.1492 -0.1668 -0.0828
 6045SOL    HW129771   3.035   1.682   5.750 -0.5790 -0.9982 -0.8934
 6045SOL    HW229772   3.170   1.700   5.803 -1.2487 -0.4465  0.8638
 6046SOL     OW29773   1.028   1.328   7.971  0.2322 -0.2394 -0.1035
 6046SOL    HW129774   1.041   1.248   7.921 -1.8281 -1.0987  0.7259
 6046SOL    HW229775   0.963   1.300   8.035 -0.6017 -0.5394 -1.0781
 6047SOL     OW29776   0.409   2.139   7.625 -0.1180  0.1897 -0.0196
 6047SOL    HW129777   0.403   2.232   7.606 -3.2368  0.0863  0.5312
 6047SOL    HW229778   0.417   2.104   7.536 -1.8386  0.7306 -0.3742
 6048SOL     OW29779   2.199   2.324   5.238  0.4998 -0.9507 -0.9005
 6048SOL    HW129780   2.241   2.388   5.181 -1.9612 -1.1832 -2.9607
 6048SOL    HW229781   2.121   2.299   5.189 -1.1582  1.2360  0.6529
 6049SOL     OW29782   1.947   3.625  14.086  0.2899  0.0807 -0.2850
 6049SOL    HW129783   2.033   3.585  14.078  0.2030 -0.4847  1.7170
 6049SOL    HW229784   1.928   3.603  14.177  2.4977  1.7962  0.6050
 6050SOL     OW29785   3.001   3.321   7.480  0.0699  0.3033 -0.1776
 6050SOL    HW129786   2.958   3.368   7.409  1.0201 -0.9570 -1.5800
 6050SOL    HW229787   3.057   3.267   7.426 -1.3284  0.4324 -1.7595
 6051SOL     OW29788   3.703   3.155   9.613 -0.3379  0.0993  0.3767
 6051SOL    HW129789   3.623   3.185   9.655  0.0657 -0.0076  1.2096
 6051SOL    HW229790   3.661   3.079   9.572  2.8189 -0.8305 -1.1904
 6052SOL     OW29791   1.860   2.288   3.244  0.1434  0.2265  0.2443
 6052SOL    HW129792   1.792   2.221   3.250  0.6986 -0.4850 -1.5932
 6052SOL    HW229793   1.821   2.333   3.169  0.0183 -1.5326 -0.7610
 6053SOL     OW29794   1.592   3.832   6.683  0.2947  0.3039  0.1730
 6053SOL    HW129795   1.598   3.920   6.646  0.2019  0.0026 -0.5640
 6053SOL    HW229796   1.520   3.783   6.642  0.3621 -2.1393  2.9413
 6054SOL     OW29797   4.279   1.316  11.509 -0.7836 -0.4914 -0.0264
 6054SOL    HW129798   4.281   1.411  11.497  3.1632 -0.2995  2.1783
 6054SOL    HW229799   4.332   1.310  11.589  0.8701 -0.2010 -1.1206
 6055SOL     OW29800   4.101   0.349   6.963 -0.2536  0.1510 -0.0918
 6055SOL    HW129801   4.022   0.309   6.999 -1.2233  0.7877 -1.5412
 6055SOL    HW229802   4.135   0.264   6.934  1.7561  1.1785 -0.7235
 6056SOL     OW29803   3.068   0.375   5.798 -0.0218  0.0930  0.2301
 6056SOL    HW129804   3.163   0.375   5.808  0.0493  1.6913 -0.4093
 6056SOL    HW229805   3.057   0.291   5.753 -0.0341 -1.1385  2.5712
 6057SOL     OW29806   1.730   0.270   8.982 -0.1760  0.2527 -0.2583
 6057SOL    HW129807   1.733   0.180   9.015  2.8942  0.6144  0.4128
 6057SOL    HW229808   1.655   0.262   8.923 -1.7984 -1.0551  2.0049
 6058SOL     OW29809   0.326   2.867   7.191 -0.0477 -0.6154 -0.0347
 6058SOL    HW129810   0.271   2.938   7.159 -0.1142 -0.8901 -0.5400
 6058SOL    HW229811   0.273   2.792   7.163  1.1111 -1.5646  0.2928
 6059SOL     OW29812   1.364   0.601   4.068 -0.2247 -0.1172 -0.3908
 6059SOL    HW129813   1.271   0.593   4.045 -0.4187  1.2442 -0.0552
 6059SOL    HW229814   1.356   0.692   4.097 -0.2070 -0.4758  0.7503
 6060SOL     OW29815   1.733   4.496  15.546  0.2331 -0.1464 -0.0623
 6060SOL    HW129816   1.651   4.469  15.505 -0.6542 -0.2281  1.7753
 6060SOL    HW229817   1.731   4.592  15.554 -0.6104 -0.2952  1.4848
 6061SOL     OW29818   0.002   3.841  12.770 -0.6364 -0.8036 -0.6998
 6061SOL    HW129819   0.094   3.816  12.763 -0.9922 -2.0497 -0.8627
 6061SOL    HW229820   4.708   3.801  12.850  2.3532 -1.1225  0.3806
 6062SOL     OW29821   3.234   1.887   4.044 -0.5415 -0.0929  0.3315
 6062SOL    HW129822   3.174   1.960   4.029  0.3360  1.0455  2.4510
 6062SOL    HW229823   3.312   1.929   4.080 -1.1407 -0.2740  1.8337
 6063SOL     OW29824   4.351   1.703  14.959  0.4273  0.1947 -0.4212
 6063SOL    HW129825   4.282   1.637  14.965 -0.0758  0.8286  0.6782
 6063SOL    HW229826   4.412   1.663  15.021  0.5335  1.0436  0.0174
 6064SOL     OW29827   2.744   2.186  12.871 -0.3553  0.9698 -0.1866
 6064SOL    HW129828   2.804   2.234  12.814 -1.3479  1.7853 -0.5534
 6064SOL    HW229829   2.691   2.140  12.806 -0.7324  0.9801  0.1119
 6065SOL     OW29830   1.948   3.927   0.810  0.3356 -0.0419  0.5897
 6065SOL    HW129831   2.032   3.923   0.855  0.8360 -1.4909 -0.4706
 6065SOL    HW229832   1.983   3.955   0.725 -0.7625  1.6885  0.7011
 6066SOL     OW29833   0.002   4.335   5.396 -0.7950 -0.0656 -0.3717
 6066SOL    HW129834   4.674   4.377   5.341 -1.6632 -0.1005  0.6460
 6066SOL    HW229835   4.683   4.338   5.473 -2.6763  1.5226 -1.8369
 6067SOL     OW29836   1.909   2.628   2.508 -0.1584 -0.0514 -0.2332
 6067SOL    HW129837   1.934   2.607   2.418 -0.7788  2.1391 -0.9257
 6067SOL    HW229838   1.946   2.559   2.562  0.1043 -0.3182 -0.7584
 6068SOL     OW29839   1.641   1.126   5.602  0.4012 -0.2586 -0.2712
 6068SOL    HW129840   1.596   1.139   5.686  1.0682  1.2531 -0.1506
 6068SOL    HW229841   1.661   1.032   5.606 -1.8830 -0.7987 -1.1722
 6069SOL     OW29842   3.227   1.193   3.573  0.7385 -0.4437  0.2156
 6069SOL    HW129843   3.247   1.201   3.667 -0.2302  2.3953  0.1731
 6069SOL    HW229844   3.277   1.267   3.536  1.0415  0.1335  1.7690
 6070SOL     OW29845   2.244   1.355  13.987 -0.3546 -0.0550  0.0477
 6070SOL    HW129846   2.307   1.316  14.048  0.8379  0.8827 -0.6058
 6070SOL    HW229847   2.284   1.441  13.979 -1.4028  0.5234  1.0088
 6071SOL     OW29848   1.271   0.849  17.073  0.2018 -0.0906  0.6910
 6071SOL    HW129849   1.221   0.853  16.992 -1.3412  1.0598  1.6956
 6071SOL    HW229850   1.217   0.800  17.135 -1.3998  2.2661  1.1752
 6072SOL     OW29851   1.759   4.333   0.167  0.3834  0.0749 -0.2092
 6072SOL    HW129852   1.689   4.332   0.232  0.8792 -1.6293  0.2998
 6072SOL    HW229853   1.727   4.413   0.126  2.0053  0.6466 -0.3720
 6073SOL     OW29854   0.024   2.727   3.943  0.0309  0.0549  1.0580
 6073SOL    HW129855   0.079   2.739   4.021  1.1932 -2.1243  0.5676
 6073SOL    HW229856   0.088   2.716   3.873  0.1784 -0.6102  1.3001
 6074SOL     OW29857   0.690   0.022   3.183 -0.4817  0.0462  0.5564
 6074SOL    HW129858   0.764   4.726   3.133 -1.5026 -1.2537 -0.0559
 6074SOL    HW229859   0.647   4.687   3.225 -1.0033  1.3705  2.3420
 6075SOL     OW29860   2.665   2.539   8.842 -0.2496  0.0682  0.3053
 6075SOL    HW129861   2.676   2.602   8.771 -0.1628 -0.4397 -0.1336
 6075SOL    HW229862   2.755   2.527   8.869 -0.0631 -0.4115 -0.5144
 6076SOL     OW29863   0.085   1.930  12.020  0.0222  0.0867  0.4562
 6076SOL    HW129864   0.121   2.016  12.043  2.3130 -0.1149 -2.3749
 6076SOL    HW229865   0.140   1.877  12.078  1.2551  1.1326  0.2722
 6077SOL     OW29866   4.635   4.583   2.135  0.2216 -0.0119 -0.0199
 6077SOL    HW129867   4.573   4.621   2.073 -1.0943  1.5628  2.2573
 6077SOL    HW229868   4.614   4.490   2.139  0.3923 -0.0340  0.3025
 6078SOL     OW29869   2.156   0.588   1.941 -0.2171 -0.2763 -0.0216
 6078SOL    HW129870   2.067   0.610   1.913  0.5184  0.7005 -1.6095
 6078SOL    HW229871   2.152   0.604   2.035 -0.8387 -1.1272  0.1029
 6079SOL     OW29872   0.977   3.233  11.189  0.2558  0.4471  0.0312
 6079SOL    HW129873   1.027   3.251  11.109  1.6080  0.1444  0.7943
 6079SOL    HW229874   1.038   3.247  11.262  0.4190  1.5457 -0.3095
 6080SOL     OW29875   2.357   4.474   8.687 -0.0720  0.3487  0.2656
 6080SOL    HW129876   2.434   4.441   8.641 -0.5536 -0.0965 -0.2114
 6080SOL    HW229877   2.367   4.453   8.780  0.3716  0.1327  0.1711
 6081SOL     OW29878   2.817   3.284   7.877  0.1018 -0.3114  0.0504
 6081SOL    HW129879   2.890   3.326   7.831  0.3580  2.5745  3.0616
 6081SOL    HW229880   2.829   3.314   7.967 -0.0296 -0.2119  0.0340
 6082SOL     OW29881   3.320   0.185   3.543  0.0165  0.5880  0.2684
 6082SOL    HW129882   3.292   0.200   3.634  0.1424 -2.0555  0.7432
 6082SOL    HW229883   3.258   0.116   3.518 -0.2161  0.1298  2.0794
 6083SOL     OW29884   2.930   3.885   1.593 -0.3950 -0.1921 -0.4788
 6083SOL    HW129885   2.912   3.978   1.604  0.6971 -0.3906  2.9548
 6083SOL    HW229886   2.849   3.845   1.623 -1.0902 -0.2443 -2.4249
 6084SOL     OW29887   3.486   2.746   1.865 -0.1208 -0.5549  0.1923
 6084SOL    HW129888   3.396   2.714   1.861 -0.7102  0.8884  1.7600
 6084SOL    HW229889   3.465   2.818   1.925 -1.1265 -0.7699  0.0862
 6085SOL     OW29890   0.476   1.342   8.867 -0.2225 -0.5013  0.3293
 6085SOL    HW129891   0.463   1.420   8.812 -0.6709 -1.3682 -0.7768
 6085SOL    HW229892   0.383   1.321   8.874  0.0857 -1.9544  0.0728
 6086SOL     OW29893   1.577   4.663   7.054 -0.4482 -0.4960 -0.1546
 6086SOL    HW129894   1.522   4.676   7.131  0.8644 -0.6678  0.8195
 6086SOL    HW229895   1.649   4.609   7.088 -0.4498 -1.3138 -1.4450
 6087SOL     OW29896   0.850   3.703   7.231 -0.0127 -0.3248  0.2756
 6087SOL    HW129897   0.814   3.694   7.143  0.3059 -0.0854  0.1202
 6087SOL    HW229898   0.772   3.719   7.284  1.1256  1.1265  1.5501
 6088SOL     OW29899   0.289   3.264  12.468  0.4528  0.0559 -0.2766
 6088SOL    HW129900   0.253   3.349  12.444  2.1588  0.5831 -0.9900
 6088SOL    HW229901   0.352   3.244  12.399  0.3888 -0.2134 -0.2556
 6089SOL     OW29902   0.459   4.245   3.370  0.5831  0.4175 -0.3954
 6089SOL    HW129903   0.544   4.244   3.414  0.1355  0.6781  0.4732
 6089SOL    HW229904   0.414   4.200   3.441  0.1167 -0.1424 -1.0411
 6090SOL     OW29905   0.119   3.517  12.750  0.0702 -0.4469  0.4078
 6090SOL    HW129906   0.097   3.571  12.826 -0.8619  1.2900 -1.1010
 6090SOL    HW229907   0.069   3.438  12.773  1.1265 -1.5375 -1.0387
 6091SOL     OW29908   3.244   4.358   6.365  0.1122 -0.3332 -0.3107
 6091SOL    HW129909   3.213   4.432   6.417 -0.4635  0.7435 -2.1842
 6091SOL    HW229910   3.178   4.355   6.296 -1.6122 -1.4639  1.3733
 6092SOL     OW29911   0.776   4.614   7.339 -0.4151 -0.0814  0.1564
 6092SOL    HW129912   0.784   4.639   7.431  2.1772 -0.6637  0.0765
 6092SOL    HW229913   0.775   4.703   7.304 -1.0284 -0.0554  0.2287
 6093SOL     OW29914   1.358   4.301   7.997 -0.0916 -0.2474 -0.4948
 6093SOL    HW129915   1.421   4.233   8.023  1.3179  1.5564  0.8646
 6093SOL    HW229916   1.403   4.378   8.032 -0.2348 -0.0222 -0.8086
 6094SOL     OW29917   2.044   0.994   2.509  0.2553  0.0974  0.0365
 6094SOL    HW129918   2.075   0.905   2.524 -2.4136 -0.2584  3.3888
 6094SOL    HW229919   1.949   0.982   2.502 -0.2912  3.7684  1.1790
 6095SOL     OW29920   4.655   3.591   7.401  0.8736 -0.2833 -1.0546
 6095SOL    HW129921   4.580   3.532   7.395  1.4478 -0.8077 -3.0229
 6095SOL    HW229922   4.607   3.674   7.396  1.9390  0.5054  1.6296
 6096SOL     OW29923   1.243   3.615   3.315  0.3363  0.0489 -0.2083
 6096SOL    HW129924   1.216   3.530   3.350  0.2868  0.6578  1.2278
 6096SOL    HW229925   1.246   3.601   3.220  2.3879  0.6252 -0.2293
 6097SOL     OW29926   1.624   2.973   9.205 -0.0661 -0.4630  0.4943
 6097SOL    HW129927   1.568   2.933   9.138 -0.6406 -0.0496  0.7338
 6097SOL    HW229928   1.626   2.899   9.266 -1.9527 -0.0080  1.1050
 6098SOL     OW29929   1.281   3.129   5.889 -0.1854 -0.0973  0.2996
 6098SOL    HW129930   1.216   3.118   5.820  0.1585  0.8103 -0.1608
 6098SOL    HW229931   1.230   3.119   5.969  0.5717  0.7077  0.8778
 6099SOL     OW29932   3.527   3.922   3.491  0.4312 -0.7561  0.1422
 6099SOL    HW129933   3.620   3.912   3.475  0.1498 -0.0156 -1.9537
 6099SOL    HW229934   3.491   3.965   3.414 -0.4845 -1.4251  0.1854
 6100SOL     OW29935   2.461   2.819   2.891  0.0023  0.4964 -0.2240
 6100SOL    HW129936   2.547   2.805   2.851 -0.6460 -0.7268 -1.1700
 6100SOL    HW229937   2.412   2.827   2.809  2.2588 -4.5003 -2.0222
 6101SOL     OW29938   1.617   1.941  10.820 -0.3145  0.5998  0.2627
 6101SOL    HW129939   1.561   1.871  10.787 -0.7427 -0.0625  2.4252
 6101SOL    HW229940   1.667   1.962  10.741 -0.2527 -0.5716 -0.0132
 6102SOL     OW29941   2.128   0.558   9.095  0.0193  0.3830  0.0385
 6102SOL    HW129942   2.114   0.562   9.000  1.6598 -0.5926 -0.2492
 6102SOL    HW229943   2.133   0.653   9.108 -2.9782  0.6137 -0.3962
 6103SOL     OW29944   2.465   0.921   3.475 -0.0692  0.1741  0.4635
 6103SOL    HW129945   2.396   0.943   3.538  1.1104  1.8085  1.2154
 6103SOL    HW229946   2.473   0.998   3.418  0.4982 -0.6047 -0.4974
 6104SOL     OW29947   2.117   4.481  15.554  0.1377 -0.2079  0.7634
 6104SOL    HW129948   2.103   4.535  15.476  0.4207  0.5947  1.2704
 6104SOL    HW229949   2.077   4.534  15.623  1.0610  1.5935 -0.1064
 6105SOL     OW29950   2.231   3.201   7.066  0.2315  0.1946 -0.0935
 6105SOL    HW129951   2.285   3.193   7.145  0.1235  0.0176 -0.0381
 6105SOL    HW229952   2.149   3.224   7.109 -1.2618  0.9221 -3.2939
 6106SOL     OW29953   4.046   3.476   8.225 -0.0629  0.8517  0.0737
 6106SOL    HW129954   3.961   3.446   8.258  0.3587  2.6993  2.8917
 6106SOL    HW229955   4.033   3.474   8.131 -1.1211  2.0872  0.1907
 6107SOL     OW29956   4.079   0.879   8.722 -0.2698 -0.6958 -0.0365
 6107SOL    HW129957   3.987   0.895   8.703  0.1144 -1.3144 -2.5542
 6107SOL    HW229958   4.123   0.964   8.724 -0.2573 -0.6976 -0.1963
 6108SOL     OW29959   3.486   3.880   0.591  0.0541 -0.1571  0.3698
 6108SOL    HW129960   3.479   3.976   0.587 -0.2707 -0.1139  2.1293
 6108SOL    HW229961   3.416   3.855   0.531 -0.5304 -1.4341  1.5862
 6109SOL     OW29962   4.018   2.902   7.008  0.3921  1.3467 -0.2590
 6109SOL    HW129963   4.002   2.856   7.091  0.2491 -1.3017 -1.7531
 6109SOL    HW229964   3.926   2.917   6.987 -0.1136 -1.7452 -0.2056
 6110SOL     OW29965   1.544   4.683   8.476  0.4587 -0.0514  0.2064
 6110SOL    HW129966   1.615   4.692   8.540  1.6235  0.2411 -1.1291
 6110SOL    HW229967   1.585   4.627   8.411  2.9170  1.2698  0.6212
 6111SOL     OW29968   2.471   4.548   3.359  0.2270 -0.1835  0.4466
 6111SOL    HW129969   2.521   4.606   3.417 -0.1672  0.4044  0.2016
 6111SOL    HW229970   2.400   4.608   3.336 -0.0389 -0.8234 -0.3872
 6112SOL     OW29971   3.802   1.747   3.689 -0.0562 -0.5381  0.2034
 6112SOL    HW129972   3.742   1.691   3.737  1.0874 -0.7247  1.4318
 6112SOL    HW229973   3.874   1.684   3.687  0.0678 -0.3828 -0.2189
 6113SOL     OW29974   3.245   3.555   6.734 -0.2959  0.4301 -0.6406
 6113SOL    HW129975   3.192   3.528   6.659  0.6713 -0.7314 -0.9149
 6113SOL    HW229976   3.176   3.586   6.791  0.0945 -1.9380  1.1135
 6114SOL     OW29977   0.678   4.494  15.566 -0.1954 -0.1306 -0.2706
 6114SOL    HW129978   0.650   4.579  15.531  0.0490 -0.9866 -2.5516
 6114SOL    HW229979   0.728   4.530  15.640 -1.7346 -1.9456  1.6325
 6115SOL     OW29980   0.093   2.947   9.017 -0.1537  0.2699  0.4108
 6115SOL    HW129981   0.141   2.910   9.091 -1.8805 -0.6857  1.0406
 6115SOL    HW229982   0.064   3.035   9.042  0.8626  0.6584  0.2353
 6116SOL     OW29983   3.314   1.480   7.966  0.2191  0.1907 -0.0078
 6116SOL    HW129984   3.301   1.403   8.021 -0.1678 -0.6470 -1.2668
 6116SOL    HW229985   3.386   1.525   8.010 -0.0627 -0.7174  1.3655
 6117SOL     OW29986   3.290   0.139   9.517 -0.3933 -0.4313  0.2976
 6117SOL    HW129987   3.355   0.160   9.451 -1.0047  1.3091  0.2490
 6117SOL    HW229988   3.212   0.191   9.495 -1.9484 -1.6808  2.8570
 6118SOL     OW29989   3.356   3.719   5.011 -0.7466  0.7098 -0.4708
 6118SOL    HW129990   3.320   3.770   4.938  0.2877  2.7152  0.4176
 6118SOL    HW229991   3.407   3.651   4.966  0.9829  1.8136 -0.1795
 6119SOL     OW29992   0.821   0.719   4.587 -0.7752  0.4303 -0.6567
 6119SOL    HW129993   0.789   0.771   4.661  0.8520  1.5487 -0.7558
 6119SOL    HW229994   0.909   0.706   4.623 -1.7795  0.0743  1.6838
 6120SOL     OW29995   1.441   1.117   3.170  0.5515  0.4700 -0.2294
 6120SOL    HW129996   1.446   1.081   3.081  2.0158 -0.4243  0.2074
 6120SOL    HW229997   1.402   1.050   3.227  3.0932 -2.4066 -1.8394
 6121SOL     OW29998   1.847   2.411   5.615 -0.0170 -0.2799 -0.0099
 6121SOL    HW129999   1.902   2.365   5.678 -0.3327 -1.6451 -0.7348
 6121SOL    HW230000   1.853   2.503   5.642  0.4979 -0.3783  0.2101
 6122SOL     OW30001   2.081   2.554  14.112  0.4931 -1.3245  0.1894
 6122SOL    HW130002   2.005   2.521  14.063  0.8564 -1.0979 -0.5249
 6122SOL    HW230003   2.078   2.648  14.095 -2.5745 -1.1315  1.6641
 6123SOL     OW30004   3.335   3.605   3.801 -0.1604 -0.1516 -0.4182
 6123SOL    HW130005   3.380   3.565   3.875  1.1295  0.1285 -1.0335
 6123SOL    HW230006   3.247   3.609   3.838  1.1988 -0.4481  2.7635
 6124SOL     OW30007   4.166   2.303   3.580 -0.4662  0.1197  0.4501
 6124SOL    HW130008   4.197   2.282   3.492 -0.1350 -0.9071  0.8032
 6124SOL    HW230009   4.174   2.216   3.620 -0.9513 -0.4131 -0.6287
 6125SOL     OW30010   2.689   0.122  12.976  0.5929  0.0463  0.2401
 6125SOL    HW130011   2.760   0.062  13.000  0.9546  0.0374 -0.8485
 6125SOL    HW230012   2.718   0.210  13.001 -1.6862  0.8854 -0.0502
 6126SOL     OW30013   1.296   0.566   5.094 -0.0589  0.2680  0.1755
 6126SOL    HW130014   1.206   0.547   5.121 -0.3846  1.7574  0.1342
 6126SOL    HW230015   1.293   0.654   5.057  3.1686  1.3570  2.5227
 6127SOL     OW30016   3.057   3.962   6.895  0.2159 -0.2340 -0.8662
 6127SOL    HW130017   3.051   4.041   6.840  0.6626 -1.7632 -3.1309
 6127SOL    HW230018   3.149   3.971   6.919  0.0520  1.9393 -1.0522
 6128SOL     OW30019   3.238   2.591   1.920  0.2174  0.2962 -0.1676
 6128SOL    HW130020   3.241   2.569   2.013  0.2918 -2.3651 -0.7912
 6128SOL    HW230021   3.197   2.677   1.929 -0.1805 -0.0438  1.2170
 6129SOL     OW30022   1.276   4.434   5.768 -0.2019 -0.7199  0.2618
 6129SOL    HW130023   1.274   4.358   5.827 -0.3582 -2.0056 -1.3959
 6129SOL    HW230024   1.343   4.402   5.706 -0.8087  0.0565 -0.7837
 6130SOL     OW30025   3.629   4.652   8.334 -0.0868 -0.8379  0.6314
 6130SOL    HW130026   3.721   4.639   8.313  0.1191  0.8226  0.5209
 6130SOL    HW230027   3.630   4.617   8.423  0.6446 -2.2863  0.0552
 6131SOL     OW30028   1.100   3.184   3.855  0.3888 -0.9726  0.5582
 6131SOL    HW130029   1.098   3.279   3.863  0.7146 -0.9765  0.6839
 6131SOL    HW230030   1.037   3.149   3.919  0.5103 -2.3387 -0.0655
 6132SOL     OW30031   0.552   2.547   2.515 -0.6075 -0.2157 -0.6530
 6132SOL    HW130032   0.641   2.527   2.487 -0.0743  1.2851 -0.0470
 6132SOL    HW230033   0.497   2.485   2.468  1.2584 -2.5850  0.3136
 6133SOL     OW30034   4.387   3.266   4.638 -0.2936 -0.0232  0.4623
 6133SOL    HW130035   4.391   3.186   4.586 -1.2799 -1.1963  2.1914
 6133SOL    HW230036   4.334   3.329   4.590  0.1171 -0.4980 -0.6119
 6134SOL     OW30037   2.891   3.029  17.398 -0.1740 -0.7454 -0.2349
 6134SOL    HW130038   2.904   2.950  17.450 -0.1066 -0.3838  0.2973
 6134SOL    HW230039   2.862   2.999  17.312 -1.0345 -1.7287  0.4042
 6135SOL     OW30040   2.141   3.131   7.908 -0.0694  0.2538 -0.6428
 6135SOL    HW130041   2.088   3.208   7.886 -2.9580 -0.8809  2.3148
 6135SOL    HW230042   2.095   3.088   7.980 -2.3673  3.9924  0.1798
 6136SOL     OW30043   2.597   2.466   2.473  0.2296 -0.1529 -0.2666
 6136SOL    HW130044   2.574   2.486   2.383  2.1979  0.9577 -0.5063
 6136SOL    HW230045   2.527   2.405   2.497  1.5505 -0.8653  1.8007
 6137SOL     OW30046   2.685   0.183   9.141  0.4042  0.4543  0.0215
 6137SOL    HW130047   2.738   0.263   9.142  0.5164  0.3760  0.2928
 6137SOL    HW230048   2.749   0.134   9.193  2.0715  0.4860 -2.0137
 6138SOL     OW30049   2.034   2.204   3.455 -0.1326 -0.2490  0.3648
 6138SOL    HW130050   2.076   2.126   3.421 -0.9233 -0.0380 -1.1113
 6138SOL    HW230051   1.981   2.243   3.385 -0.4086 -0.3655  0.5106
 6139SOL     OW30052   2.724   0.101   2.068  0.0069  0.2541  0.4562
 6139SOL    HW130053   2.686   0.102   2.155 -0.4170  1.9069  0.2511
 6139SOL    HW230054   2.790   0.171   2.073  0.5090  0.0292 -3.0303
 6140SOL     OW30055   2.225   0.537   8.463  0.9008 -0.2413 -0.1998
 6140SOL    HW130056   2.189   0.472   8.523 -0.6117  1.1953  0.4638
 6140SOL    HW230057   2.150   0.547   8.404  1.5215  1.4939 -0.7128
 6141SOL     OW30058   4.277   1.168  10.794  0.1930 -0.8155 -0.5281
 6141SOL    HW130059   4.359   1.214  10.811 -0.9939  1.6737 -1.6089
 6141SOL    HW230060   4.269   1.137  10.884  1.3496 -0.1109 -0.1865
 6142SOL     OW30061   4.537   4.109   5.409  0.1379  0.0635 -0.0309
 6142SOL    HW130062   4.548   4.167   5.485  2.9127  0.7154 -0.9418
 6142SOL    HW230063   4.583   4.167   5.349 -0.8769  1.2460  0.3321
 6143SOL     OW30064   4.204   1.442   7.445 -0.0760  0.7413 -0.1677
 6143SOL    HW130065   4.139   1.510   7.459 -1.9386 -0.9506 -0.5238
 6143SOL    HW230066   4.166   1.366   7.489 -0.0247  0.3596 -0.7826
 6144SOL     OW30067   2.638   1.886   6.563  0.3511  0.7267  0.1201
 6144SOL    HW130068   2.610   1.841   6.483 -1.3278  0.9548  0.5726
 6144SOL    HW230069   2.692   1.820   6.605  1.5272  1.1609 -0.7307
 6145SOL     OW30070   4.179   3.114   7.080 -0.4832 -0.0108 -0.3731
 6145SOL    HW130071   4.274   3.105   7.072 -0.3704  2.2510 -1.8685
 6145SOL    HW230072   4.137   3.029   7.065  0.7711 -1.1366  2.6130
 6146SOL     OW30073   0.957   2.490   3.542  0.5556  0.2548 -0.5843
 6146SOL    HW130074   0.941   2.571   3.590 -0.5828 -0.6379  0.5531
 6146SOL    HW230075   1.019   2.460   3.609 -1.4914 -1.4500  0.5385
 6147SOL     OW30076   2.710   3.728   3.767  0.4140  0.0690  0.2835
 6147SOL    HW130077   2.696   3.657   3.830  1.3175 -0.2884  0.0859
 6147SOL    HW230078   2.724   3.683   3.683  0.3069 -0.0213  0.3135
 6148SOL     OW30079   2.560   3.196  15.381 -0.4679 -0.3057  0.0699
 6148SOL    HW130080   2.498   3.174  15.451  1.0958 -1.0254  1.2174
 6148SOL    HW230081   2.607   3.114  15.372 -0.0130  0.2351 -2.5677
 6149SOL     OW30082   1.443   1.541   5.745  0.6289 -0.2806  0.2282
 6149SOL    HW130083   1.416   1.474   5.683 -0.4583  0.0493  0.3460
 6149SOL    HW230084   1.382   1.522   5.816  0.0010  0.1756 -0.1929
 6150SOL     OW30085   0.959   2.758   6.016 -0.0909  0.0779 -0.4540
 6150SOL    HW130086   0.877   2.712   6.033 -1.4800  2.3969 -0.8756
 6150SOL    HW230087   1.004   2.735   6.097 -0.8532  1.1754  0.2712
 6151SOL     OW30088   3.653   1.932   4.005 -0.0994  0.5117 -0.1053
 6151SOL    HW130089   3.679   1.951   4.095 -0.8228 -0.5510  0.3265
 6151SOL    HW230090   3.639   1.838   4.012 -1.0542  0.6606  0.0300
 6152SOL     OW30091   1.542   1.061   5.239  0.1761  0.0882 -0.4514
 6152SOL    HW130092   1.540   0.981   5.292 -3.7691  1.6639  1.7176
 6152SOL    HW230093   1.522   1.025   5.153 -1.1264  0.8167 -0.4558
 6153SOL     OW30094   3.303   3.616  15.084  0.2684 -0.1824  0.1939
 6153SOL    HW130095   3.268   3.646  15.000 -1.5456 -1.8074  0.3524
 6153SOL    HW230096   3.242   3.646  15.151  2.6560  2.6839  1.0685
 6154SOL     OW30097   2.246   1.281   1.681 -0.1934  0.1577 -0.6362
 6154SOL    HW130098   2.340   1.300   1.682  0.1766 -1.4876 -2.7640
 6154SOL    HW230099   2.215   1.354   1.628 -0.0307 -0.7528 -1.9867
 6155SOL     OW30100   2.619   0.784   4.276  0.4312 -0.3365  0.2216
 6155SOL    HW130101   2.681   0.743   4.336  0.1097 -0.7836  0.2407
 6155SOL    HW230102   2.550   0.809   4.337 -0.3585 -1.1395 -0.3467
 6156SOL     OW30103   4.554   4.594   4.926 -0.4911  0.3464  0.2427
 6156SOL    HW130104   4.538   4.659   4.994  1.5005  0.4150  0.6349
 6156SOL    HW230105   4.475   4.606   4.874 -1.1902 -0.4418  1.1283
 6157SOL     OW30106   3.843   4.126   5.637 -0.1775  0.0765 -0.2537
 6157SOL    HW130107   3.886   4.073   5.704  1.7166  1.3157 -0.4802
 6157SOL    HW230108   3.765   4.154   5.685  0.9317  2.7011  0.0605
 6158SOL     OW30109   2.179   1.280  16.349  0.0950  0.1839  0.1349
 6158SOL    HW130110   2.126   1.206  16.316  0.2459  0.5774 -1.0106
 6158SOL    HW230111   2.246   1.278  16.281 -1.0407 -2.8399 -0.9485
 6159SOL     OW30112   4.276   1.812   3.198  0.3006  0.2118 -0.3710
 6159SOL    HW130113   4.309   1.851   3.117 -2.2419 -1.8124 -2.4196
 6159SOL    HW230114   4.262   1.720   3.176  2.5495  0.1581 -1.6441
 6160SOL     OW30115   4.713   1.336   7.418 -0.0330  0.7648 -0.7419
 6160SOL    HW130116   4.642   1.378   7.466 -1.7498  0.4970 -3.0195
 6160SOL    HW230117   4.730   1.257   7.469 -1.2775 -1.4504 -3.7172
 6161SOL     OW30118   3.349   0.915  15.769  0.5604 -0.2458 -0.0041
 6161SOL    HW130119   3.361   0.920  15.863  0.5214 -0.3498  0.0063
 6161SOL    HW230120   3.420   0.969  15.735  0.0156  0.1313 -0.5503
 6162SOL     OW30121   3.791   1.470   8.078  0.6685 -0.1643  1.0963
 6162SOL    HW130122   3.874   1.434   8.108  1.2906 -0.3658 -0.8559
 6162SOL    HW230123   3.757   1.402   8.020 -1.5360  1.4042  0.5343
 6163SOL     OW30124   3.141   2.107   8.428 -0.5160  0.2391  0.2793
 6163SOL    HW130125   3.158   2.125   8.520  0.2097 -0.7142  0.3282
 6163SOL    HW230126   3.175   2.018   8.418 -1.8198 -0.3768  1.3992
 6164SOL     OW30127   0.245   4.247  12.240  0.3148  0.4782 -0.2218
 6164SOL    HW130128   0.219   4.155  12.242 -1.8233  1.0839  0.6839
 6164SOL    HW230129   0.186   4.283  12.174 -0.1803 -1.6265 -0.9366
 6165SOL     OW30130   1.314   3.086   4.968 -0.0614  0.5525 -0.3012
 6165SOL    HW130131   1.324   3.015   4.904  1.0400  0.4612 -0.0171
 6165SOL    HW230132   1.359   3.154   4.917  2.4834 -0.4172  0.6906
 6166SOL     OW30133   3.993   3.771   6.445 -0.0128 -0.2450  0.6659
 6166SOL    HW130134   3.993   3.684   6.406 -1.0981 -0.3679  0.9441
 6166SOL    HW230135   4.069   3.772   6.505  2.0509 -0.5668 -1.9495
 6167SOL     OW30136   2.485   2.051  16.315  0.0191 -0.0765 -0.4145
 6167SOL    HW130137   2.432   1.983  16.357 -0.7060  0.0786 -1.0772
 6167SOL    HW230138   2.491   2.107  16.392 -2.1620 -1.2230  0.6042
 6168SOL     OW30139   2.803   0.107   8.383  0.2454  0.2145 -0.1320
 6168SOL    HW130140   2.883   0.085   8.429  0.1436 -0.2989 -0.2045
 6168SOL    HW230141   2.796   0.030   8.327 -1.1959  0.1552  0.1220
 6169SOL     OW30142   4.591   2.532   7.204  0.1304 -0.2155 -1.0801
 6169SOL    HW130143   4.585   2.447   7.247  0.2405  0.9045  1.1230
 6169SOL    HW230144   4.508   2.552   7.160 -0.3997  5.6561  2.5448
 6170SOL     OW30145   4.187   1.565  11.770 -0.1952 -0.0485 -0.0422
 6170SOL    HW130146   4.249   1.619  11.819 -1.7494 -2.1452  4.2564
 6170SOL    HW230147   4.102   1.588  11.808  0.3515  1.5984  0.1886
 6171SOL     OW30148   0.123   3.181  17.623  0.0969 -0.3752 -0.3934
 6171SOL    HW130149   0.200   3.233  17.599 -1.0806  1.0248 -1.1651
 6171SOL    HW230150   0.093   3.181  17.532  0.2583 -0.9187 -0.4424
 6172SOL     OW30151   0.268   3.400   6.430 -0.5989 -0.0406  0.1150
 6172SOL    HW130152   0.286   3.459   6.357 -1.6877  0.0130 -0.1126
 6172SOL    HW230153   0.189   3.441   6.465 -0.3091  1.1344 -0.6224
 6173SOL     OW30154   3.135   2.918   7.778 -0.5867  0.5652  0.4590
 6173SOL    HW130155   3.229   2.905   7.793 -0.4045 -0.7271 -1.8599
 6173SOL    HW230156   3.148   2.954   7.690  2.7567  1.4550  1.3024
 6174SOL     OW30157   3.037   3.051   3.930  0.1860 -0.0386  0.4174
 6174SOL    HW130158   3.106   3.073   3.866 -1.1847  0.9722 -0.7185
 6174SOL    HW230159   2.965   3.048   3.867  0.6856 -0.2047 -0.1464
 6175SOL     OW30160   0.847   2.753   3.325 -0.2921  0.2701  0.4693
 6175SOL    HW130161   0.908   2.744   3.399  0.8222 -0.4541 -0.5368
 6175SOL    HW230162   0.784   2.803   3.377  1.5309 -0.1870  3.1598
 6176SOL     OW30163   0.683   3.615   1.782 -0.3331 -0.3945  0.5417
 6176SOL    HW130164   0.717   3.677   1.717  2.1541 -1.4307  0.8408
 6176SOL    HW230165   0.738   3.540   1.761  1.3696  0.6753  1.1875
 6177SOL     OW30166   0.243   0.598   8.298 -0.0866 -0.2891  0.0521
 6177SOL    HW130167   0.290   0.560   8.372 -2.9510 -0.2385  1.8806
 6177SOL    HW230168   0.319   0.578   8.243  0.7232 -0.1138  1.0879
 6178SOL     OW30169   1.954   3.655   8.034 -0.2347 -0.3279 -0.3987
 6178SOL    HW130170   2.039   3.662   8.079 -0.5564 -3.0795  0.6583
 6178SOL    HW230171   1.988   3.686   7.950  1.3751 -2.3562 -0.5040
 6179SOL     OW30172   4.638   1.544   4.278 -0.4013  0.1941 -0.2713
 6179SOL    HW130173   4.652   1.603   4.204  1.6361 -2.9944 -2.4193
 6179SOL    HW230174   4.563   1.491   4.252 -0.3168 -0.4672  0.8295
 6180SOL     OW30175   1.039   2.343   5.228 -0.1358  0.0830  1.1703
 6180SOL    HW130176   1.107   2.277   5.216  1.8110  2.2751  0.0902
 6180SOL    HW230177   1.017   2.374   5.140  0.9527  1.6014  1.4352
 6181SOL     OW30178   3.458   0.620  16.899 -0.4078 -0.0983 -0.3373
 6181SOL    HW130179   3.427   0.598  16.811  0.1867 -1.1614 -0.2791
 6181SOL    HW230180   3.543   0.663  16.895  0.0916 -0.8808  1.9434
 6182SOL     OW30181   3.043   2.923   3.643  0.4591 -0.0613 -0.2856
 6182SOL    HW130182   3.072   3.000   3.594  0.0177 -0.7109 -1.5583
 6182SOL    HW230183   3.048   2.858   3.573 -1.5416  1.8265 -2.1905
 6183SOL     OW30184   0.516   2.931  16.615  0.1216 -0.3829  0.3992
 6183SOL    HW130185   0.561   3.012  16.641 -0.5454  0.6475 -1.6936
 6183SOL    HW230186   0.432   2.942  16.659  0.0124 -2.6194  0.7395
 6184SOL     OW30187   3.429   3.592   5.912 -0.1099 -0.5329 -0.1838
 6184SOL    HW130188   3.375   3.605   5.834 -1.2468  0.2159  0.7305
 6184SOL    HW230189   3.501   3.559   5.858 -0.6640 -0.1723 -1.1354
 6185SOL     OW30190   0.129   2.122   6.509  0.0280 -0.0643 -0.0704
 6185SOL    HW130191   0.057   2.062   6.488  0.2173 -0.9241  1.7274
 6185SOL    HW230192   0.180   2.100   6.431  0.8677  0.6660  0.2693
 6186SOL     OW30193   2.650   3.546  12.790  0.1512  0.0465  0.2336
 6186SOL    HW130194   2.738   3.558  12.825  0.5646 -0.3990 -0.6473
 6186SOL    HW230195   2.624   3.630  12.752  2.1946  0.5935  0.0159
 6187SOL     OW30196   2.572   1.840   5.700  0.1553 -0.3067  0.4119
 6187SOL    HW130197   2.654   1.790   5.697  2.1804  3.0129 -0.7173
 6187SOL    HW230198   2.604   1.925   5.730  1.4633 -0.1415 -1.4061
 6188SOL     OW30199   0.130   4.502  16.504  0.7770  0.3283  0.8099
 6188SOL    HW130200   0.119   4.506  16.599  0.4354 -1.3911  0.8406
 6188SOL    HW230201   0.072   4.428  16.489 -0.0299  1.1116  0.0773
 6189SOL     OW30202   2.509   1.882  10.808  0.3033  0.5153 -0.1216
 6189SOL    HW130203   2.520   1.953  10.871 -0.3994 -0.2662  0.8797
 6189SOL    HW230204   2.588   1.897  10.756  0.3463 -1.5488 -0.6282
 6190SOL     OW30205   2.087   3.338   9.787 -0.0898  0.1934  0.0892
 6190SOL    HW130206   2.155   3.395   9.823 -0.7944  1.0316  0.0949
 6190SOL    HW230207   2.012   3.398   9.785 -0.5724 -0.3796  1.0678
 6191SOL     OW30208   2.318   1.757   4.407  0.1450  0.0576  0.0100
 6191SOL    HW130209   2.240   1.740   4.460 -1.6565  0.2482 -2.5813
 6191SOL    HW230210   2.343   1.848   4.419 -1.1523  0.4527 -0.3667
 6192SOL     OW30211   1.917   4.205   2.102  0.2524 -0.4170  0.2059
 6192SOL    HW130212   1.891   4.297   2.109 -0.4254 -0.5938  0.0230
 6192SOL    HW230213   1.826   4.176   2.092  0.0744 -0.2567  1.3145
 6193SOL     OW30214   1.692   4.540   0.541  1.2776 -0.0929 -0.0745
 6193SOL    HW130215   1.663   4.631   0.533  0.7899 -0.3412 -1.1503
 6193SOL    HW230216   1.703   4.522   0.448 -0.2005 -0.8332 -0.1080
 6194SOL     OW30217   3.740   4.277   0.885  0.8113  0.3350 -0.7740
 6194SOL    HW130218   3.815   4.329   0.857  4.0132 -3.3465  0.8753
 6194SOL    HW230219   3.747   4.291   0.980  2.5537  1.6755 -1.1089
 6195SOL     OW30220   4.410   3.593   9.389 -0.2554  0.1902 -0.0862
 6195SOL    HW130221   4.374   3.575   9.476 -0.0525  1.2387  0.2173
 6195SOL    HW230222   4.496   3.627   9.413  0.3095 -2.1418  1.1526
 6196SOL     OW30223   4.582   1.463   3.450 -0.0730 -0.2975  0.2577
 6196SOL    HW130224   4.650   1.504   3.397 -1.6995 -0.7526 -2.1941
 6196SOL    HW230225   4.503   1.477   3.398  0.6623 -0.9331 -1.0248
 6197SOL     OW30226   2.655   1.965   8.153  0.0337 -0.3510 -0.0236
 6197SOL    HW130227   2.745   1.965   8.122  0.0550  0.5976  0.0405
 6197SOL    HW230228   2.659   1.874   8.183  0.6796 -1.0749 -2.3524
 6198SOL     OW30229   0.874   4.645  16.250 -0.1181  0.1605  0.2653
 6198SOL    HW130230   0.806   4.579  16.237 -0.8455  1.0198 -0.2909
 6198SOL    HW230231   0.939   4.617  16.185 -0.1385 -0.2082  0.4062
 6199SOL     OW30232   4.561   1.083  15.221  0.7057 -0.3608  0.5829
 6199SOL    HW130233   4.511   1.063  15.300 -3.5993  2.7810 -1.3891
 6199SOL    HW230234   4.649   1.067  15.254 -0.0087 -0.8093  2.2573
 6200SOL     OW30235   0.107   1.482   3.893  0.1557  0.3144 -0.1573
 6200SOL    HW130236   0.173   1.420   3.923  1.1018  1.3516 -0.1032
 6200SOL    HW230237   0.024   1.441   3.916  0.2237  0.6660  0.7478
 6201SOL     OW30238   0.276   2.003   5.901  0.0155 -0.4625 -0.8696
 6201SOL    HW130239   0.228   1.925   5.929 -2.6631  0.4185 -2.9637
 6201SOL    HW230240   0.229   2.075   5.942  1.7315  0.6178 -0.8164
 6202SOL     OW30241   4.566   1.389   3.929 -0.1545 -0.1537 -0.0962
 6202SOL    HW130242   4.527   1.472   3.900  0.3125 -0.4714 -1.6527
 6202SOL    HW230243   4.555   1.342   3.846 -0.4138  0.0455 -0.1756
 6203SOL     OW30244   4.212   4.004   7.228  0.0054  0.0055  0.8522
 6203SOL    HW130245   4.149   4.017   7.157 -0.2545 -0.3701  1.0147
 6203SOL    HW230246   4.195   4.082   7.281 -0.9222  0.3238  0.0966
 6204SOL     OW30247   0.988   3.453  12.631  0.1327 -0.6801  0.3994
 6204SOL    HW130248   1.061   3.505  12.598 -0.4550 -1.1537 -1.6450
 6204SOL    HW230249   1.025   3.419  12.713  2.3221 -2.4177 -1.3141
 6205SOL     OW30250   2.738   0.679   2.989 -0.0597  0.0744  0.9421
 6205SOL    HW130251   2.828   0.710   2.978  0.2996 -0.0126  3.5793
 6205SOL    HW230252   2.693   0.729   2.921 -0.0508 -1.1074  0.0801
 6206SOL     OW30253   4.528   0.087   7.103 -0.1916 -0.2350  0.3315
 6206SOL    HW130254   4.433   0.071   7.105 -0.8144  3.5205  1.0906
 6206SOL    HW230255   4.534   0.168   7.154 -1.1646 -0.3479  0.6235
 6207SOL     OW30256   0.477   2.536   4.361  0.2058  0.3328  0.1996
 6207SOL    HW130257   0.450   2.448   4.338 -0.4332  0.3435  0.9228
 6207SOL    HW230258   0.493   2.530   4.456 -1.1472 -0.7983  0.3415
 6208SOL     OW30259   4.456   3.323   6.174  0.6702 -0.0265 -0.5510
 6208SOL    HW130260   4.387   3.260   6.151 -0.4116  1.4083 -1.2391
 6208SOL    HW230261   4.479   3.296   6.263 -1.0993 -0.7216 -0.3048
 6209SOL     OW30262   2.881   0.229   1.129  0.3626 -0.1463 -0.1285
 6209SOL    HW130263   2.810   0.239   1.065  1.5514 -3.1526 -1.9100
 6209SOL    HW230264   2.859   0.142   1.160 -2.9313  1.1115  1.1178
 6210SOL     OW30265   2.119   4.544   3.835 -0.5874  0.3727 -0.1454
 6210SOL    HW130266   2.078   4.630   3.845  0.3567  0.5390  2.4051
 6210SOL    HW230267   2.151   4.551   3.925  1.4891 -1.1000 -0.7863
 6211SOL     OW30268   2.019   2.539   6.915  0.1760  0.2470  0.0278
 6211SOL    HW130269   1.934   2.526   6.873 -0.1184  0.6129  0.5101
 6211SOL    HW230270   2.079   2.475   6.876  0.5392 -1.3500  3.1781
 6212SOL     OW30271   3.664   4.501   8.588  0.1861 -0.2121 -0.0709
 6212SOL    HW130272   3.597   4.443   8.625 -1.1104  1.3460  0.0384
 6212SOL    HW230273   3.739   4.452   8.622 -0.7146 -0.4904  1.5378
 6213SOL     OW30274   1.568   3.793   8.823  0.8180 -0.1940 -0.1115
 6213SOL    HW130275   1.551   3.863   8.885 -1.8115 -0.5070 -0.4993
 6213SOL    HW230276   1.485   3.748   8.814 -0.1418  1.4333  0.7418
 6214SOL     OW30277   0.180   0.428  12.385  0.3956  0.3301  0.2165
 6214SOL    HW130278   0.157   0.335  12.375 -1.6456  0.9934 -1.1330
 6214SOL    HW230279   0.272   0.429  12.412  0.6038 -2.9668 -0.3246
 6215SOL     OW30280   0.447   1.975   5.690  0.0871 -0.0234  0.3707
 6215SOL    HW130281   0.364   2.004   5.651  1.1438 -0.3682 -2.1467
 6215SOL    HW230282   0.438   2.011   5.778 -0.6933 -0.8498  0.6192
 6216SOL     OW30283   1.241   4.388   0.494 -0.4841  0.0844 -0.5406
 6216SOL    HW130284   1.208   4.298   0.488  0.6883 -0.3821  0.1099
 6216SOL    HW230285   1.299   4.382   0.569  0.2726  1.7367 -0.9928
 6217SOL     OW30286   2.894   4.088   4.940 -0.3592  0.4695 -0.0051
 6217SOL    HW130287   2.894   4.183   4.944 -1.3227  0.4424  0.6468
 6217SOL    HW230288   2.810   4.075   4.895 -1.5408 -0.0501  2.3563
 6218SOL     OW30289   1.048   2.126   3.482  0.4151  0.1965  0.3300
 6218SOL    HW130290   1.087   2.054   3.432 -1.3758  1.3686 -2.7411
 6218SOL    HW230291   1.034   2.200   3.423  2.7325 -1.1985 -1.9877
 6219SOL     OW30292   2.296   2.208  12.606  0.6098  0.1791 -0.2430
 6219SOL    HW130293   2.228   2.220  12.540 -0.2407 -1.6260  0.2960
 6219SOL    HW230294   2.362   2.157  12.561  1.3953 -1.0261  2.2610
 6220SOL     OW30295   2.629   1.626   0.438 -0.0076  0.3087  0.5980
 6220SOL    HW130296   2.712   1.579   0.431  0.1509  0.9720 -2.0038
 6220SOL    HW230297   2.614   1.637   0.532  0.8858  0.6347  0.7061
 6221SOL     OW30298   2.847   3.336  10.600 -0.1307  0.2104  0.2642
 6221SOL    HW130299   2.854   3.259  10.655 -1.3499 -0.6087 -0.7294
 6221SOL    HW230300   2.910   3.309  10.533 -0.7061 -2.2627  0.7101
 6222SOL     OW30301   0.850   2.610   9.232 -0.1440 -0.3679 -0.7972
 6222SOL    HW130302   0.762   2.598   9.268 -0.1138  3.3783  0.5866
 6222SOL    HW230303   0.880   2.693   9.270 -0.7157  0.0733 -1.3312
 6223SOL     OW30304   3.132   2.656   6.747  0.2012  0.6196  0.1310
 6223SOL    HW130305   3.131   2.727   6.682  0.2461  1.2334  0.7988
 6223SOL    HW230306   3.037   2.645   6.744  0.3990 -0.8831 -0.6410
 6224SOL     OW30307   2.129   3.920   8.136  0.2576 -0.1896  0.2665
 6224SOL    HW130308   2.184   3.978   8.190 -1.4072  0.8773  0.8081
 6224SOL    HW230309   2.108   3.974   8.060  0.1367 -1.3248 -0.4943
 6225SOL     OW30310   2.922   3.322   4.046  0.3034 -0.4101 -0.2104
 6225SOL    HW130311   2.993   3.281   4.095  0.2338 -0.7121 -0.3629
 6225SOL    HW230312   2.848   3.271   4.078 -0.8401  1.0798 -0.4578
 6226SOL     OW30313   1.448   3.491   6.946 -0.4331 -0.3130  0.3559
 6226SOL    HW130314   1.398   3.524   7.021 -0.5801 -1.3416  0.7114
 6226SOL    HW230315   1.521   3.552   6.955  1.1001 -2.2179  0.9195
 6227SOL     OW30316   1.470   1.194   2.545 -0.6922 -0.3402 -0.2242
 6227SOL    HW130317   1.378   1.215   2.529 -0.7014  0.1214  0.4283
 6227SOL    HW230318   1.513   1.213   2.461 -0.3673  0.0289  0.0283
 6228SOL     OW30319   0.645   2.093   4.337  0.0822 -0.0512 -0.1026
 6228SOL    HW130320   0.646   2.156   4.409  0.7313  1.6059 -1.5410
 6228SOL    HW230321   0.555   2.104   4.307  0.3910 -0.7070 -1.2467
 6229SOL     OW30322   3.220   4.565  14.512  0.3969  0.0119  0.6223
 6229SOL    HW130323   3.220   4.645  14.460  0.3298  0.6409  1.5888
 6229SOL    HW230324   3.279   4.503  14.468 -0.8653 -1.0055  0.3725
 6230SOL     OW30325   2.650   0.532   8.101 -0.4038  0.1310  0.3740
 6230SOL    HW130326   2.726   0.515   8.157  0.8029  0.3034 -1.2407
 6230SOL    HW230327   2.594   0.454   8.108 -2.5333  1.5365 -0.9372
 6231SOL     OW30328   1.158   3.747  14.586 -0.1964  0.0812 -0.3291
 6231SOL    HW130329   1.078   3.701  14.609 -1.1557  1.5688 -0.6532
 6231SOL    HW230330   1.124   3.833  14.560 -1.3534 -0.0959  0.6250
 6232SOL     OW30331   4.654   0.920   2.503 -0.0961  0.0018  0.2660
 6232SOL    HW130332   4.600   0.992   2.534  1.2779  1.6015 -1.0494
 6232SOL    HW230333   4.706   0.902   2.581  0.2435 -0.7420 -0.1347
 6233SOL     OW30334   1.769   2.134  17.542  0.2079  0.2379  0.0115
 6233SOL    HW130335   1.765   2.228  17.560 -2.3368  0.2256 -0.5125
 6233SOL    HW230336   1.864   2.132  17.531  0.3553 -0.7511  1.4663
 6234SOL     OW30337   3.911   0.748  13.112  0.2892  0.8086 -0.0549
 6234SOL    HW130338   3.870   0.701  13.184 -0.7314 -0.6633 -1.5753
 6234SOL    HW230339   3.968   0.811  13.154  0.6973  1.2646 -1.2791
 6235SOL     OW30340   3.138   1.954   2.484  0.2321 -0.4812 -0.0739
 6235SOL    HW130341   3.119   1.880   2.427  2.1692 -1.5886  0.7118
 6235SOL    HW230342   3.181   2.017   2.425  0.7685 -0.5453  0.2505
 6236SOL     OW30343   0.303   3.131   6.433  0.3919 -0.1905  0.0944
 6236SOL    HW130344   0.213   3.105   6.413  0.2976 -0.2966  0.6558
 6236SOL    HW230345   0.302   3.226   6.428  2.0254 -0.2909 -1.7949
 6237SOL     OW30346   2.935   0.447   8.685  0.3691  0.1124  0.5689
 6237SOL    HW130347   3.009   0.503   8.660  2.2332 -1.9853  1.3294
 6237SOL    HW230348   2.869   0.503   8.645  0.1686 -1.3308 -1.0986
 6238SOL     OW30349   0.278   0.204   8.751 -0.4380 -0.0915  0.4273
 6238SOL    HW130350   0.328   0.131   8.712  1.1251  1.9113 -1.3265
 6238SOL    HW230351   0.269   0.273   8.686 -2.7958  1.8539  2.8455
 6239SOL     OW30352   1.693   3.479  12.126 -0.2717 -0.1189  0.6474
 6239SOL    HW130353   1.773   3.447  12.085 -0.8267 -0.3433 -0.2675
 6239SOL    HW230354   1.731   3.480  12.214  2.3762  1.5830 -0.5246
 6240SOL     OW30355   1.502   4.231   4.382  0.1579  0.5078  0.3422
 6240SOL    HW130356   1.484   4.285   4.460  0.8299  1.3554 -0.0866
 6240SOL    HW230357   1.592   4.250   4.355 -0.6199  1.3381 -1.6530
 6241SOL     OW30358   1.241   3.904   1.612  0.4778  0.4930  0.1192
 6241SOL    HW130359   1.235   3.948   1.527  1.4589  1.7344  0.6814
 6241SOL    HW230360   1.204   3.981   1.656 -1.4365  0.2016 -0.9948
 6242SOL     OW30361   0.618   1.444   4.601  0.2144  0.0533  0.1995
 6242SOL    HW130362   0.552   1.427   4.668  0.4258  1.9132  0.8906
 6242SOL    HW230363   0.705   1.431   4.637 -0.4754  0.4456  2.0198
 6243SOL     OW30364   3.883   0.957  14.456 -0.2148  0.0376 -0.5387
 6243SOL    HW130365   3.910   0.889  14.517  0.9942  0.8633 -0.1617
 6243SOL    HW230366   3.791   0.933  14.448 -0.4700  1.3451 -1.4266
 6244SOL     OW30367   2.457   3.276   4.927 -0.8900 -0.8261  0.1721
 6244SOL    HW130368   2.442   3.362   4.965  1.1951 -0.4830  0.2304
 6244SOL    HW230369   2.547   3.302   4.909 -1.4039  1.8450  1.5113
 6245SOL     OW30370   2.663   0.372   7.774  0.3971 -0.5450  0.7941
 6245SOL    HW130371   2.617   0.289   7.763  0.2528  0.1546 -3.5588
 6245SOL    HW230372   2.587   0.428   7.757 -0.6132 -1.7330  1.3284
 6246SOL     OW30373   2.138   1.204  12.519 -0.0777 -0.2044 -0.3600
 6246SOL    HW130374   2.084   1.130  12.549 -0.3670 -0.0015 -0.3821
 6246SOL    HW230375   2.094   1.227  12.437  2.6021  0.0388 -1.7298
 6247SOL     OW30376   0.405   0.121   2.808  0.1467 -0.3583  0.7738
 6247SOL    HW130377   0.377   0.114   2.899  1.0889  0.1619  1.1059
 6247SOL    HW230378   0.321   0.132   2.764 -0.1807 -0.3303  1.4135
 6248SOL     OW30379   3.537   1.558   6.644 -0.2746  0.7036  0.6479
 6248SOL    HW130380   3.567   1.468   6.652 -2.3244  0.0318  0.7173
 6248SOL    HW230381   3.624   1.598   6.643  0.0165  0.0579  0.4676
 6249SOL     OW30382   4.284   4.670  14.059 -0.2396  0.0692 -0.1905
 6249SOL    HW130383   4.229   4.706  14.128 -1.5320  0.8080 -1.5896
 6249SOL    HW230384   4.217   4.625  14.006  0.8644 -3.0552  1.1070
 6250SOL     OW30385   4.636   3.843  11.190  0.3479  0.0509  0.2477
 6250SOL    HW130386   4.712   3.899  11.206 -0.3318  1.0939 -0.2104
 6250SOL    HW230387   4.604   3.890  11.113  0.5259  2.5768  1.7092
 6251SOL     OW30388   1.629   2.199   5.573  0.3083  0.3366 -0.1259
 6251SOL    HW130389   1.672   2.175   5.491  1.1138  0.2778  0.3109
 6251SOL    HW230390   1.706   2.205   5.629  1.3151 -0.3099 -1.4537
 6252SOL     OW30391   0.437   1.207  15.876 -0.4988  0.2859 -0.2379
 6252SOL    HW130392   0.399   1.147  15.941 -0.1404 -0.1496 -0.4303
 6252SOL    HW230393   0.529   1.200  15.902 -0.8750  0.6830  1.2033
 6253SOL     OW30394   4.552   4.685   1.731 -0.1252  0.1526 -0.0655
 6253SOL    HW130395   4.582   0.032   1.701 -1.1923  0.4942 -0.1763
 6253SOL    HW230396   4.626   4.628   1.709 -1.6705 -1.9635  0.1667
 6254SOL     OW30397   1.490   3.257  11.419  0.0428  0.0971  0.0294
 6254SOL    HW130398   1.561   3.321  11.418  0.5114 -0.4508 -1.7450
 6254SOL    HW230399   1.507   3.219  11.332 -0.9908  1.5749 -0.8185
 6255SOL     OW30400   0.113   1.102  16.813  0.4560  0.2075 -0.0588
 6255SOL    HW130401   0.078   1.161  16.746 -0.0268  1.0205  0.9148
 6255SOL    HW230402   0.105   1.024  16.757 -2.2195 -0.9699  1.9612
 6256SOL     OW30403   2.042   0.833   5.435  0.2044  0.2693  0.8572
 6256SOL    HW130404   2.082   0.837   5.522  2.7465 -0.2849 -0.2877
 6256SOL    HW230405   2.099   0.763   5.402 -1.6260  0.2600 -2.2150
 6257SOL     OW30406   3.296   2.211   6.920 -0.3986  0.0866  0.0195
 6257SOL    HW130407   3.220   2.240   6.869  0.7561  1.2997 -1.0267
 6257SOL    HW230408   3.257   2.128   6.947  1.6842 -0.1712  2.1269
 6258SOL     OW30409   4.691   0.020   2.942  0.0632 -0.1494  0.3164
 6258SOL    HW130410   4.609   0.031   2.990  0.3397  0.1997  0.7026
 6258SOL    HW230411   4.665   0.020   2.850  0.1819 -2.6279  0.2867
 6259SOL     OW30412   2.516   2.664   3.559  0.4770 -0.3942 -0.2984
 6259SOL    HW130413   2.481   2.617   3.483  0.0968  1.0555 -1.0106
 6259SOL    HW230414   2.432   2.669   3.603  0.8940  1.4515  0.2908
 6260SOL     OW30415   1.273   2.053   8.501 -0.1067 -0.6161  0.0571
 6260SOL    HW130416   1.213   2.027   8.431 -1.3462 -0.2913  1.0032
 6260SOL    HW230417   1.347   1.993   8.507  1.0204  0.6847 -0.6275
 6261SOL     OW30418   2.154   4.257   4.067  0.6839  0.2711 -0.0970
 6261SOL    HW130419   2.168   4.346   4.101  1.6387  0.3063 -0.5987
 6261SOL    HW230420   2.237   4.232   4.028  1.6533 -2.1110  3.5070
 6262SOL     OW30421   1.510   2.590   4.835  0.0864 -0.4164  0.0290
 6262SOL    HW130422   1.515   2.560   4.745 -0.4358  2.3876 -0.9311
 6262SOL    HW230423   1.602   2.600   4.857 -0.2378 -3.8941  2.9977
 6263SOL     OW30424   2.710   1.003   1.164  0.5223 -0.3782 -0.0659
 6263SOL    HW130425   2.730   0.955   1.245 -2.5861  2.2481  2.2373
 6263SOL    HW230426   2.700   1.087   1.208 -1.0066 -0.5353 -0.1238
 6264SOL     OW30427   3.775   0.447  13.176 -0.1675  0.0516  0.7481
 6264SOL    HW130428   3.764   0.505  13.251  0.3249 -2.6492  2.8974
 6264SOL    HW230429   3.857   0.402  13.197  0.4515  1.2482  0.8449
 6265SOL     OW30430   4.305   0.610   1.054  0.7414  0.3045  0.1209
 6265SOL    HW130431   4.281   0.680   1.114 -1.8063  0.2000 -0.7368
 6265SOL    HW230432   4.333   0.658   0.976  0.2079 -1.2238 -1.0382
 6266SOL     OW30433   1.030   0.649   3.493 -0.0532 -0.1931 -0.7499
 6266SOL    HW130434   1.051   0.711   3.562  1.2250  0.0263 -1.3310
 6266SOL    HW230435   1.071   0.568   3.524  0.4116  0.4128  0.2080
 6267SOL     OW30436   4.240   1.049   4.255 -0.0898 -0.2045  0.4098
 6267SOL    HW130437   4.163   1.105   4.251 -0.1506 -0.4072 -1.3038
 6267SOL    HW230438   4.246   1.035   4.160 -0.0782 -1.3236  0.5721
 6268SOL     OW30439   1.711   1.050  10.057 -0.2055 -0.1276 -0.3647
 6268SOL    HW130440   1.643   1.064   9.991 -0.6300  0.2506  0.1483
 6268SOL    HW230441   1.784   1.048   9.996  0.6985  1.8490  0.6286
 6269SOL     OW30442   4.071   0.217   8.357  0.6393  0.1177 -0.2401
 6269SOL    HW130443   4.136   0.174   8.412  0.4483  0.8876  0.5942
 6269SOL    HW230444   4.068   0.299   8.407  0.7174 -0.2357  0.3444
 6270SOL     OW30445   2.813   2.815   4.746  0.7624  0.1521  0.2669
 6270SOL    HW130446   2.882   2.875   4.772  0.8345 -0.4378  1.4495
 6270SOL    HW230447   2.741   2.844   4.802  0.6398 -0.8579  0.6239
 6271SOL     OW30448   2.161   4.283   5.474  0.1272 -0.1017 -0.2334
 6271SOL    HW130449   2.107   4.358   5.501  1.4077 -0.0389  2.1239
 6271SOL    HW230450   2.109   4.250   5.401  2.5789 -1.5070 -1.3241
 6272SOL     OW30451   2.110   3.022  12.283 -0.1706 -0.0078  0.8164
 6272SOL    HW130452   2.170   3.094  12.264 -2.0607  1.1184 -0.9160
 6272SOL    HW230453   2.135   3.006  12.374 -1.3520 -1.4998  0.8843
 6273SOL     OW30454   4.490   3.327   7.715  0.2290  0.1941 -0.6997
 6273SOL    HW130455   4.435   3.256   7.682  0.9974 -0.4915 -0.5112
 6273SOL    HW230456   4.574   3.283   7.729  0.3183 -0.0211 -1.8881
 6274SOL     OW30457   2.095   0.888   4.273 -0.4093  0.0103 -0.3798
 6274SOL    HW130458   2.100   0.921   4.363  1.1376  0.7224 -0.7254
 6274SOL    HW230459   2.183   0.916   4.247 -0.6702 -0.0443 -1.3102
 6275SOL     OW30460   3.424   4.674   7.589  0.7008  0.5683  0.0536
 6275SOL    HW130461   3.498   4.614   7.599  0.1131 -0.2965 -0.6936
 6275SOL    HW230462   3.371   4.631   7.521 -2.3075  1.4811  1.8386
 6276SOL     OW30463   0.137   0.917   6.842  0.7195  0.4452 -0.0598
 6276SOL    HW130464   0.203   0.919   6.772  2.2008  0.5363  1.3276
 6276SOL    HW230465   0.056   0.944   6.799  0.6356  0.2157 -0.0471
 6277SOL     OW30466   1.373   1.261   4.825 -0.1896 -0.1783 -0.2039
 6277SOL    HW130467   1.329   1.177   4.810 -1.1246  0.5908 -1.6348
 6277SOL    HW230468   1.304   1.324   4.805 -0.6704 -0.3924  0.7658
 6278SOL     OW30469   4.405   3.712   5.738 -0.5004 -0.3135  0.9751
 6278SOL    HW130470   4.422   3.675   5.652 -1.1515  0.8525  0.3571
 6278SOL    HW230471   4.414   3.637   5.797  0.8695 -1.7026 -1.0039
 6279SOL     OW30472   4.430   1.470   5.869  0.5106 -0.3027 -0.3512
 6279SOL    HW130473   4.500   1.519   5.914  1.2696  0.1894 -2.0785
 6279SOL    HW230474   4.430   1.521   5.789 -0.3992 -0.5282 -0.4927
 6280SOL     OW30475   1.469   3.276   7.894 -0.1029  0.0094 -0.4665
 6280SOL    HW130476   1.414   3.270   7.972 -0.4095 -1.7269 -0.8288
 6280SOL    HW230477   1.457   3.190   7.855  0.8261 -0.2674 -0.1525
 6281SOL     OW30478   4.511   3.806   7.420 -0.4337 -0.4094 -0.0725
 6281SOL    HW130479   4.544   3.895   7.434 -1.2349 -0.0330 -0.5951
 6281SOL    HW230480   4.421   3.811   7.388 -1.4862 -0.4859  2.9060
 6282SOL     OW30481   1.469   0.670   6.893  0.2034  0.4812  0.1689
 6282SOL    HW130482   1.452   0.734   6.824  0.5591  1.9381  1.4319
 6282SOL    HW230483   1.540   0.621   6.851 -0.1033  0.2096 -0.0326
 6283SOL     OW30484   1.088   0.626   5.607  0.1230  0.4462 -0.0603
 6283SOL    HW130485   1.063   0.606   5.697  0.3871  1.1699  0.1772
 6283SOL    HW230486   1.010   0.612   5.554 -1.5180 -0.3765  2.6108
 6284SOL     OW30487   2.514   4.111   5.272 -0.1685  0.4242  0.4712
 6284SOL    HW130488   2.606   4.085   5.283  0.2039  1.0592 -1.0975
 6284SOL    HW230489   2.472   4.026   5.255 -0.0722  0.3099  0.8013
 6285SOL     OW30490   0.729   3.429   8.154 -0.1923 -0.0168 -0.1164
 6285SOL    HW130491   0.817   3.468   8.152  0.7908 -2.1178  4.2500
 6285SOL    HW230492   0.694   3.481   8.081 -0.0790 -0.1574 -0.2718
 6286SOL     OW30493   3.017   4.342   7.581  0.7086 -0.2399 -0.1027
 6286SOL    HW130494   2.996   4.301   7.497 -1.3757 -0.5178  0.5677
 6286SOL    HW230495   3.095   4.291   7.603  2.0272  1.0922 -1.7169
 6287SOL     OW30496   3.752   1.877   6.373  0.0787 -0.6488  0.0909
 6287SOL    HW130497   3.670   1.904   6.330  0.3976 -0.9795 -0.7212
 6287SOL    HW230498   3.731   1.932   6.449  0.8380 -1.0224  0.5580
 6288SOL     OW30499   0.044   1.841   4.764 -0.1077  0.1741 -0.1929
 6288SOL    HW130500   0.078   1.914   4.712  2.3077 -0.2841  0.7165
 6288SOL    HW230501   0.062   1.870   4.854 -0.4079 -2.9643  0.8701
 6289SOL     OW30502   1.983   4.704   8.481 -0.4778 -0.2212 -0.3426
 6289SOL    HW130503   1.997   4.722   8.388  0.6372  2.5607  0.3609
 6289SOL    HW230504   2.037   4.626   8.496  0.2470 -0.0490 -2.0231
 6290SOL     OW30505   1.002   4.304   7.597 -0.8079  0.3890 -0.6758
 6290SOL    HW130506   0.934   4.247   7.632  0.6718 -0.2983  1.1175
 6290SOL    HW230507   0.959   4.332   7.517 -0.7507 -0.2400 -0.9255
 6291SOL     OW30508   2.769   2.291   1.572  0.6326 -0.1532  0.2390
 6291SOL    HW130509   2.828   2.364   1.589  0.6199 -0.0263 -0.2637
 6291SOL    HW230510   2.692   2.347   1.569  1.6483  1.1461 -1.3358
 6292SOL     OW30511   0.284   2.689  13.744 -0.4283  0.2717  0.3998
 6292SOL    HW130512   0.301   2.687  13.839 -0.9110 -0.1228  0.4799
 6292SOL    HW230513   0.221   2.617  13.740  1.3330 -1.2629  0.1742
 6293SOL     OW30514   2.115   0.810   9.219 -0.2864 -0.6348 -0.9032
 6293SOL    HW130515   2.204   0.804   9.254 -0.6120  0.2150  0.0606
 6293SOL    HW230516   2.116   0.899   9.184  2.9569 -0.4649 -0.3568
 6294SOL     OW30517   0.864   4.700  16.906  0.1999 -0.2760  0.5637
 6294SOL    HW130518   0.894   0.044  16.944  0.5954 -0.1857  0.0495
 6294SOL    HW230519   0.827   4.657  16.984  1.6990 -0.1613  1.3443
 6295SOL     OW30520   2.919   0.960   3.677  0.5916  0.6366  0.5660
 6295SOL    HW130521   2.841   1.007   3.705  0.5991  0.7235  0.4403
 6295SOL    HW230522   2.936   0.991   3.588 -3.3685 -1.0127 -0.7844
 6296SOL     OW30523   0.489   0.549   8.463  0.5520 -0.0556  0.0517
 6296SOL    HW130524   0.521   0.630   8.501 -1.0083  0.7945 -0.4762
 6296SOL    HW230525   0.471   0.500   8.544 -0.9202  0.3452 -0.0507
 6297SOL     OW30526   0.080   4.199   6.970  0.1709 -0.2389 -0.7037
 6297SOL    HW130527   0.062   4.290   6.947 -0.6255 -0.2277 -0.0195
 6297SOL    HW230528   0.155   4.181   6.913  0.3769 -1.3595 -0.0660
 6298SOL     OW30529   1.307   0.135   0.105  0.4704 -0.2662 -0.6371
 6298SOL    HW130530   1.236   0.071   0.111  0.2431 -0.0123 -0.6212
 6298SOL    HW230531   1.327   0.132   0.199  3.0243  1.9201 -1.1363
 6299SOL     OW30532   2.891   2.202   2.491 -0.1736  0.5851 -0.5882
 6299SOL    HW130533   2.822   2.251   2.447  0.1239  1.6167  0.1019
 6299SOL    HW230534   2.899   2.139   2.419  1.5243  1.2668 -1.0022
 6300SOL     OW30535   3.583   4.490   7.395  0.0109 -0.5480 -0.4985
 6300SOL    HW130536   3.494   4.504   7.365 -0.2616  3.5997  2.3044
 6300SOL    HW230537   3.616   4.578   7.379 -1.0172 -0.0042  0.3866
 6301SOL     OW30538   2.824   3.780   2.343  0.8944  0.2118  0.9027
 6301SOL    HW130539   2.739   3.819   2.363  0.0349  0.2657 -2.7229
 6301SOL    HW230540   2.878   3.813   2.415 -0.5357  1.0922  1.5732
 6302SOL     OW30541   1.020   0.870   5.126 -0.3399 -0.0731 -0.0672
 6302SOL    HW130542   1.050   0.893   5.214 -2.0394  0.1087  0.4660
 6302SOL    HW230543   0.945   0.813   5.142 -1.3629  0.7292 -2.0547
 6303SOL     OW30544   4.453   2.676   7.431  0.2402  0.3136  0.0247
 6303SOL    HW130545   4.437   2.588   7.464 -1.6323  0.0113 -1.6621
 6303SOL    HW230546   4.366   2.706   7.403 -0.2470 -1.1666 -0.0474
 6304SOL     OW30547   1.607   3.407   8.277  0.4673  0.2530 -0.4336
 6304SOL    HW130548   1.672   3.337   8.272 -0.4579 -0.8186  2.4346
 6304SOL    HW230549   1.567   3.390   8.362  2.2439  3.0613  0.9545
 6305SOL     OW30550   2.169   4.481   8.500  0.1113  0.2245  0.0070
 6305SOL    HW130551   2.134   4.392   8.501 -1.4146  0.8637  3.5483
 6305SOL    HW230552   2.245   4.469   8.556 -0.4545  0.9073  0.9186
 6306SOL     OW30553   2.032   4.132   9.065 -0.0124  0.3222 -0.7957
 6306SOL    HW130554   2.067   4.118   9.153 -1.6851  1.2795  0.0225
 6306SOL    HW230555   1.946   4.090   9.070  0.6506 -0.9263  0.2277
 6307SOL     OW30556   2.109   4.511   3.433  0.3267  0.0081  0.8902
 6307SOL    HW130557   2.095   4.578   3.366  1.1564  0.3144  1.0292
 6307SOL    HW230558   2.130   4.439   3.374  0.8186  1.4283 -0.6718
 6308SOL     OW30559   2.412   0.719   6.080  0.0877  0.4324 -0.0050
 6308SOL    HW130560   2.374   0.751   5.998 -1.5404 -1.9368 -0.1581
 6308SOL    HW230561   2.472   0.650   6.053 -0.9076 -0.0792 -0.9443
 6309SOL     OW30562   4.644   1.749  16.464  0.5029 -0.5836  0.2638
 6309SOL    HW130563   4.631   1.669  16.413  1.0397 -2.2702  2.7549
 6309SOL    HW230564   4.717   1.789  16.417  2.1836 -1.2456  2.3265
 6310SOL     OW30565   2.375   3.284  14.914 -0.6295 -0.2598  0.2606
 6310SOL    HW130566   2.410   3.372  14.931 -0.3367 -0.6871  1.8596
 6310SOL    HW230567   2.433   3.240  14.975  1.4713  0.7520 -1.0230
 6311SOL     OW30568   4.015   1.576   3.636 -0.1443  0.0787 -0.0872
 6311SOL    HW130569   4.071   1.604   3.564 -0.3044 -0.0664 -0.2708
 6311SOL    HW230570   4.073   1.572   3.712 -1.4815  0.5709  0.9604
 6312SOL     OW30571   4.675   3.916   8.153 -0.4006  0.0132  0.8218
 6312SOL    HW130572   4.717   3.903   8.068 -0.8617  1.6402  0.3426
 6312SOL    HW230573   4.606   3.850   8.157 -1.7027  1.3097 -0.2329
 6313SOL     OW30574   0.247   4.175   2.863 -0.6075  0.2104 -0.1133
 6313SOL    HW130575   0.199   4.258   2.856 -0.6075  0.2192 -0.0093
 6313SOL    HW230576   0.275   4.177   2.954 -1.1882  1.4088  0.0389
 6314SOL     OW30577   0.641   1.157   5.827  0.1325 -0.3240 -0.2282
 6314SOL    HW130578   0.602   1.240   5.800 -0.8146  0.0217  2.2925
 6314SOL    HW230579   0.664   1.117   5.743  2.8477  3.0555 -1.1288
 6315SOL     OW30580   2.599   1.162   2.771 -0.0229 -0.0833  0.0334
 6315SOL    HW130581   2.579   1.088   2.828 -1.8323  0.2455 -0.1898
 6315SOL    HW230582   2.677   1.121   2.734 -0.2934 -0.4331 -0.1424
 6316SOL     OW30583   3.605   0.911  14.470  0.1059  0.5765  0.0193
 6316SOL    HW130584   3.514   0.906  14.500 -0.4387  0.1426 -1.6645
 6316SOL    HW230585   3.602   0.873  14.382 -0.5486 -0.0540  0.3072
 6317SOL     OW30586   2.292   2.468  16.077  0.1972  0.1419  0.1742
 6317SOL    HW130587   2.290   2.491  16.170  0.8865  0.8342  0.0113
 6317SOL    HW230588   2.302   2.556  16.039  0.3788 -0.1311 -0.4149
 6318SOL     OW30589   4.353   1.823   5.882  0.2241  0.1220  0.3990
 6318SOL    HW130590   4.277   1.881   5.870  1.6526  1.3076 -2.8882
 6318SOL    HW230591   4.356   1.816   5.977 -3.3581 -0.1464  0.5170
 6319SOL     OW30592   1.756   3.916   2.082  0.4162  0.0850 -0.3328
 6319SOL    HW130593   1.752   3.857   2.007  0.9661  1.8765 -1.7585
 6319SOL    HW230594   1.668   3.952   2.081  0.2332 -0.3496  0.1563
 6320SOL     OW30595   2.809   0.164   5.746  0.2173  0.5455  0.1404
 6320SOL    HW130596   2.822   0.250   5.705  0.3158 -0.3512 -1.7549
 6320SOL    HW230597   2.843   0.102   5.681 -0.2964  1.8704 -1.3925
 6321SOL     OW30598   3.256   0.458   3.001 -0.0219  0.2537  0.2477
 6321SOL    HW130599   3.177   0.417   3.039  0.3975  1.5349  2.4838
 6321SOL    HW230600   3.224   0.478   2.913 -1.4950  3.5240  1.5093
 6322SOL     OW30601   1.069   1.298   1.500  0.3003 -0.1169 -0.2394
 6322SOL    HW130602   1.125   1.220   1.500 -1.6664 -1.5419  2.6164
 6322SOL    HW230603   1.120   1.360   1.450  3.5635 -0.4471  2.6508
 6323SOL     OW30604   3.618   2.158  15.564 -0.4676  0.6884 -0.3541
 6323SOL    HW130605   3.598   2.107  15.642 -0.7996  2.7448  0.8807
 6323SOL    HW230606   3.705   2.138  15.528 -0.2371 -1.0812  1.2047
 6324SOL     OW30607   0.154   3.347   2.947  0.4221 -0.0462 -0.3030
 6324SOL    HW130608   0.072   3.396   2.946  0.6710  0.4045  1.2814
 6324SOL    HW230609   0.173   3.339   2.853 -1.3823  1.2873 -0.7699
 6325SOL     OW30610   1.284   1.840   2.352  0.3237 -0.0779 -0.0290
 6325SOL    HW130611   1.205   1.873   2.309 -1.2696 -2.5024  1.0013
 6325SOL    HW230612   1.270   1.846   2.446  1.3119  0.7148  0.0651
 6326SOL     OW30613   2.566   4.673   4.880 -0.5479 -0.6955 -0.3173
 6326SOL    HW130614   2.642   4.656   4.935 -1.1928  0.0792  0.7911
 6326SOL    HW230615   2.584   4.618   4.803 -0.8721 -2.9443  1.2298
 6327SOL     OW30616   0.572   3.623  17.036  0.2120  0.6025  0.3425
 6327SOL    HW130617   0.550   3.588  16.949 -1.5697 -0.2125  1.1234
 6327SOL    HW230618   0.643   3.563  17.060 -2.7696 -3.3487 -0.7724
 6328SOL     OW30619   4.006   1.942   6.251  0.0845 -0.2658 -0.2345
 6328SOL    HW130620   4.039   1.969   6.336  0.2958  0.0140 -0.4015
 6328SOL    HW230621   3.927   1.895   6.275 -0.6923  1.5033  0.6534
 6329SOL     OW30622   3.346   0.285   8.326  0.6103  0.2352 -0.4125
 6329SOL    HW130623   3.276   0.272   8.390 -1.1905  2.4233 -1.9444
 6329SOL    HW230624   3.315   0.232   8.252  0.1648 -1.5779  1.0765
 6330SOL     OW30625   1.659   0.789   4.656  0.1654 -0.5985 -0.4760
 6330SOL    HW130626   1.754   0.792   4.666  0.3346  1.1173 -2.8787
 6330SOL    HW230627   1.626   0.765   4.743 -1.0235 -1.0610 -1.0545
 6331SOL     OW30628   1.039   4.630  11.447 -0.1341 -0.0461 -0.0223
 6331SOL    HW130629   0.950   4.662  11.460 -0.6616 -0.6278 -2.2002
 6331SOL    HW230630   1.054   4.596  11.536 -2.9290 -0.6658  0.2118
 6332SOL     OW30631   2.286   1.900   4.038  0.2060 -0.5486 -0.2356
 6332SOL    HW130632   2.370   1.942   4.018  0.9166 -1.3784  1.0369
 6332SOL    HW230633   2.255   1.963   4.103  0.9304 -0.3004 -0.1336
 6333SOL     OW30634   0.887   2.712   3.687 -0.4520 -0.0935  0.0033
 6333SOL    HW130635   0.869   2.803   3.710 -1.2974 -0.3260  0.2659
 6333SOL    HW230636   0.797   2.678   3.685  0.3552 -2.0320 -2.4692
 6334SOL     OW30637   1.040   1.915   5.022 -0.1038 -0.3013  0.5842
 6334SOL    HW130638   1.117   1.967   5.049 -1.0311  1.5929 -0.4508
 6334SOL    HW230639   1.076   1.872   4.945  0.5301 -1.1610  1.3608
 6335SOL     OW30640   2.850   2.700   6.870 -0.4364 -0.1033 -0.2589
 6335SOL    HW130641   2.839   2.782   6.822 -1.4249  0.3031  0.6705
 6335SOL    HW230642   2.784   2.701   6.939  1.5553 -0.2099  1.6679
 6336SOL     OW30643   0.514   3.664  11.861 -0.0521  0.3494 -0.0434
 6336SOL    HW130644   0.575   3.602  11.820  0.2218  0.0983  0.7418
 6336SOL    HW230645   0.531   3.630  11.949  3.2441 -0.7631 -1.1111
 6337SOL     OW30646   0.947   1.649   6.643  0.2192  0.7548 -0.1281
 6337SOL    HW130647   0.933   1.723   6.701  1.0417  0.8737 -0.0717
 6337SOL    HW230648   0.973   1.583   6.707  0.9448  1.6114  0.4656
 6338SOL     OW30649   2.112   1.580   8.516  0.0521  0.0768  0.0894
 6338SOL    HW130650   2.130   1.518   8.587 -1.1383 -0.7854 -0.3681
 6338SOL    HW230651   2.130   1.669   8.545 -2.9066  0.5961  0.2950
 6339SOL     OW30652   3.973   4.372   0.825 -0.6943  0.2541  0.1701
 6339SOL    HW130653   3.987   4.374   0.730  3.3827 -4.1168  0.6794
 6339SOL    HW230654   4.050   4.413   0.864  1.2947 -2.7828 -0.5904
 6340SOL     OW30655   2.363   4.070   3.987 -0.0983  0.2720 -0.0724
 6340SOL    HW130656   2.345   4.048   4.078  0.1969  0.4567  0.0320
 6340SOL    HW230657   2.440   4.020   3.959  0.1064 -0.1357  1.2056
 6341SOL     OW30658   2.823   0.769  14.763 -0.2299  0.3791 -0.1310
 6341SOL    HW130659   2.746   0.792  14.711 -1.2562  2.9681  2.5184
 6341SOL    HW230660   2.798   0.804  14.849 -0.1125 -0.9710  0.4506
 6342SOL     OW30661   1.598   0.160   6.902 -0.5105 -0.1486  0.4892
 6342SOL    HW130662   1.534   0.207   6.956  0.9085  0.9306  1.2372
 6342SOL    HW230663   1.589   0.069   6.928 -3.1141 -0.4506 -1.4651
 6343SOL     OW30664   1.327   4.045   2.735  0.6849 -0.1674 -0.6854
 6343SOL    HW130665   1.256   3.991   2.769  2.1631  0.2691  3.0626
 6343SOL    HW230666   1.286   4.130   2.744  0.5854 -0.3916  0.9601
 6344SOL     OW30667   0.409   3.855  14.138 -0.0078 -0.7182  0.2938
 6344SOL    HW130668   0.379   3.805  14.061  0.7460  0.8067 -0.9919
 6344SOL    HW230669   0.415   3.942  14.098 -2.1963 -1.1793 -1.0630
 6345SOL     OW30670   3.359   3.668   2.455  0.1720  0.0872  0.1913
 6345SOL    HW130671   3.292   3.649   2.520 -1.1479  1.6149 -0.7468
 6345SOL    HW230672   3.352   3.763   2.462 -2.1283 -0.1833  1.4555
 6346SOL     OW30673   4.695   1.948   6.406 -0.3342 -0.0248  0.0546
 6346SOL    HW130674   4.648   1.883   6.458 -0.7788  0.3795  0.1573
 6346SOL    HW230675   4.623   2.001   6.374  0.0523  0.7425  0.4564
 6347SOL     OW30676   3.464   2.378   5.141  0.0688  0.3418 -0.0819
 6347SOL    HW130677   3.377   2.378   5.180  0.0651 -0.8063 -0.0839
 6347SOL    HW230678   3.451   2.330   5.059  0.3747  0.8240 -0.4131
 6348SOL     OW30679   2.921   2.556   8.939 -0.1378  0.7239  0.3436
 6348SOL    HW130680   2.978   2.613   8.887  0.5388 -0.3359 -0.0699
 6348SOL    HW230681   2.904   2.617   9.011  1.5800  2.8210 -0.9967
 6349SOL     OW30682   3.765   1.193  13.779  0.0630  0.0857 -0.4571
 6349SOL    HW130683   3.694   1.252  13.803  0.6892  1.7448 -2.7813
 6349SOL    HW230684   3.831   1.226  13.840  0.7790 -1.8190 -0.1752
 6350SOL     OW30685   3.248   3.590   8.155 -0.3062 -0.1243 -0.1691
 6350SOL    HW130686   3.242   3.647   8.077 -1.8548 -0.8538 -0.5876
 6350SOL    HW230687   3.242   3.507   8.108 -2.3626  0.4420 -0.9243
 6351SOL     OW30688   1.710   4.420   3.514  0.2427 -0.2359 -0.4135
 6351SOL    HW130689   1.769   4.488   3.549 -0.6979 -0.4419  1.5530
 6351SOL    HW230690   1.654   4.476   3.460  0.0770 -0.0237 -0.0185
 6352SOL     OW30691   4.053   3.227   4.579  0.0419  0.7391 -0.6852
 6352SOL    HW130692   4.108   3.204   4.504 -0.4826 -1.6821 -0.3196
 6352SOL    HW230693   4.006   3.144   4.573 -0.2049  0.8906 -0.8338
 6353SOL     OW30694   0.449   0.849  13.756  0.6142 -0.3150 -0.3775
 6353SOL    HW130695   0.541   0.824  13.755 -0.1467 -3.0611 -1.3776
 6353SOL    HW230696   0.402   0.779  13.711 -1.2891  0.7948 -0.1202
 6354SOL     OW30697   2.202   4.094   8.841  0.8232 -0.3961 -0.6174
 6354SOL    HW130698   2.139   4.078   8.912 -0.1788  2.3839 -0.8870
 6354SOL    HW230699   2.220   4.003   8.815  0.5551 -1.3366  2.4812
 6355SOL     OW30700   2.267   3.804   2.249 -0.0915 -0.2609 -0.6231
 6355SOL    HW130701   2.187   3.835   2.206 -0.7866 -1.4351 -0.1754
 6355SOL    HW230702   2.326   3.812   2.174 -0.7129  1.0044 -0.9803
 6356SOL     OW30703   2.351   1.118   9.689  0.4492 -0.7157  0.5278
 6356SOL    HW130704   2.324   1.209   9.705 -1.4373 -0.9258 -1.3654
 6356SOL    HW230705   2.435   1.108   9.735  1.0233  2.4699  0.1779
 6357SOL     OW30706   0.299   4.338   9.374 -0.2829  0.4219  0.3732
 6357SOL    HW130707   0.306   4.420   9.424 -2.8639  0.4617  0.6764
 6357SOL    HW230708   0.205   4.324   9.374 -0.2236  0.0656 -0.5380
 6358SOL     OW30709   1.126   1.501   5.022  0.5101  0.0960  0.5574
 6358SOL    HW130710   1.144   1.519   4.930  0.6971 -0.4293  0.4931
 6358SOL    HW230711   1.189   1.434   5.046  0.7144  0.1799  0.2536
 6359SOL     OW30712   2.857   2.984   7.236 -0.3126  0.5315  0.5568
 6359SOL    HW130713   2.917   2.945   7.173 -1.2123  0.4330 -0.2512
 6359SOL    HW230714   2.865   2.925   7.312  1.4432  0.9401  0.6720
 6360SOL     OW30715   3.767   1.355   3.187 -0.3155 -0.2507 -0.3792
 6360SOL    HW130716   3.755   1.322   3.098 -0.9267  1.7170 -1.0245
 6360SOL    HW230717   3.797   1.272   3.224  3.0426  1.8425  1.5764
 6361SOL     OW30718   4.157   3.293   7.629 -0.0052 -0.5346  0.0711
 6361SOL    HW130719   4.180   3.221   7.571  0.7345  0.7893 -1.2774
 6361SOL    HW230720   4.175   3.368   7.572  2.1219  0.9977  2.7561
 6362SOL     OW30721   2.559   2.370   1.951  0.6006 -0.0409 -0.3894
 6362SOL    HW130722   2.515   2.455   1.946  1.4640  0.4855  1.1746
 6362SOL    HW230723   2.645   2.388   1.912  0.5417  0.2266 -0.3969
 6363SOL     OW30724   0.224   3.587   1.121 -0.3242  0.3584  0.0458
 6363SOL    HW130725   0.146   3.568   1.173 -0.4310  1.9412  0.4612
 6363SOL    HW230726   0.230   3.681   1.137 -1.4149  0.3217  0.6714
 6364SOL     OW30727   1.254   1.803   6.362  0.4507 -0.4318  0.3789
 6364SOL    HW130728   1.169   1.772   6.395  1.0668 -0.7019  1.7149
 6364SOL    HW230729   1.243   1.818   6.268 -0.3063  0.3150  0.5906
 6365SOL     OW30730   0.779   2.312   9.533  0.7253 -0.3010 -0.1925
 6365SOL    HW130731   0.718   2.237   9.526 -0.2151  0.6650 -2.3973
 6365SOL    HW230732   0.814   2.298   9.445  1.1372 -0.2904 -0.0284
 6366SOL     OW30733   2.511   3.403   5.684 -0.1639  0.2137 -0.2811
 6366SOL    HW130734   2.524   3.494   5.657  0.7992 -0.0761 -0.8011
 6366SOL    HW230735   2.487   3.422   5.775  0.1640 -2.2501  0.3003
 6367SOL     OW30736   3.561   3.221   6.920 -0.6864 -0.4625  0.0125
 6367SOL    HW130737   3.470   3.247   6.903  0.1484  0.9586 -2.3782
 6367SOL    HW230738   3.587   3.193   6.832  2.4750 -1.8506  1.3853
 6368SOL     OW30739   1.236   2.803   9.633  0.0217 -0.4265 -0.1255
 6368SOL    HW130740   1.158   2.750   9.646  0.3925 -0.8674  0.2978
 6368SOL    HW230741   1.293   2.760   9.569  1.2628  0.2059  0.5561
 6369SOL     OW30742   0.497   3.260  15.497 -0.3330 -0.2460 -0.1973
 6369SOL    HW130743   0.557   3.233  15.566 -1.6255  0.2283  1.1101
 6369SOL    HW230744   0.563   3.285  15.432 -0.9189 -1.2370 -1.1668
 6370SOL     OW30745   4.590   2.299   1.818  0.0474  0.6671  0.0907
 6370SOL    HW130746   4.504   2.300   1.776  0.5980 -1.7268 -1.0616
 6370SOL    HW230747   4.564   2.306   1.910 -2.2911 -0.7704 -0.4677
 6371SOL     OW30748   2.196   0.119  11.710  0.1672 -0.4566 -0.1501
 6371SOL    HW130749   2.191   0.119  11.614 -1.7076 -1.7271 -0.0550
 6371SOL    HW230750   2.121   0.174  11.732 -1.0729 -3.1694  2.3765
 6372SOL     OW30751   0.772   2.261  15.409  0.2951  0.5705 -0.1355
 6372SOL    HW130752   0.691   2.279  15.456  0.2921  0.6564 -0.1738
 6372SOL    HW230753   0.762   2.319  15.333  0.8686  0.0367 -0.6221
 6373SOL     OW30754   1.093   2.499   2.011 -0.1825 -0.1595 -0.5251
 6373SOL    HW130755   1.117   2.453   2.091  2.3785  1.6047 -0.3029
 6373SOL    HW230756   1.169   2.552   1.985 -0.6931 -0.3514 -2.4431
 6374SOL     OW30757   2.558   1.222   0.753  0.2888 -0.1707  0.3551
 6374SOL    HW130758   2.498   1.245   0.682  0.2139 -0.3317  0.3673
 6374SOL    HW230759   2.545   1.129   0.774  1.9837 -0.2556  1.0527
 6375SOL     OW30760   0.358   0.938   0.700  0.3063  0.3101 -0.4213
 6375SOL    HW130761   0.418   0.993   0.749 -0.8512  0.2486  1.0568
 6375SOL    HW230762   0.311   0.902   0.775 -0.0144  3.4930  0.8984
 6376SOL     OW30763   4.294   1.752  16.245  0.0900  0.2155 -0.4031
 6376SOL    HW130764   4.255   1.784  16.164  0.7635  1.9361 -0.0535
 6376SOL    HW230765   4.377   1.799  16.241  0.7734 -1.0385 -1.0780
 6377SOL     OW30766   4.328   3.326   4.213 -0.0394 -0.3185 -0.5170
 6377SOL    HW130767   4.412   3.366   4.191  0.5507 -1.8445 -1.0036
 6377SOL    HW230768   4.325   3.353   4.305 -1.8374  2.1096 -1.2714
 6378SOL     OW30769   2.664   3.551   9.215 -0.0397 -0.4182 -0.2272
 6378SOL    HW130770   2.621   3.530   9.298  0.7780 -1.5848 -0.0901
 6378SOL    HW230771   2.593   3.606   9.181  0.6876 -0.4797 -1.8192
 6379SOL     OW30772   2.148   1.529   0.509  0.7458 -0.2858  0.1298
 6379SOL    HW130773   2.185   1.498   0.427 -0.2795  1.4232 -0.9811
 6379SOL    HW230774   2.189   1.615   0.506 -0.3265  0.1954 -0.6116
 6380SOL     OW30775   2.282   1.525   6.801 -0.1521 -0.4056  0.3842
 6380SOL    HW130776   2.355   1.587   6.811  0.0279 -0.7827  1.3938
 6380SOL    HW230777   2.248   1.553   6.715  2.0496 -2.0131 -1.0113
 6381SOL     OW30778   3.793   0.410   3.094 -0.1736 -0.3296 -0.4442
 6381SOL    HW130779   3.813   0.404   3.187 -4.0213  0.8438  0.4773
 6381SOL    HW230780   3.703   0.438   3.114  0.1214 -0.4493  1.0284
 6382SOL     OW30781   3.284   2.428  16.133 -0.2142  0.0278 -0.1898
 6382SOL    HW130782   3.324   2.343  16.150 -3.2750 -1.6372 -1.2520
 6382SOL    HW230783   3.221   2.451  16.202  0.5577  1.2087  0.1264
 6383SOL     OW30784   0.649   3.152   9.043 -0.6168 -0.3570  0.2287
 6383SOL    HW130785   0.737   3.138   9.078 -0.8084 -1.0257  0.4408
 6383SOL    HW230786   0.670   3.214   8.973  0.0540  0.7762  1.4420
 6384SOL     OW30787   4.089   4.695   7.559  0.3056 -0.3637 -0.5979
 6384SOL    HW130788   4.007   4.650   7.539  0.0819  0.0183 -0.5408
 6384SOL    HW230789   4.120   4.735   7.478 -2.9288  0.9377 -1.1788
 6385SOL     OW30790   0.780   3.603   6.994  0.0708 -0.3578 -0.0818
 6385SOL    HW130791   0.732   3.532   7.037 -1.5211 -0.8784 -2.7480
 6385SOL    HW230792   0.866   3.566   6.975  0.2900  0.7664 -1.2388
 6386SOL     OW30793   3.555   2.302   9.530  0.3190  0.6737  0.1773
 6386SOL    HW130794   3.510   2.363   9.589 -1.7111 -0.1363 -0.5593
 6386SOL    HW230795   3.598   2.361   9.468  4.0508 -2.1851  0.0491
 6387SOL     OW30796   0.835   3.625   3.801  0.3484  0.0186  0.3826
 6387SOL    HW130797   0.806   3.643   3.711  2.6111  0.8675 -0.1827
 6387SOL    HW230798   0.755   3.596   3.844 -0.4786 -0.0861 -1.2110
 6388SOL     OW30799   0.164   0.976   0.248 -0.2554 -0.3395 -0.2809
 6388SOL    HW130800   0.174   0.985   0.342 -1.1592  0.7408 -0.2835
 6388SOL    HW230801   0.256   0.958   0.228 -0.5101 -0.9051 -0.9378
 6389SOL     OW30802   0.292   4.023   5.229  0.3591  0.1323 -0.2772
 6389SOL    HW130803   0.260   4.097   5.282  0.0488  0.0605 -0.3668
 6389SOL    HW230804   0.359   4.066   5.175  0.6952  2.6461  2.1115
 6390SOL     OW30805   0.216   2.692   3.737 -0.2341  0.1189 -0.4793
 6390SOL    HW130806   0.127   2.662   3.716 -0.9188  2.0604 -0.4348
 6390SOL    HW230807   0.222   2.738   3.653  0.9591 -1.3103 -1.1586
 6391SOL     OW30808   3.166   3.187   3.584  0.0531 -0.5044  0.3739
 6391SOL    HW130809   3.243   3.181   3.640  0.3012  0.5882  0.1622
 6391SOL    HW230810   3.123   3.269   3.612 -0.2711  0.4846 -2.9689
 6392SOL     OW30811   3.050   3.448   3.686  0.1309 -0.2241 -0.7823
 6392SOL    HW130812   3.088   3.461   3.773 -2.5918  0.8367  0.2627
 6392SOL    HW230813   2.975   3.389   3.696  0.6238 -0.6592  0.3462
 6393SOL     OW30814   1.131   4.659   9.793  0.4206  0.1942  0.1873
 6393SOL    HW130815   1.078   4.739   9.789  2.4612  1.4675 -1.7750
 6393SOL    HW230816   1.220   4.694   9.798  1.2050 -1.6757 -0.7036
 6394SOL     OW30817   1.856   4.035   5.814 -0.7852 -0.1600 -0.4329
 6394SOL    HW130818   1.897   3.985   5.744  1.4312 -0.6788  1.2363
 6394SOL    HW230819   1.904   4.000   5.889 -0.1597  1.2987 -0.1356
 6395SOL     OW30820   1.283   0.375   2.487  0.6223 -0.2699  0.3293
 6395SOL    HW130821   1.237   0.380   2.571 -0.4124  2.4693 -0.4199
 6395SOL    HW230822   1.207   0.392   2.432  1.8608  0.1991 -1.2311
 6396SOL     OW30823   1.445   1.896   1.602 -0.1938 -0.8788  0.2328
 6396SOL    HW130824   1.352   1.888   1.578 -0.5201  0.5945  1.0401
 6396SOL    HW230825   1.483   1.903   1.514 -2.0542  0.4144 -0.4649
 6397SOL     OW30826   0.409   3.845   0.953 -0.5395  0.1261 -0.2617
 6397SOL    HW130827   0.317   3.869   0.960 -1.0066 -1.1454 -2.2959
 6397SOL    HW230828   0.399   3.756   0.921 -3.4601  0.1353  0.5785
 6398SOL     OW30829   0.014   2.619   6.656  0.2441 -0.2326 -0.4246
 6398SOL    HW130830   4.720   2.533   6.683  0.1647 -0.7685 -2.2271
 6398SOL    HW230831   0.051   2.649   6.739 -1.8257 -2.3666  1.2533
 6399SOL     OW30832   3.927   4.646  15.530 -0.2083  0.0635 -0.6218
 6399SOL    HW130833   4.008   4.679  15.493  0.3380 -2.5405 -1.7515
 6399SOL    HW230834   3.864   4.708  15.493 -0.0179  1.2068  0.9418
 6400SOL     OW30835   0.844   0.555   1.817 -0.3491  0.2203  0.0625
 6400SOL    HW130836   0.753   0.530   1.833 -0.9148  1.4481 -1.2392
 6400SOL    HW230837   0.889   0.481   1.856 -2.3202 -1.0495 -0.0657
 6401SOL     OW30838   4.416   4.031   7.007  0.4501 -0.3158  0.8953
 6401SOL    HW130839   4.356   3.957   7.013 -0.2422  0.1809  0.0711
 6401SOL    HW230840   4.389   4.071   7.090  1.3641  0.1385  0.9718
 6402SOL     OW30841   3.676   2.090  11.528  0.3496  0.1038 -0.7814
 6402SOL    HW130842   3.771   2.101  11.532  0.4769 -1.6384  0.9987
 6402SOL    HW230843   3.660   2.087  11.434  1.0178 -0.6742 -0.8628
 6403SOL     OW30844   0.302   2.957   9.462  0.4478 -1.1442 -0.0260
 6403SOL    HW130845   0.250   2.954   9.381  2.0964 -0.3895 -1.1182
 6403SOL    HW230846   0.255   3.033   9.496  0.7154 -1.4857  1.0872
 6404SOL     OW30847   2.515   0.340   5.479 -0.4277 -0.2151  0.1208
 6404SOL    HW130848   2.498   0.246   5.487 -2.9541  0.2551  0.4380
 6404SOL    HW230849   2.569   0.355   5.557  1.1482 -0.6030 -0.9094
 6405SOL     OW30850   0.133   2.089  11.628 -1.0362  0.3588  0.2835
 6405SOL    HW130851   0.064   2.154  11.635 -1.7411 -0.1324 -2.0916
 6405SOL    HW230852   0.203   2.138  11.671 -0.2073 -1.2584  0.7624
 6406SOL     OW30853   2.157   4.133   4.302 -0.3065 -0.3330 -0.6738
 6406SOL    HW130854   2.152   4.189   4.224 -1.9978 -2.0294 -1.7997
 6406SOL    HW230855   2.086   4.072   4.281 -0.6804 -0.2397  0.3352
 6407SOL     OW30856   2.738   2.571  14.731  0.5574  0.1543  0.2437
 6407SOL    HW130857   2.799   2.644  14.728 -0.0391  0.6705  0.5783
 6407SOL    HW230858   2.698   2.564  14.644 -0.4481 -1.7888  0.8536
 6408SOL     OW30859   3.616   3.232   4.489  0.2431 -0.1237 -0.0088
 6408SOL    HW130860   3.597   3.315   4.532  0.5663 -0.0193 -0.0709
 6408SOL    HW230861   3.648   3.178   4.562  0.1308 -0.5319 -0.2626
 6409SOL     OW30862   4.520   2.030   5.637  0.1974  0.0506 -0.0160
 6409SOL    HW130863   4.560   2.033   5.550 -0.8684  1.2768 -0.4623
 6409SOL    HW230864   4.595   1.990   5.681  0.2790  0.2722  0.0462
 6410SOL     OW30865   0.634   3.976  13.190  0.1405 -0.2518 -0.1048
 6410SOL    HW130866   0.694   4.044  13.160  2.9129 -2.7521 -0.1982
 6410SOL    HW230867   0.647   3.964  13.284  0.1361 -0.3062 -0.1111
 6411SOL     OW30868   0.754   1.119   9.112 -0.1966 -0.0592  0.3048
 6411SOL    HW130869   0.840   1.155   9.130 -0.3762  0.4267  0.2013
 6411SOL    HW230870   0.740   1.140   9.019  1.6611 -1.1531 -0.2062
 6412SOL     OW30871   1.440   3.773   5.115 -0.3638 -0.0064  0.4883
 6412SOL    HW130872   1.385   3.850   5.124  0.5926  0.7117  0.2063
 6412SOL    HW230873   1.444   3.763   5.020  2.9496 -1.0702  0.7161
 6413SOL     OW30874   2.742   0.650   7.887 -0.5281 -0.0254 -0.2527
 6413SOL    HW130875   2.699   0.591   7.949 -1.0395 -0.4149 -0.9696
 6413SOL    HW230876   2.756   0.591   7.812 -0.5830 -1.8592  1.1622
 6414SOL     OW30877   1.534   3.194  11.811  0.3781 -0.1449 -0.2537
 6414SOL    HW130878   1.598   3.141  11.857 -0.6981  0.0173  1.4447
 6414SOL    HW230879   1.568   3.282  11.796  0.8623 -0.0604  1.3461
 6415SOL     OW30880   4.715   0.278  15.177  0.1690 -0.2115  1.1785
 6415SOL    HW130881   0.067   0.248  15.177 -0.4583 -2.1444 -1.3630
 6415SOL    HW230882   4.667   0.198  15.197 -0.5150 -0.1977 -0.3622
 6416SOL     OW30883   3.253   1.370  16.331  0.0344  0.3556  0.7337
 6416SOL    HW130884   3.312   1.296  16.345 -0.2243  0.2278  1.1288
 6416SOL    HW230885   3.286   1.440  16.386  0.9719  1.6512 -1.4572
 6417SOL     OW30886   3.971   0.585   2.526  0.1959  0.2351 -0.4559
 6417SOL    HW130887   3.964   0.607   2.619 -0.5599 -2.3795  0.1028
 6417SOL    HW230888   3.954   0.674   2.495 -0.1959 -0.6191 -2.6681
 6418SOL     OW30889   0.833   2.406   4.374  0.3530  0.4448  0.0341
 6418SOL    HW130890   0.891   2.330   4.384  0.6503  0.8763  1.5643
 6418SOL    HW230891   0.793   2.373   4.293  0.3474  0.4504  0.0346
 6419SOL     OW30892   0.898   1.972   3.957 -0.2418 -0.6048 -0.3483
 6419SOL    HW130893   0.870   2.019   4.036 -0.5013  1.9014 -1.9114
 6419SOL    HW230894   0.918   2.047   3.900  1.7661 -0.3123  0.7432
 6420SOL     OW30895   2.385   4.592   7.642  0.0618 -0.2412 -0.2911
 6420SOL    HW130896   2.421   4.648   7.711  0.7564  0.9501 -1.6122
 6420SOL    HW230897   2.424   4.511   7.672 -0.6377 -0.1372  0.9065
 6421SOL     OW30898   3.719   1.831   0.718  0.2807  0.0365  0.1624
 6421SOL    HW130899   3.677   1.797   0.798  0.6036 -2.2940 -0.6739
 6421SOL    HW230900   3.669   1.909   0.695  1.9392  0.9838 -0.1461
 6422SOL     OW30901   3.938   4.137  10.542 -0.2266 -0.0126  0.2969
 6422SOL    HW130902   3.958   4.044  10.556 -0.1918  0.4241  3.3027
 6422SOL    HW230903   3.856   4.135  10.591  0.9855  1.7220  2.4124
 6423SOL     OW30904   0.531   4.215   5.167  0.6416 -0.2445  0.2639
 6423SOL    HW130905   0.526   4.307   5.139 -0.4352 -0.4825 -0.3275
 6423SOL    HW230906   0.622   4.217   5.197  0.6223  2.3696  0.1511
 6424SOL     OW30907   4.050   2.806   6.205  0.2413  0.1073  0.4029
 6424SOL    HW130908   4.089   2.833   6.122  0.5603  0.3555  0.6319
 6424SOL    HW230909   4.016   2.893   6.226  0.8541  0.8283 -1.5662
 6425SOL     OW30910   2.395   0.311   6.666 -0.1057  0.3018  0.3028
 6425SOL    HW130911   2.299   0.313   6.656  0.0105  1.0450 -0.6320
 6425SOL    HW230912   2.427   0.392   6.627 -1.4777  0.4765 -0.4807
 6426SOL     OW30913   3.718   4.235   4.925 -0.2765  0.3470 -0.1924
 6426SOL    HW130914   3.643   4.191   4.966  0.5119 -0.7542  0.0769
 6426SOL    HW230915   3.789   4.219   4.986 -0.9815 -2.7471 -0.1861
 6427SOL     OW30916   4.191   0.573   9.197  0.1507  0.5255  0.2878
 6427SOL    HW130917   4.147   0.507   9.143  1.1150  0.2077 -0.1051
 6427SOL    HW230918   4.151   0.652   9.160 -1.3141  0.5210  1.8380
 6428SOL     OW30919   2.115   3.861   1.228  0.3045 -0.1392 -0.0040
 6428SOL    HW130920   2.032   3.882   1.270  0.4193 -1.1414  0.7429
 6428SOL    HW230921   2.181   3.883   1.294 -1.3458 -1.0407  1.9778
 6429SOL     OW30922   1.955   3.453  17.155  0.1404  0.1221  0.1697
 6429SOL    HW130923   1.886   3.423  17.214 -1.4120  3.0177 -0.1453
 6429SOL    HW230924   2.011   3.490  17.223  1.9001 -1.1656 -0.6161
 6430SOL     OW30925   1.576   3.016   6.446  0.0205  0.1855 -0.8154
 6430SOL    HW130926   1.519   2.993   6.519  0.3002 -0.6655 -0.8663
 6430SOL    HW230927   1.571   3.111   6.455  0.1537  0.2757 -1.6763
 6431SOL     OW30928   4.322   1.302   9.029  0.2464 -0.6483 -0.9095
 6431SOL    HW130929   4.408   1.287   9.069 -0.9834  0.4279  2.1628
 6431SOL    HW230930   4.336   1.388   8.991 -1.1015  0.3090  0.7677
 6432SOL     OW30931   4.432   0.381  13.100  0.6391 -0.1058  0.0527
 6432SOL    HW130932   4.522   0.384  13.066  1.1726  0.3059  1.5089
 6432SOL    HW230933   4.406   0.473  13.106 -3.4037 -1.1330 -2.2807
 6433SOL     OW30934   3.000   3.127  11.301  0.1102  0.0832  0.1979
 6433SOL    HW130935   2.983   3.049  11.248 -2.1028 -0.2064  1.3123
 6433SOL    HW230936   3.052   3.177  11.239 -1.5298 -1.0247 -2.0544
 6434SOL     OW30937   4.354   3.672   9.137 -0.1375  0.6110 -0.3857
 6434SOL    HW130938   4.368   3.656   9.230 -0.1042 -3.1150 -1.0381
 6434SOL    HW230939   4.351   3.587   9.094 -0.3480  0.0520  0.7563
 6435SOL     OW30940   4.470   3.299   7.270 -0.4704 -0.5581  0.4048
 6435SOL    HW130941   4.438   3.361   7.335  1.4040  1.3594 -0.5173
 6435SOL    HW230942   4.407   3.230   7.293 -1.3104  0.4607  1.1055
 6436SOL     OW30943   3.107   1.585   5.228  0.1855 -0.4277  0.3671
 6436SOL    HW130944   3.095   1.560   5.320 -0.1024 -0.4983  0.3117
 6436SOL    HW230945   3.034   1.646   5.217  1.5378  1.1759  0.2458
 6437SOL     OW30946   3.539   2.429   8.534 -0.3693  0.0422  0.1496
 6437SOL    HW130947   3.460   2.484   8.536 -0.8867 -0.7014 -0.0820
 6437SOL    HW230948   3.580   2.456   8.452  0.4684 -2.1658 -0.1445
 6438SOL     OW30949   1.365   1.911   5.680 -0.2645  0.0634  0.3113
 6438SOL    HW130950   1.373   1.942   5.590 -3.3279 -0.6476 -0.2069
 6438SOL    HW230951   1.314   1.986   5.711  1.2558  0.5503  1.6346
 6439SOL     OW30952   2.337   2.887  12.400 -1.0352 -0.2200  0.1743
 6439SOL    HW130953   2.322   2.874  12.307 -3.3265  0.0760  0.4886
 6439SOL    HW230954   2.261   2.846  12.442  0.5583  0.6564  3.9816
 6440SOL     OW30955   0.312   1.798   9.526  0.1771  0.6360  0.4596
 6440SOL    HW130956   0.297   1.725   9.467  0.1501  0.6113  0.4970
 6440SOL    HW230957   0.405   1.778   9.536  0.1644  0.0873 -0.5156
 6441SOL     OW30958   4.564   1.979  16.604  0.1185  0.1976  0.2897
 6441SOL    HW130959   4.621   1.907  16.577 -0.0034  0.4688 -0.6889
 6441SOL    HW230960   4.486   1.930  16.629 -0.7396  0.9972 -0.7876
 6442SOL     OW30961   1.580   1.018   8.155 -0.3157 -0.7269  0.4395
 6442SOL    HW130962   1.539   1.105   8.148 -0.1569 -0.5985  1.1228
 6442SOL    HW230963   1.540   0.972   8.081  1.0589 -1.3296  0.0736
 6443SOL     OW30964   4.657   0.776   3.332 -0.7332 -0.7941 -0.1593
 6443SOL    HW130965   0.003   0.767   3.287 -0.6099  2.8513 -0.7138
 6443SOL    HW230966   4.682   0.758   3.423  0.5298  0.6833 -0.2163
 6444SOL     OW30967   3.137   3.562   4.544 -0.2759 -0.2933  0.0335
 6444SOL    HW130968   3.201   3.625   4.511 -2.1222 -0.4228 -3.8042
 6444SOL    HW230969   3.190   3.502   4.597  0.5325 -0.6471 -1.1729
 6445SOL     OW30970   4.052   2.187  10.628  0.1991  0.3733 -0.5257
 6445SOL    HW130971   4.121   2.154  10.685 -0.6526 -0.5223 -0.0203
 6445SOL    HW230972   4.093   2.156  10.547 -0.2295  0.2322 -0.6916
 6446SOL     OW30973   4.120   2.924  14.857  0.7400 -0.0547 -0.3010
 6446SOL    HW130974   4.030   2.942  14.831 -0.0890 -0.4355  2.3361
 6446SOL    HW230975   4.122   2.972  14.939  0.7330  1.2352 -1.0562
 6447SOL     OW30976   2.318   3.055   6.835  0.3748 -0.1138  0.5736
 6447SOL    HW130977   2.260   2.980   6.826  0.7272 -0.5539  1.9060
 6447SOL    HW230978   2.274   3.100   6.907  0.0932  1.9611 -0.9095
 6448SOL     OW30979   3.701   3.731   8.886  0.3598 -0.5636 -0.1626
 6448SOL    HW130980   3.680   3.682   8.807 -1.7612 -0.9744  0.6529
 6448SOL    HW230981   3.644   3.679   8.943 -2.3127  1.2440 -1.2361
 6449SOL     OW30982   0.540   1.649   4.410 -0.0821 -0.4578  0.5981
 6449SOL    HW130983   0.572   1.563   4.383 -1.7971  0.2183 -3.6865
 6449SOL    HW230984   0.590   1.656   4.491  0.7732 -0.8258  0.0956
 6450SOL     OW30985   3.013   2.173   3.325  0.6975 -0.3065  0.1151
 6450SOL    HW130986   3.071   2.161   3.249  1.5706  0.2784  0.6941
 6450SOL    HW230987   3.071   2.146   3.396  0.0772  1.5629  1.3387
 6451SOL     OW30988   3.590   2.634  12.321  0.0746 -0.1658 -0.3692
 6451SOL    HW130989   3.544   2.701  12.371  0.5593  0.0663 -0.2375
 6451SOL    HW230990   3.643   2.699  12.274  2.5890 -1.0725  1.1955
 6452SOL     OW30991   4.554   4.194   2.922  0.4356  0.0982  0.4945
 6452SOL    HW130992   4.629   4.143   2.952 -0.0342 -0.0292  1.4498
 6452SOL    HW230993   4.510   4.126   2.870  4.5078 -0.1191 -2.6529
 6453SOL     OW30994   0.705   2.092   2.224  0.0234  0.1394  0.0624
 6453SOL    HW130995   0.735   2.014   2.176  1.2048  0.5781  0.1033
 6453SOL    HW230996   0.700   2.050   2.310 -0.2835 -0.3477 -0.1876
 6454SOL     OW30997   3.508   0.782   6.702  0.1888  0.3711  0.0312
 6454SOL    HW130998   3.448   0.856   6.688 -0.5518 -0.3080 -0.4184
 6454SOL    HW230999   3.568   0.804   6.631 -0.0640 -1.0862 -0.6328
 6455SOL     OW31000   3.187   0.806   8.124 -0.1658  0.2200  0.3510
 6455SOL    HW131001   3.117   0.842   8.069  1.7856 -0.2671 -2.4604
 6455SOL    HW231002   3.137   0.767   8.196 -0.4457  1.4339  0.8100
 6456SOL     OW31003   3.828   2.029   5.721 -0.5886 -0.1542  0.8149
 6456SOL    HW131004   3.810   2.110   5.673  0.4975  0.1651  0.9624
 6456SOL    HW231005   3.774   1.965   5.675 -1.0552  2.0273 -1.6583
 6457SOL     OW31006   3.812   1.279   6.538  0.1932  0.3646 -0.4653
 6457SOL    HW131007   3.785   1.305   6.450 -0.7931  2.0167  0.3229
 6457SOL    HW231008   3.724   1.266   6.574  0.3119  0.6471 -0.0759
 6458SOL     OW31009   1.226   2.361   8.855  0.3672  0.1590  0.0268
 6458SOL    HW131010   1.156   2.347   8.790  2.1291 -4.9147 -0.7584
 6458SOL    HW231011   1.176   2.354   8.936  0.9252  1.6645  0.5024
 6459SOL     OW31012   1.981   0.116   7.305 -0.0634  0.7273  0.2970
 6459SOL    HW131013   1.961   0.121   7.211  1.0917 -1.6580 -0.0797
 6459SOL    HW231014   1.991   0.021   7.310  0.8356  0.8275  0.4456
 6460SOL     OW31015   0.810   0.623   6.022 -0.1131 -0.5411  0.2060
 6460SOL    HW131016   0.727   0.654   6.058 -1.1449 -2.4649 -0.5349
 6460SOL    HW231017   0.859   0.585   6.095  1.4964 -0.3470 -0.7660
 6461SOL     OW31018   1.850   2.775   2.115 -1.1298 -0.0233  0.1408
 6461SOL    HW131019   1.777   2.798   2.173 -0.4189  0.7803  0.7173
 6461SOL    HW231020   1.817   2.696   2.073 -1.8155  0.2859  0.0958
 6462SOL     OW31021   0.054   1.002   5.759 -0.7033 -0.1982 -0.2917
 6462SOL    HW131022   4.723   1.067   5.751 -0.0476  0.3412 -1.5441
 6462SOL    HW231023   0.133   1.054   5.776 -0.1223 -1.8763  2.1724
 6463SOL     OW31024   1.384   1.406   6.691  0.0062  0.1778  0.0937
 6463SOL    HW131025   1.347   1.474   6.633 -2.5638 -1.4619 -0.1932
 6463SOL    HW231026   1.360   1.433   6.779 -0.3474 -0.3034  0.1401
 6464SOL     OW31027   0.546   3.173   9.441 -0.7249  0.2726 -0.1856
 6464SOL    HW131028   0.489   3.184   9.517  0.7132  2.2907  0.6171
 6464SOL    HW231029   0.588   3.087   9.442 -0.1293  0.5467 -1.3636
 6465SOL     OW31030   3.481   0.469  15.516  0.0890 -0.0147  0.6240
 6465SOL    HW131031   3.436   0.551  15.496 -1.9959 -0.8103  2.0915
 6465SOL    HW231032   3.524   0.496  15.597 -1.2073 -0.6338  1.5142
 6466SOL     OW31033   3.905   1.101   1.988 -0.1207  0.1519 -0.1845
 6466SOL    HW131034   3.824   1.133   2.027  0.5511 -0.0687  1.3949
 6466SOL    HW231035   3.927   1.163   1.919  0.0280  0.9191  0.5546
 6467SOL     OW31036   2.239   0.446   3.373 -0.6695  0.2461  0.2058
 6467SOL    HW131037   2.153   0.411   3.395 -0.6404  0.3014  0.4032
 6467SOL    HW231038   2.301   0.410   3.435 -1.5365 -0.9008  0.4128
 6468SOL     OW31039   3.500   0.602   1.917 -0.1713 -0.0748 -0.3861
 6468SOL    HW131040   3.492   0.643   2.003 -1.7427  3.2218 -2.1258
 6468SOL    HW231041   3.593   0.579   1.919  0.3977  2.2505 -0.7566
 6469SOL     OW31042   2.985   4.306   5.488 -0.3208 -0.0123  0.0408
 6469SOL    HW131043   3.049   4.341   5.425  1.4585 -2.3654  0.5449
 6469SOL    HW231044   3.037   4.272   5.561  1.8934  2.4034 -0.4248
 6470SOL     OW31045   0.153   4.639  12.430 -0.6962  0.2047  0.2476
 6470SOL    HW131046   0.208   4.563  12.448 -0.9536  0.3118  1.4810
 6470SOL    HW231047   0.119   4.658  12.517  2.1012  1.0704  1.1616
 6471SOL     OW31048   3.356   2.133   9.379  0.8184 -0.2717  0.4799
 6471SOL    HW131049   3.416   2.184   9.434  0.1004  2.3699 -1.1787
 6471SOL    HW231050   3.299   2.199   9.339 -0.1502 -1.0156  0.6453
 6472SOL     OW31051   1.469   3.606   6.411 -0.0642  0.5220  1.2294
 6472SOL    HW131052   1.547   3.592   6.357 -0.2547  0.2988  1.0109
 6472SOL    HW231053   1.495   3.591   6.502 -0.4495  1.1098  1.4310
 6473SOL     OW31054   2.410   0.029   6.615  0.0808  0.6621 -0.3103
 6473SOL    HW131055   2.318   0.014   6.637  0.1426 -0.5379 -0.8725
 6473SOL    HW231056   2.414   0.123   6.634  1.2679  0.4537  0.4654
 6474SOL     OW31057   3.703   3.563   5.806 -0.2061 -0.4411 -0.4336
 6474SOL    HW131058   3.748   3.503   5.746  0.7951 -1.1620  1.0089
 6474SOL    HW231059   3.782   3.607   5.839 -0.2800  1.0721 -2.2943
 6475SOL     OW31060   4.402   4.583   3.149 -0.0414 -0.3780  0.0372
 6475SOL    HW131061   4.435   4.540   3.070 -0.3401  2.2904 -1.5360
 6475SOL    HW231062   4.415   4.675   3.125 -0.4138 -0.3189  0.0639
 6476SOL     OW31063   2.276   2.684  13.848 -0.4054 -0.0860 -0.5467
 6476SOL    HW131064   2.342   2.725  13.791  1.2430  2.4125  3.1556
 6476SOL    HW231065   2.303   2.595  13.827  0.6433  1.0859 -4.2907
 6477SOL     OW31066   1.877   4.473   2.100 -0.5193  0.1934 -0.2659
 6477SOL    HW131067   1.954   4.529   2.118 -1.3645  1.7490 -1.4669
 6477SOL    HW231068   1.849   4.517   2.020 -3.1520 -0.7022  0.1797
 6478SOL     OW31069   0.102   3.051   9.796  0.1654 -0.1248 -0.2749
 6478SOL    HW131070   0.022   3.054   9.848  0.2900 -1.2932 -0.0109
 6478SOL    HW231071   0.161   3.095   9.858 -1.2917  0.5189  0.6513
 6479SOL     OW31072   2.181   0.138  17.724  1.2001  0.3305 -0.4268
 6479SOL    HW131073   2.255   0.161  17.668 -0.7095 -0.1512 -3.1447
 6479SOL    HW231074   2.124   0.211  17.701 -0.1021 -0.2002  1.0473
 6480SOL     OW31075   2.776   1.223   4.338  0.2359 -0.0735 -0.1534
 6480SOL    HW131076   2.854   1.225   4.282  0.5044 -0.6631  0.1934
 6480SOL    HW231077   2.716   1.163   4.294 -1.2855  0.9494  0.5507
 6481SOL     OW31078   2.858   2.847  17.589  0.6591 -0.2611  0.2492
 6481SOL    HW131079   2.880   2.781  17.655 -1.0938 -0.4350  0.6505
 6481SOL    HW231080   2.846   2.912  17.658  3.3329  1.9921 -1.4270
 6482SOL     OW31081   0.314   2.642   8.997 -0.4202 -0.3692  0.6521
 6482SOL    HW131082   0.279   2.669   8.912 -0.6467 -0.0249  0.8558
 6482SOL    HW231083   0.348   2.556   8.972 -1.4108 -0.8440  0.9532
 6483SOL     OW31084   4.708   1.560   5.600  0.0469 -0.0853  0.8371
 6483SOL    HW131085   4.619   1.565   5.567  0.4723 -2.1872 -0.5841
 6483SOL    HW231086   4.691   1.617   5.675 -0.8535  1.1941 -0.3542
 6484SOL     OW31087   0.799   3.448  17.076  0.3011 -0.3261  0.1528
 6484SOL    HW131088   0.792   3.421  16.984 -1.4697  1.3234 -0.2104
 6484SOL    HW231089   0.853   3.375  17.106 -0.4527  0.2673  2.9940
 6485SOL     OW31090   3.881   0.190   4.882  0.1865  0.1756 -0.3629
 6485SOL    HW131091   3.951   0.236   4.928  1.0905 -0.8903 -0.6899
 6485SOL    HW231092   3.805   0.220   4.932  2.5759  0.5178  3.0107
 6486SOL     OW31093   2.033   1.072  17.533  0.2931  0.1749  0.2952
 6486SOL    HW131094   2.017   0.993  17.585  0.7432 -0.8607 -1.1369
 6486SOL    HW231095   2.127   1.069  17.514 -0.1967 -1.2599 -1.9411
 6487SOL     OW31096   3.601   3.034  16.676 -0.3446 -0.0255 -0.1980
 6487SOL    HW131097   3.508   3.034  16.699  0.2222 -1.7462  2.1142
 6487SOL    HW231098   3.636   3.115  16.711 -0.6895  0.0266  0.0288
 6488SOL     OW31099   1.228   3.334   3.317  0.8110 -0.1697 -0.0874
 6488SOL    HW131100   1.162   3.282   3.364  0.5020  0.9640  0.7510
 6488SOL    HW231101   1.177   3.365   3.243  0.1413 -1.6356 -0.2304
 6489SOL     OW31102   1.833   0.953   0.120  0.0787  0.1401 -0.1276
 6489SOL    HW131103   1.809   0.934   0.029  1.4966 -1.3140 -0.2140
 6489SOL    HW231104   1.926   0.932   0.131 -0.0374 -0.7870 -0.9434
 6490SOL     OW31105   2.358   2.586   3.348 -0.9308  0.4601 -0.0955
 6490SOL    HW131106   2.373   2.621   3.260 -2.2358 -1.6865 -1.1721
 6490SOL    HW231107   2.268   2.617   3.356 -1.2401 -0.5573  0.4019
 6491SOL     OW31108   2.329   3.862   5.359  0.2422  1.0398  0.3882
 6491SOL    HW131109   2.290   3.917   5.427 -2.3111 -0.9859  0.5299
 6491SOL    HW231110   2.424   3.872   5.372  0.3617 -2.9252  2.4139
 6492SOL     OW31111   4.124   3.366  12.911  0.1091 -0.4903 -0.0736
 6492SOL    HW131112   4.195   3.410  12.865  1.1875  0.6175  2.6379
 6492SOL    HW231113   4.176   3.294  12.947  0.3404 -0.2068  0.1539
 6493SOL     OW31114   3.860   3.826   6.222 -0.0665  0.7261 -0.0783
 6493SOL    HW131115   3.901   3.818   6.309  0.8419  0.0482 -0.5667
 6493SOL    HW231116   3.885   3.741   6.185 -1.3048  1.0471 -1.6213
 6494SOL     OW31117   3.305   3.536   8.405 -0.2057  0.0273  0.1674
 6494SOL    HW131118   3.259   3.572   8.329  0.2871 -0.1934 -0.2392
 6494SOL    HW231119   3.275   3.591   8.477 -1.2993 -0.8398  0.3760
 6495SOL     OW31120   0.070   4.420  16.779  0.1572 -0.4321  0.1356
 6495SOL    HW131121   0.145   4.417  16.838  0.3138  1.0530  0.0081
 6495SOL    HW231122   0.007   4.464  16.835 -2.2458 -1.2223 -1.9427
 6496SOL     OW31123   2.671   2.229  10.877 -0.2712  0.4206 -0.1553
 6496SOL    HW131124   2.668   2.167  10.950 -0.0289 -0.9909 -1.3318
 6496SOL    HW231125   2.680   2.312  10.923  1.7666  0.8038 -1.2475
 6497SOL     OW31126   2.979   1.774   3.328  0.1952  0.0068 -0.8967
 6497SOL    HW131127   3.066   1.783   3.287  0.7651 -0.5848  0.1913
 6497SOL    HW231128   3.008   1.782   3.419 -0.7490 -0.4051 -0.5665
 6498SOL     OW31129   0.401   2.249   3.139 -0.1389  0.5020  0.0567
 6498SOL    HW131130   0.396   2.338   3.173 -2.4232  0.1916  0.4747
 6498SOL    HW231131   0.475   2.213   3.188  1.4415  1.7443 -1.4120
 6499SOL     OW31132   3.859   3.347   4.716 -0.5633  0.3435  0.6718
 6499SOL    HW131133   3.814   3.271   4.752  0.3048 -1.0872 -1.2801
 6499SOL    HW231134   3.923   3.299   4.663 -1.3475 -0.5769  0.5637
 6500SOL     OW31135   1.772   2.444   4.228  0.3283  0.0344 -0.1733
 6500SOL    HW131136   1.758   2.474   4.138  0.4612  1.5886  0.3245
 6500SOL    HW231137   1.694   2.483   4.267  2.0526  3.4050 -0.1167
 6501SOL     OW31138   0.601   4.213   3.717 -0.4362 -1.0665 -0.5859
 6501SOL    HW131139   0.657   4.144   3.752 -0.0706  0.1846  1.3103
 6501SOL    HW231140   0.522   4.162   3.699 -1.2720  0.0868 -0.1812
 6502SOL     OW31141   0.140   0.435   3.833 -0.4790 -0.2683 -0.3532
 6502SOL    HW131142   0.063   0.378   3.836 -2.2293  2.1882  1.4432
 6502SOL    HW231143   0.104   0.520   3.806 -1.4293 -0.0261  1.7197
 6503SOL     OW31144   3.860   3.328  10.579  0.6333  0.2924 -0.2770
 6503SOL    HW131145   3.831   3.392  10.514  1.1022  0.9450  0.1515
 6503SOL    HW231146   3.952   3.352  10.591  0.9129 -0.3112 -1.2051
 6504SOL     OW31147   2.005   0.517   6.028 -0.0286 -0.3687  0.0179
 6504SOL    HW131148   1.979   0.571   5.953  0.3880 -1.7987 -1.1362
 6504SOL    HW231149   2.051   0.581   6.083 -0.5471 -0.2145  0.2684
 6505SOL     OW31150   2.784   1.249  11.423 -0.1916  0.5592  0.2627
 6505SOL    HW131151   2.778   1.278  11.514  1.0437  1.0891  0.1779
 6505SOL    HW231152   2.852   1.181  11.431  0.6850  1.4008 -0.0915
 6506SOL     OW31153   3.503   0.076  14.582  0.1870 -0.4416 -0.7323
 6506SOL    HW131154   3.429   0.020  14.561 -0.1545  0.1827 -1.1926
 6506SOL    HW231155   3.547   0.050  14.501  0.7194 -1.1291 -0.2194
 6507SOL     OW31156   0.442   2.723   5.940  0.2050  0.4977  0.1872
 6507SOL    HW131157   0.462   2.816   5.951 -2.3755  1.0445  0.2695
 6507SOL    HW231158   0.468   2.706   5.850 -0.1501  0.8661  0.0146
 6508SOL     OW31159   1.944   1.029   7.287 -0.3901 -0.4015  0.1508
 6508SOL    HW131160   1.859   1.070   7.301 -0.1213  0.0028  0.5973
 6508SOL    HW231161   1.993   1.024   7.369 -1.1392  0.0107  0.6159
 6509SOL     OW31162   0.878   3.496   2.648 -0.8006  0.4264 -0.7870
 6509SOL    HW131163   0.955   3.552   2.652  0.5290 -1.5308  1.1731
 6509SOL    HW231164   0.920   3.412   2.629  0.1739  1.0500 -1.3827
 6510SOL     OW31165   1.446   4.442   7.468 -0.2338  0.3330  0.1786
 6510SOL    HW131166   1.399   4.503   7.411 -0.1473 -1.9729 -2.3087
 6510SOL    HW231167   1.424   4.482   7.552  0.8957  2.0265 -0.3331
 6511SOL     OW31168   0.026   3.459   2.100 -0.5465  0.4160  0.3979
 6511SOL    HW131169   0.001   3.551   2.110  2.0505  0.8980  2.3629
 6511SOL    HW231170   0.105   3.460   2.047  1.0425  0.0173  2.7526
 6512SOL     OW31171   2.613   1.819   3.585  0.3733  0.0593  0.8915
 6512SOL    HW131172   2.647   1.732   3.609  0.3605  0.6605  3.1384
 6512SOL    HW231173   2.639   1.817   3.493  1.3912 -0.6723  1.1846
 6513SOL     OW31174   0.855   0.525   5.458  0.4669 -0.6140  0.1643
 6513SOL    HW131175   0.800   0.494   5.531 -1.2005 -1.0947 -1.2845
 6513SOL    HW231176   0.814   0.485   5.382 -0.8594 -0.5355  0.8348
 6514SOL     OW31177   4.735   1.075   3.628 -0.6437  0.5107  0.1854
 6514SOL    HW131178   4.729   1.096   3.535  0.9069 -1.2394 -0.3045
 6514SOL    HW231179   0.066   1.010   3.623  0.4844  1.5200  2.6681
 6515SOL     OW31180   3.556   2.787   5.878  0.2893 -0.0098 -0.2314
 6515SOL    HW131181   3.535   2.720   5.813 -0.7515 -0.6085  0.7229
 6515SOL    HW231182   3.639   2.819   5.842 -0.0628  0.4580 -0.6209
 6516SOL     OW31183   0.832   3.293  16.429 -0.0485 -0.2516  0.1254
 6516SOL    HW131184   0.904   3.230  16.427  1.4241  1.4993 -2.4267
 6516SOL    HW231185   0.865   3.369  16.477  1.0524 -0.9159  0.4304
 6517SOL     OW31186   3.086   3.198   4.234  0.4952  0.1875  0.1761
 6517SOL    HW131187   3.066   3.184   4.326 -0.5924 -2.3157 -0.4366
 6517SOL    HW231188   3.120   3.111   4.212 -1.1110  0.0176 -1.6877
 6518SOL     OW31189   4.270   3.671  16.123  0.0680 -0.1273 -0.3136
 6518SOL    HW131190   4.235   3.687  16.211 -1.4044  0.3280 -0.9937
 6518SOL    HW231191   4.364   3.677  16.140 -0.2182 -0.3092  1.3817
 6519SOL     OW31192   4.278   0.688   3.104  0.4106 -0.6840  0.3880
 6519SOL    HW131193   4.202   0.640   3.071 -0.3655  2.1119 -1.9469
 6519SOL    HW231194   4.257   0.780   3.088 -1.6550 -1.0735  0.8331
 6520SOL     OW31195   1.550   3.869   0.538 -0.6117  0.2524 -0.0356
 6520SOL    HW131196   1.461   3.843   0.512  0.0590 -1.0087 -1.0904
 6520SOL    HW231197   1.595   3.825   0.465  0.1061 -0.0453  0.5934
 6521SOL     OW31198   4.079   4.682   4.157 -0.4151 -0.3067  0.2019
 6521SOL    HW131199   4.116   4.690   4.245 -2.0448 -0.1067  0.8633
 6521SOL    HW231200   4.130   4.604   4.135  1.5761  1.5690 -1.8650
 6522SOL     OW31201   4.292   3.431   9.925  0.2328  0.0393 -0.2534
 6522SOL    HW131202   4.375   3.389   9.947  0.1513  0.6462  1.2016
 6522SOL    HW231203   4.244   3.350   9.906  0.8271  0.1197 -2.0668
 6523SOL     OW31204   4.489   2.601  17.567  0.1655 -0.0803  0.0054
 6523SOL    HW131205   4.418   2.624  17.507  1.7532 -1.2932 -2.3366
 6523SOL    HW231206   4.506   2.510  17.543  0.9820  0.2194 -0.5618
 6524SOL     OW31207   1.601   1.291  17.598  0.4641  0.2408 -0.0030
 6524SOL    HW131208   1.663   1.262  17.532  2.3057 -0.1453  1.8872
 6524SOL    HW231209   1.579   1.380  17.570 -1.7033  0.3448  2.0261
 6525SOL     OW31210   2.522   1.992   2.074 -0.1603  0.1073 -0.0362
 6525SOL    HW131211   2.592   1.968   2.135 -2.3424 -1.1615  1.9490
 6525SOL    HW231212   2.570   2.010   1.994  2.4681  1.4555  1.8266
 6526SOL     OW31213   3.583   1.650   4.373 -0.1201 -0.6599 -0.4877
 6526SOL    HW131214   3.536   1.590   4.316 -1.9192 -0.5861  0.9153
 6526SOL    HW231215   3.507   1.708   4.383 -0.1299 -0.7167 -0.2241
 6527SOL     OW31216   4.046   4.154   7.055 -0.2311  0.2329  0.5210
 6527SOL    HW131217   4.045   4.098   6.977 -0.3067  0.5717  0.2785
 6527SOL    HW231218   3.994   4.226   7.019  1.1597  1.5887  1.2177
 6528SOL     OW31219   3.592   0.365  15.270  0.1167 -0.2675  0.3276
 6528SOL    HW131220   3.545   0.362  15.187 -0.2445  1.2507  0.4784
 6528SOL    HW231221   3.521   0.370  15.335  2.0956 -0.5948  2.5299
 6529SOL     OW31222   1.621   3.623  10.833 -0.0269 -0.3591 -0.0607
 6529SOL    HW131223   1.716   3.622  10.842 -0.3133 -0.2659  2.9752
 6529SOL    HW231224   1.595   3.711  10.860  2.0705  1.0375 -2.4902
 6530SOL     OW31225   3.539   4.348   6.329  0.1042 -0.3642 -0.2983
 6530SOL    HW131226   3.537   4.442   6.311  1.4335 -0.3806 -0.5354
 6530SOL    HW231227   3.447   4.328   6.314  0.6235 -0.8924 -2.8243
 6531SOL     OW31228   2.749   0.916  11.270 -0.2443  0.1118  0.2108
 6531SOL    HW131229   2.743   0.866  11.352 -1.2987  1.8783  1.2090
 6531SOL    HW231230   2.832   0.963  11.273  0.4302 -1.0862  0.5933
 6532SOL     OW31231   3.805   3.034  11.372 -0.3362 -0.4401  0.2708
 6532SOL    HW131232   3.865   3.027  11.446 -1.9917 -2.3028  1.4582
 6532SOL    HW231233   3.870   3.068  11.311  1.2675 -1.2644  1.5377
 6533SOL     OW31234   0.445   2.527   7.077  0.0163 -0.3125 -0.4894
 6533SOL    HW131235   0.363   2.517   7.125 -0.0959  0.8269 -0.4328
 6533SOL    HW231236   0.447   2.449   7.023 -0.3401 -0.1790 -0.7003
 6534SOL     OW31237   4.008   0.638   5.264  0.2065 -0.1165  0.0186
 6534SOL    HW131238   4.061   0.559   5.266 -1.0447 -1.0221 -2.3702
 6534SOL    HW231239   4.038   0.696   5.195 -0.6378 -0.5365 -0.7013
 6535SOL     OW31240   1.991   1.058   2.023  0.4421  0.2084  0.0051
 6535SOL    HW131241   1.989   1.090   1.933  2.4430  1.2581  0.3363
 6535SOL    HW231242   1.902   1.075   2.054  1.1110  2.1387  0.8118
 6536SOL     OW31243   2.188   1.155   6.093  0.2598 -0.3782  0.0100
 6536SOL    HW131244   2.121   1.107   6.143 -1.5622 -1.3900 -3.3917
 6536SOL    HW231245   2.179   1.244   6.126  0.9634 -0.2895 -0.0358
 6537SOL     OW31246   4.341   4.580   5.267 -0.1416  0.4404  0.5063
 6537SOL    HW131247   4.321   4.506   5.324  0.2911  0.4601  0.6893
 6537SOL    HW231248   4.265   4.637   5.274 -0.7484 -0.2299 -0.5718
 6538SOL     OW31249   3.093   2.501   5.877 -0.1942 -0.4593  0.0519
 6538SOL    HW131250   3.094   2.409   5.853 -0.1875 -0.8245  1.4726
 6538SOL    HW231251   3.041   2.540   5.807 -0.0094  2.5192  1.5733
 6539SOL     OW31252   3.049   2.260  10.087 -0.2981  0.4336 -0.2598
 6539SOL    HW131253   3.056   2.300  10.001 -1.2994  0.4651 -0.3276
 6539SOL    HW231254   3.140   2.232  10.096 -0.4166  0.1695  0.1605
 6540SOL     OW31255   4.266   4.527  14.316  0.5080 -0.0393  0.1465
 6540SOL    HW131256   4.360   4.524  14.296 -0.0487 -0.3314 -2.3897
 6540SOL    HW231257   4.252   4.433  14.309  1.1160 -0.0925 -0.3275
 6541SOL     OW31258   2.669   4.017   6.533 -0.0154 -0.4519  0.0871
 6541SOL    HW131259   2.585   3.999   6.575  0.4674 -1.8469  0.4590
 6541SOL    HW231260   2.726   3.953   6.577  1.8515 -0.3736 -2.1944
 6542SOL     OW31261   0.660   0.222   3.000 -0.6976  0.1385  0.1029
 6542SOL    HW131262   0.620   0.288   3.056  2.0235 -0.0426  2.2847
 6542SOL    HW231263   0.654   0.139   3.048  0.9002 -0.0154  0.0423
 6543SOL     OW31264   2.742   1.269   8.051 -0.0741 -0.3952  0.2343
 6543SOL    HW131265   2.798   1.191   8.050  0.2706 -0.1611  1.6872
 6543SOL    HW231266   2.683   1.239   8.120  1.4114  1.4162  2.2898
 6544SOL     OW31267   2.061   4.460   9.362  0.0201 -0.0694 -0.4913
 6544SOL    HW131268   2.122   4.530   9.340 -0.2060  0.7438  1.4362
 6544SOL    HW231269   2.021   4.450   9.276  0.5911  1.4777 -0.9301
 6545SOL     OW31270   2.324   3.908   0.432  0.4215  0.4872  0.1897
 6545SOL    HW131271   2.365   3.965   0.367 -1.3662  0.1391 -1.2222
 6545SOL    HW231272   2.342   3.828   0.383  1.1636  0.8917 -0.1932
 6546SOL     OW31273   2.030   4.642   7.125 -0.6490 -0.0932  0.3205
 6546SOL    HW131274   2.104   4.590   7.156 -1.5743 -2.1584 -0.8988
 6546SOL    HW231275   2.057   4.657   7.035 -0.6812  0.9269  0.4804
 6547SOL     OW31276   2.656   0.077   8.906  0.6505 -0.3715 -0.0075
 6547SOL    HW131277   2.668   0.093   8.999  0.7167 -0.9245  0.0778
 6547SOL    HW231278   2.718   0.140   8.868  0.5060 -0.1304  0.1543
 6548SOL     OW31279   4.368   1.682  12.544 -0.8965  0.3234 -0.3357
 6548SOL    HW131280   4.303   1.613  12.554 -1.6497  1.0274 -0.4150
 6548SOL    HW231281   4.421   1.644  12.474 -1.6668 -2.6580  0.6598
 6549SOL     OW31282   0.782   3.367   1.720 -0.0544 -0.1431  0.7813
 6549SOL    HW131283   0.740   3.281   1.713 -0.3159 -0.0872  1.7517
 6549SOL    HW231284   0.866   3.342   1.759 -0.5938 -0.9719  1.3931
 6550SOL     OW31285   0.344   0.040   9.393  0.1726 -0.2824  0.4564
 6550SOL    HW131286   0.291   4.699   9.394 -0.1827 -0.0301  1.4288
 6550SOL    HW231287   0.327   0.081   9.477  1.0352 -1.2866  1.1207
 6551SOL     OW31288   0.292   1.795  13.707  0.7335 -0.0040  0.3879
 6551SOL    HW131289   0.273   1.814  13.615 -0.7722 -0.0244  0.6877
 6551SOL    HW231290   0.345   1.865  13.743 -0.6463  1.4911 -0.4814
 6552SOL     OW31291   1.496   1.506   5.298  0.1506 -0.0819 -0.0164
 6552SOL    HW131292   1.520   1.417   5.325  0.9691 -0.2057 -1.1751
 6552SOL    HW231293   1.438   1.532   5.370  1.3867  1.3402  0.4563
 6553SOL     OW31294   2.984   3.369   5.136 -0.7031 -0.4415  0.4994
 6553SOL    HW131295   2.975   3.450   5.185  0.3354  0.9294 -1.5438
 6553SOL    HW231296   3.070   3.341   5.168 -2.0523 -2.2800  2.4973
 6554SOL     OW31297   2.430   3.500   6.249 -0.5919 -0.1716 -0.4450
 6554SOL    HW131298   2.448   3.408   6.269  2.1409  0.3647 -0.4402
 6554SOL    HW231299   2.335   3.491   6.241 -1.0289  2.7358  1.3920
 6555SOL     OW31300   2.636   1.033   3.149 -0.1513  0.0446  0.4943
 6555SOL    HW131301   2.694   0.967   3.187 -0.9093 -1.2217 -0.5341
 6555SOL    HW231302   2.579   1.053   3.222 -2.3178 -0.1729 -1.1433
 6556SOL     OW31303   2.907   2.469   4.454 -0.2273 -0.5640  0.1298
 6556SOL    HW131304   2.957   2.452   4.534  0.0358 -1.4535 -0.2247
 6556SOL    HW231305   2.841   2.528   4.489 -0.4648 -1.2172  0.7925
 6557SOL     OW31306   1.818   2.362   6.743  0.1438  0.2712 -0.1625
 6557SOL    HW131307   1.908   2.356   6.709 -0.6055 -0.5770 -1.9821
 6557SOL    HW231308   1.800   2.271   6.766 -0.5020 -0.0877 -2.0711
 6558SOL     OW31309   0.298   1.571   3.544  0.0265  0.1213  0.7078
 6558SOL    HW131310   0.232   1.619   3.594 -0.3197  0.6451 -0.2508
 6558SOL    HW231311   0.319   1.505   3.610 -2.6020 -1.2044  0.2159
 6559SOL     OW31312   3.119   1.692   6.770  0.0496 -0.2229 -0.4033
 6559SOL    HW131313   3.215   1.701   6.774 -0.0587  0.9970 -0.3935
 6559SOL    HW231314   3.084   1.708   6.857 -0.2570  1.1173 -0.7737
 6560SOL     OW31315   3.469   1.998  14.236 -0.0364 -0.3030  0.2755
 6560SOL    HW131316   3.400   1.980  14.300 -1.2858  1.2585 -0.6296
 6560SOL    HW231317   3.442   2.081  14.198  1.2409  0.1050  0.2605
 6561SOL     OW31318   0.414   4.498  16.656 -0.2074 -0.1083  0.3633
 6561SOL    HW131319   0.461   4.570  16.613  0.4196 -2.1094 -2.2806
 6561SOL    HW231320   0.399   4.444  16.579  1.0163  2.3430 -1.6080
 6562SOL     OW31321   2.434   1.917  16.059 -0.1194 -0.0720 -0.1386
 6562SOL    HW131322   2.382   1.995  16.040  0.6704 -0.1409 -2.5267
 6562SOL    HW231323   2.476   1.953  16.137  1.0226  1.0104 -1.2638
 6563SOL     OW31324   1.951   3.110   9.663 -0.9279  0.3427 -0.2948
 6563SOL    HW131325   1.986   3.193   9.695  2.4236 -0.2772 -2.3978
 6563SOL    HW231326   1.857   3.111   9.682 -0.9784 -0.2978 -0.5093
 6564SOL     OW31327   3.559   1.104   7.275  0.7180  0.9472 -0.5932
 6564SOL    HW131328   3.582   1.172   7.212  0.5936  1.8976  0.3750
 6564SOL    HW231329   3.525   1.030   7.224  0.1047  0.5060  0.4459
 6565SOL     OW31330   3.286   3.210   3.331 -0.3211  0.6906 -0.0111
 6565SOL    HW131331   3.366   3.260   3.351  0.7287 -2.0611  2.7344
 6565SOL    HW231332   3.262   3.187   3.421 -0.3628  0.3781 -0.1039
 6566SOL     OW31333   3.127   2.211  10.544  0.4920  0.7648 -0.5890
 6566SOL    HW131334   3.048   2.163  10.519 -0.3645  0.8220  2.0311
 6566SOL    HW231335   3.199   2.153  10.522 -0.6259 -1.5149  1.7486
 6567SOL     OW31336   0.639   2.639   9.640 -1.0213  0.1839 -0.4435
 6567SOL    HW131337   0.723   2.595   9.651 -0.0773  1.9265 -0.8008
 6567SOL    HW231338   0.609   2.611   9.553  0.4265  3.8510 -2.1094
 6568SOL     OW31339   1.421   3.095   5.238 -0.2334  0.4589 -0.3763
 6568SOL    HW131340   1.515   3.080   5.227  0.5623  2.6041  3.5397
 6568SOL    HW231341   1.387   3.064   5.154  0.4880 -1.5131  0.0733
 6569SOL     OW31342   3.947   3.396   6.683  0.4767 -0.2839  0.6300
 6569SOL    HW131343   3.935   3.340   6.760 -0.2241 -3.2204 -1.6387
 6569SOL    HW231344   3.863   3.440   6.668  2.7389  3.6818 -0.2647
 6570SOL     OW31345   1.188   3.991   8.908 -0.0406 -0.5581  1.0074
 6570SOL    HW131346   1.149   4.077   8.923  1.7457  0.2511  1.0306
 6570SOL    HW231347   1.219   3.977   8.997 -1.7051 -0.1733  1.6383
 6571SOL     OW31348   2.501   1.937   8.897  0.1083  0.8733  0.4648
 6571SOL    HW131349   2.584   1.928   8.849 -1.1836  1.0289 -1.7927
 6571SOL    HW231350   2.481   2.027   8.871 -0.5248  0.5124 -0.2938
 6572SOL     OW31351   2.850   2.265   4.646 -0.4632 -0.3298  0.1283
 6572SOL    HW131352   2.814   2.226   4.566  2.7799  0.2375 -1.6003
 6572SOL    HW231353   2.774   2.320   4.667  0.4167  0.0918  2.1149
 6573SOL     OW31354   3.755   3.446   7.492 -0.3639 -0.1629 -0.1613
 6573SOL    HW131355   3.810   3.524   7.496 -0.4516 -0.0902 -0.3621
 6573SOL    HW231356   3.666   3.481   7.496 -0.8541 -1.5740  1.0978
 6574SOL     OW31357   0.073   0.176   9.399  0.0492 -0.0974 -0.3729
 6574SOL    HW131358   0.018   0.229   9.456  1.2245  1.3513 -0.5913
 6574SOL    HW231359   0.114   0.252   9.358  1.7825 -0.7386  0.1497
 6575SOL     OW31360   1.567   0.088   5.707 -0.0095  0.3822 -0.0758
 6575SOL    HW131361   1.652   0.131   5.712  0.4691 -0.4869 -0.5990
 6575SOL    HW231362   1.580   4.737   5.739 -1.0340  0.4091  0.4061
 6576SOL     OW31363   4.524   2.932   7.466  0.1141  0.2658  0.0442
 6576SOL    HW131364   4.498   2.840   7.456 -1.1368  0.3709  2.4062
 6576SOL    HW231365   4.619   2.929   7.470  0.1153  1.6349  1.0662
 6577SOL     OW31366   2.228   3.347  14.268  0.2821 -0.7041 -0.5524
 6577SOL    HW131367   2.137   3.372  14.249  1.0121  0.8907 -1.9926
 6577SOL    HW231368   2.272   3.396  14.198  2.1554  1.4565  2.1370
 6578SOL     OW31369   1.429   0.342   5.779 -0.1937  0.2378  0.1155
 6578SOL    HW131370   1.338   0.329   5.753  0.0637 -0.4603 -0.4256
 6578SOL    HW231371   1.461   0.253   5.763 -0.5336 -0.1886  1.7485
 6579SOL     OW31372   0.219   1.792   8.268  0.3466 -0.0493  0.1796
 6579SOL    HW131373   0.266   1.790   8.184  1.3219 -1.5441  0.7477
 6579SOL    HW231374   0.278   1.834   8.331  0.4629  0.2837 -0.1504
 6580SOL     OW31375   0.411   2.587   1.020 -0.5511 -0.2972 -0.2989
 6580SOL    HW131376   0.356   2.588   1.098 -1.4369 -2.0117 -0.8969
 6580SOL    HW231377   0.346   2.577   0.950  2.1785  0.2543 -2.9390
 6581SOL     OW31378   4.729   2.124   5.973 -0.3348 -0.2570  0.3796
 6581SOL    HW131379   4.700   2.044   6.017  0.2498 -0.2653  0.7654
 6581SOL    HW231380   0.002   2.169   6.057  1.2664  0.8905 -0.4688
 6582SOL     OW31381   2.001   4.481   0.678  0.3477 -0.2214  0.0450
 6582SOL    HW131382   1.919   4.449   0.641  0.3925 -1.5927  1.1186
 6582SOL    HW231383   2.002   4.568   0.639 -3.2627 -0.7754 -1.1670
 6583SOL     OW31384   4.423   1.383   6.548  0.1158 -0.2687  0.1580
 6583SOL    HW131385   4.424   1.313   6.613 -4.0407  0.5351  1.1114
 6583SOL    HW231386   4.374   1.335   6.481  1.8466  3.0250 -3.4903
 6584SOL     OW31387   0.812   1.607  16.046 -0.4663  0.0409  0.4806
 6584SOL    HW131388   0.836   1.698  16.028 -0.4965  0.5201  2.8965
 6584SOL    HW231389   0.776   1.581  15.961 -1.0998 -1.5076  1.2372
 6585SOL     OW31390   3.604   3.104   5.679  0.2545  0.6953  0.0168
 6585SOL    HW131391   3.651   3.086   5.761 -2.2199 -1.5070  0.9541
 6585SOL    HW231392   3.515   3.103   5.715  0.1471  1.6463 -0.2083
 6586SOL     OW31393   4.706   3.243   1.286  0.0318 -0.1247  0.6440
 6586SOL    HW131394   0.040   3.189   1.255  1.1680  1.7242  0.0875
 6586SOL    HW231395   4.635   3.210   1.231  0.7958  0.1931 -0.5527
 6587SOL     OW31396   3.326   4.031   6.787  0.4430 -0.1364 -0.0916
 6587SOL    HW131397   3.399   3.970   6.793  0.1180 -0.3719  1.3469
 6587SOL    HW231398   3.336   4.058   6.695  1.0453  2.3092  0.6755
 6588SOL     OW31399   3.218   0.398   0.174  0.0863 -0.4872  0.2527
 6588SOL    HW131400   3.302   0.372   0.213 -0.0949 -0.2159  0.8307
 6588SOL    HW231401   3.182   0.450   0.246  1.8657 -1.2946  1.7201
 6589SOL     OW31402   1.229   1.704   5.945  0.1227  0.3717  0.2674
 6589SOL    HW131403   1.185   1.619   5.944  1.1787 -0.1184 -2.2640
 6589SOL    HW231404   1.300   1.692   6.009 -1.2510  0.5685  1.8366
 6590SOL     OW31405   2.929   4.252  15.792 -0.6783 -0.1145 -0.0780
 6590SOL    HW131406   3.023   4.263  15.811 -0.7014  0.6657 -0.4315
 6590SOL    HW231407   2.930   4.166  15.750  2.7241 -0.8989  1.5789
 6591SOL     OW31408   4.211   2.233   4.661 -0.1763 -0.1274  0.1005
 6591SOL    HW131409   4.134   2.279   4.628  0.1438  0.6116  0.3786
 6591SOL    HW231410   4.186   2.187   4.741 -1.2856 -0.7188 -0.5869
 6592SOL     OW31411   0.777   4.006   2.038 -0.1569 -0.2145  0.2672
 6592SOL    HW131412   0.696   3.957   2.024  0.1167 -1.1204  1.8579
 6592SOL    HW231413   0.779   4.058   1.958 -1.1208  0.8812  0.9570
 6593SOL     OW31414   1.420   0.821   3.641 -0.1098 -0.0852 -0.0034
 6593SOL    HW131415   1.437   0.830   3.734 -0.8500 -0.6095  0.1784
 6593SOL    HW231416   1.424   0.912   3.610 -0.9509 -0.5330 -1.4446
 6594SOL     OW31417   1.899   0.149   0.438  0.9491  0.3256 -0.2223
 6594SOL    HW131418   1.827   0.089   0.425  0.0493  1.2622  0.4203
 6594SOL    HW231419   1.936   0.161   0.351  1.0537  0.5375 -0.1490
 6595SOL     OW31420   0.927   3.521   8.500  0.1408  0.0739 -0.1888
 6595SOL    HW131421   0.972   3.571   8.432 -2.9862  1.6990 -1.1052
 6595SOL    HW231422   0.836   3.551   8.492 -0.2358 -0.7576  0.9453
 6596SOL     OW31423   3.653   2.309  16.354  0.5035  0.2955 -0.1127
 6596SOL    HW131424   3.675   2.284  16.264 -0.4823  0.2300 -0.3360
 6596SOL    HW231425   3.696   2.242  16.408 -0.6674  0.2323  0.7447
 6597SOL     OW31426   3.646   1.328   4.203  0.2134 -0.2536  0.0846
 6597SOL    HW131427   3.605   1.241   4.206  2.7127 -1.4205  0.0973
 6597SOL    HW231428   3.569   1.383   4.218  0.2736 -0.1086 -0.1416
 6598SOL     OW31429   3.186   3.794   3.388 -0.3075  0.4932 -0.7000
 6598SOL    HW131430   3.253   3.736   3.423 -0.8188  1.3731  1.7226
 6598SOL    HW231431   3.104   3.763   3.428  0.6410  1.6441  2.1484
 6599SOL     OW31432   2.015   0.884   3.442  0.2338  0.1129 -0.4225
 6599SOL    HW131433   1.941   0.846   3.490 -0.7565  1.6282 -0.7366
 6599SOL    HW231434   2.080   0.889   3.511 -0.8555  3.7766  0.3191
 6600SOL     OW31435   2.342   2.020   4.386  0.3543 -0.0505  0.4415
 6600SOL    HW131436   2.424   2.036   4.339 -0.2360  2.7214  0.3944
 6600SOL    HW231437   2.284   2.014   4.310  1.8574  0.7419 -0.7670
 6601SOL     OW31438   1.684   0.341   0.467 -0.1016  0.5665  0.7576
 6601SOL    HW131439   1.745   0.339   0.541 -0.7393  0.0850  1.2748
 6601SOL    HW231440   1.731   0.400   0.408  2.3472 -0.0511  2.0644
 6602SOL     OW31441   1.527   3.712   7.666 -0.1484 -0.0191  0.0444
 6602SOL    HW131442   1.454   3.682   7.612 -1.3824 -0.4092  1.9536
 6602SOL    HW231443   1.605   3.707   7.611 -0.1720 -0.3542  0.0389
 6603SOL     OW31444   1.546   3.286   6.439  0.2908 -0.3439 -0.0153
 6603SOL    HW131445   1.556   3.354   6.506 -0.4708 -1.9564  1.7246
 6603SOL    HW231446   1.473   3.318   6.385 -0.0186 -0.3675  0.3950
 6604SOL     OW31447   3.473   2.052   9.056  0.3468  0.3144 -0.9222
 6604SOL    HW131448   3.531   2.029   9.128 -1.4573  0.8167  0.7188
 6604SOL    HW231449   3.459   2.146   9.072  0.9126  0.4142 -1.0189
 6605SOL     OW31450   1.225   3.129   4.144 -0.7359  0.1667  0.0203
 6605SOL    HW131451   1.133   3.128   4.117 -0.3640  0.3254 -1.2618
 6605SOL    HW231452   1.251   3.220   4.128 -1.6766  0.0426 -2.2466
 6606SOL     OW31453   2.863   0.008  11.312 -0.7694 -0.9365 -0.2116
 6606SOL    HW131454   2.806   0.023  11.237  0.3416 -0.5829 -0.9834
 6606SOL    HW231455   2.899   4.660  11.296 -0.0292 -0.7742  0.5794
 6607SOL     OW31456   4.603   1.665   2.106 -0.2545 -0.3212 -0.6544
 6607SOL    HW131457   4.519   1.688   2.069 -0.0547 -0.9367 -1.4820
 6607SOL    HW231458   4.670   1.690   2.042  0.3993 -1.1040 -0.2764
 6608SOL     OW31459   4.667   2.236   7.754  0.4818  0.4329 -0.2870
 6608SOL    HW131460   4.734   2.291   7.795  0.1940 -1.3774  2.6506
 6608SOL    HW231461   4.716   2.198   7.681 -2.1922 -0.1905 -1.7426
 6609SOL     OW31462   2.177   3.447   3.624 -0.1718 -0.6214 -0.1113
 6609SOL    HW131463   2.229   3.372   3.596  0.0830 -0.1919 -0.8002
 6609SOL    HW231464   2.091   3.411   3.604 -0.1947 -2.1638  2.7167
 6610SOL     OW31465   1.715   3.771   6.216  0.0627 -0.1162 -0.6465
 6610SOL    HW131466   1.801   3.733   6.197  2.2196  4.4759 -0.1680
 6610SOL    HW231467   1.672   3.742   6.135 -1.8392 -3.1322  1.4762
 6611SOL     OW31468   1.276   3.840   1.973 -0.1025 -0.0121 -0.2922
 6611SOL    HW131469   1.248   3.764   1.922 -3.1723  1.1878 -0.3651
 6611SOL    HW231470   1.197   3.866   2.020  0.0087  1.3323 -0.8614
 6612SOL     OW31471   2.966   3.315   6.155 -0.8294 -0.5464  0.3499
 6612SOL    HW131472   2.932   3.305   6.244  0.8399  2.2694  1.3063
 6612SOL    HW231473   2.925   3.241   6.110  0.2619  0.5999 -2.4728
 6613SOL     OW31474   2.565   4.376   9.783 -0.5972 -0.2759  0.5364
 6613SOL    HW131475   2.547   4.417   9.699  0.5808  1.6594  1.1903
 6613SOL    HW231476   2.593   4.458   9.825  1.3034 -0.4418 -0.3943
 6614SOL     OW31477   3.627   4.197   2.775  0.3042 -0.2687  0.1071
 6614SOL    HW131478   3.684   4.268   2.745  1.0455 -0.8983  0.0127
 6614SOL    HW231479   3.689   4.147   2.828  0.3739  0.6173  0.8605
 6615SOL     OW31480   2.266   3.334   4.602  0.4455 -0.0474 -0.3409
 6615SOL    HW131481   2.279   3.244   4.632 -0.6137  0.1129  0.6166
 6615SOL    HW231482   2.342   3.340   4.545 -0.1702  0.1423 -1.1431
 6616SOL     OW31483   1.691   1.122   2.074 -0.2808  0.3646  0.0730
 6616SOL    HW131484   1.603   1.085   2.062 -0.7875  0.7682  2.5655
 6616SOL    HW231485   1.679   1.215   2.053 -0.9111 -0.2747 -2.3248
 6617SOL     OW31486   0.633   4.735   8.882  0.0213 -0.0895 -0.3909
 6617SOL    HW131487   0.554   4.717   8.832  0.8000  0.2210 -1.7350
 6617SOL    HW231488   0.697   4.709   8.815  1.6014  0.2853  0.9526
 6618SOL     OW31489   3.119   3.835  13.129 -0.3569 -0.3241 -0.1812
 6618SOL    HW131490   3.134   3.909  13.188  1.6298  1.6284 -3.1253
 6618SOL    HW231491   3.205   3.807  13.098  0.7210  0.5748  2.0163
 6619SOL     OW31492   0.153   4.294   6.232  0.3356  0.5183  0.3580
 6619SOL    HW131493   0.201   4.215   6.255 -0.5024  0.0911  0.6155
 6619SOL    HW231494   0.145   4.281   6.138 -2.5957  1.1168  0.5404
 6620SOL     OW31495   0.696   1.620   5.763 -0.1265 -0.0011 -0.1415
 6620SOL    HW131496   0.663   1.535   5.791 -1.5673  0.7853  0.5981
 6620SOL    HW231497   0.621   1.656   5.715 -2.4104 -0.4114  3.0424
 6621SOL     OW31498   2.136   1.187   2.349  0.2769 -0.2471 -0.3859
 6621SOL    HW131499   2.109   1.120   2.412  1.1016  0.3478  0.5825
 6621SOL    HW231500   2.177   1.248   2.410 -1.9424 -0.9774  1.8597
 6622SOL     OW31501   2.754   3.508   3.577  0.0322  0.2674  0.4042
 6622SOL    HW131502   2.780   3.452   3.503  1.8132  0.3563  0.9602
 6622SOL    HW231503   2.765   3.448   3.651  0.0231  0.9052  0.9221
 6623SOL     OW31504   3.804   3.745  14.367 -0.7635  0.2067  0.1535
 6623SOL    HW131505   3.727   3.751  14.424 -0.0268  2.0879  0.9477
 6623SOL    HW231506   3.822   3.651  14.371  2.4318  0.7268 -1.9199
 6624SOL     OW31507   4.653   3.376   3.223 -0.0625 -0.6802 -0.3214
 6624SOL    HW131508   4.669   3.345   3.313  2.6408  1.8947  0.0411
 6624SOL    HW231509   4.683   3.466   3.213 -1.1270 -0.2790  0.1132
 6625SOL     OW31510   3.521   2.326   5.775  0.6950  0.3100 -0.1201
 6625SOL    HW131511   3.566   2.287   5.850  2.0510  0.6080 -0.7876
 6625SOL    HW231512   3.433   2.288   5.771  0.3140  0.9837  1.9766
 6626SOL     OW31513   2.563   0.866   7.000  0.1780 -0.1005  0.3515
 6626SOL    HW131514   2.527   0.950   6.973 -1.9709 -1.8665 -2.1862
 6626SOL    HW231515   2.478   0.837   7.034 -0.3457  3.1031  1.8064
 6627SOL     OW31516   0.510   0.200  10.446 -0.2201 -0.0870  0.0862
 6627SOL    HW131517   0.485   0.130  10.386 -0.1150 -3.0403  3.4656
 6627SOL    HW231518   0.602   0.184  10.467 -0.1720 -0.7298 -0.5952
 6628SOL     OW31519   4.133   0.429   9.412  0.0033  0.1539  0.2032
 6628SOL    HW131520   4.196   0.444   9.483 -0.4231  2.9477 -0.0013
 6628SOL    HW231521   4.176   0.478   9.341  1.2529  0.6799  1.3118
 6629SOL     OW31522   2.277   0.757  11.338 -0.3661  0.3927 -0.4800
 6629SOL    HW131523   2.310   0.773  11.426 -0.3810  0.2267 -0.4450
 6629SOL    HW231524   2.337   0.807  11.282 -1.5878  2.9689  0.4900
 6630SOL     OW31525   3.835   4.644   9.914  0.0598 -0.0754 -0.3271
 6630SOL    HW131526   3.790   4.560   9.919 -0.3034  0.1107 -0.4758
 6630SOL    HW231527   3.763   4.702   9.940 -0.6660 -1.4752  0.8182
 6631SOL     OW31528   1.572   3.517  15.954  0.1224  0.2443  0.2155
 6631SOL    HW131529   1.497   3.468  15.986  1.5518 -1.5657  0.7489
 6631SOL    HW231530   1.638   3.450  15.936  1.1109  1.0998  0.6339
 6632SOL     OW31531   3.235   1.698   9.389 -0.2400  0.4384  0.2156
 6632SOL    HW131532   3.295   1.748   9.445 -1.2562  1.5378  0.3140
 6632SOL    HW231533   3.168   1.765   9.380 -0.0203  0.6590  0.2339
 6633SOL     OW31534   2.006   4.476   4.600  0.3170  0.5588  0.1579
 6633SOL    HW131535   1.992   4.402   4.541  1.3639  0.7404 -0.3193
 6633SOL    HW231536   2.001   4.436   4.686 -0.5535  0.6011  0.1294
 6634SOL     OW31537   0.989   3.944   0.462 -0.1473  0.2113 -0.0988
 6634SOL    HW131538   0.972   3.921   0.371 -1.0314 -0.7603  0.3199
 6634SOL    HW231539   0.906   3.917   0.499 -0.4416  0.6818 -0.4202
 6635SOL     OW31540   3.460   2.943   7.783  0.3667  1.0298 -0.6326
 6635SOL    HW131541   3.510   2.966   7.704  0.9150  0.5051 -0.4410
 6635SOL    HW231542   3.481   3.022   7.833 -0.6405  1.3161 -0.6540
 6636SOL     OW31543   4.312   4.331   7.296 -0.3093 -0.1405  0.2623
 6636SOL    HW131544   4.217   4.319   7.286  0.0439 -1.0174 -1.8844
 6636SOL    HW231545   4.322   4.418   7.257  4.3273 -1.5995 -1.8245
 6637SOL     OW31546   1.260   1.716  11.056 -0.2096  0.0717 -0.5429
 6637SOL    HW131547   1.226   1.777  11.122 -1.9457  0.4105 -1.7324
 6637SOL    HW231548   1.328   1.669  11.104 -2.0499 -2.5993 -0.5431
 6638SOL     OW31549   0.143   1.288   8.952 -0.4500 -0.3762  0.2942
 6638SOL    HW131550   0.078   1.238   9.001  0.5581 -1.1447  0.8575
 6638SOL    HW231551   0.091   1.346   8.898  0.4676  0.4267  0.2660
 6639SOL     OW31552   3.934   3.256  17.342 -0.0232  0.0699  0.4649
 6639SOL    HW131553   3.905   3.234  17.253 -1.0812 -0.9132  1.0573
 6639SOL    HW231554   4.017   3.303  17.330  1.2384 -2.7903 -2.0532
 6640SOL     OW31555   2.866   2.465  13.521 -0.3085 -0.3024  0.4966
 6640SOL    HW131556   2.895   2.556  13.517 -2.4853  0.2814 -2.0308
 6640SOL    HW231557   2.878   2.439  13.430 -1.8526  1.8066 -0.3052
 6641SOL     OW31558   0.096   2.297   2.150 -0.0224 -0.4989 -0.7965
 6641SOL    HW131559   0.050   2.367   2.104  0.6357  1.5368  1.6248
 6641SOL    HW231560   0.096   2.327   2.241 -2.2528 -0.0920 -0.9225
 6642SOL     OW31561   1.059   1.431  11.941 -0.4037  0.5355 -0.3486
 6642SOL    HW131562   1.071   1.336  11.933 -2.5484  0.1462  0.8474
 6642SOL    HW231563   0.971   1.438  11.905 -0.0541 -1.4212 -1.5794
 6643SOL     OW31564   0.661   2.943   6.330  0.2553 -0.2054  0.1473
 6643SOL    HW131565   0.590   2.976   6.275  2.0529  3.1037 -0.2050
 6643SOL    HW231566   0.627   2.957   6.418 -0.5909  1.7199 -0.4808
 6644SOL     OW31567   2.060   1.429  10.653  0.0651 -0.1021  0.2683
 6644SOL    HW131568   1.980   1.419  10.704 -0.0940  1.1616  0.2571
 6644SOL    HW231569   2.037   1.377  10.576 -2.4112  1.6402 -0.1654
 6645SOL     OW31570   0.484   3.537   9.444 -0.1827  0.1071 -0.3275
 6645SOL    HW131571   0.405   3.502   9.404 -0.6073 -1.0012  1.4850
 6645SOL    HW231572   0.556   3.501   9.392 -1.2402 -1.1296 -0.9015
 6646SOL     OW31573   1.116   3.297   5.300  0.4404 -0.5506  0.2748
 6646SOL    HW131574   1.069   3.233   5.247  1.8263 -0.2493 -1.2916
 6646SOL    HW231575   1.168   3.235   5.350  2.0212 -1.4501 -2.5425
 6647SOL     OW31576   0.055   1.925   5.667  0.5510 -0.1766  0.4817
 6647SOL    HW131577   0.056   1.893   5.577 -2.1281 -0.8058  0.6918
 6647SOL    HW231578   0.139   1.971   5.658  0.1831  0.5204  0.6133
 6648SOL     OW31579   1.818   1.525   8.178 -0.3648  0.5690 -0.3768
 6648SOL    HW131580   1.821   1.548   8.271 -1.4738  0.5002 -0.3285
 6648SOL    HW231581   1.873   1.594   8.140 -1.5777  1.3356 -0.7480
 6649SOL     OW31582   0.068   2.188   1.710  0.1409  0.0379  0.3005
 6649SOL    HW131583   0.096   2.259   1.653 -0.0971  0.2063  0.3907
 6649SOL    HW231584   4.729   2.224   1.752  0.4498  0.6333  0.3491
 6650SOL     OW31585   2.521   1.280   7.773  0.0766  0.4833  0.0586
 6650SOL    HW131586   2.528   1.228   7.693  2.3743  0.1504  0.4723
 6650SOL    HW231587   2.584   1.347   7.745  1.0184 -0.0829  0.8337
 6651SOL     OW31588   0.113   2.844  16.931 -0.0336  0.0057 -0.5138
 6651SOL    HW131589   0.186   2.903  16.913 -0.1686 -0.5110 -2.7162
 6651SOL    HW231590   0.049   2.891  16.877 -1.3167 -0.0783  0.9488
 6652SOL     OW31591   4.575   2.502   3.065 -0.1786  0.1888 -0.1010
 6652SOL    HW131592   4.550   2.591   3.038  1.5175 -0.0341 -2.3907
 6652SOL    HW231593   4.507   2.445   3.029  1.4591 -1.7437 -0.1220
 6653SOL     OW31594   2.672   4.285   6.465 -0.0736  0.4419  0.0338
 6653SOL    HW131595   2.579   4.300   6.481  0.2517  2.0667  0.4157
 6653SOL    HW231596   2.672   4.197   6.504 -0.5249  0.2842 -0.3149
 6654SOL     OW31597   2.075   0.134   3.632 -0.3258 -0.9341  0.2409
 6654SOL    HW131598   2.153   0.080   3.641  2.4247  2.7764 -1.8309
 6654SOL    HW231599   2.038   0.131   3.720 -1.9222  1.7664 -0.3238
 6655SOL     OW31600   2.200   0.910  16.044 -0.1480 -0.2974 -0.0862
 6655SOL    HW131601   2.155   0.992  16.064 -0.0495  0.4183 -2.7963
 6655SOL    HW231602   2.258   0.939  15.974  0.3275 -0.4448  0.2482
 6656SOL     OW31603   0.333   1.323   6.195  0.2027 -0.1055  0.1720
 6656SOL    HW131604   0.397   1.350   6.129 -1.0366 -2.2563 -1.9057
 6656SOL    HW231605   0.281   1.260   6.145 -0.3112  0.2001  0.3243
 6657SOL     OW31606   0.390   3.487   2.642 -0.3292  0.0573  0.8664
 6657SOL    HW131607   0.406   3.426   2.570  1.8239  0.7203  0.7899
 6657SOL    HW231608   0.415   3.429   2.714  0.8701 -2.3660 -1.4929
 6658SOL     OW31609   1.771   3.049   8.099  0.4355 -0.0901 -0.2535
 6658SOL    HW131610   1.844   2.988   8.088 -0.2796 -0.9979  0.0466
 6658SOL    HW231611   1.818   3.118   8.145 -0.0273 -0.1568  0.3210
 6659SOL     OW31612   3.253   1.136   4.475 -0.2436  0.6024 -0.2501
 6659SOL    HW131613   3.314   1.076   4.432 -0.6397  0.5578 -0.7581
 6659SOL    HW231614   3.312   1.199   4.516 -1.4976  0.9029  1.0937
 6660SOL     OW31615   4.259   1.808   6.176  0.7357  0.3359  0.2753
 6660SOL    HW131616   4.174   1.847   6.197 -0.6330 -2.8059  0.5326
 6660SOL    HW231617   4.237   1.715   6.172  0.3090  0.5291 -2.4864
 6661SOL     OW31618   0.036   0.172   8.446  0.7004 -0.3317 -0.4015
 6661SOL    HW131619   0.105   0.109   8.425  1.0432 -0.2349  0.4229
 6661SOL    HW231620   4.700   0.113   8.432 -0.8936  1.5384  0.2369
 6662SOL     OW31621   4.504   3.801   2.348  0.2428  0.0422  0.4057
 6662SOL    HW131622   4.537   3.783   2.435  1.3317  1.4138  0.2919
 6662SOL    HW231623   4.530   3.893   2.338  0.7758  0.0081  1.5128
 6663SOL     OW31624   2.651   1.484   5.553  0.9565 -0.4177  0.1335
 6663SOL    HW131625   2.653   1.514   5.462 -0.8518  2.5070  1.0752
 6663SOL    HW231626   2.566   1.514   5.584  1.5751  1.5320 -0.1022
 6664SOL     OW31627   3.114   3.320  15.293  0.1266 -0.2787 -0.1474
 6664SOL    HW131628   3.122   3.346  15.385  0.0018 -0.1907 -0.1624
 6664SOL    HW231629   3.024   3.290  15.279 -0.2137  0.4252  0.5158
 6665SOL     OW31630   2.799   0.990   4.146  0.0049  0.0197  0.0269
 6665SOL    HW131631   2.745   1.038   4.082 -0.3317 -2.2854 -1.4060
 6665SOL    HW231632   2.748   0.909   4.145 -3.5964  2.2953  0.1850
 6666SOL     OW31633   3.559   0.456   4.100 -0.2333 -0.0243  0.2767
 6666SOL    HW131634   3.466   0.437   4.087  0.6939 -2.7324 -2.3844
 6666SOL    HW231635   3.577   0.519   4.030  1.3340 -0.4324  0.3146
 6667SOL     OW31636   3.599   3.661   8.023  0.3470  0.3294 -0.0459
 6667SOL    HW131637   3.689   3.682   8.000  0.5874 -0.2188  0.4107
 6667SOL    HW231638   3.577   3.742   8.068 -0.7486  0.4286 -0.7409
 6668SOL     OW31639   2.500   2.198  14.583 -0.5153 -0.1869 -0.4971
 6668SOL    HW131640   2.503   2.264  14.514 -3.5968 -0.5210 -0.9611
 6668SOL    HW231641   2.411   2.166  14.564  0.1887 -2.4778  0.1265
 6669SOL     OW31642   0.843   1.182   0.170 -0.1081 -0.0244  0.1509
 6669SOL    HW131643   0.843   1.277   0.180  1.8524  0.1821 -1.8087
 6669SOL    HW231644   0.851   1.156   0.262  0.0762  1.3868  0.5204
 6670SOL     OW31645   4.082   0.949  12.389  0.4022  0.4767  0.6967
 6670SOL    HW131646   4.028   0.870  12.382  2.2478 -0.7452  0.4509
 6670SOL    HW231647   4.078   0.961  12.483 -0.6655 -3.6430  1.2048
 6671SOL     OW31648   3.770   3.149   9.272  0.5646  0.2565 -0.2834
 6671SOL    HW131649   3.837   3.215   9.292  1.0498 -0.7706  1.5099
 6671SOL    HW231650   3.693   3.196   9.304 -0.6596 -1.4101 -0.8115
 6672SOL     OW31651   0.036   3.958   1.953  0.6548  0.3723 -0.8248
 6672SOL    HW131652   0.051   3.894   1.883 -1.6145 -2.1299  0.9704
 6672SOL    HW231653   0.021   3.901   2.028 -0.0589  2.7151  0.8129
 6673SOL     OW31654   4.235   4.554   0.628 -0.4447  0.3876  0.1244
 6673SOL    HW131655   4.230   4.635   0.679  1.5801 -0.4344  1.6113
 6673SOL    HW231656   4.327   4.550   0.602 -0.7325 -1.0757 -0.6516
 6674SOL     OW31657   0.207   2.590   0.824 -0.5116 -0.0571  0.5965
 6674SOL    HW131658   0.128   2.536   0.825  0.5037 -1.5300  0.1331
 6674SOL    HW231659   0.170   2.674   0.854  3.2001  1.2192  1.5472
 6675SOL     OW31660   2.666   2.434   7.086  0.4372 -0.1722  0.1790
 6675SOL    HW131661   2.631   2.377   7.017  0.6191 -1.7687  1.4094
 6675SOL    HW231662   2.662   2.515   7.036 -0.4151 -0.3697 -0.0748
 6676SOL     OW31663   2.284   4.146   0.914  0.0475  0.1195  0.0517
 6676SOL    HW131664   2.286   4.116   0.823  0.1430 -1.9789  0.7569
 6676SOL    HW231665   2.237   4.229   0.913  0.7793  0.5313 -0.5043
 6677SOL     OW31666   4.677   2.657   6.381  0.4797 -0.6771 -0.0851
 6677SOL    HW131667   4.686   2.671   6.475  1.9754 -1.3063 -0.1442
 6677SOL    HW231668   4.711   2.742   6.353  1.4614 -0.3650  2.0528
 6678SOL     OW31669   1.214   0.514   1.891 -0.0817 -0.1197  0.1925
 6678SOL    HW131670   1.221   0.426   1.854  0.3511  0.1797 -0.4401
 6678SOL    HW231671   1.217   0.492   1.984  0.1501  0.7961  0.4027
 6679SOL     OW31672   1.555   2.873   4.419  0.1624  0.8487  0.5595
 6679SOL    HW131673   1.478   2.865   4.476 -0.1730 -0.1865 -0.0436
 6679SOL    HW231674   1.512   2.847   4.337 -0.1053  0.2516  0.8892
 6680SOL     OW31675   2.729   4.068  10.585 -0.3479 -0.1090 -1.0274
 6680SOL    HW131676   2.797   4.003  10.600 -1.3460 -0.3088  2.7410
 6680SOL    HW231677   2.736   4.099  10.495 -0.4130  0.3594 -0.8741
 6681SOL     OW31678   2.331   3.373   5.312  0.6554 -0.3747 -0.0898
 6681SOL    HW131679   2.390   3.376   5.237  0.4704 -0.4612 -0.2392
 6681SOL    HW231680   2.248   3.377   5.266  0.5790 -0.0819  0.0700
 6682SOL     OW31681   4.365   0.870   8.537  0.0289 -0.6006  0.6801
 6682SOL    HW131682   4.361   0.783   8.497 -1.6120  0.2333 -0.9835
 6682SOL    HW231683   4.277   0.906   8.528 -1.0987 -3.4298  0.2260
 6683SOL     OW31684   0.159   0.139   3.079 -0.3000  0.2149 -0.0592
 6683SOL    HW131685   0.139   0.110   3.168  0.5703  2.3514  0.8459
 6683SOL    HW231686   0.120   0.069   3.027 -1.6233 -0.3760  1.7314
 6684SOL     OW31687   0.371   3.677   1.856 -0.5138 -0.2859  0.4139
 6684SOL    HW131688   0.408   3.666   1.769 -1.1285  1.6008 -0.0736
 6684SOL    HW231689   0.278   3.677   1.835 -0.0020 -0.7395 -1.8131
 6685SOL     OW31690   4.145   0.258   8.097  0.1349  0.7269  0.7333
 6685SOL    HW131691   4.145   0.170   8.060 -0.3220  0.1226  2.1517
 6685SOL    HW231692   4.120   0.231   8.186  0.2919  1.2108  0.9229
 6686SOL     OW31693   1.521   2.688   2.144  0.3565 -0.0100 -0.0910
 6686SOL    HW131694   1.465   2.678   2.066 -1.0529 -1.9938  1.1753
 6686SOL    HW231695   1.536   2.595   2.162  0.0583 -0.1942 -0.7949
 6687SOL     OW31696   0.225   4.265   7.234 -0.1263 -0.2254 -0.4686
 6687SOL    HW131697   0.240   4.330   7.166  1.1904  0.2790  0.2999
 6687SOL    HW231698   0.157   4.210   7.195 -0.6584  0.3209 -0.3135
 6688SOL     OW31699   0.482   3.915   7.970  0.3649  0.4170 -0.1007
 6688SOL    HW131700   0.536   3.872   8.036  0.1859 -0.8506 -0.7952
 6688SOL    HW231701   0.502   3.875   7.885  0.2042  0.1471 -0.0094
 6689SOL     OW31702   4.621   1.300   4.953 -0.6290  0.2193 -0.3753
 6689SOL    HW131703   4.681   1.356   4.904 -1.6165  1.6463  0.0611
 6689SOL    HW231704   4.684   1.242   4.995  0.3521  0.9070 -0.8795
 6690SOL     OW31705   0.882   1.728   5.540 -0.0586 -0.2272 -0.1447
 6690SOL    HW131706   0.906   1.658   5.601 -0.4743  1.3850  1.8276
 6690SOL    HW231707   0.959   1.785   5.539 -1.6783  1.9622 -0.0714
 6691SOL     OW31708   1.108   0.181  14.573 -0.0976  0.3215  0.1371
 6691SOL    HW131709   1.195   0.151  14.602 -0.1711  0.3348  0.3776
 6691SOL    HW231710   1.074   0.101  14.532  1.8757 -0.5356  0.1596
 6692SOL     OW31711   4.259   1.814   6.542 -0.0909 -0.1889 -0.0875
 6692SOL    HW131712   4.258   1.891   6.485  1.1258 -0.2420 -0.1784
 6692SOL    HW231713   4.167   1.789   6.556  0.6239 -1.1513  2.8825
 6693SOL     OW31714   0.354   4.024  11.082  0.0309  0.5795 -0.2464
 6693SOL    HW131715   0.419   3.978  11.135 -0.1130  1.8833  1.0740
 6693SOL    HW231716   0.412   4.071  11.022 -0.5585  0.5366 -0.8474
 6694SOL     OW31717   0.613   2.358   4.833  0.0842 -0.0803  0.2907
 6694SOL    HW131718   0.608   2.332   4.925  0.2588 -2.1399 -0.2839
 6694SOL    HW231719   0.584   2.450   4.836 -1.2887 -0.4495 -1.3502
 6695SOL     OW31720   1.572   3.144   6.083 -0.4233 -0.0113 -0.0617
 6695SOL    HW131721   1.520   3.213   6.042 -0.2496 -0.8135 -1.6311
 6695SOL    HW231722   1.573   3.174   6.174  0.0166  2.3542 -0.8448
 6696SOL     OW31723   2.594   2.768  14.930  0.0063 -0.3676  0.6482
 6696SOL    HW131724   2.627   2.683  14.903  1.4987  0.6067 -0.6013
 6696SOL    HW231725   2.590   2.811  14.845 -0.9196 -0.9288  0.4093
 6697SOL     OW31726   2.940   4.408  16.827  0.2077  0.1296  0.2152
 6697SOL    HW131727   3.016   4.352  16.810  1.1074  0.7783  2.1438
 6697SOL    HW231728   2.879   4.335  16.817 -0.3366  0.4655  1.0507
 6698SOL     OW31729   1.213   4.224   9.045 -0.2478 -0.2489 -0.2763
 6698SOL    HW131730   1.143   4.289   9.050  0.7140  0.6812  0.9299
 6698SOL    HW231731   1.288   4.265   9.086 -1.7963  0.8066  1.4709
 6699SOL     OW31732   3.735   2.783   5.022  0.6193  0.0591  0.4648
 6699SOL    HW131733   3.723   2.695   5.058 -1.7314  0.4473  0.6219
 6699SOL    HW231734   3.784   2.764   4.942 -1.6579 -1.4440 -0.6050
 6700SOL     OW31735   1.395   3.177   2.819  0.5476 -0.8929  0.2173
 6700SOL    HW131736   1.419   3.228   2.896 -2.1823  2.7327 -1.3154
 6700SOL    HW231737   1.329   3.237   2.783  0.7060 -0.1174  1.2168
 6701SOL     OW31738   2.294   2.714  16.012  0.3084  0.4740 -0.5554
 6701SOL    HW131739   2.267   2.713  15.920 -0.8705  2.0421 -0.2303
 6701SOL    HW231740   2.330   2.802  16.021 -0.1584  0.4811  1.1574
 6702SOL     OW31741   4.510   2.727  10.092  0.1485  0.8652 -0.4095
 6702SOL    HW131742   4.482   2.771  10.011  0.6079  0.9469 -0.5237
 6702SOL    HW231743   4.504   2.797  10.157 -1.5865  2.3647 -2.1525
 6703SOL     OW31744   3.025   3.456   5.767 -1.0726 -0.1039 -0.0720
 6703SOL    HW131745   3.015   3.361   5.766 -0.6981 -0.1610  1.3187
 6703SOL    HW231746   2.961   3.486   5.832  1.3976 -1.0311  2.7935
 6704SOL     OW31747   4.463   0.675   4.774  1.2131  0.0899 -0.1232
 6704SOL    HW131748   4.528   0.639   4.834 -1.1231 -2.0944  1.1355
 6704SOL    HW231749   4.435   0.602   4.718 -0.1389 -0.9099  1.8357
 6705SOL     OW31750   2.071   1.132   4.860 -0.1975 -0.9497 -0.0682
 6705SOL    HW131751   2.096   1.109   4.949  3.1615  2.2676 -0.1662
 6705SOL    HW231752   2.002   1.194   4.883 -0.9046 -0.5902 -3.1533
 6706SOL     OW31753   3.447   3.601   1.933 -0.2546 -0.0371  0.4444
 6706SOL    HW131754   3.372   3.543   1.923  0.4163 -0.6820 -0.8243
 6706SOL    HW231755   3.422   3.645   2.014  1.2922  0.8477  0.4443
 6707SOL     OW31756   4.325   4.484   5.866  0.3787 -0.5793 -0.2031
 6707SOL    HW131757   4.291   4.572   5.853  0.5845 -0.8357 -2.5185
 6707SOL    HW231758   4.409   4.498   5.908 -0.1465 -0.3303  0.7530
 6708SOL     OW31759   0.551   0.293   1.450  0.3425 -0.3183  0.2539
 6708SOL    HW131760   0.535   0.207   1.411  0.5385  0.8910 -2.4875
 6708SOL    HW231761   0.580   0.266   1.538  1.9018 -0.8553 -0.4320
 6709SOL     OW31762   0.679   3.751   5.267  0.0998 -0.1052 -0.2718
 6709SOL    HW131763   0.655   3.701   5.346  1.8891 -1.8225 -0.8118
 6709SOL    HW231764   0.640   3.834   5.293 -2.3922 -0.7055 -2.0681
 6710SOL     OW31765   0.877   0.086   9.801  0.2716 -0.0713 -0.0832
 6710SOL    HW131766   0.836   0.140   9.734  2.5292  1.2710 -0.4141
 6710SOL    HW231767   0.829   0.114   9.879 -1.7207 -2.4949 -0.4456
 6711SOL     OW31768   1.475   1.095  11.516 -0.0695 -0.6422 -0.1467
 6711SOL    HW131769   1.474   1.084  11.421  0.2786 -1.1127 -0.0993
 6711SOL    HW231770   1.568   1.117  11.522 -0.5686  0.9338  1.6103
 6712SOL     OW31771   4.407   2.758   4.184  0.2171 -0.1940  0.4187
 6712SOL    HW131772   4.470   2.727   4.248  3.2730  0.3665 -2.3523
 6712SOL    HW231773   4.323   2.729   4.221  0.9140 -2.3050  0.3574
 6713SOL     OW31774   0.296   0.345   7.470  0.3863  0.2635 -0.1964
 6713SOL    HW131775   0.297   0.370   7.563  0.7842  2.5296 -0.8209
 6713SOL    HW231776   0.242   0.419   7.443 -0.5940 -0.8851 -1.3439
 6714SOL     OW31777   1.193   0.484   8.470 -0.0626 -0.0598 -0.2512
 6714SOL    HW131778   1.149   0.489   8.555  1.0332  1.7865  0.1901
 6714SOL    HW231779   1.135   0.541   8.420  1.2330  1.9311  0.5599
 6715SOL     OW31780   4.632   3.247   8.905  0.0191 -0.2160 -0.3667
 6715SOL    HW131781   4.693   3.267   8.976  1.6923  3.3195 -2.7783
 6715SOL    HW231782   4.690   3.269   8.832 -0.7784 -0.8186 -1.1787
 6716SOL     OW31783   3.154   1.983   9.070  0.1109  0.0062  0.1632
 6716SOL    HW131784   3.241   2.008   9.100  0.9932  0.1198 -2.4527
 6716SOL    HW231785   3.108   1.972   9.153  1.0414  1.4263  0.8603
 6717SOL     OW31786   3.300   0.597   3.266 -1.0568  0.0791  0.1095
 6717SOL    HW131787   3.327   0.524   3.321  0.2976 -1.6746 -2.8643
 6717SOL    HW231788   3.226   0.556   3.222 -1.1088  0.4495 -0.1491
 6718SOL     OW31789   2.672   0.100   4.054 -0.3859  0.4681 -0.2229
 6718SOL    HW131790   2.630   0.105   4.140 -0.3945  1.3057 -0.2779
 6718SOL    HW231791   2.764   0.116   4.071 -0.5491  0.4085  0.7233
 6719SOL     OW31792   3.680   3.396   1.647  0.2436 -0.0547 -0.0097
 6719SOL    HW131793   3.707   3.307   1.670  0.7243  0.1686  0.2768
 6719SOL    HW231794   3.645   3.429   1.730  0.8466  1.2446 -0.2717
 6720SOL     OW31795   1.438   3.989   2.487  0.4359 -0.2107 -0.2414
 6720SOL    HW131796   1.384   3.990   2.566  0.4564  0.5469 -0.2441
 6720SOL    HW231797   1.522   4.004   2.530  0.4029 -3.0502  0.8658
 6721SOL     OW31798   2.154   4.719   7.575  0.0033 -0.0866  0.4350
 6721SOL    HW131799   2.171   0.072   7.596  1.2034 -0.3671  0.6845
 6721SOL    HW231800   2.235   4.670   7.587  1.0732  1.3481 -0.9587
 6722SOL     OW31801   2.877   3.509   5.534 -0.0109 -0.2939  0.0497
 6722SOL    HW131802   2.914   3.491   5.620  0.5707 -1.0540 -0.3638
 6722SOL    HW231803   2.954   3.480   5.485  0.5774 -0.4704  1.0742
 6723SOL     OW31804   0.719   4.490  12.744 -0.2635 -0.0140  0.7942
 6723SOL    HW131805   0.810   4.506  12.718 -0.8161  1.8215  0.0482
 6723SOL    HW231806   0.690   4.424  12.681 -1.3903 -0.7414  2.0937
 6724SOL     OW31807   1.718   2.308   6.301 -0.0797 -0.3760  0.3491
 6724SOL    HW131808   1.716   2.222   6.259 -2.4241  0.7754 -1.9667
 6724SOL    HW231809   1.781   2.291   6.371  0.3821  1.1563  0.2955
 6725SOL     OW31810   1.871   4.604   5.820 -0.2233 -0.5569 -0.5636
 6725SOL    HW131811   1.782   4.624   5.850  0.3755 -0.8510  1.4294
 6725SOL    HW231812   1.912   4.644   5.897  0.5872  0.2510 -1.4170
 6726SOL     OW31813   2.103   2.246  15.815  0.0668 -0.4106  0.1698
 6726SOL    HW131814   2.035   2.242  15.883  0.4680 -2.1458  0.4595
 6726SOL    HW231815   2.056   2.304  15.755  0.4824  2.2709  2.4197
 6727SOL     OW31816   4.037   2.563   3.539 -0.5514 -0.3578  0.2761
 6727SOL    HW131817   4.065   2.477   3.569  0.6021 -1.0985 -2.9602
 6727SOL    HW231818   4.123   2.602   3.554 -0.1811 -1.2661  0.4988
 6728SOL     OW31819   0.558   3.481   6.508  0.3423  0.0156  0.8638
 6728SOL    HW131820   0.507   3.496   6.428 -1.3473  0.1061  1.9357
 6728SOL    HW231821   0.646   3.467   6.475 -0.8078 -1.1029 -1.6784
 6729SOL     OW31822   4.082   0.979  12.704  0.2509  0.1151 -0.7499
 6729SOL    HW131823   4.062   0.886  12.696  2.4046 -0.4340  0.2445
 6729SOL    HW231824   4.132   0.990  12.785  0.9660 -1.2119 -1.0094
 6730SOL     OW31825   1.644   3.482   6.627 -0.4277 -0.3258 -0.4562
 6730SOL    HW131826   1.721   3.477   6.572 -0.5997  1.0842 -0.8025
 6730SOL    HW231827   1.690   3.496   6.709  1.4533 -0.1879 -1.5512
 6731SOL     OW31828   1.593   3.125   1.776  0.2354 -0.0866  0.3839
 6731SOL    HW131829   1.623   3.051   1.724 -0.7714 -0.6319  0.5916
 6731SOL    HW231830   1.563   3.084   1.857 -2.6463  0.3401 -0.4376
 6732SOL     OW31831   3.253   3.363   2.778 -0.0889  0.6583  0.1902
 6732SOL    HW131832   3.310   3.364   2.700 -0.4757 -0.0501 -0.1018
 6732SOL    HW231833   3.286   3.435   2.832  0.6194 -0.2887  1.0369
 6733SOL     OW31834   4.058   2.310   3.970 -0.3731  0.3143  0.3666
 6733SOL    HW131835   4.131   2.264   4.013  0.2008  0.6268 -0.2678
 6733SOL    HW231836   4.112   2.359   3.909 -1.8538 -0.0397 -1.2244
 6734SOL     OW31837   2.992   3.350   6.750 -0.4805  0.2948 -0.5558
 6734SOL    HW131838   2.941   3.403   6.810  1.4088  1.4820 -0.0088
 6734SOL    HW231839   3.002   3.401   6.669  0.4624  1.8624  0.5534
 6735SOL     OW31840   3.402   1.223   8.928  0.5900  0.1585  0.3677
 6735SOL    HW131841   3.323   1.174   8.905 -0.4302  2.3236 -0.7181
 6735SOL    HW231842   3.425   1.269   8.848  0.3952  0.4826  0.4996
 6736SOL     OW31843   2.030   1.969  10.625 -0.5028 -0.0346  0.4434
 6736SOL    HW131844   2.095   2.034  10.601 -0.3491  0.1248  1.3007
 6736SOL    HW231845   1.995   2.008  10.705 -0.8623  2.4536 -0.9332
 6737SOL     OW31846   2.473   3.699   5.621  0.3499  0.5136  0.0285
 6737SOL    HW131847   2.459   3.791   5.596 -0.0289  0.3576 -0.3344
 6737SOL    HW231848   2.491   3.712   5.714  1.3322  0.8739 -0.2029
 6738SOL     OW31849   2.780   4.408  15.612 -0.4758  0.7387 -0.0667
 6738SOL    HW131850   2.845   4.454  15.561 -0.5539 -0.5404 -1.3360
 6738SOL    HW231851   2.842   4.374  15.677  1.1681  0.2122 -1.9250
 6739SOL     OW31852   2.663   2.334   2.814 -0.1279 -0.1569 -0.3421
 6739SOL    HW131853   2.679   2.240   2.818 -0.0425 -0.0848  1.0795
 6739SOL    HW231854   2.738   2.370   2.862 -0.2098 -1.3970  0.7225
 6740SOL     OW31855   4.173   0.781   4.359  0.2743  0.3878  0.5633
 6740SOL    HW131856   4.175   0.874   4.336 -2.2936  0.2239 -0.4222
 6740SOL    HW231857   4.266   0.763   4.366 -0.1294 -1.4607  1.2239
 6741SOL     OW31858   1.276   1.484   6.934  0.4003  0.1200  0.2959
 6741SOL    HW131859   1.245   1.395   6.952  1.1817 -0.4365 -1.0589
 6741SOL    HW231860   1.248   1.529   7.013 -0.3150  0.1189  0.0422
 6742SOL     OW31861   1.972   4.531   0.028 -0.7724 -0.0171  0.4739
 6742SOL    HW131862   1.948   4.479  17.703  0.3425  2.6690 -1.6886
 6742SOL    HW231863   1.887   4.561   0.060 -0.3219 -0.5391  2.1543
 6743SOL     OW31864   1.005   3.800  11.324  0.0435 -0.3388 -0.3241
 6743SOL    HW131865   0.996   3.757  11.408  3.5546  2.0104  1.2567
 6743SOL    HW231866   1.043   3.883  11.353  0.8771 -1.3185  1.3173
 6744SOL     OW31867   0.110   2.316  10.047 -0.2513  0.5421 -0.5712
 6744SOL    HW131868   0.092   2.268   9.967 -2.4632 -2.4369  1.6924
 6744SOL    HW231869   0.073   2.404  10.035  1.4320  1.2502 -0.5880
 6745SOL     OW31870   0.530   0.085   6.737 -0.3892  0.1429  0.4663
 6745SOL    HW131871   0.570   0.163   6.775  0.7103 -0.2828  0.2119
 6745SOL    HW231872   0.437   0.106   6.745 -0.3112  0.3491  0.8343
 6746SOL     OW31873   1.846   3.495   9.514  0.2389 -0.1269  0.0378
 6746SOL    HW131874   1.901   3.568   9.485 -0.4896  0.6079  0.4967
 6746SOL    HW231875   1.860   3.494   9.609 -1.4103  1.2398  0.3003
 6747SOL     OW31876   1.025   0.571   4.660 -0.2950 -0.3785  0.4119
 6747SOL    HW131877   1.064   0.530   4.582 -1.4771  1.3734 -1.1001
 6747SOL    HW231878   0.979   0.503   4.708  0.6737 -2.0009 -0.9545
 6748SOL     OW31879   0.552   1.483   3.291  0.2134  0.1433 -0.3755
 6748SOL    HW131880   0.553   1.572   3.324 -0.3628  0.2254 -0.5904
 6748SOL    HW231881   0.631   1.452   3.335 -0.7168  0.2383  1.3504
 6749SOL     OW31882   4.070   1.154   5.945 -0.5997  0.4537 -0.3197
 6749SOL    HW131883   4.069   1.097   5.868 -0.7289 -1.1905  0.8851
 6749SOL    HW231884   4.000   1.211   5.914  0.1540  1.9902  0.8223
 6750SOL     OW31885   1.571   0.719  12.631 -0.2505 -0.2043  0.9452
 6750SOL    HW131886   1.487   0.685  12.599 -0.2181 -1.1596  1.8783
 6750SOL    HW231887   1.587   0.681  12.717 -0.1529  2.6419  2.1990
 6751SOL     OW31888   4.310   2.878  14.665 -0.0816 -0.5030 -0.3434
 6751SOL    HW131889   4.293   2.961  14.620 -0.7922  0.2355  1.2777
 6751SOL    HW231890   4.276   2.900  14.752  2.2940  1.1113  0.1666
 6752SOL     OW31891   0.110   2.868  17.623 -0.5075 -0.4948  0.1408
 6752SOL    HW131892   0.201   2.860  17.594 -0.0294 -1.3660  1.8717
 6752SOL    HW231893   0.081   2.959  17.612  3.9060  1.1707  2.1195
 6753SOL     OW31894   0.678   2.635   3.834  0.0475  0.2843 -0.1095
 6753SOL    HW131895   0.610   2.645   3.900 -0.6184 -2.0646 -0.4276
 6753SOL    HW231896   0.634   2.561   3.791  0.1016  0.0901  0.1700
 6754SOL     OW31897   3.044   2.075   4.092  0.6549  0.1156 -0.7338
 6754SOL    HW131898   3.085   2.161   4.097  1.8522 -0.5472  1.0406
 6754SOL    HW231899   2.967   2.097   4.041 -0.0683 -0.7796 -0.0215
 6755SOL     OW31900   3.038   0.342  16.967  0.7803 -0.3087  0.5689
 6755SOL    HW131901   3.073   0.368  16.881 -1.0824  2.8288  0.7592
 6755SOL    HW231902   2.959   0.396  16.966  1.5268  0.7607  0.3453
 6756SOL     OW31903   0.225   3.154   1.141 -0.2509  0.3768  0.2941
 6756SOL    HW131904   0.229   3.065   1.105  1.0497  0.8990 -0.8389
 6756SOL    HW231905   0.171   3.183   1.068  1.6097  2.1586 -0.3796
 6757SOL     OW31906   2.170   3.257  11.180  0.0175  0.2974 -0.2599
 6757SOL    HW131907   2.199   3.259  11.089 -0.7831 -0.6405 -0.5258
 6757SOL    HW231908   2.219   3.335  11.205  1.0088 -1.0827  2.1184
 6758SOL     OW31909   2.949   0.773   4.747 -0.3011  0.1462  0.0546
 6758SOL    HW131910   3.031   0.821   4.749  0.2098 -0.7198  0.0790
 6758SOL    HW231911   2.876   0.815   4.700 -0.6503 -1.0193 -0.4519
 6759SOL     OW31912   2.648   2.050  12.659 -0.5391  0.5441  0.8149
 6759SOL    HW131913   2.729   2.019  12.618  0.6938  3.0179  1.3928
 6759SOL    HW231914   2.592   2.060  12.582 -0.9120  0.8113  1.1226
 6760SOL     OW31915   4.610   3.830   3.789  0.3997  0.3835  0.3355
 6760SOL    HW131916   4.623   3.923   3.810  1.6653  0.6101 -1.3921
 6760SOL    HW231917   4.603   3.836   3.694  0.1761  2.2011  0.4640
 6761SOL     OW31918   0.614   1.896   2.674  0.1473 -0.2636  0.1089
 6761SOL    HW131919   0.650   1.823   2.724  1.0935  0.9262  1.1750
 6761SOL    HW231920   0.522   1.872   2.669 -0.0941  0.6280  0.3110
 6762SOL     OW31921   1.122   2.793   5.056  0.2070 -0.0349  0.0809
 6762SOL    HW131922   1.163   2.721   5.104  0.1238  0.5136  0.9666
 6762SOL    HW231923   1.148   2.780   4.964 -1.2199  0.5439 -0.4010
 6763SOL     OW31924   0.993   1.326   7.394 -0.5487 -0.1056 -0.0776
 6763SOL    HW131925   0.976   1.325   7.300 -2.5470  4.2671  0.2175
 6763SOL    HW231926   0.914   1.283   7.427  0.6174 -2.0219  0.2200
 6764SOL     OW31927   4.521   1.605   3.733  0.0179  0.6848 -0.3128
 6764SOL    HW131928   4.572   1.548   3.676 -3.2363 -2.5302 -0.0212
 6764SOL    HW231929   4.549   1.692   3.704  1.8069  0.5563  1.0159
 6765SOL     OW31930   0.906   4.079   6.528 -0.1927 -0.2676 -0.3070
 6765SOL    HW131931   0.976   4.035   6.576  1.9080  0.5179 -2.6348
 6765SOL    HW231932   0.952   4.109   6.449 -0.9615 -1.7715 -1.3294
 6766SOL     OW31933   3.507   1.565   4.803  0.3404  0.1762 -0.0958
 6766SOL    HW131934   3.583   1.528   4.757  0.6871  1.5155 -0.5832
 6766SOL    HW231935   3.507   1.506   4.879 -1.0215 -0.3336 -0.5098
 6767SOL     OW31936   4.294   4.264  14.779 -0.0321 -0.8323  0.4481
 6767SOL    HW131937   4.323   4.283  14.868  1.0593  0.3143 -0.1554
 6767SOL    HW231938   4.244   4.342  14.758 -1.5035 -1.6809  0.7945
 6768SOL     OW31939   2.921   4.559   4.532  0.8644 -0.4274  0.7043
 6768SOL    HW131940   2.999   4.563   4.588  1.1833  1.0455  0.1351
 6768SOL    HW231941   2.951   4.620   4.465 -1.4649 -1.1876 -1.0438
 6769SOL     OW31942   3.471   2.006   2.052 -0.0460 -0.2718  0.3282
 6769SOL    HW131943   3.552   2.052   2.031 -0.6073  0.7736  0.4565
 6769SOL    HW231944   3.407   2.074   2.032  0.6953  0.5320  0.6865
 6770SOL     OW31945   1.116   0.445   8.061 -0.2580  0.2976 -0.1477
 6770SOL    HW131946   1.195   0.391   8.057 -0.2824  0.3049 -0.7854
 6770SOL    HW231947   1.165   0.525   8.076 -0.6967  0.4274  0.5900
 6771SOL     OW31948   1.910   0.696   1.896 -0.7474 -0.5258 -0.4963
 6771SOL    HW131949   1.950   0.783   1.897 -2.2991  0.1900 -1.8732
 6771SOL    HW231950   1.823   0.715   1.932  0.3530  3.0280  0.2392
 6772SOL     OW31951   4.198   4.458   4.066 -0.3664  0.0886  0.1005
 6772SOL    HW131952   4.279   4.431   4.022  0.2443  0.4995  0.9855
 6772SOL    HW231953   4.146   4.380   4.047  1.1533 -0.9110 -0.0188
 6773SOL     OW31954   2.103   4.693   0.540  0.7529  0.1785 -0.5086
 6773SOL    HW131955   2.136   4.642   0.465  0.0830 -0.1538 -0.5707
 6773SOL    HW231956   2.062   0.026   0.491 -0.0616 -1.3208 -1.9948
 6774SOL     OW31957   2.148   2.613   0.175 -0.5486 -0.2477  1.0043
 6774SOL    HW131958   2.202   2.691   0.188 -2.2292  0.8972  1.0339
 6774SOL    HW231959   2.159   2.566   0.257  5.0602  0.3991  0.6524
 6775SOL     OW31960   2.661   2.089   5.796 -0.3076 -0.4710 -0.0502
 6775SOL    HW131961   2.713   2.130   5.727  2.0236 -0.6153  1.6426
 6775SOL    HW231962   2.580   2.139   5.785  0.6082  1.3796  1.6646
 6776SOL     OW31963   2.575   3.699   8.424 -0.3028  0.8687 -0.3953
 6776SOL    HW131964   2.615   3.775   8.382  1.8481  0.3642  0.7468
 6776SOL    HW231965   2.650   3.688   8.482 -1.8425  1.2702  1.6652
 6777SOL     OW31966   4.328   2.904   5.164  0.3690  0.0517 -0.2076
 6777SOL    HW131967   4.287   2.949   5.091 -0.8281  0.3477  0.6356
 6777SOL    HW231968   4.314   2.815   5.130 -0.8243 -0.0583  0.5651
 6778SOL     OW31969   1.988   3.787   8.859 -0.0874  0.2010 -0.0288
 6778SOL    HW131970   1.960   3.739   8.937  0.9700  0.4898  0.5194
 6778SOL    HW231971   2.080   3.761   8.854  0.3329  1.9149 -1.1007
 6779SOL     OW31972   3.028   0.195   2.338  0.3343 -0.1996  0.1012
 6779SOL    HW131973   3.100   0.251   2.309 -1.2488  0.6684 -2.1212
 6779SOL    HW231974   2.967   0.253   2.383  0.5905 -0.3792  0.6777
 6780SOL     OW31975   3.907   1.483   4.433  0.0929  0.1144 -0.0926
 6780SOL    HW131976   3.918   1.417   4.364  0.9081  0.7678 -0.5821
 6780SOL    HW231977   3.965   1.444   4.498  0.5252 -0.6459 -0.9335
 6781SOL     OW31978   4.680   2.427   1.469 -0.1247  0.3796  0.0273
 6781SOL    HW131979   0.017   2.410   1.525 -0.5405  1.3290  0.8671
 6781SOL    HW231980   4.628   2.349   1.488 -1.3797  0.4817 -3.0180
 6782SOL     OW31981   4.694   0.416   9.280  0.2152 -0.2619  0.1619
 6782SOL    HW131982   4.620   0.383   9.229  0.3034  0.4324 -0.4160
 6782SOL    HW231983   0.014   0.450   9.213 -3.1960 -0.2743 -2.8639
 6783SOL     OW31984   0.315   0.009   4.193  0.0706 -0.2411 -0.2344
 6783SOL    HW131985   0.373   4.688   4.146  1.6183  0.6483  0.5728
 6783SOL    HW231986   0.369   0.028   4.269  0.7703 -1.9384 -0.3150
 6784SOL     OW31987   3.574   0.559   3.795 -0.5542  0.3534 -0.0501
 6784SOL    HW131988   3.514   0.610   3.741 -1.2644 -1.1044 -0.6477
 6784SOL    HW231989   3.544   0.470   3.777  2.8131 -0.1896 -2.8854
 6785SOL     OW31990   2.568   0.144   8.609  0.4614 -0.4656 -0.3415
 6785SOL    HW131991   2.518   0.215   8.650 -1.3370 -1.7410 -0.2937
 6785SOL    HW231992   2.589   0.093   8.687 -2.0894 -2.8347 -1.2000
 6786SOL     OW31993   0.726   3.895   4.726  0.2102  0.2078  0.2341
 6786SOL    HW131994   0.667   3.839   4.675  0.8988 -0.7591  0.5079
 6786SOL    HW231995   0.711   3.867   4.816 -0.3465 -0.8480 -0.1746
 6787SOL     OW31996   3.906   1.029   1.684 -0.4385  0.1021 -0.7028
 6787SOL    HW131997   3.839   0.992   1.627  0.5342 -1.8271 -0.5865
 6787SOL    HW231998   3.896   0.981   1.766  1.0374 -1.0997 -1.2235
 6788SOL     OW31999   4.655   3.213   7.102 -0.2874 -0.3793 -0.0019
 6788SOL    HW132000   4.670   3.288   7.044 -0.5945 -0.7066 -0.5045
 6788SOL    HW232001   4.598   3.252   7.168 -0.5235  0.5159 -0.7250
 6789SOL     OW32002   3.199   2.951   2.469 -0.5501  0.8482 -0.2571
 6789SOL    HW132003   3.139   2.876   2.465  1.0756 -0.4540 -0.2640
 6789SOL    HW232004   3.170   3.006   2.541 -0.9894  0.6446 -0.2783
 6790SOL     OW32005   1.229   4.500   8.234 -0.4439 -0.5768 -0.1227
 6790SOL    HW132006   1.270   4.583   8.210 -0.9098 -0.2067  0.3651
 6790SOL    HW232007   1.207   4.527   8.323 -0.6222 -0.6357 -0.1491
 6791SOL     OW32008   0.407   0.667   0.791 -0.6917 -0.1313  0.3364
 6791SOL    HW132009   0.368   0.679   0.704 -1.5614  0.1258  0.7638
 6791SOL    HW232010   0.348   0.706   0.855 -0.9583  0.0281 -0.0073
 6792SOL     OW32011   0.864   0.471  16.378 -0.1902 -0.0046 -0.1067
 6792SOL    HW132012   0.856   0.557  16.420  1.3708 -0.2016  0.6104
 6792SOL    HW232013   0.773   0.458  16.352 -1.1925  1.3922  2.7012
 6793SOL     OW32014   4.603   0.796   6.513  0.2631  0.8191 -0.5788
 6793SOL    HW132015   4.655   0.717   6.531 -1.6654 -0.5918 -1.1704
 6793SOL    HW232016   4.661   0.854   6.465  0.7567  1.5740  0.9442
 6794SOL     OW32017   4.282   3.136   6.277  0.6665 -0.1982 -0.2294
 6794SOL    HW132018   4.190   3.140   6.252  0.8202  2.1972 -0.4705
 6794SOL    HW232019   4.287   3.139   6.373 -1.5821  1.4693 -0.1599
 6795SOL     OW32020   0.436   2.196   1.818 -0.6427  0.3825 -0.1026
 6795SOL    HW132021   0.497   2.200   1.892 -0.7396  0.5097 -0.0287
 6795SOL    HW232022   0.366   2.144   1.859 -1.8164 -0.1709 -2.7929
 6796SOL     OW32023   0.057   2.649   2.359  0.0550  0.5971  0.4944
 6796SOL    HW132024   0.048   2.734   2.316 -0.8963  0.1647 -0.1624
 6796SOL    HW232025   0.123   2.621   2.295 -1.5869  0.6871 -1.2654
 6797SOL     OW32026   1.879   1.231   4.036 -0.1157 -0.5370 -0.1780
 6797SOL    HW132027   1.971   1.243   4.059 -0.6980  0.4731  1.5796
 6797SOL    HW232028   1.853   1.171   4.105 -0.5410  1.0143  1.0055
 6798SOL     OW32029   2.464   0.336  10.737 -0.3392  0.2936 -0.0844
 6798SOL    HW132030   2.491   0.425  10.714  1.3849  0.1432  1.3348
 6798SOL    HW232031   2.399   0.324  10.667  0.7609  2.1944 -1.4097
 6799SOL     OW32032   2.290   4.567  12.266 -0.1854  0.1205  1.3363
 6799SOL    HW132033   2.240   4.587  12.186 -1.9111  0.9179  2.6321
 6799SOL    HW232034   2.259   4.634  12.326 -0.0143 -0.5854  2.2098
 6800SOL     OW32035   3.699   2.112   3.244  0.0430  0.2212 -0.1216
 6800SOL    HW132036   3.618   2.158   3.269  0.0968 -0.9574  2.2461
 6800SOL    HW232037   3.670   2.025   3.216 -2.0716  0.4297  1.3642
 6801SOL     OW32038   2.430   1.002   5.745 -0.1768  0.5596  0.0861
 6801SOL    HW132039   2.475   1.086   5.756 -0.5892  0.5891  1.5949
 6801SOL    HW232040   2.481   0.967   5.672 -0.2300  1.9125 -0.5874
 6802SOL     OW32041   1.542   1.322   2.277 -0.7183 -0.3946  0.1782
 6802SOL    HW132042   1.572   1.360   2.195 -0.9201  0.2791  0.4186
 6802SOL    HW232043   1.532   1.397   2.335  1.1511  0.9222 -1.2105
 6803SOL     OW32044   3.789   2.741   4.084  0.2008 -0.2453  0.2303
 6803SOL    HW132045   3.859   2.778   4.137 -0.2687  1.3833 -0.3056
 6803SOL    HW232046   3.839   2.707   4.010  1.7903  0.4641  0.9960
 6804SOL     OW32047   1.396   0.196  16.964 -0.1981  0.0656 -0.1023
 6804SOL    HW132048   1.310   0.160  16.941 -0.8363  2.8565 -2.0339
 6804SOL    HW232049   1.452   0.199  16.886  0.9226  0.6315  0.7205
 6805SOL     OW32050   0.295   4.344   4.487  0.1713  0.1745  0.1444
 6805SOL    HW132051   0.295   4.295   4.570 -1.6068  0.9745  0.6261
 6805SOL    HW232052   0.324   4.429   4.519 -2.2717  0.5678  1.3892
 6806SOL     OW32053   1.225   1.914   6.800 -0.5374  0.0320  0.4659
 6806SOL    HW132054   1.146   1.869   6.831 -1.5786  0.3745 -1.6703
 6806SOL    HW232055   1.189   1.958   6.723  1.9320 -0.0466 -0.7270
 6807SOL     OW32056   0.115   3.305   2.515 -0.3699  0.2649  0.0110
 6807SOL    HW132057   0.057   3.312   2.439  0.0529 -0.9406 -0.4253
 6807SOL    HW232058   0.203   3.322   2.479  0.0641 -1.2259  0.3637
 6808SOL     OW32059   2.061   0.559   0.504  0.5489  0.3057 -0.0679
 6808SOL    HW132060   1.979   0.562   0.553 -0.8114 -1.6453 -2.2244
 6808SOL    HW232061   2.090   0.650   0.495 -1.9949  1.1378  0.2268
 6809SOL     OW32062   3.795   2.915  13.145  0.3580  0.3059 -0.9409
 6809SOL    HW132063   3.771   3.006  13.129  0.1432  0.3877 -0.1648
 6809SOL    HW232064   3.836   2.919  13.232  2.2245  0.9212 -1.8319
 6810SOL     OW32065   4.507   1.206  15.877 -0.2652 -0.3943  0.3850
 6810SOL    HW132066   4.421   1.249  15.872 -0.3674 -0.9053 -2.8195
 6810SOL    HW232067   4.483   1.114  15.867 -0.1687 -0.4718  0.9084
 6811SOL     OW32068   2.062   1.943  10.364 -0.5960  0.0578 -0.0724
 6811SOL    HW132069   2.103   2.028  10.347 -0.4513 -0.0214 -0.1193
 6811SOL    HW232070   2.081   1.925  10.456  0.6806 -0.9895 -0.5455
 6812SOL     OW32071   2.638   4.515  12.475 -0.0638  0.4917 -0.4572
 6812SOL    HW132072   2.658   4.547  12.563  3.0070 -0.5305 -0.7887
 6812SOL    HW232073   2.634   4.597  12.426 -0.8395 -0.9413 -2.7789
 6813SOL     OW32074   3.430   0.926   4.393  0.6500  0.4885  0.0189
 6813SOL    HW132075   3.417   0.837   4.361 -1.4563  0.9983 -0.5462
 6813SOL    HW232076   3.497   0.917   4.461 -1.8120  0.2847  2.4663
 6814SOL     OW32077   4.698   0.793   8.708  0.6595 -0.2448  0.4371
 6814SOL    HW132078   4.653   0.873   8.684 -1.3603 -1.9421 -1.4528
 6814SOL    HW232079   0.007   0.819   8.787 -1.1110  1.1656  1.0255
 6815SOL     OW32080   3.864   4.252   9.407  0.3218 -0.2140 -0.1343
 6815SOL    HW132081   3.835   4.243   9.317  1.2373 -0.1749 -0.4387
 6815SOL    HW232082   3.816   4.327   9.442 -0.3070 -0.2938 -0.8367
 6816SOL     OW32083   1.961   4.381  12.939 -0.3243 -0.4727 -0.2274
 6816SOL    HW132084   2.030   4.399  13.003 -0.4165 -0.5861 -0.0960
 6816SOL    HW232085   1.999   4.317  12.878 -0.6845  0.5080 -1.4826
 6817SOL     OW32086   0.585   0.121   9.122  0.2952  0.4477  0.3863
 6817SOL    HW132087   0.491   0.105   9.112  0.2387  0.6591  0.5756
 6817SOL    HW232088   0.622   0.079   9.045  0.4697  0.2245  0.5949
 6818SOL     OW32089   0.764   0.896  11.702 -0.7106 -0.7741 -0.2788
 6818SOL    HW132090   0.824   0.841  11.752  0.3689  0.4073 -0.2673
 6818SOL    HW232091   0.824   0.931  11.635  0.8026 -0.9873  0.9743
 6819SOL     OW32092   1.987   3.041  11.028  0.0526 -0.4853  0.5008
 6819SOL    HW132093   1.918   2.981  11.057 -1.8422  0.9092 -1.1320
 6819SOL    HW232094   1.964   3.115  11.084 -1.3411 -0.6299  0.1248
 6820SOL     OW32095   4.139   1.936   4.281  0.3162  0.1772 -0.0083
 6820SOL    HW132096   4.092   1.862   4.319 -1.1139  0.7322 -0.6911
 6820SOL    HW232097   4.222   1.889   4.276  0.9401  1.3104 -0.3909
 6821SOL     OW32098   3.704   0.686   5.561 -0.2217 -0.6980 -0.0499
 6821SOL    HW132099   3.732   0.778   5.557 -0.6604 -0.5174  1.0479
 6821SOL    HW232100   3.793   0.650   5.567 -0.2295 -0.8513 -0.8502
 6822SOL     OW32101   4.509   4.355   5.201  0.0399 -0.0522  0.1025
 6822SOL    HW132102   4.468   4.441   5.192 -1.8350 -1.2947 -3.2672
 6822SOL    HW232103   4.449   4.304   5.147  0.8931 -0.2782 -0.6300
 6823SOL     OW32104   3.419   0.205   6.251  0.2659 -0.8501  0.1414
 6823SOL    HW132105   3.392   0.120   6.286  0.9848 -0.7881  0.8601
 6823SOL    HW232106   3.515   0.198   6.252  0.4306  1.3272 -2.2020
 6824SOL     OW32107   3.177   1.044   2.202  0.2735 -0.2678  0.1062
 6824SOL    HW132108   3.156   0.961   2.158 -0.8445  0.7900 -1.3806
 6824SOL    HW232109   3.272   1.050   2.197  0.1044  1.0300 -1.7497
 6825SOL     OW32110   0.007   3.310   9.218 -0.1524 -0.0098 -0.4739
 6825SOL    HW132111   4.699   3.392   9.236  0.2090 -0.1148  0.9504
 6825SOL    HW232112   0.097   3.332   9.241 -0.6847  3.6330 -1.7752
 6826SOL     OW32113   2.195   2.364   8.101  0.1935  0.1894 -0.2127
 6826SOL    HW132114   2.200   2.346   8.007  0.5830  2.1683 -0.5720
 6826SOL    HW232115   2.221   2.275   8.126 -0.3210 -0.5784 -2.4170
 6827SOL     OW32116   0.505   4.466   2.592 -0.4563  0.1171  0.4100
 6827SOL    HW132117   0.523   4.542   2.647 -2.0897  0.3692  0.6085
 6827SOL    HW232118   0.411   4.470   2.577 -0.5300 -0.2584  0.7529
 6828SOL     OW32119   0.624   1.302   6.125 -0.1441 -0.6381  0.0446
 6828SOL    HW132120   0.715   1.281   6.104 -0.1899 -0.2161 -0.5701
 6828SOL    HW232121   0.589   1.337   6.043 -1.2236  2.3773  1.8125
 6829SOL     OW32122   3.638   1.108   6.169 -0.5377  0.5495  0.3859
 6829SOL    HW132123   3.719   1.156   6.184 -0.0102  0.8876 -3.4226
 6829SOL    HW232124   3.665   1.029   6.122  0.9732  1.2753  0.0439
 6830SOL     OW32125   4.662   4.430   3.550 -0.2910  0.0055 -0.0751
 6830SOL    HW132126   4.641   4.491   3.480 -2.1416  2.2025  2.3947
 6830SOL    HW232127   4.572   4.416   3.578 -0.1207  4.1986  2.6239
 6831SOL     OW32128   0.134   0.162  12.319  0.1517  0.6033  0.0480
 6831SOL    HW132129   0.137   0.079  12.366  1.2608  0.9232  0.5469
 6831SOL    HW232130   0.058   0.140  12.266  0.0775  0.5774  0.1651
 6832SOL     OW32131   3.876   4.106  15.435  0.2727  0.0784 -0.2919
 6832SOL    HW132132   3.870   4.195  15.469 -0.2983 -1.6097  4.0387
 6832SOL    HW232133   3.967   4.082  15.453  0.0869  0.6193  1.3920
 6833SOL     OW32134   1.045   3.167  12.571 -0.0770  0.1410  0.1721
 6833SOL    HW132135   1.037   3.243  12.629  2.2556  0.8197 -0.4135
 6833SOL    HW232136   0.967   3.173  12.516 -1.2009  0.5973  1.8107
 6834SOL     OW32137   0.518   2.723   5.696  0.7538  0.1927 -0.2790
 6834SOL    HW132138   0.515   2.671   5.615  0.5232  0.1468 -0.2384
 6834SOL    HW232139   0.587   2.781   5.664 -0.0366  0.5230 -1.3961
 6835SOL     OW32140   0.308   0.400   1.944  0.0289  0.0533  0.2130
 6835SOL    HW132141   0.248   0.414   2.017 -0.6017  0.1889 -0.3299
 6835SOL    HW232142   0.375   0.345   1.984 -0.3166  0.1479  0.9340
 6836SOL     OW32143   0.594   1.323  14.278 -0.2989 -0.1666  0.4149
 6836SOL    HW132144   0.559   1.391  14.337  0.7609  0.6278  0.1200
 6836SOL    HW232145   0.560   1.346  14.192 -0.4518 -3.3896 -0.3778
 6837SOL     OW32146   3.717   0.169   9.620 -0.3916  0.8032 -0.4091
 6837SOL    HW132147   3.668   0.092   9.649  0.0934  0.4355 -0.5599
 6837SOL    HW232148   3.749   0.192   9.708  1.0743 -2.7790 -0.0103
 6838SOL     OW32149   3.127   4.227  17.019 -0.0865 -0.2027  0.3282
 6838SOL    HW132150   3.217   4.230  17.051 -0.5647 -0.5297  1.7191
 6838SOL    HW232151   3.147   4.239  16.927 -1.3317  0.5918  0.1640
 6839SOL     OW32152   1.665   1.460   7.975  0.0660  0.1414  0.1545
 6839SOL    HW132153   1.723   1.488   8.046  0.8003  2.2490 -1.2477
 6839SOL    HW232154   1.587   1.511   7.999 -0.3671  0.0459 -1.0356
 6840SOL     OW32155   1.964   2.381   9.032  0.4808 -0.3603 -0.0724
 6840SOL    HW132156   1.928   2.389   8.944 -0.3785 -0.6346  0.2482
 6840SOL    HW232157   2.057   2.369   9.014  0.6599  0.3496  0.3773
 6841SOL     OW32158   2.394   2.844   9.849 -0.2807 -0.4500 -0.1535
 6841SOL    HW132159   2.410   2.751   9.833  3.2342  0.0190  0.5020
 6841SOL    HW232160   2.316   2.859   9.796 -0.5124 -0.3991  0.1949
 6842SOL     OW32161   2.643   0.156   6.380 -0.0629 -0.5101 -0.1893
 6842SOL    HW132162   2.608   0.067   6.389  0.5106 -0.7653 -0.4564
 6842SOL    HW232163   2.669   0.174   6.471 -0.3627  1.3486 -0.4834
 6843SOL     OW32164   2.716   0.089  15.497  0.2935 -0.0639 -0.2967
 6843SOL    HW132165   2.740   0.157  15.560  0.2419  1.4043 -1.8719
 6843SOL    HW232166   2.688   0.152  15.431 -0.5129  0.3254  0.4112
 6844SOL     OW32167   0.870   1.556   7.594  0.5356 -0.3437  0.2238
 6844SOL    HW132168   0.861   1.556   7.690 -0.5316  0.2005  0.1199
 6844SOL    HW232169   0.829   1.470   7.580  0.3422 -0.3052  0.5468
 6845SOL     OW32170   0.390   0.511   6.245  0.3772 -0.4844 -0.1320
 6845SOL    HW132171   0.423   0.421   6.255 -1.3147 -1.3214 -1.9969
 6845SOL    HW232172   0.302   0.496   6.210  0.3028 -1.5252  0.4921
 6846SOL     OW32173   4.558   4.506   3.960 -0.0008 -0.0946  0.0414
 6846SOL    HW132174   4.631   4.444   3.965 -0.4693 -0.6405  0.1527
 6846SOL    HW232175   4.487   4.441   3.966  1.8847 -2.0561  1.1963
 6847SOL     OW32176   0.909   0.641  13.856  0.7569  0.1746  0.2775
 6847SOL    HW132177   0.816   0.660  13.869 -0.1792 -3.2891 -1.3907
 6847SOL    HW232178   0.917   0.547  13.842  0.1362  0.3490 -1.1872
 6848SOL     OW32179   0.211   4.238  15.831 -0.0808  0.6294 -0.4500
 6848SOL    HW132180   0.267   4.169  15.867 -0.1551  1.3281  1.0152
 6848SOL    HW232181   0.128   4.226  15.877  1.2098  0.2616  1.7714
 6849SOL     OW32182   0.551   1.081   3.443 -0.1950 -0.0379  0.1961
 6849SOL    HW132183   0.532   0.994   3.479  1.9868 -0.2718  0.7781
 6849SOL    HW232184   0.477   1.089   3.382  0.5341 -1.6064 -0.8934
 6850SOL     OW32185   1.387   0.160   7.218  0.2561 -0.2605  0.2113
 6850SOL    HW132186   1.477   0.173   7.249  1.8511 -1.8193 -3.7623
 6850SOL    HW232187   1.394   0.204   7.133 -0.6831 -1.0226 -0.2493
 6851SOL     OW32188   0.757   3.322   7.636  0.1211  0.0794 -0.6482
 6851SOL    HW132189   0.777   3.232   7.662  0.9720  1.0731  2.1143
 6851SOL    HW232190   0.769   3.316   7.541 -0.7214 -0.6506 -0.7068
 6852SOL     OW32191   3.629   1.494   2.429 -0.2482 -1.0173 -0.2097
 6852SOL    HW132192   3.617   1.585   2.402 -1.8998 -1.3268 -0.5121
 6852SOL    HW232193   3.666   1.449   2.353  2.2645  0.3734  0.1833
 6853SOL     OW32194   3.787   2.666   7.864 -0.3747  0.0616  0.0145
 6853SOL    HW132195   3.781   2.730   7.935  0.6236 -1.3915  1.3783
 6853SOL    HW232196   3.770   2.585   7.911 -0.8422  1.0814  1.6082
 6854SOL     OW32197   4.651   0.107   0.916  0.1668  0.3580  0.1113
 6854SOL    HW132198   4.614   0.116   0.828 -0.9776 -3.6586  0.1761
 6854SOL    HW232199   4.575   0.097   0.973 -0.8403  0.9386 -1.1326
 6855SOL     OW32200   0.365   1.450  13.165 -0.0047 -0.1771  0.0868
 6855SOL    HW132201   0.448   1.492  13.188  0.8255 -2.3479  0.9744
 6855SOL    HW232202   0.303   1.523  13.173  0.5539  0.1043  1.7496
 6856SOL     OW32203   0.218   0.035   7.469 -0.0047 -0.3780  0.8525
 6856SOL    HW132204   0.247   0.122   7.495  0.3984 -0.3011  0.1462
 6856SOL    HW232205   0.302   4.729   7.470 -1.3741 -3.0302  0.0778
 6857SOL     OW32206   3.880   3.699   7.475 -0.6243  0.0431  0.4921
 6857SOL    HW132207   3.870   3.735   7.387  0.0095  0.7037  0.6941
 6857SOL    HW232208   3.829   3.761   7.526 -1.5254 -0.3698  0.0885
 6858SOL     OW32209   1.467   3.926   8.537  0.1468 -0.4766 -0.1649
 6858SOL    HW132210   1.552   3.957   8.507  0.6965 -0.4458  1.4326
 6858SOL    HW232211   1.425   4.010   8.554  0.0713 -0.0905 -2.2293
 6859SOL     OW32212   0.540   3.079   6.547  0.1408  0.0560 -0.4229
 6859SOL    HW132213   0.561   3.148   6.611  0.5871  1.3343 -1.9557
 6859SOL    HW232214   0.449   3.097   6.524 -0.2352 -0.9837  0.2428
 6860SOL     OW32215   4.657   2.902   5.973 -0.3135  0.0945  0.0517
 6860SOL    HW132216   4.682   2.861   5.890 -0.5481 -0.7584  0.4015
 6860SOL    HW232217   4.586   2.841   5.992 -0.2772 -0.2244 -0.8559
 6861SOL     OW32218   3.638   2.341   2.812 -0.2082  0.5791  0.4664
 6861SOL    HW132219   3.597   2.315   2.895  0.8202  0.3788  0.9080
 6861SOL    HW232220   3.691   2.409   2.852  0.0828  1.1628 -0.9158
 6862SOL     OW32221   3.818   0.924   5.488  0.2294 -0.4152 -0.7947
 6862SOL    HW132222   3.830   0.919   5.393 -1.4794 -0.1542 -1.0338
 6862SOL    HW232223   3.739   0.979   5.486  0.7077  0.3113  0.3172
 6863SOL     OW32224   0.443   4.283   7.786  0.0461 -0.3871  0.3418
 6863SOL    HW132225   0.356   4.312   7.815  0.4988  0.4307  0.8850
 6863SOL    HW232226   0.487   4.281   7.871  0.3816  1.2017  0.2183
 6864SOL     OW32227   2.049   4.526   7.733  0.0339 -0.1230 -0.1358
 6864SOL    HW132228   2.126   4.504   7.786  0.7527 -1.9187 -1.8997
 6864SOL    HW232229   2.088   4.586   7.669 -0.5293  0.2889 -0.0804
 6865SOL     OW32230   2.055   0.064   8.747 -0.0189 -0.0806  0.6027
 6865SOL    HW132231   2.081   0.072   8.656 -1.8665  1.4264  0.2173
 6865SOL    HW232232   2.137   0.053   8.795 -0.0427 -1.6110  0.3034
 6866SOL     OW32233   3.029   3.864   5.623  0.5936 -0.2130  0.1628
 6866SOL    HW132234   3.120   3.871   5.650  0.7390 -0.2273 -0.3128
 6866SOL    HW232235   2.980   3.817   5.690  1.4030  0.5682  1.2968
 6867SOL     OW32236   1.121   0.086  12.561 -0.4398  0.5679 -0.1472
 6867SOL    HW132237   1.060   0.114  12.492  1.8411  0.4411 -2.2357
 6867SOL    HW232238   1.172   0.021  12.512  0.5571  1.5712 -0.4527
 6868SOL     OW32239   2.358   2.334   2.561 -0.1802 -0.3653 -0.1253
 6868SOL    HW132240   2.369   2.368   2.650 -0.0645  2.7068 -1.3053
 6868SOL    HW232241   2.268   2.357   2.537  0.2589  1.8416  0.3830
 6869SOL     OW32242   4.301   2.432   5.315  0.1541 -0.1901 -0.1724
 6869SOL    HW132243   4.262   2.346   5.328  0.9230 -0.7797 -1.6952
 6869SOL    HW232244   4.383   2.420   5.362  0.3839 -1.5992 -0.9305
 6870SOL     OW32245   1.681   4.559   4.798 -0.7178 -0.0851  0.0390
 6870SOL    HW132246   1.681   4.464   4.787 -0.0360 -0.1540  0.5948
 6870SOL    HW232247   1.648   4.587   4.712  2.0325  1.0208 -0.6382
 6871SOL     OW32248   1.936   3.793   6.590 -0.3364  0.3486  0.5587
 6871SOL    HW132249   1.979   3.847   6.657  0.5738 -1.2528  1.2652
 6871SOL    HW232250   1.897   3.717   6.634 -2.0281  1.1326  0.4203
 6872SOL     OW32251   0.452   4.101   9.371 -0.1083  0.0536  0.1953
 6872SOL    HW132252   0.406   4.184   9.376  0.7211  0.6850 -2.4122
 6872SOL    HW232253   0.441   4.060   9.457  0.1990 -1.7599 -0.6196
 6873SOL     OW32254   1.603   4.551   2.048 -0.8619 -0.4316 -0.2745
 6873SOL    HW132255   1.535   4.599   2.000 -2.1357 -0.2885  1.6820
 6873SOL    HW232256   1.624   4.474   1.995 -1.6078 -0.1716 -0.9632
 6874SOL     OW32257   1.610   1.320   4.751 -0.2347 -0.1389  0.2420
 6874SOL    HW132258   1.534   1.316   4.809 -0.3292 -0.2417  0.1108
 6874SOL    HW232259   1.572   1.305   4.665 -3.0754  0.5213  1.4073
 6875SOL     OW32260   4.593   3.601  12.658  0.3161 -0.0227  0.4417
 6875SOL    HW132261   4.682   3.626  12.632  0.7764  0.6496  2.6389
 6875SOL    HW232262   4.605   3.518  12.705  1.1715 -0.6225 -0.8144
 6876SOL     OW32263   1.070   2.526   8.198 -0.4515  0.3340 -0.6793
 6876SOL    HW132264   1.052   2.618   8.219  2.2111  0.9362 -0.9959
 6876SOL    HW232265   1.070   2.541   8.104 -1.2372  0.9866 -0.5764
 6877SOL     OW32266   3.120   3.730   0.177  0.1479 -0.2054  0.5525
 6877SOL    HW132267   3.093   3.661   0.237 -0.5315 -2.3671 -2.2263
 6877SOL    HW232268   3.157   3.682   0.103  3.8021 -0.9542  2.9139
 6878SOL     OW32269   0.771   0.707  12.946 -0.4173 -0.0222  1.1981
 6878SOL    HW132270   0.723   0.786  12.921  1.2782  0.4621 -0.5049
 6878SOL    HW232271   0.761   0.712  13.041  2.2025  0.7169  1.4424
 6879SOL     OW32272   3.819   1.259  10.440 -0.3306  0.0715  0.0244
 6879SOL    HW132273   3.818   1.344  10.396 -2.4470 -0.6886 -1.4350
 6879SOL    HW232274   3.895   1.276  10.494 -1.2184 -0.0390  1.3111
 6880SOL     OW32275   1.085   1.633  13.308 -0.5619 -0.1868  0.0640
 6880SOL    HW132276   1.026   1.707  13.299 -1.4548 -0.9312 -0.2138
 6880SOL    HW232277   1.159   1.677  13.349  0.2142 -0.8519 -0.6338
 6881SOL     OW32278   1.781   3.596   2.403  0.0173 -0.9690  0.2391
 6881SOL    HW132279   1.853   3.659   2.404 -0.4841 -0.3813 -1.2100
 6881SOL    HW232280   1.712   3.660   2.387 -1.9257 -2.3454  3.2457
 6882SOL     OW32281   0.586   0.062   4.879 -0.4159 -0.0136  0.1363
 6882SOL    HW132282   0.677   0.036   4.867 -1.1227 -2.5006  0.2171
 6882SOL    HW232283   0.592   0.073   4.974 -2.1990  0.1299  0.2277
 6883SOL     OW32284   3.898   4.171   5.133  0.2390  0.0317  0.1924
 6883SOL    HW132285   3.898   4.076   5.148  0.0456  0.3764  2.3993
 6883SOL    HW232286   3.921   4.208   5.218  0.0934 -1.2083  0.7783
 6884SOL     OW32287   2.397   0.561   1.855 -0.2169 -0.1426  0.6203
 6884SOL    HW132288   2.423   0.652   1.847 -0.4720 -0.0940  0.3224
 6884SOL    HW232289   2.311   0.573   1.895  0.4673  1.8206  1.4639
 6885SOL     OW32290   3.240   2.944   3.307  0.6485 -0.1825 -0.2976
 6885SOL    HW132291   3.264   3.037   3.301 -0.1485  0.0011 -0.6054
 6885SOL    HW232292   3.215   2.928   3.216  3.2634 -1.2734 -0.8257
 6886SOL     OW32293   4.066   2.289  13.145  0.3820 -0.5699  0.1300
 6886SOL    HW132294   4.002   2.278  13.214  0.8868 -1.2470  0.4939
 6886SOL    HW232295   4.014   2.324  13.072  0.2459 -0.9764  0.0315
 6887SOL     OW32296   0.781   0.640   6.333  0.6780  0.7464 -0.4488
 6887SOL    HW132297   0.694   0.679   6.325 -0.1738 -1.1765 -0.4933
 6887SOL    HW232298   0.781   0.628   6.428  0.0361  0.5342 -0.4705
 6888SOL     OW32299   3.619   1.403   1.964  0.2271 -0.7519 -0.3496
 6888SOL    HW132300   3.666   1.353   2.031 -0.5769  1.2035  1.6688
 6888SOL    HW232301   3.551   1.339   1.944 -0.1000 -0.4757 -0.1155
 6889SOL     OW32302   2.194   3.584   4.809  0.0599 -0.0666 -0.1642
 6889SOL    HW132303   2.237   3.578   4.894  1.6242  3.4408 -0.6990
 6889SOL    HW232304   2.250   3.657   4.784 -3.0734  2.5171  0.3520
 6890SOL     OW32305   3.616   2.728  13.232  0.1849  0.5583 -0.2241
 6890SOL    HW132306   3.679   2.798  13.218  0.1494  0.4549 -0.8766
 6890SOL    HW232307   3.647   2.654  13.181  1.0622  1.8421 -1.5465
 6891SOL     OW32308   2.817   2.223   5.613  0.1003 -0.3626 -0.0527
 6891SOL    HW132309   2.890   2.205   5.554 -0.7567 -2.5358 -0.4786
 6891SOL    HW232310   2.812   2.318   5.614 -0.2707 -0.3887  1.8654
 6892SOL     OW32311   3.857   1.308   7.043 -0.2088 -0.4660 -0.1039
 6892SOL    HW132312   3.844   1.322   6.949  1.7726  0.1152 -0.2901
 6892SOL    HW232313   3.764   1.307   7.065 -0.4826 -0.8683 -1.2981
 6893SOL     OW32314   3.017   3.167   4.489  0.4258 -0.2878  0.3615
 6893SOL    HW132315   2.940   3.115   4.470  1.5205 -1.2360 -1.4928
 6893SOL    HW232316   2.979   3.231   4.550 -0.8838 -0.2509 -0.5060
 6894SOL     OW32317   3.088   0.850   8.720  0.2753  0.1586  0.2093
 6894SOL    HW132318   3.003   0.894   8.727  0.9373  1.2442  1.5217
 6894SOL    HW232319   3.143   0.916   8.764  1.5586 -1.1503  0.5696
 6895SOL     OW32320   3.043   0.529   3.232 -0.2668  0.3274 -0.2747
 6895SOL    HW132321   2.955   0.494   3.219 -0.7456  1.0935  0.8580
 6895SOL    HW232322   3.023   0.618   3.260 -0.0860  0.0558  0.6992
 6896SOL     OW32323   3.551   4.703   9.745  0.2059 -0.5723  0.2857
 6896SOL    HW132324   3.470   4.674   9.704  1.3491 -1.6650 -1.2245
 6896SOL    HW232325   3.534   4.678   9.835  3.1547 -0.8003  0.7947
 6897SOL     OW32326   2.068   4.299   1.883 -0.3947 -0.1885  0.0346
 6897SOL    HW132327   2.009   4.269   1.952  0.7079 -4.3153 -0.8499
 6897SOL    HW232328   2.003   4.317   1.815  0.6331  2.0420 -0.3470
 6898SOL     OW32329   2.143   0.981   4.520  0.2704 -0.0968  0.0462
 6898SOL    HW132330   2.055   0.967   4.553  0.3332  1.2385  0.7701
 6898SOL    HW232331   2.198   0.971   4.598 -2.0922 -0.9606  1.6072
 6899SOL     OW32332   0.979   0.094   8.427  0.1390  0.2115 -0.1266
 6899SOL    HW132333   1.066   0.130   8.409  0.5176 -1.3483 -1.3911
 6899SOL    HW232334   0.985   0.026   8.494  3.4356  0.1828 -0.4632
 6900SOL     OW32335   1.162   1.922   6.117  0.1591 -0.5571 -0.2398
 6900SOL    HW132336   1.075   1.909   6.154  0.9918 -3.9170  0.5567
 6900SOL    HW232337   1.159   1.861   6.044  0.9603 -1.5419  0.5441
 6901SOL     OW32338   0.664   1.017   2.605  0.4240 -0.3060 -0.6974
 6901SOL    HW132339   0.587   1.052   2.561  1.0510 -1.7642 -3.0249
 6901SOL    HW232340   0.688   0.962   2.530  0.0682 -2.8370  1.0616
 6902SOL     OW32341   4.680   4.231  13.504  0.2372 -0.1967 -0.0228
 6902SOL    HW132342   0.030   4.199  13.515 -1.2111 -3.3576  2.2892
 6902SOL    HW232343   4.695   4.265  13.416  1.3753  0.8298  0.5653
 6903SOL     OW32344   3.819   0.992   4.348 -0.8025 -0.1578 -0.3658
 6903SOL    HW132345   3.799   0.965   4.258  1.1721 -2.6209 -0.0688
 6903SOL    HW232346   3.800   1.086   4.345  1.9637  0.3284 -2.9989
 6904SOL     OW32347   4.176   2.047   3.411 -0.2587  0.8928  0.0470
 6904SOL    HW132348   4.176   1.976   3.347 -0.4780  0.6313  0.3375
 6904SOL    HW232349   4.103   2.013   3.462  1.3656  1.2586  2.6434
 6905SOL     OW32350   0.041   0.459  10.507 -0.2325 -0.3459 -0.3279
 6905SOL    HW132351   0.078   0.494  10.588  0.4193 -2.4460  0.2878
 6905SOL    HW232352   4.722   0.528  10.475  0.0842  0.3040  0.5070
 6906SOL     OW32353   1.689   0.626   5.996  0.5937 -0.0878  0.0346
 6906SOL    HW132354   1.598   0.609   6.020  1.4029 -1.0979  2.3260
 6906SOL    HW232355   1.696   0.577   5.914  3.3784  3.5656 -1.9238
 6907SOL     OW32356   1.447   1.447   8.845 -0.6620 -0.1655  0.4041
 6907SOL    HW132357   1.456   1.518   8.908  3.6907  1.0509 -1.5596
 6907SOL    HW232358   1.533   1.450   8.801 -1.8881 -1.5546 -2.1138
 6908SOL     OW32359   0.335   3.288   8.963  0.3285  0.4172  0.2372
 6908SOL    HW132360   0.346   3.256   9.052  2.5934 -2.8145 -1.2310
 6908SOL    HW232361   0.390   3.366   8.959  1.5635 -0.4221  1.1607
 6909SOL     OW32362   3.511   0.216   4.709  0.2280  0.0492  0.1468
 6909SOL    HW132363   3.527   0.125   4.684 -0.5484 -0.1414  0.3624
 6909SOL    HW232364   3.488   0.254   4.624  0.4936 -1.4653 -0.6018
 6910SOL     OW32365   0.122   2.172   4.890  0.1213 -0.0733  0.3514
 6910SOL    HW132366   0.120   2.178   4.795 -1.7489 -0.1283  0.4054
 6910SOL    HW232367   0.091   2.084   4.909  1.8182 -0.6576  0.4033
 6911SOL     OW32368   3.891   0.660   9.524  0.1051 -0.2122 -0.2251
 6911SOL    HW132369   3.858   0.575   9.552 -0.3049  0.7835  2.3435
 6911SOL    HW232370   3.905   0.644   9.431  0.5829 -2.0398  0.1718
 6912SOL     OW32371   2.395   0.996  14.812 -0.2074 -0.6384 -0.0827
 6912SOL    HW132372   2.345   1.045  14.877  1.7806  2.0768 -0.6229
 6912SOL    HW232373   2.335   0.923  14.794  1.9762 -2.2451 -0.8931
 6913SOL     OW32374   2.358   2.969   9.018  0.3553 -0.3884  0.3140
 6913SOL    HW132375   2.368   2.949   8.925  2.2716  2.1453 -0.0325
 6913SOL    HW232376   2.449   2.989   9.043 -0.5747  4.1363  0.0598
 6914SOL     OW32377   0.926   3.664   5.013  0.2673  0.4800 -0.1146
 6914SOL    HW132378   0.899   3.756   5.018 -0.7482  0.1030  1.1995
 6914SOL    HW232379   0.949   3.658   4.920  1.1193 -2.9536  0.3056
 6915SOL     OW32380   2.551   3.754   7.672 -0.3108 -0.3885 -0.2481
 6915SOL    HW132381   2.641   3.728   7.652 -0.0844  2.1022 -2.3235
 6915SOL    HW232382   2.533   3.812   7.599 -1.3052 -1.4049 -0.8093
 6916SOL     OW32383   1.786   4.730  16.221  0.4688  0.3787 -0.3255
 6916SOL    HW132384   1.874   0.030  16.216 -0.0685  1.5518 -0.9707
 6916SOL    HW232385   1.732   0.070  16.211 -0.2741  0.0592  1.1430
 6917SOL     OW32386   2.978   1.323   4.981  0.1944 -0.3932  0.2320
 6917SOL    HW132387   3.019   1.261   4.922 -1.4052 -1.4467  0.2328
 6917SOL    HW232388   2.895   1.284   5.010 -0.8015  0.9721 -0.7514
 6918SOL     OW32389   3.201   0.013  10.715 -0.4140  0.6493  0.0276
 6918SOL    HW132390   3.121   0.060  10.690 -0.1650 -0.0438 -2.0962
 6918SOL    HW232391   3.178   4.672  10.764  1.4217 -0.0943 -0.3175
 6919SOL     OW32392   2.116   1.738   4.571 -0.4679  0.4905  0.8867
 6919SOL    HW132393   2.158   1.665   4.616  1.4696  1.2064  0.2073
 6919SOL    HW232394   2.038   1.741   4.627 -0.7080 -1.3936  0.6715
 6920SOL     OW32395   2.182   3.768   2.711  0.7206  0.3516 -0.3661
 6920SOL    HW132396   2.232   3.736   2.636 -0.7883 -0.4746 -1.0129
 6920SOL    HW232397   2.239   3.757   2.788  1.5920 -1.5098 -1.2804
 6921SOL     OW32398   1.958   1.864   7.411  0.3369 -0.0592  0.3110
 6921SOL    HW132399   1.991   1.954   7.417 -0.6960  0.4790 -1.7425
 6921SOL    HW232400   2.003   1.815   7.479 -0.8535  0.2450  1.3085
 6922SOL     OW32401   1.140   4.155   0.540 -0.4223 -0.1434 -0.5052
 6922SOL    HW132402   1.108   4.176   0.628 -0.2492  1.4303 -0.8186
 6922SOL    HW232403   1.075   4.089   0.517 -0.3181 -1.5117  3.1724
 6923SOL     OW32404   2.450   0.358  15.611  0.3085  0.3894  0.1596
 6923SOL    HW132405   2.444   0.356  15.707 -2.1760 -1.2736 -0.0402
 6923SOL    HW232406   2.443   0.265  15.587  1.0049  0.6823 -1.1779
 6924SOL     OW32407   1.943   0.650   4.714  0.6628 -1.0186 -0.1870
 6924SOL    HW132408   1.978   0.693   4.792  1.1881 -4.1854  1.3254
 6924SOL    HW232409   2.022   0.602   4.688 -0.2134 -2.7652  0.3607
 6925SOL     OW32410   1.681   4.474   6.852  0.1418  0.6659 -0.3128
 6925SOL    HW132411   1.635   4.509   6.775  1.4500  2.3986 -0.2887
 6925SOL    HW232412   1.635   4.527   6.917 -1.2320 -1.3136  0.3478
 6926SOL     OW32413   2.172   1.402   6.231  0.1021 -0.2000 -0.1265
 6926SOL    HW132414   2.158   1.350   6.310  0.3455 -1.5370 -0.9606
 6926SOL    HW232415   2.267   1.410   6.226  0.0838  0.1789  0.1469
 6927SOL     OW32416   3.042   1.203   7.960 -0.0394 -0.0567  0.5136
 6927SOL    HW132417   3.004   1.174   8.043 -1.5846  0.9895  0.1817
 6927SOL    HW232418   3.133   1.225   7.979 -0.1676  0.8465  0.0964
 6928SOL     OW32419   3.091   0.887  10.115  0.5091 -0.0910  0.4419
 6928SOL    HW132420   3.007   0.841  10.112  1.7718 -2.3731  0.2082
 6928SOL    HW232421   3.074   0.968  10.067  1.0029 -0.9657 -1.2121
 6929SOL     OW32422   1.289   4.030   8.097 -0.4679  0.2350  0.1307
 6929SOL    HW132423   1.268   4.023   8.004  0.4669 -0.7710  0.0010
 6929SOL    HW232424   1.249   3.949   8.127 -0.5314  1.0756  2.2946
 6930SOL     OW32425   0.036   4.474   6.920  0.4514 -0.7214  0.5429
 6930SOL    HW132426   4.724   4.482   6.839 -0.7065  1.7858  1.5150
 6930SOL    HW232427   0.030   4.557   6.969 -0.8013 -1.8964  2.3788
 6931SOL     OW32428   2.420   3.205   6.326 -0.3993  0.4971 -0.2861
 6931SOL    HW132429   2.349   3.165   6.277  2.1845 -2.7896 -1.3111
 6931SOL    HW232430   2.376   3.251   6.398  0.6149  2.8047 -1.1668
 6932SOL     OW32431   1.894   1.232   5.503 -0.3622  0.2657  0.4528
 6932SOL    HW132432   1.803   1.208   5.521 -0.9643  2.0867 -0.1735
 6932SOL    HW232433   1.895   1.217   5.409  0.6855  1.3029  0.3071
 6933SOL     OW32434   3.914   0.894   8.388  0.7842 -0.4841  0.8092
 6933SOL    HW132435   3.941   0.803   8.374  3.9442  0.8227 -1.8275
 6933SOL    HW232436   3.878   0.895   8.476 -0.9810 -1.4861  0.1091
 6934SOL     OW32437   1.496   1.993   9.101  0.0895  0.1402 -0.0569
 6934SOL    HW132438   1.564   1.968   9.039  0.5873 -0.1816  0.6186
 6934SOL    HW232439   1.464   2.075   9.063 -0.7298 -0.7340 -1.2123
 6935SOL     OW32440   1.440   4.710   1.850  0.3811 -0.1719  0.3552
 6935SOL    HW132441   1.356   4.701   1.804 -0.3700 -0.1441  1.7379
 6935SOL    HW232442   1.490   0.027   1.790  0.9306  0.3573  1.3073
 6936SOL     OW32443   4.646   0.176   5.155  0.3452  0.2691 -0.4291
 6936SOL    HW132444   4.655   0.242   5.223  1.0263  0.3133 -0.5632
 6936SOL    HW232445   4.550   0.170   5.150  0.3537  1.0625 -1.5667
 6937SOL     OW32446   1.726   3.809   5.136 -0.5441 -0.1199  0.3824
 6937SOL    HW132447   1.744   3.843   5.048 -0.9360 -0.0531  0.3306
 6937SOL    HW232448   1.646   3.760   5.118 -0.5467  0.1814 -0.4234
 6938SOL     OW32449   1.911   0.187   3.168 -0.3406 -0.4962 -0.0624
 6938SOL    HW132450   1.963   0.213   3.092 -0.6282 -0.5415 -0.2757
 6938SOL    HW232451   1.939   0.252   3.231  1.1163 -0.2698 -0.9586
 6939SOL     OW32452   1.442   2.398   9.500  0.5675 -0.5178 -0.1784
 6939SOL    HW132453   1.442   2.363   9.411 -2.8297 -0.6429 -0.1314
 6939SOL    HW232454   1.469   2.487   9.475 -1.5062  0.6018  1.5581
 6940SOL     OW32455   2.384   0.107   2.565 -0.3956 -0.2693 -0.4112
 6940SOL    HW132456   2.300   0.098   2.608 -0.3914 -0.2362 -0.3963
 6940SOL    HW232457   2.363   0.165   2.492  0.5166 -0.4677 -0.8308
 6941SOL     OW32458   1.821   2.358   9.495 -0.2883 -0.3153 -0.2586
 6941SOL    HW132459   1.752   2.303   9.531 -0.6049  0.4996  0.3906
 6941SOL    HW232460   1.791   2.375   9.405 -0.8984  2.6242  0.4794
 6942SOL     OW32461   2.427   0.284   4.066  0.2186 -0.0973  0.4059
 6942SOL    HW132462   2.372   0.206   4.071  2.9348 -1.9481  1.0182
 6942SOL    HW232463   2.518   0.257   4.076  0.0905 -0.2802  1.0615
 6943SOL     OW32464   0.470   4.380   4.896  0.3665  0.8395 -0.0012
 6943SOL    HW132465   0.480   4.439   4.822 -0.4117 -0.9509 -1.5424
 6943SOL    HW232466   0.561   4.350   4.891  0.2076  0.2488  0.5437
 6944SOL     OW32467   2.468   1.492   8.794  0.1802  0.3190 -0.2202
 6944SOL    HW132468   2.373   1.497   8.783  0.1878  0.9005 -0.0174
 6944SOL    HW232469   2.485   1.585   8.780  0.8603  0.4237  1.3593
 6945SOL     OW32470   0.147   2.034   9.526  0.2493  0.2396 -0.0735
 6945SOL    HW132471   0.220   2.095   9.532  0.1268  0.3488  0.3040
 6945SOL    HW232472   0.188   1.948   9.533  1.1293  0.6992  0.4383
 6946SOL     OW32473   2.320   1.799  14.611 -0.1035 -0.0364  0.1755
 6946SOL    HW132474   2.362   1.743  14.545  0.5571 -0.1475  0.6852
 6946SOL    HW232475   2.241   1.828  14.566 -0.1601 -0.5225 -0.0390
 6947SOL     OW32476   2.527   0.785   5.583  0.0069 -0.9034  0.0135
 6947SOL    HW132477   2.532   0.761   5.675 -0.7092 -0.6723  0.1145
 6947SOL    HW232478   2.583   0.713   5.553  0.3490 -0.5280 -0.2545
 6948SOL     OW32479   2.311   2.229   5.447  0.5942  0.3179  0.3274
 6948SOL    HW132480   2.246   2.160   5.460 -0.5320  1.0507 -1.5106
 6948SOL    HW232481   2.284   2.264   5.362 -0.6325 -0.8263  0.2546
 6949SOL     OW32482   2.533   3.410   9.903  0.2537  0.2789  0.2749
 6949SOL    HW132483   2.485   3.383   9.981 -0.0318 -0.3129 -0.1085
 6949SOL    HW232484   2.464   3.464   9.865  0.4807  1.6680  1.7792
 6950SOL     OW32485   0.132   2.547   3.282  0.7026  0.0259 -1.1432
 6950SOL    HW132486   0.081   2.466   3.293  0.3378  0.0954 -2.3151
 6950SOL    HW232487   0.056   2.604   3.273  0.8892  0.1353 -1.9556
 6951SOL     OW32488   3.946   2.688   3.866 -0.1640  0.0079 -0.3197
 6951SOL    HW132489   3.950   2.755   3.798 -0.1754 -0.0187 -0.3467
 6951SOL    HW232490   4.034   2.694   3.902  0.0372  1.9662 -1.1474
 6952SOL     OW32491   2.424   0.089  15.620 -0.3212  0.2361  0.0446
 6952SOL    HW132492   2.483   0.023  15.583 -0.4638  0.3252 -0.3427
 6952SOL    HW232493   2.428   0.070  15.714  1.7405 -1.6307 -0.4167
 6953SOL     OW32494   1.980   3.580   5.815  0.3606  0.2285 -0.1638
 6953SOL    HW132495   2.032   3.512   5.772  1.1795  0.6529  0.1475
 6953SOL    HW232496   2.011   3.666   5.788  1.6577  1.0286  3.7881
 6954SOL     OW32497   0.357   4.668  15.343 -0.4324 -0.3478  0.3916
 6954SOL    HW132498   0.337   4.644  15.434 -1.5428 -0.0205  0.2341
 6954SOL    HW232499   0.286   4.627  15.294  1.2618 -2.1167 -0.6000
 6955SOL     OW32500   0.636   2.179   2.643  0.5664  0.1461  0.0327
 6955SOL    HW132501   0.628   2.171   2.547 -1.6587  1.2170  0.1310
 6955SOL    HW232502   0.647   2.085   2.659 -0.8190 -0.0547 -0.2057
 6956SOL     OW32503   2.369   2.961  12.910 -0.4074 -0.1852  0.6142
 6956SOL    HW132504   2.363   3.033  12.847  2.6871  0.3640  0.9416
 6956SOL    HW232505   2.295   2.989  12.964 -1.7513  0.5770 -1.6274
 6957SOL     OW32506   4.148   3.747   0.864 -0.3845 -0.5670 -0.0034
 6957SOL    HW132507   4.238   3.780   0.862  0.0151 -1.8515 -2.1181
 6957SOL    HW232508   4.138   3.723   0.956 -0.7723  0.0401  0.1145
 6958SOL     OW32509   0.532   1.550  14.670 -0.1890 -0.2406  0.6598
 6958SOL    HW132510   0.492   1.517  14.751 -1.5998  1.7301  0.7481
 6958SOL    HW232511   0.486   1.504  14.600 -0.0368  2.0209 -0.9353
 6959SOL     OW32512   4.502   3.367   8.356 -0.5278  0.3231 -0.0196
 6959SOL    HW132513   4.413   3.400   8.367 -1.0037 -0.9704 -0.0006
 6959SOL    HW232514   4.505   3.303   8.427 -1.9828 -0.2268 -0.4527
 6960SOL     OW32515   4.349   2.402   7.518  0.0638 -0.2038  0.0823
 6960SOL    HW132516   4.268   2.436   7.557  1.0650 -0.3273  2.2117
 6960SOL    HW232517   4.326   2.310   7.525  0.4087 -0.0568  2.9626
 6961SOL     OW32518   2.595   4.159  12.632  0.8851 -0.7279 -0.3915
 6961SOL    HW132519   2.510   4.200  12.617  1.3473  1.1638  2.2256
 6961SOL    HW232520   2.588   4.080  12.579 -2.1990  0.1512 -1.2734
 6962SOL     OW32521   3.669   0.879  11.340  0.2112  0.0430  0.0289
 6962SOL    HW132522   3.626   0.910  11.260  0.8000  0.1852 -0.2355
 6962SOL    HW232523   3.612   0.804  11.356 -2.5932  2.4225  1.0620
 6963SOL     OW32524   4.690   3.602  16.434  0.2197 -0.0669  0.4477
 6963SOL    HW132525   0.028   3.560  16.473 -0.5577 -0.8188  1.1608
 6963SOL    HW232526   4.625   3.542  16.472  0.3216  1.3011  2.7839
 6964SOL     OW32527   3.155   0.267   7.253 -0.0860 -0.6679  0.1819
 6964SOL    HW132528   3.074   0.290   7.298 -1.6778  0.0588 -3.0268
 6964SOL    HW232529   3.151   0.174   7.274 -0.3511 -0.5010  0.8551
 6965SOL     OW32530   1.807   0.678   4.009 -0.0267  0.5280  0.2067
 6965SOL    HW132531   1.851   0.644   3.931 -1.1564  1.1368 -0.6842
 6965SOL    HW232532   1.879   0.657   4.070  0.8583  0.9811 -0.6782
 6966SOL     OW32533   1.165   2.030   9.037  0.0931 -0.2735 -0.5704
 6966SOL    HW132534   1.161   1.985   9.121 -1.8561 -0.2303 -0.6327
 6966SOL    HW232535   1.124   2.115   9.056  1.4669  0.1249  0.5841
 6967SOL     OW32536   3.262   3.847   5.747 -0.5139 -0.1886 -0.5287
 6967SOL    HW132537   3.345   3.880   5.781 -0.2600 -1.8863  0.5221
 6967SOL    HW232538   3.288   3.764   5.707  0.1972  0.8048 -2.1350
 6968SOL     OW32539   4.348   4.676   1.392  0.7557 -0.0787 -0.2188
 6968SOL    HW132540   4.380   4.587   1.378 -2.8045 -1.3026 -0.4783
 6968SOL    HW232541   4.413   4.731   1.348 -0.0841  0.6251 -0.5901
 6969SOL     OW32542   0.624   1.978  13.279 -0.1973  0.3315  0.1412
 6969SOL    HW132543   0.556   1.968  13.213  0.5441  2.1005 -0.8942
 6969SOL    HW232544   0.705   1.974  13.228 -0.7303 -0.7267 -0.6109
 6970SOL     OW32545   1.824   0.017  12.107 -0.2331  0.1298 -0.7239
 6970SOL    HW132546   1.794   0.103  12.078  0.3428 -0.1926 -2.2867
 6970SOL    HW232547   1.910   0.007  12.067  0.9714  1.1489  1.6169
 6971SOL     OW32548   4.454   3.246   9.380  0.1758 -0.1691 -0.0813
 6971SOL    HW132549   4.475   3.158   9.347  1.6234  0.9724 -2.1400
 6971SOL    HW232550   4.544   3.266   9.407  0.0119 -0.5220  0.7471
 6972SOL     OW32551   1.800   2.423   8.817  0.0152  0.1439  0.4406
 6972SOL    HW132552   1.727   2.473   8.780  0.2411 -0.2269 -0.4897
 6972SOL    HW232553   1.775   2.341   8.776  1.1217 -1.0454  2.1395
 6973SOL     OW32554   2.983   3.575  15.753  0.5806  0.0469  0.0677
 6973SOL    HW132555   3.028   3.652  15.789 -1.0024  0.4831  1.1214
 6973SOL    HW232556   2.890   3.594  15.762  0.8364  2.5965 -2.7049
 6974SOL     OW32557   3.369   0.203   2.277  0.4643  0.1522  0.2520
 6974SOL    HW132558   3.341   0.294   2.290  2.5167  0.7921  0.1156
 6974SOL    HW232559   3.303   0.160   2.332  0.3871  0.9962  0.8165
 6975SOL     OW32560   3.429   1.052  13.567  0.7139  0.4935 -0.1033
 6975SOL    HW132561   3.358   0.989  13.564  0.6021  0.6839 -1.2410
 6975SOL    HW232562   3.397   1.126  13.515  1.6986  0.4068 -0.8290
 6976SOL     OW32563   1.524   0.092  17.440  0.6824 -0.6511  0.1241
 6976SOL    HW132564   1.612   0.094  17.401 -0.1018  0.5795 -1.5710
 6976SOL    HW232565   1.467   0.094  17.364 -0.2234  0.2763  0.8230
 6977SOL     OW32566   4.191   2.986   9.078  0.5105 -0.4493 -0.3049
 6977SOL    HW132567   4.227   2.960   9.163 -1.2231  0.4038  0.7029
 6977SOL    HW232568   4.264   3.028   9.034  0.0560 -0.4962 -1.1228
 6978SOL     OW32569   3.469   4.066  16.092 -0.1816  0.6542 -0.0559
 6978SOL    HW132570   3.387   4.025  16.066  0.2110  0.4455 -0.9643
 6978SOL    HW232571   3.508   4.074  16.005 -0.3544 -0.5859 -0.2502
 6979SOL     OW32572   3.309   4.566   7.369  0.0912  0.2339 -0.5383
 6979SOL    HW132573   3.289   4.498   7.304  0.8479  2.6658 -3.3544
 6979SOL    HW232574   3.227   4.592   7.410 -0.0864 -1.5129  0.2168
 6980SOL     OW32575   0.988   3.656  10.023 -0.5003 -0.3101 -0.0911
 6980SOL    HW132576   1.015   3.720  10.089  2.9657 -0.2593 -1.6131
 6980SOL    HW232577   1.018   3.692   9.940 -1.0407  1.3828  0.4312
 6981SOL     OW32578   0.340   3.640   4.691 -0.9964 -0.6660  0.0732
 6981SOL    HW132579   0.249   3.653   4.662 -1.7245 -2.5688  1.4762
 6981SOL    HW232580   0.326   3.572   4.757  1.9909 -3.0740 -1.7383
 6982SOL     OW32581   4.541   3.185  16.397 -0.5949 -0.0315  0.2103
 6982SOL    HW132582   4.473   3.118  16.386 -0.3457 -0.2260 -0.1448
 6982SOL    HW232583   4.612   3.131  16.429 -1.0424  0.0544  1.3401
 6983SOL     OW32584   1.438   3.729   4.836  0.3657  0.1089  0.0754
 6983SOL    HW132585   1.360   3.675   4.845  0.8855 -0.7630 -0.6080
 6983SOL    HW232586   1.403   3.802   4.785  0.2925 -0.0378 -0.0827
 6984SOL     OW32587   3.305   0.615  10.909 -0.3305  0.8578 -0.0757
 6984SOL    HW132588   3.304   0.556  10.984 -0.0940 -0.6917 -1.2965
 6984SOL    HW232589   3.400   0.625  10.905 -0.1322 -0.5483  1.0080
 6985SOL     OW32590   2.695   2.150   3.048 -0.3215 -0.1354  0.4285
 6985SOL    HW132591   2.779   2.124   3.011 -0.7902  0.5111 -1.0928
 6985SOL    HW232592   2.712   2.125   3.139  0.2765  0.1253  0.3822
 6986SOL     OW32593   4.309   3.805   9.764  0.2334  0.2690 -0.4805
 6986SOL    HW132594   4.297   3.845   9.850 -0.9273  0.5044 -0.7552
 6986SOL    HW232595   4.393   3.844   9.739  0.1914  0.3059 -0.5637
 6987SOL     OW32596   2.279   3.909   1.451 -0.0783  0.0982  0.1906
 6987SOL    HW132597   2.330   3.951   1.520 -0.7890 -0.3163  0.9600
 6987SOL    HW232598   2.220   3.852   1.500  2.4434 -1.5456  1.3052
 6988SOL     OW32599   0.192   4.482   6.595 -0.2208  0.3909 -0.0857
 6988SOL    HW132600   0.194   4.388   6.612  2.8098  0.1891 -1.6610
 6988SOL    HW232601   0.279   4.513   6.616 -0.7682 -0.9965  4.1672
 6989SOL     OW32602   4.539   4.614   6.002  0.4297  0.2097  0.5663
 6989SOL    HW132603   4.621   4.650   6.034  0.1352  1.3143  0.0847
 6989SOL    HW232604   4.483   4.667   6.059 -1.2131 -0.0548 -0.8043
 6990SOL     OW32605   4.231   3.725   1.398 -0.0801 -0.0210 -0.1680
 6990SOL    HW132606   4.136   3.712   1.404 -0.0657 -0.7014 -1.5037
 6990SOL    HW232607   4.249   3.662   1.329 -1.5431 -0.4793 -0.1468
 6991SOL     OW32608   2.746   4.334  15.317  0.2443 -0.1786  0.4247
 6991SOL    HW132609   2.710   4.390  15.248  2.0194  1.0797  0.5331
 6991SOL    HW232610   2.756   4.393  15.391  2.2257 -0.2189  0.1723
 6992SOL     OW32611   3.269   1.095   5.829 -0.4428 -0.5589 -0.3235
 6992SOL    HW132612   3.215   1.170   5.806  0.2773 -0.3969 -1.4913
 6992SOL    HW232613   3.279   1.111   5.923  0.4485 -2.6353 -0.0705
 6993SOL     OW32614   3.067   2.541  11.644 -0.9684  0.3907  0.5982
 6993SOL    HW132615   3.094   2.453  11.617 -0.3140  0.4852  0.9617
 6993SOL    HW232616   3.149   2.590  11.652 -0.3798 -0.5483  0.2541
 6994SOL     OW32617   0.325   4.436  16.904  0.0393  0.2318 -0.2891
 6994SOL    HW132618   0.407   4.415  16.947  0.2629  1.0532 -0.3052
 6994SOL    HW232619   0.351   4.454  16.814  1.7528  1.2153  0.4080
 6995SOL     OW32620   3.667   2.975   6.370 -0.1208 -0.1484 -0.3253
 6995SOL    HW132621   3.744   2.948   6.421 -0.2906  1.2453  0.6604
 6995SOL    HW232622   3.643   2.896   6.323 -3.1383  0.8603 -0.4757
 6996SOL     OW32623   3.745   4.215   1.555 -0.8812 -0.0953 -0.5937
 6996SOL    HW132624   3.757   4.243   1.645 -1.9896  1.6520 -0.9731
 6996SOL    HW232625   3.823   4.239   1.505 -0.1965 -0.1815  0.4473
 6997SOL     OW32626   2.063   0.316   1.926  0.1112  0.4501  0.5367
 6997SOL    HW132627   2.115   0.393   1.948  0.4362 -0.5027  3.1162
 6997SOL    HW232628   1.983   0.360   1.896  0.6963  1.8302  1.0179
 6998SOL     OW32629   3.698   1.977   7.578  0.3371 -1.0001  0.4220
 6998SOL    HW132630   3.774   1.923   7.600  0.7986 -0.9501 -1.0019
 6998SOL    HW232631   3.690   1.968   7.483  0.4959  1.7688  0.1449
 6999SOL     OW32632   0.300   2.816  11.271  0.6740  0.0281  0.1259
 6999SOL    HW132633   0.282   2.834  11.179 -0.4817  1.3647  0.6085
 6999SOL    HW232634   0.395   2.802  11.265  0.5531 -1.6658  2.4363
 7000SOL     OW32635   3.929   0.900   6.965 -0.6287 -0.3790  0.2544
 7000SOL    HW132636   3.835   0.905   6.986 -1.2399 -4.2607 -1.5241
 7000SOL    HW232637   3.913   0.895   6.870  0.2907 -1.2882  0.1516
 7001SOL     OW32638   1.290   2.028  16.883  0.5667  0.1019  0.0216
 7001SOL    HW132639   1.298   1.940  16.846  0.9342  0.1250  0.0450
 7001SOL    HW232640   1.202   2.021  16.920  0.7136 -1.0541  0.1414
 7002SOL     OW32641   0.653   3.754   2.376 -0.3167 -0.2541 -0.3413
 7002SOL    HW132642   0.646   3.707   2.459  0.7254 -0.2298 -0.2480
 7002SOL    HW232643   0.615   3.840   2.396 -3.2640 -1.2012 -1.9486
 7003SOL     OW32644   3.418   1.531   9.866  0.1080 -0.0752  0.4432
 7003SOL    HW132645   3.460   1.608   9.904  0.7214  0.5879 -1.5525
 7003SOL    HW232646   3.452   1.540   9.776 -0.8954 -0.9980 -0.0234
 7004SOL     OW32647   0.970   2.696   6.462  0.1971  0.6073 -0.0232
 7004SOL    HW132648   0.997   2.730   6.377 -1.4357  0.6859 -0.5072
 7004SOL    HW232649   0.914   2.765   6.497  2.3262  1.0692  2.5372
 7005SOL     OW32650   1.932   2.761   7.913 -0.8776 -0.0731 -0.0655
 7005SOL    HW132651   1.944   2.681   7.965  2.9797 -0.1820 -1.0749
 7005SOL    HW232652   1.846   2.793   7.939 -1.0980  1.5999 -2.8714
 7006SOL     OW32653   3.074   4.413   6.166  0.2475 -0.5391  0.2573
 7006SOL    HW132654   3.022   4.334   6.183 -0.4308  0.3685  2.4241
 7006SOL    HW232655   3.001   4.471   6.144 -0.1723 -1.2126 -0.1202
 7007SOL     OW32656   2.450   0.969   2.929 -0.3513  0.3400 -0.4538
 7007SOL    HW132657   2.367   1.014   2.913 -0.8861 -0.0678  1.1549
 7007SOL    HW232658   2.455   0.983   3.023  1.2381  0.8674 -0.6241
 7008SOL     OW32659   2.742   3.630   9.968 -0.1498 -0.0505 -0.1063
 7008SOL    HW132660   2.832   3.650   9.942 -0.5419  1.1872 -0.4908
 7008SOL    HW232661   2.716   3.547   9.927 -0.2423 -1.3641  2.6311
 7009SOL     OW32662   3.488   2.808   5.204  0.1641  0.0675 -0.0360
 7009SOL    HW132663   3.503   2.889   5.253 -0.6551  1.3143 -1.8315
 7009SOL    HW232664   3.564   2.808   5.146 -0.9592 -0.2946 -1.5232
 7010SOL     OW32665   2.228   3.614   8.419  0.1424  0.0424  0.1595
 7010SOL    HW132666   2.140   3.644   8.442 -0.0060 -0.5791  0.4096
 7010SOL    HW232667   2.282   3.645   8.492 -0.9493  2.1914  0.0278
 7011SOL     OW32668   1.571   2.530   7.399  0.8619  0.8181  0.2036
 7011SOL    HW132669   1.491   2.578   7.376  1.8389  1.3297 -2.0290
 7011SOL    HW232670   1.580   2.540   7.494  1.2714 -1.3150  0.3877
 7012SOL     OW32671   1.042   0.430   9.122  0.6792 -0.4755  0.1691
 7012SOL    HW132672   1.124   0.400   9.082  0.5013 -0.0478 -0.5327
 7012SOL    HW232673   1.005   0.343   9.134  1.2820 -0.6606  0.6450
 7013SOL     OW32674   0.173   0.617   7.474 -0.3038  0.1613  0.0492
 7013SOL    HW132675   0.112   0.660   7.535  0.3563 -0.0611  0.8768
 7013SOL    HW232676   0.119   0.562   7.417 -0.1954  1.6300 -1.4272
 7014SOL     OW32677   4.316   0.928  10.110  0.3278  0.0796  0.0613
 7014SOL    HW132678   4.261   0.962  10.040  1.4311 -0.6656 -1.1863
 7014SOL    HW232679   4.283   0.840  10.125  2.3831 -0.0985  3.4793
 7015SOL     OW32680   1.456   0.921   7.926 -0.4362 -0.8039 -0.2296
 7015SOL    HW132681   1.459   0.879   7.840  2.2422  1.7231 -1.3604
 7015SOL    HW232682   1.432   1.010   7.901  0.8568 -0.4514 -0.1729
 7016SOL     OW32683   1.961   4.257   5.271 -0.0649  0.3862 -0.0914
 7016SOL    HW132684   1.895   4.319   5.303  0.9127  0.9180  0.9142
 7016SOL    HW232685   1.944   4.180   5.326  2.0272  0.5256  0.7469
 7017SOL     OW32686   3.763   0.982   3.715 -0.1398  0.6370  0.0889
 7017SOL    HW132687   3.708   0.939   3.780  2.4946 -3.7380 -0.6021
 7017SOL    HW232688   3.752   0.925   3.639 -1.5496  0.9526  0.0493
 7018SOL     OW32689   2.801   3.642   2.955 -0.0758 -0.0781 -0.2248
 7018SOL    HW132690   2.756   3.617   3.036 -0.9304 -0.7351 -0.9195
 7018SOL    HW232691   2.746   3.609   2.885 -0.4638 -0.9880  0.5020
 7019SOL     OW32692   0.001   3.747   7.066 -0.0318  0.5781  0.1109
 7019SOL    HW132693   0.010   3.793   6.982 -0.2296  2.7995  1.3144
 7019SOL    HW232694   0.040   3.815   7.122  0.0787 -0.0379  0.7749
 7020SOL     OW32695   1.980   3.515   8.750  1.1016 -0.2035  0.5410
 7020SOL    HW132696   1.885   3.515   8.761  0.9572  1.2059 -0.5963
 7020SOL    HW232697   2.007   3.583   8.811  0.6096  0.1301  0.3890
 7021SOL     OW32698   3.797   4.153  11.694  0.0484  0.3669 -0.3535
 7021SOL    HW132699   3.780   4.060  11.685  1.5593  0.0830 -0.2390
 7021SOL    HW232700   3.837   4.164  11.608  1.8679  0.1644  0.4665
 7022SOL     OW32701   3.024   0.539   1.806 -0.5688 -0.3441  0.5513
 7022SOL    HW132702   2.952   0.519   1.866 -0.3004 -0.5132  0.8181
 7022SOL    HW232703   3.010   0.468   1.743 -0.1498 -0.5754  0.7153
 7023SOL     OW32704   1.794   3.427   3.608  0.3125  0.2047  0.0129
 7023SOL    HW132705   1.725   3.361   3.605 -0.0021  0.6035 -1.7207
 7023SOL    HW232706   1.750   3.486   3.670 -0.5861 -0.8301  0.3672
 7024SOL     OW32707   0.859   0.022   4.859 -0.2134  0.4419  0.0272
 7024SOL    HW132708   0.897   0.023   4.771 -0.8403  2.7554 -0.2309
 7024SOL    HW232709   0.941   0.027   4.908 -1.3328  0.6988  1.8741
 7025SOL     OW32710   1.327   1.229   6.487  0.2141 -0.5979  0.6424
 7025SOL    HW132711   1.377   1.291   6.540  0.7081 -1.3337  1.0350
 7025SOL    HW232712   1.387   1.228   6.412  0.1130  1.8510  0.5450
 7026SOL     OW32713   2.430   0.285  14.930  0.1092  0.0244  0.4901
 7026SOL    HW132714   2.347   0.307  14.888  1.3097  3.1555 -0.2531
 7026SOL    HW232715   2.461   0.371  14.960 -0.2181  0.3484 -0.0965
 7027SOL     OW32716   0.466   1.690   5.640  0.0882 -0.1901 -0.3467
 7027SOL    HW132717   0.452   1.781   5.665  1.0480  0.1597 -1.1055
 7027SOL    HW232718   0.383   1.664   5.599  0.9844 -1.3718 -1.3831
 7028SOL     OW32719   4.110   1.861   8.512 -0.0751 -0.5195 -0.6683
 7028SOL    HW132720   4.069   1.886   8.428  0.9280 -2.4464 -1.7313
 7028SOL    HW232721   4.102   1.765   8.510 -1.5795 -0.4209  0.9307
 7029SOL     OW32722   0.264   1.204   3.970 -0.2382  0.0966 -0.3913
 7029SOL    HW132723   0.317   1.190   3.892 -0.9948  0.7259 -1.0274
 7029SOL    HW232724   0.276   1.121   4.015  0.7717  2.8112  4.2976
 7030SOL     OW32725   0.795   2.248  16.839  0.1366 -0.3691  0.3070
 7030SOL    HW132726   0.755   2.277  16.921  0.4629  1.0937 -0.0535
 7030SOL    HW232727   0.721   2.216  16.787  0.8694 -0.0767 -0.9282
 7031SOL     OW32728   1.246   0.847  17.414  0.4063 -0.5887  0.1380
 7031SOL    HW132729   1.178   0.812  17.356 -1.4685  1.2233  1.2665
 7031SOL    HW232730   1.219   0.938  17.417  1.1509 -0.3477 -0.4998
 7032SOL     OW32731   1.601   2.909  15.501 -0.2888  0.1839  0.0720
 7032SOL    HW132732   1.522   2.884  15.452  0.2255 -1.2406 -0.0431
 7032SOL    HW232733   1.609   2.832  15.557 -1.7890 -0.0754 -0.0512
 7033SOL     OW32734   0.004   0.545  11.506  0.3522  0.0905  0.1634
 7033SOL    HW132735   4.734   0.513  11.596  0.4560 -1.0630 -0.2428
 7033SOL    HW232736   4.696   0.626  11.526  0.5062 -0.5813  3.2932
 7034SOL     OW32737   1.696   2.544   3.998  0.3675  0.3296  0.7020
 7034SOL    HW132738   1.644   2.624   3.988  2.6956  1.4891 -1.9953
 7034SOL    HW232739   1.633   2.483   3.959 -0.2025  0.6467  1.1146
 7035SOL     OW32740   1.630   2.178   9.571  0.3195 -0.4749  0.4633
 7035SOL    HW132741   1.545   2.222   9.560  0.9657  0.1106 -2.2560
 7035SOL    HW232742   1.625   2.128   9.489 -2.0949 -2.2895  1.6838
 7036SOL     OW32743   0.306   3.175   5.104 -0.0969  0.7042  0.3330
 7036SOL    HW132744   0.310   3.098   5.048  2.6079  0.2078  1.2200
 7036SOL    HW232745   0.398   3.201   5.105 -0.0608  0.5640  0.5686
 7037SOL     OW32746   3.430   3.459   6.325  0.5961 -0.0791  0.5067
 7037SOL    HW132747   3.382   3.428   6.248  1.9826  1.2538 -0.8951
 7037SOL    HW232748   3.401   3.550   6.337  1.1742  0.3451 -1.2060
 7038SOL     OW32749   3.085   4.473   9.673 -0.6254 -0.0758 -1.2316
 7038SOL    HW132750   3.108   4.409   9.741 -0.6417  1.4882  0.2358
 7038SOL    HW232751   3.005   4.432   9.639 -1.5708  0.0392  0.8110
 7039SOL     OW32752   0.940   0.980   8.951 -0.1140  0.1540  0.2708
 7039SOL    HW132753   0.875   1.031   9.001 -1.7086  0.8975 -2.5339
 7039SOL    HW232754   1.009   0.963   9.014  2.5202  1.0956 -2.3862
 7040SOL     OW32755   4.053   3.487   2.718 -0.3348  0.1790 -0.0952
 7040SOL    HW132756   4.052   3.488   2.813 -1.1439  2.1192 -0.1275
 7040SOL    HW232757   4.104   3.560   2.682 -2.8377  0.7392 -2.5728
 7041SOL     OW32758   1.007   1.148   9.236 -0.0597  0.8701  0.5584
 7041SOL    HW132759   1.026   1.055   9.237 -2.0027  0.4515 -2.3396
 7041SOL    HW232760   1.022   1.177   9.326 -0.7620  0.0365  0.9408
 7042SOL     OW32761   3.790   4.651   4.982  0.1071 -0.2085  0.4185
 7042SOL    HW132762   3.751   4.579   4.933 -1.3386  1.7616 -1.3483
 7042SOL    HW232763   3.748   4.728   4.944 -2.3630 -1.5110  0.5242
 7043SOL     OW32764   3.035   3.170   5.814  0.1403  0.0924 -0.0282
 7043SOL    HW132765   3.007   3.113   5.886  2.0554 -1.0555 -0.1766
 7043SOL    HW232766   2.996   3.125   5.740 -0.4443  2.9425 -1.4524
 7044SOL     OW32767   3.771   4.612   6.982  0.1072  0.2948  0.3835
 7044SOL    HW132768   3.737   4.556   6.912  0.7043  0.8087 -0.3123
 7044SOL    HW232769   3.792   4.687   6.927  0.4269 -0.1485 -0.0989
 7045SOL     OW32770   3.929   4.345   6.859 -0.6928  0.1034 -0.6642
 7045SOL    HW132771   3.835   4.360   6.872 -0.8823 -0.1783 -1.6961
 7045SOL    HW232772   3.913   4.319   6.769  3.1129  0.2108 -1.3567
 7046SOL     OW32773   1.407   0.051   6.042  0.2849  0.2833 -0.2916
 7046SOL    HW132774   1.482   0.068   5.984  1.3592  0.2657  1.0704
 7046SOL    HW232775   1.361   0.135   6.046 -0.8336 -0.4293  1.2627
 7047SOL     OW32776   2.142   0.243   3.042  0.1539 -0.8367 -0.4888
 7047SOL    HW132777   2.184   0.172   2.993  0.5402 -0.8368 -0.1525
 7047SOL    HW232778   2.219   0.289   3.074 -1.5866  0.2632  2.1254
 7048SOL     OW32779   2.293   3.049   4.637 -0.2506  0.1179  0.3599
 7048SOL    HW132780   2.216   3.030   4.582  1.5831  1.5563 -2.6917
 7048SOL    HW232781   2.355   2.986   4.600  1.4266  1.7089  0.4605
 7049SOL     OW32782   1.944   2.264   5.801 -0.0109  0.1419 -0.1006
 7049SOL    HW132783   1.856   2.256   5.838  0.5836  2.2759  1.7719
 7049SOL    HW232784   1.977   2.175   5.785  0.3154  0.0446  1.0974
 7050SOL     OW32785   0.108   1.613   2.974 -0.0249  0.4731  0.2789
 7050SOL    HW132786   0.059   1.562   2.909 -0.0294 -0.6093  1.1069
 7050SOL    HW232787   0.186   1.558   2.983  0.2397  0.9114  0.6130
 7051SOL     OW32788   2.247   2.018   5.958 -0.0785 -0.2522 -0.3479
 7051SOL    HW132789   2.163   1.994   5.918 -0.0665 -2.2224  0.7938
 7051SOL    HW232790   2.293   1.935   5.943 -0.3833 -0.8834  2.1728
 7052SOL     OW32791   2.727   4.275   8.675  0.6062  0.4019 -0.2634
 7052SOL    HW132792   2.785   4.347   8.700  1.3739 -0.2531 -0.1603
 7052SOL    HW232793   2.735   4.221   8.754 -1.4065  0.9263  0.3128
 7053SOL     OW32794   1.897   2.036   2.570 -0.2627 -1.1255  0.0670
 7053SOL    HW132795   1.936   1.996   2.492 -2.3908  1.8118 -2.4884
 7053SOL    HW232796   1.974   2.029   2.627  0.1987  2.9258 -0.0702
 7054SOL     OW32797   0.412   2.190   9.708  0.0818  0.3305 -0.0873
 7054SOL    HW132798   0.405   2.109   9.759 -0.5757 -0.2870 -1.1379
 7054SOL    HW232799   0.465   2.159   9.634 -0.5376  0.5107 -0.6170
 7055SOL     OW32800   2.822   0.380   5.579 -0.2227  0.1104  0.3429
 7055SOL    HW132801   2.849   0.332   5.500 -0.9148 -1.3245  0.9978
 7055SOL    HW232802   2.778   0.451   5.531 -1.5800 -0.6726  0.4399
 7056SOL     OW32803   0.733   1.329   1.506  0.1645  0.0700  0.5320
 7056SOL    HW132804   0.645   1.367   1.500 -1.1153 -2.2441  4.4611
 7056SOL    HW232805   0.790   1.396   1.469  0.2263 -0.1003  0.3194
 7057SOL     OW32806   3.913   0.867   4.792  0.6402 -0.0451 -0.3548
 7057SOL    HW132807   3.990   0.899   4.839  0.5032 -1.7316  1.0482
 7057SOL    HW232808   3.952   0.879   4.706 -1.7911 -2.6898 -1.8543
 7058SOL     OW32809   3.289   3.441   6.077 -0.0050 -0.2012  0.8297
 7058SOL    HW132810   3.219   3.505   6.089 -0.3838 -0.2164 -1.2347
 7058SOL    HW232811   3.350   3.481   6.015 -0.9115  0.0396  0.0942
 7059SOL     OW32812   4.501   2.818   6.804  0.0370  0.3908 -0.3522
 7059SOL    HW132813   4.557   2.806   6.728 -1.9680 -1.0133 -1.5970
 7059SOL    HW232814   4.547   2.767   6.871  0.5342  0.6960 -0.4660
 7060SOL     OW32815   1.912   3.261   8.229  0.2866  0.2825  0.4781
 7060SOL    HW132816   1.999   3.241   8.264  1.2897  1.9583 -1.0438
 7060SOL    HW232817   1.937   3.299   8.145  1.6443  0.7438  1.0870
 7061SOL     OW32818   2.244   2.186   8.492  0.0018 -0.5724  0.0431
 7061SOL    HW132819   2.184   2.221   8.558 -0.9967 -3.0212  0.4333
 7061SOL    HW232820   2.261   2.272   8.453  1.4499 -0.5239  0.7811
 7062SOL     OW32821   1.319   3.370   7.375 -0.3116 -0.3844  0.5994
 7062SOL    HW132822   1.257   3.312   7.419 -0.8943  0.2602  0.6320
 7062SOL    HW232823   1.340   3.310   7.304 -0.4085  0.1990  0.0758
 7063SOL     OW32824   1.930   0.897  15.733 -0.2106 -0.1442 -0.1450
 7063SOL    HW132825   1.835   0.890  15.721 -0.1087 -1.1844 -0.4336
 7063SOL    HW232826   1.954   0.826  15.673 -0.7486 -0.7895  0.3917
 7064SOL     OW32827   4.404   1.901   4.763  0.2106  0.7436 -0.0586
 7064SOL    HW132828   4.349   1.835   4.723  0.8890  0.6928 -0.9156
 7064SOL    HW232829   4.490   1.869   4.733  0.6086  2.3045 -0.6132
 7065SOL     OW32830   0.809   1.656   6.046 -0.2102  0.4894 -0.0806
 7065SOL    HW132831   0.830   1.582   5.988 -0.9370  1.9348 -2.1923
 7065SOL    HW232832   0.774   1.719   5.982  1.0214  0.8895 -0.3602
 7066SOL     OW32833   0.360   3.607  13.223  0.1499 -0.1768  0.1911
 7066SOL    HW132834   0.374   3.526  13.273  3.5736  0.9042  0.9815
 7066SOL    HW232835   0.374   3.580  13.132  4.9016 -0.2508  0.9159
 7067SOL     OW32836   0.094   0.370   6.851  0.0010  0.7448 -0.5838
 7067SOL    HW132837   0.119   0.440   6.911 -2.4582  1.1895 -0.0892
 7067SOL    HW232838   0.006   0.395   6.824 -0.1198  2.2050  1.1777
 7068SOL     OW32839   2.749   2.098   3.324  0.6470 -0.5914 -0.1092
 7068SOL    HW132840   2.842   2.120   3.332  0.3987  0.2361  0.4571
 7068SOL    HW232841   2.706   2.125   3.405  0.9922  1.0908 -0.4942
 7069SOL     OW32842   4.475   2.141   9.330  0.0934 -0.1859 -0.3854
 7069SOL    HW132843   4.562   2.116   9.360  0.2124  0.0167 -0.5552
 7069SOL    HW232844   4.445   2.080   9.264 -2.6838  1.0346 -0.2524
 7070SOL     OW32845   3.483   2.261   7.824 -0.3009 -0.1293  0.2980
 7070SOL    HW132846   3.445   2.342   7.856 -1.2612 -1.0020  1.3681
 7070SOL    HW232847   3.558   2.289   7.772  0.0640 -1.2958  0.1767
 7071SOL     OW32848   0.709   0.469   8.072 -0.0653 -0.1743 -0.2356
 7071SOL    HW132849   0.755   0.553   8.066  0.4797 -0.5002 -0.6120
 7071SOL    HW232850   0.758   0.430   7.999 -2.1773  1.2461 -2.4062
 7072SOL     OW32851   2.663   3.121   2.020 -0.0865 -0.2883 -0.4024
 7072SOL    HW132852   2.611   3.177   1.963 -2.0273 -1.4304  0.2642
 7072SOL    HW232853   2.733   3.180   2.049  0.3329 -0.9762  0.0016
 7073SOL     OW32854   0.232   1.986   3.622  0.1317  0.6599  0.4744
 7073SOL    HW132855   0.262   1.917   3.682  0.4798  0.8012  0.4644
 7073SOL    HW232856   0.235   2.057   3.686  0.7494  0.3439  0.7967
 7074SOL     OW32857   1.408   2.975   2.263  0.3405 -0.7640  0.4034
 7074SOL    HW132858   1.378   3.031   2.334 -0.5601  1.1129 -1.4332
 7074SOL    HW232859   1.411   2.888   2.302 -1.7286 -0.9072  0.2313
 7075SOL     OW32860   0.631   4.272   2.436  0.2702 -0.1424  0.0155
 7075SOL    HW132861   0.576   4.196   2.456  0.5306 -0.1169  0.8310
 7075SOL    HW232862   0.582   4.339   2.483  1.8942  0.0947  1.3723
 7076SOL     OW32863   4.504   2.491  11.343  0.3373 -0.0468  0.2178
 7076SOL    HW132864   4.511   2.473  11.249 -1.3223 -0.5688  0.1891
 7076SOL    HW232865   4.596   2.474  11.363  0.1101  0.4523  1.6846
 7077SOL     OW32866   3.629   0.661   6.182 -0.5677  0.6941  0.0559
 7077SOL    HW132867   3.538   0.657   6.211 -0.5762 -0.8860 -0.1671
 7077SOL    HW232868   3.647   0.754   6.173 -0.4529  0.8341  1.7435
 7078SOL     OW32869   0.680   2.733  17.579 -0.2920  0.5731  0.3016
 7078SOL    HW132870   0.643   2.645  17.584 -2.4964  1.4900 -0.2296
 7078SOL    HW232871   0.762   2.720  17.628 -0.4608  1.0705  0.7169
 7079SOL     OW32872   0.415   1.204   1.856  0.1328  0.3138  0.4964
 7079SOL    HW132873   0.418   1.199   1.951  0.6941 -0.8041  0.4213
 7079SOL    HW232874   0.505   1.233   1.839  0.5039 -1.3509 -0.3663
 7080SOL     OW32875   3.829   4.730  14.325 -0.5210  0.6801  0.0307
 7080SOL    HW132876   3.757   4.681  14.364  0.2893 -1.7026 -1.4586
 7080SOL    HW232877   3.858   4.663  14.263  0.8498  0.5227  0.8322
 7081SOL     OW32878   0.152   2.119   9.833 -0.3648  0.1036  0.1064
 7081SOL    HW132879   0.244   2.138   9.819 -0.3063 -0.6958 -0.6336
 7081SOL    HW232880   0.144   2.026   9.856  1.0601 -0.9006 -3.3583
 7082SOL     OW32881   3.838   0.269  15.199  0.3474  0.0238 -0.1122
 7082SOL    HW132882   3.815   0.242  15.110  0.7403  1.5743 -0.6836
 7082SOL    HW232883   3.757   0.315  15.221  0.1979 -0.2829 -0.0221
 7083SOL     OW32884   4.011   4.147   1.451 -0.4143  1.2367  0.6638
 7083SOL    HW132885   4.032   4.124   1.361 -0.7537  0.7789  0.6982
 7083SOL    HW232886   3.963   4.067   1.473  0.1316  0.6146 -0.4401
 7084SOL     OW32887   4.652   4.276   9.029 -0.6174 -0.1522 -0.0531
 7084SOL    HW132888   4.636   4.303   8.938  2.0684 -1.9235 -1.0712
 7084SOL    HW232889   4.701   4.349   9.068  0.1967 -0.6348 -0.1705
 7085SOL     OW32890   0.321   1.297   3.674 -0.0703  0.2517  0.1621
 7085SOL    HW132891   0.229   1.298   3.648  0.3768 -0.1866 -1.4231
 7085SOL    HW232892   0.339   1.203   3.668 -1.2994  0.0775 -0.6565
 7086SOL     OW32893   1.060   1.683   9.106  0.0697 -0.1377 -0.7621
 7086SOL    HW132894   1.031   1.593   9.095  1.4578 -0.6021 -0.5862
 7086SOL    HW232895   1.056   1.714   9.016 -0.6691  0.5283 -0.5016
 7087SOL     OW32896   4.242   3.386   1.926 -0.4513  0.2228 -0.0510
 7087SOL    HW132897   4.305   3.375   1.855  1.9763  2.9070  1.6703
 7087SOL    HW232898   4.172   3.427   1.876  0.3531  0.2031 -1.1914
 7088SOL     OW32899   1.330   4.502  11.913 -0.0160  0.1970  0.3123
 7088SOL    HW132900   1.339   4.567  11.844 -0.7060 -0.0373 -0.0027
 7088SOL    HW232901   1.419   4.487  11.945  0.7054  0.9828 -1.3587
 7089SOL     OW32902   2.402   0.338   8.751 -0.3860 -0.0146  0.3969
 7089SOL    HW132903   2.433   0.385   8.828 -0.9482 -0.0197  0.6235
 7089SOL    HW232904   2.341   0.281   8.797 -1.0736 -0.4537 -1.0616
 7090SOL     OW32905   0.586   4.300   2.103  0.1316 -0.2737  0.0329
 7090SOL    HW132906   0.581   4.339   2.190  0.9988  0.0070 -0.0420
 7090SOL    HW232907   0.677   4.313   2.079 -0.4896  1.5619 -1.3710
 7091SOL     OW32908   3.011   2.567   7.344  0.4130 -0.0335  0.1110
 7091SOL    HW132909   3.020   2.618   7.264  1.5274 -0.1083  0.1920
 7091SOL    HW232910   2.923   2.530   7.338  1.0080 -1.3975 -0.1756
 7092SOL     OW32911   2.732   1.865  16.055  0.7472  0.1845  0.6056
 7092SOL    HW132912   2.750   1.839  15.965 -0.0622  1.1188  0.1787
 7092SOL    HW232913   2.664   1.804  16.086  0.1464  0.8909  0.6901
 7093SOL     OW32914   1.901   2.937   0.388 -0.2821 -0.5621  0.1707
 7093SOL    HW132915   1.820   2.975   0.422 -0.2578 -1.1978  0.9414
 7093SOL    HW232916   1.906   2.996   0.313  0.1986 -0.7559  0.0474
 7094SOL     OW32917   4.271   0.905   9.198  0.3726  0.3460 -0.0611
 7094SOL    HW132918   4.270   0.919   9.292 -0.9600  1.7187 -0.2869
 7094SOL    HW232919   4.182   0.940   9.188  1.2968  2.7587  0.1858
 7095SOL     OW32920   1.770   1.547  10.758 -0.1240 -0.3675 -0.0486
 7095SOL    HW132921   1.775   1.600  10.837  3.0665  0.2782 -0.6858
 7095SOL    HW232922   1.806   1.611  10.697  0.4720  0.0455  0.7391
 7096SOL     OW32923   4.631   4.239   8.626  0.0485  0.5058 -0.2581
 7096SOL    HW132924   4.698   4.280   8.681  1.7857 -1.5477 -0.8448
 7096SOL    HW232925   4.671   4.232   8.539 -1.6247 -0.3552 -0.9736
 7097SOL     OW32926   1.442   4.649  17.101  0.3073 -0.0541 -0.1392
 7097SOL    HW132927   1.427   0.005  17.112  0.9366  0.1936 -1.5145
 7097SOL    HW232928   1.504   4.659  17.029 -0.9427  0.4285 -1.1461
 7098SOL     OW32929   2.826   2.546  17.638  0.5632  0.1711 -0.5242
 7098SOL    HW132930   2.861   2.580  17.720  0.1585  0.5789 -0.5222
 7098SOL    HW232931   2.745   2.597  17.636  0.4915  0.0388 -1.3263
 7099SOL     OW32932   0.373   3.292  10.206 -0.6227 -0.1655 -0.2877
 7099SOL    HW132933   0.326   3.375  10.212 -0.4360 -0.4082  4.3132
 7099SOL    HW232934   0.468   3.306  10.203 -0.9230  1.0464 -4.1020
 7100SOL     OW32935   3.008   4.469   8.078 -0.3851 -0.6501  0.3358
 7100SOL    HW132936   2.927   4.520   8.079 -1.4025 -2.2541 -0.9335
 7100SOL    HW232937   3.004   4.429   7.991  0.1590  1.3145 -0.5977
 7101SOL     OW32938   3.999   3.074   6.246  0.1370 -0.1896  0.1500
 7101SOL    HW132939   3.967   3.155   6.206 -1.1661 -0.6422  0.3067
 7101SOL    HW232940   3.980   3.091   6.338  1.2481 -2.3032  0.7711
 7102SOL     OW32941   3.274   4.222   1.789  0.8663  0.1060  0.0855
 7102SOL    HW132942   3.220   4.143   1.797 -0.4281  1.1334  1.3586
 7102SOL    HW232943   3.345   4.195   1.730  0.0184  0.1931 -0.9835
 7103SOL     OW32944   3.057   0.022   7.250  0.4358 -0.4238  0.1365
 7103SOL    HW132945   2.972   0.066   7.247  1.1029  0.8222 -0.6029
 7103SOL    HW232946   3.041   4.718   7.334  1.8196 -0.5201  0.3616
 7104SOL     OW32947   1.174   3.506  12.425  0.1155  0.1472  0.0909
 7104SOL    HW132948   1.159   3.600  12.433 -3.0234 -0.4118  0.8672
 7104SOL    HW232949   1.212   3.503  12.337  1.5843  0.3400  0.7229
 7105SOL     OW32950   4.365   3.433   8.997  0.0486 -0.4457 -0.3803
 7105SOL    HW132951   4.419   3.368   9.042  0.1737 -0.1989 -0.1719
 7105SOL    HW232952   4.355   3.386   8.915  2.0736 -2.8514  0.7141
 7106SOL     OW32953   4.447   1.519  16.055  0.1349 -0.0228  0.3169
 7106SOL    HW132954   4.465   1.570  15.976 -1.2872  0.6044  0.4024
 7106SOL    HW232955   4.525   1.535  16.107 -0.3661  3.3053 -0.0011
 7107SOL     OW32956   1.590   3.608   0.927  0.5301  0.5231 -0.0522
 7107SOL    HW132957   1.636   3.682   0.886 -1.7921  3.5379  2.7086
 7107SOL    HW232958   1.637   3.612   1.010 -0.7269  0.8212  0.6590
 7108SOL     OW32959   1.993   1.444  14.980  0.4022  0.0072 -0.0514
 7108SOL    HW132960   1.938   1.488  14.916  1.6940  0.5734 -0.7723
 7108SOL    HW232961   2.085   1.468  14.966 -0.0126  2.8357  1.9799
 7109SOL     OW32962   0.365   1.462  17.555  0.1493 -0.2169 -0.6368
 7109SOL    HW132963   0.306   1.423  17.490  3.2868 -1.1839 -2.8904
 7109SOL    HW232964   0.332   1.550  17.573  1.3022  0.4952 -1.9750
 7110SOL     OW32965   1.714   0.328   1.625  0.1419  0.0071 -0.1348
 7110SOL    HW132966   1.794   0.375   1.652  0.8261 -0.8267 -0.7397
 7110SOL    HW232967   1.690   0.388   1.554  0.7981  0.3944 -0.0273
 7111SOL     OW32968   3.645   1.500   6.082 -0.0333 -0.0189 -0.4715
 7111SOL    HW132969   3.657   1.590   6.052  0.7805 -0.5267 -1.6822
 7111SOL    HW232970   3.602   1.474   6.000 -1.8878 -1.1054  0.8465
 7112SOL     OW32971   0.046   0.045   7.946  0.1246 -0.4506 -0.1937
 7112SOL    HW132972   0.036   0.095   8.027  1.2883 -0.2931 -0.1432
 7112SOL    HW232973   0.088   0.107   7.886 -0.2181 -0.8715 -0.8713
 7113SOL     OW32974   3.156   3.313   8.671 -0.1010 -0.1033 -0.0022
 7113SOL    HW132975   3.143   3.218   8.673 -0.7214  0.0152  0.9936
 7113SOL    HW232976   3.159   3.333   8.764 -0.4200 -0.4403  0.0787
 7114SOL     OW32977   1.954   1.811   9.744  0.8001  0.4039 -0.0416
 7114SOL    HW132978   1.944   1.787   9.836  1.7462  1.8323  0.4363
 7114SOL    HW232979   1.865   1.792   9.716  0.2556 -1.0202  2.5947
 7115SOL     OW32980   3.628   3.633   2.494 -0.2791 -0.5923 -0.1705
 7115SOL    HW132981   3.616   3.580   2.415 -0.2632 -1.3346  0.3156
 7115SOL    HW232982   3.545   3.611   2.536  0.2123  0.4642  1.3592
 7116SOL     OW32983   2.461   3.734   1.810  0.9058 -0.1408  0.0749
 7116SOL    HW132984   2.374   3.695   1.814 -0.0676  1.9830 -0.0962
 7116SOL    HW232985   2.502   3.670   1.869  0.8306 -1.0574 -0.8844
 7117SOL     OW32986   3.346   0.664   7.984 -0.5873  0.0596 -0.3868
 7117SOL    HW132987   3.293   0.724   8.037  0.5466  0.4555  0.3052
 7117SOL    HW232988   3.323   0.582   8.027 -0.3034  0.9044  1.4227
 7118SOL     OW32989   3.318   3.783  15.599 -0.5161  0.4663 -0.4882
 7118SOL    HW132990   3.305   3.696  15.635  1.2502 -1.0211 -3.4644
 7118SOL    HW232991   3.413   3.788  15.591 -0.3707 -1.9457 -0.1054
 7119SOL     OW32992   2.301   2.273  16.299 -0.2893  0.2596  0.4963
 7119SOL    HW132993   2.341   2.186  16.289  0.7590  0.5677  1.9998
 7119SOL    HW232994   2.308   2.294  16.392  0.1372  3.2033 -0.2037
 7120SOL     OW32995   3.859   0.147  13.534 -0.3350  0.2941 -0.4077
 7120SOL    HW132996   3.922   0.184  13.473  2.0016 -2.2250  0.4624
 7120SOL    HW232997   3.775   0.179  13.502 -0.6192 -0.0770 -0.0381
 7121SOL     OW32998   3.904   4.226  11.446 -0.2408  0.0452 -0.5363
 7121SOL    HW132999   3.886   4.320  11.438  3.7267  0.8228 -0.2146
 7121SOL    HW233000   3.847   4.190  11.377  0.0797  1.7097 -1.6660
 7122SOL     OW33001   0.764   3.188   3.707 -0.2859  0.6466  0.0388
 7122SOL    HW133002   0.850   3.229   3.707  0.2236 -0.4298 -0.8782
 7122SOL    HW233003   0.779   3.096   3.688  0.7887  0.9837 -0.7214
 7123SOL     OW33004   1.769   3.525   6.884  0.1011 -0.1588 -0.3672
 7123SOL    HW133005   1.713   3.593   6.920  0.9829 -0.5945  1.8273
 7123SOL    HW233006   1.809   3.487   6.962  1.5849  2.5495  0.1719
 7124SOL     OW33007   4.672   3.251   1.566 -0.0264  0.1701 -0.5752
 7124SOL    HW133008   4.655   3.282   1.477  0.3344  0.0727 -0.6792
 7124SOL    HW233009   4.691   3.158   1.554  1.5751  0.3958  0.2399
 7125SOL     OW33010   2.905   3.953  16.264 -0.4260  0.5755  0.0336
 7125SOL    HW133011   2.985   3.916  16.301 -0.0244 -0.4490 -1.8557
 7125SOL    HW233012   2.936   3.990  16.181 -2.5853  2.0270 -0.1039
 7126SOL     OW33013   3.249   0.671  14.925 -0.5228  0.3104  0.3058
 7126SOL    HW133014   3.207   0.586  14.908 -3.6836  1.8130  0.5752
 7126SOL    HW233015   3.317   0.666  14.858 -1.1261  0.5911 -0.3238
 7127SOL     OW33016   3.582   1.165   7.937  0.3077  0.0388  0.1431
 7127SOL    HW133017   3.598   1.119   8.019 -0.3670 -0.0472  0.2194
 7127SOL    HW233018   3.585   1.097   7.870  2.8503  0.7298 -0.4547
 7128SOL     OW33019   1.597   0.902  12.392 -0.3211 -0.3172 -0.0634
 7128SOL    HW133020   1.574   0.981  12.440  0.4051 -1.7446  2.6809
 7128SOL    HW233021   1.580   0.834  12.458  0.6639 -0.5065 -0.0023
 7129SOL     OW33022   4.019   1.788   5.309 -0.3708  0.4789  0.3922
 7129SOL    HW133023   4.042   1.701   5.278 -0.6467  1.3275 -2.1425
 7129SOL    HW233024   3.962   1.756   5.379  0.8622 -0.3022  1.0506
 7130SOL     OW33025   4.402   0.120   1.042  0.2673  0.1088  0.2678
 7130SOL    HW133026   4.323   0.129   1.094  0.6781  0.9972  0.7286
 7130SOL    HW233027   4.394   0.195   0.985  2.2923  1.4651  1.7553
 7131SOL     OW33028   4.380   0.182   7.707 -0.2252  0.1484 -0.3762
 7131SOL    HW133029   4.317   0.244   7.744  0.8605 -0.6634  2.7453
 7131SOL    HW233030   4.402   0.126   7.781 -1.9772  0.1571  0.1512
 7132SOL     OW33031   1.980   0.181   4.295 -0.1553 -0.3406 -0.2808
 7132SOL    HW133032   1.932   0.123   4.237  0.1132  0.3649 -1.2101
 7132SOL    HW233033   1.935   0.265   4.283 -0.2769 -0.2216  0.9675
 7133SOL     OW33034   4.527   4.585   6.345 -0.6052 -0.2352 -0.8179
 7133SOL    HW133035   4.489   4.497   6.343  1.0293 -0.9858  0.5927
 7133SOL    HW233036   4.606   4.566   6.295 -1.3252 -3.2667 -0.7811
 7134SOL     OW33037   2.257   3.865   8.581  0.3719  0.2272 -0.0034
 7134SOL    HW133038   2.176   3.848   8.532 -0.6986  2.5316  0.9224
 7134SOL    HW233039   2.266   3.960   8.568 -0.2720  0.2649 -0.2055
 7135SOL     OW33040   1.613   4.196   3.037 -0.4038  0.2637 -0.6603
 7135SOL    HW133041   1.653   4.202   3.124  0.0280 -0.0223 -0.8380
 7135SOL    HW233042   1.537   4.249   3.060 -1.3005 -1.8085  1.1764
 7136SOL     OW33043   1.748   0.348   6.452  0.2281 -1.1070 -1.1061
 7136SOL    HW133044   1.733   0.357   6.546  1.8887 -3.0428 -0.6367
 7136SOL    HW233045   1.660   0.351   6.415 -0.9225 -1.5908  1.5296
 7137SOL     OW33046   1.114   3.017   6.922 -0.4874 -0.1547  0.3582
 7137SOL    HW133047   1.037   3.072   6.909  0.3676  0.9816  0.1314
 7137SOL    HW233048   1.080   2.933   6.892  2.0387 -1.0349  0.0004
 7138SOL     OW33049   4.282   2.526  12.343  0.2317 -0.0174 -0.2124
 7138SOL    HW133050   4.260   2.478  12.264 -0.6120  0.1015 -0.0454
 7138SOL    HW233051   4.345   2.464  12.380 -1.3950 -1.6523 -0.2265
 7139SOL     OW33052   0.707   1.189   7.932 -0.2675  0.0242 -0.8404
 7139SOL    HW133053   0.684   1.176   8.025  3.2279  0.3593  0.0800
 7139SOL    HW233054   0.679   1.109   7.888 -0.7099  0.6533 -1.6787
 7140SOL     OW33055   4.059   3.186   7.859 -0.6666 -0.1294 -0.4490
 7140SOL    HW133056   4.149   3.192   7.893 -0.8994  0.7695  0.0312
 7140SOL    HW233057   4.071   3.228   7.774 -0.8618  0.9918  0.0727
 7141SOL     OW33058   0.382   4.510   5.843 -0.0809  0.3626  0.1698
 7141SOL    HW133059   0.387   4.604   5.827 -0.9956 -0.0460 -2.5237
 7141SOL    HW233060   0.390   4.494   5.937 -0.6970  0.9136  0.3180
 7142SOL     OW33061   1.086   0.670   4.073 -0.3503 -0.2351  0.0194
 7142SOL    HW133062   1.053   0.759   4.062  2.1283  0.5199 -1.2390
 7142SOL    HW233063   1.021   0.619   4.024 -0.4805  0.0730 -0.1238
 7143SOL     OW33064   2.132   1.356   6.543  0.1471  0.6703 -0.0125
 7143SOL    HW133065   2.216   1.313   6.558 -0.1625  0.8713  2.2443
 7143SOL    HW233066   2.156   1.447   6.528 -0.6969  1.2025  1.8880
 7144SOL     OW33067   4.487   0.624   8.977  0.5590 -0.0368 -0.2320
 7144SOL    HW133068   4.455   0.556   9.036 -1.4741  0.0590 -1.2039
 7144SOL    HW233069   4.537   0.571   8.915 -2.8580 -1.3660 -1.8934
 7145SOL     OW33070   2.971   1.916   7.205  0.4074  0.4923 -0.3834
 7145SOL    HW133071   2.929   2.001   7.190  0.2955 -0.0194 -2.9082
 7145SOL    HW233072   2.990   1.922   7.299  1.1723  0.1024 -0.5190
 7146SOL     OW33073   0.596   2.701   1.531 -0.1933  0.0839 -0.4173
 7146SOL    HW133074   0.677   2.750   1.545  0.6806 -1.4726 -0.1198
 7146SOL    HW233075   0.625   2.616   1.563 -2.4727 -0.7857 -0.6381
 7147SOL     OW33076   3.401   3.366   1.596 -0.4451 -0.8595  0.7764
 7147SOL    HW133077   3.496   3.373   1.585 -0.5720 -1.4539 -0.7260
 7147SOL    HW233078   3.392   3.272   1.584 -2.7528 -0.5347 -0.2028
 7148SOL     OW33079   0.724   2.894   6.657  0.8212  0.0454  0.5026
 7148SOL    HW133080   0.656   2.937   6.605  0.4243 -3.3138 -1.7309
 7148SOL    HW233081   0.674   2.869   6.735  0.5281  0.4186  0.4371
 7149SOL     OW33082   4.146   1.510   8.024 -0.8376  0.4217 -0.5019
 7149SOL    HW133083   4.240   1.493   8.024 -0.9683 -0.2528 -3.1172
 7149SOL    HW233084   4.112   1.426   8.055  0.0312 -0.0220 -0.7522
 7150SOL     OW33085   0.188   2.657  15.341  0.7295  0.1950 -0.2802
 7150SOL    HW133086   0.225   2.738  15.375  2.2478 -0.8368  0.5348
 7150SOL    HW233087   0.180   2.684  15.250  0.7595  0.7053 -0.1278
 7151SOL     OW33088   4.663   3.639   2.541  0.4758 -0.1482  0.6025
 7151SOL    HW133089   4.638   3.547   2.545 -0.7214  0.0381 -2.7803
 7151SOL    HW233090   0.010   3.636   2.497  0.0915 -3.3323  0.0861
 7152SOL     OW33091   2.431   1.462   2.079  0.4399 -1.1241  0.3574
 7152SOL    HW133092   2.461   1.552   2.069 -1.7145 -0.2054  2.0735
 7152SOL    HW233093   2.343   1.476   2.043 -0.1456  0.4679  2.4196
 7153SOL     OW33094   4.045   4.228   3.784 -0.2746  0.5175  0.4235
 7153SOL    HW133095   3.984   4.235   3.858  0.1630 -3.4485  1.1472
 7153SOL    HW233096   4.096   4.149   3.803 -2.2122 -0.9035 -0.2846
 7154SOL     OW33097   4.246   4.062  12.583  0.4350  0.2513  0.4460
 7154SOL    HW133098   4.170   4.089  12.635 -1.2187  0.1210 -1.9016
 7154SOL    HW233099   4.304   4.047  12.657 -0.6847  0.6982  1.4216
 7155SOL     OW33100   2.103   2.066  11.739 -0.6017 -0.2003  0.0863
 7155SOL    HW133101   2.090   2.019  11.822  1.9330  0.9925  1.1741
 7155SOL    HW233102   2.198   2.061  11.727 -0.4452 -1.4064  1.8101
 7156SOL     OW33103   1.792   4.443   9.518  0.5557 -0.5017 -0.1234
 7156SOL    HW133104   1.881   4.437   9.484  0.2192 -0.7903 -0.9429
 7156SOL    HW233105   1.741   4.485   9.448 -0.1128 -2.5078 -0.8352
 7157SOL     OW33106   2.442   1.387  13.199  0.3186  0.1262 -0.2117
 7157SOL    HW133107   2.418   1.347  13.115 -0.7348  2.2804 -0.9525
 7157SOL    HW233108   2.365   1.378  13.255 -0.8386 -0.8804 -1.9529
 7158SOL     OW33109   1.321   1.681  16.316 -0.5266  0.3205  0.4397
 7158SOL    HW133110   1.333   1.768  16.277  1.3343 -0.6313 -1.0511
 7158SOL    HW233111   1.290   1.705  16.404  1.5319  1.2469  0.9217
 7159SOL     OW33112   2.219   3.944  16.681  0.0701 -0.2846 -0.0062
 7159SOL    HW133113   2.217   4.024  16.628  1.4648  0.1923  0.6519
 7159SOL    HW233114   2.311   3.942  16.707 -0.2142 -0.1244  0.9984
 7160SOL     OW33115   1.984   2.739   4.351 -0.0633 -0.4361  0.7638
 7160SOL    HW133116   1.977   2.715   4.259 -0.8291  1.8597  0.2435
 7160SOL    HW233117   2.064   2.692   4.373 -0.8285 -1.0190  2.3165
 7161SOL     OW33118   1.802   4.071  15.647 -0.3973  0.2191  0.3808
 7161SOL    HW133119   1.804   4.058  15.742 -0.5939 -1.4408  0.1443
 7161SOL    HW233120   1.861   4.146  15.634 -0.5661  0.1252 -0.8436
 7162SOL     OW33121   1.787   4.602   7.661  0.0218  0.3946  0.4518
 7162SOL    HW133122   1.743   4.566   7.738  1.0639 -0.5568  0.6109
 7162SOL    HW233123   1.879   4.596   7.688  0.5560  4.2568 -0.5129
 7163SOL     OW33124   0.208   4.131  13.409  0.5555 -1.1638 -0.0027
 7163SOL    HW133125   0.236   4.219  13.434 -3.2088 -0.1137  0.4752
 7163SOL    HW233126   0.263   4.065  13.453 -0.7178 -1.7485  0.7154
 7164SOL     OW33127   4.530   0.754   2.746  0.4796  0.1978  0.2357
 7164SOL    HW133128   4.505   0.836   2.704  0.3769  0.1443  0.1917
 7164SOL    HW233129   4.456   0.735   2.804  0.1559  0.4093 -0.1127
 7165SOL     OW33130   3.858   3.113   8.053  0.0704  0.3581  0.3665
 7165SOL    HW133131   3.941   3.138   8.014  1.8668 -2.6105  2.3336
 7165SOL    HW233132   3.878   3.125   8.146  0.6698  0.4583  0.2187
 7166SOL     OW33133   2.790   2.594  12.208 -0.4269  0.1233  0.7473
 7166SOL    HW133134   2.761   2.588  12.299  1.0880 -0.7565  1.1864
 7166SOL    HW233135   2.772   2.507  12.172  0.6675 -0.1071  0.7550
 7167SOL     OW33136   4.310   3.128   7.938  0.5850  0.1150 -0.0323
 7167SOL    HW133137   4.347   3.213   7.963  1.0350  0.4073 -1.7051
 7167SOL    HW233138   4.384   3.082   7.900  1.1627  0.5812  0.5157
 7168SOL     OW33139   3.072   1.624  16.895  0.1890 -0.7372 -0.4324
 7168SOL    HW133140   3.124   1.546  16.877  2.0356  0.4246 -0.0835
 7168SOL    HW233141   3.013   1.611  16.969 -0.5399 -1.7671 -1.1932
 7169SOL     OW33142   0.146   2.833   9.247 -0.1350  0.3519  0.0256
 7169SOL    HW133143   0.072   2.788   9.290 -1.5741  1.9698 -0.7643
 7169SOL    HW233144   0.200   2.764   9.209 -2.3829 -1.1453 -0.4581
 7170SOL     OW33145   1.851   0.938   6.402  0.3248 -0.1613  0.5591
 7170SOL    HW133146   1.824   0.894   6.321  1.2037  0.5602 -0.1260
 7170SOL    HW233147   1.943   0.911   6.396  0.5473  0.5982  0.6529
 7171SOL     OW33148   4.071   2.369   7.094 -0.2085 -0.3436  0.3427
 7171SOL    HW133149   3.978   2.363   7.074 -0.5248  1.7656  1.2571
 7171SOL    HW233150   4.080   2.464   7.101 -0.6955 -0.1861 -1.2269
 7172SOL     OW33151   2.384   2.142   6.165  0.0078  0.0569 -0.6293
 7172SOL    HW133152   2.361   2.094   6.086  0.6494 -3.1642  1.1408
 7172SOL    HW233153   2.453   2.083   6.195 -0.8536 -0.8962 -0.5461
 7173SOL     OW33154   2.775   1.205   5.109  0.7939  0.2082 -0.5419
 7173SOL    HW133155   2.694   1.255   5.115  1.1344  0.7163 -0.1459
 7173SOL    HW233156   2.745   1.126   5.064  0.8311  0.0323 -0.2591
 7174SOL     OW33157   2.270   4.225   6.916  0.1259  0.1709 -0.1030
 7174SOL    HW133158   2.267   4.137   6.878  0.9940  1.1522 -2.4382
 7174SOL    HW233159   2.199   4.219   6.979  0.0223 -1.0765 -0.3447
 7175SOL     OW33160   4.409   3.481   7.465 -0.9755  0.1216 -0.2728
 7175SOL    HW133161   4.431   3.432   7.545 -2.3911  0.2515  0.2020
 7175SOL    HW233162   4.323   3.520   7.478 -0.8636 -0.1825  1.4096
 7176SOL     OW33163   4.184   2.816   2.813  0.1884 -0.2525 -0.1739
 7176SOL    HW133164   4.276   2.837   2.799 -0.8179  2.8664 -2.0838
 7176SOL    HW233165   4.187   2.734   2.862  1.7125 -0.2503 -0.2625
 7177SOL     OW33166   2.974   0.041   1.799  0.0620  0.4916 -0.4520
 7177SOL    HW133167   2.994   0.017   1.889  1.9441  1.3460 -0.6387
 7177SOL    HW233168   3.063   0.046   1.765  0.4755  3.7564  1.0907
 7178SOL     OW33169   3.360   1.567  13.369 -0.1684 -0.7927  0.3913
 7178SOL    HW133170   3.299   1.608  13.430 -0.4756  0.5761 -0.8422
 7178SOL    HW233171   3.407   1.502  13.422  0.6724 -0.7751 -0.3284
 7179SOL     OW33172   0.410   1.016   3.731  0.4378 -0.0103  0.4322
 7179SOL    HW133173   0.468   0.949   3.696 -1.5128 -1.6665  0.3511
 7179SOL    HW233174   0.325   0.980   3.705 -0.2595  1.9428  0.0210
 7180SOL     OW33175   0.624   2.823  11.211  0.0006 -0.2971  0.1874
 7180SOL    HW133176   0.603   2.825  11.117 -0.7017 -1.0826  0.3240
 7180SOL    HW233177   0.679   2.901  11.214  1.7443 -1.5016 -0.2622
 7181SOL     OW33178   0.717   2.232   7.316 -0.1719 -0.1391 -0.7424
 7181SOL    HW133179   0.798   2.191   7.285  0.2578  0.3031 -0.2050
 7181SOL    HW233180   0.647   2.171   7.291  1.0393 -2.3469  1.3330
 7182SOL     OW33181   0.367   3.854  11.784  0.5242  0.2737 -0.4102
 7182SOL    HW133182   0.438   3.909  11.750 -1.3852  1.9227 -1.7164
 7182SOL    HW233183   0.423   3.780  11.808  0.3224  0.6373  1.1608
 7183SOL     OW33184   2.094   1.162   7.776 -0.1165 -0.1053  0.5918
 7183SOL    HW133185   2.101   1.118   7.861  1.6656  0.9669  1.0042
 7183SOL    HW233186   2.038   1.236   7.804 -1.7083 -0.1386 -2.5647
 7184SOL     OW33187   3.181   2.379  10.769 -0.1275  0.2161  0.4907
 7184SOL    HW133188   3.237   2.304  10.790 -1.1838 -0.5960  0.4181
 7184SOL    HW233189   3.122   2.319  10.724  0.2204 -0.7424  1.3009
 7185SOL     OW33190   4.415   2.669   2.471 -0.2590 -0.1466  0.0123
 7185SOL    HW133191   4.443   2.730   2.539 -0.2296  1.9011 -1.8432
 7185SOL    HW233192   4.339   2.717   2.436 -0.8708  0.7810  2.6231
 7186SOL     OW33193   0.420   2.031   3.409 -0.2143 -1.0935 -0.1320
 7186SOL    HW133194   0.472   2.103   3.446 -0.6206 -0.6334 -0.4438
 7186SOL    HW233195   0.361   2.021   3.483 -1.8003  2.5992 -0.8867
 7187SOL     OW33196   1.788   3.939   7.072 -0.0170  0.3869  0.2137
 7187SOL    HW133197   1.795   3.885   7.150  1.4370  0.2739 -0.0069
 7187SOL    HW233198   1.720   4.005   7.090  0.3967  0.7283  0.5021
 7188SOL     OW33199   4.041   1.973   9.003 -0.1397  0.7646 -0.6480
 7188SOL    HW133200   4.063   2.001   9.092 -0.3102 -2.2705  0.3198
 7188SOL    HW233201   3.950   1.943   9.006  0.4585 -0.9502  0.1240
 7189SOL     OW33202   0.389   3.875   8.848  0.8875  0.4578 -0.4002
 7189SOL    HW133203   0.305   3.912   8.824  0.9488 -0.3202 -1.8377
 7189SOL    HW233204   0.393   3.882   8.943  1.9400  1.9819 -0.5676
 7190SOL     OW33205   1.781   1.622   7.731 -0.7818 -0.5704  0.1929
 7190SOL    HW133206   1.706   1.626   7.673 -0.1710  2.9536 -0.3135
 7190SOL    HW233207   1.747   1.677   7.802  0.7086  0.7155 -0.0919
 7191SOL     OW33208   2.242   2.710   1.790  0.4520 -0.5404  0.3212
 7191SOL    HW133209   2.319   2.737   1.839 -0.5126  2.2387  0.3014
 7191SOL    HW233210   2.178   2.754   1.846 -2.0105 -1.1361 -2.0097
 7192SOL     OW33211   1.098   3.457   5.944 -0.1866 -0.0081  0.1182
 7192SOL    HW133212   1.181   3.488   5.981 -0.9243 -2.0868  3.6104
 7192SOL    HW233213   1.126   3.427   5.858  0.3365 -0.4346  0.4383
 7193SOL     OW33214   4.229   4.511   9.494 -0.5069 -0.1290 -0.3347
 7193SOL    HW133215   4.191   4.440   9.443 -1.5051 -0.5198  0.9289
 7193SOL    HW233216   4.279   4.457   9.555  0.8479  0.0349 -1.3057
 7194SOL     OW33217   0.482   4.671  12.241 -0.0875  0.2117 -0.3829
 7194SOL    HW133218   0.552   4.664  12.176 -0.6089  0.4493 -0.9642
 7194SOL    HW233219   0.510   4.599  12.298  0.6236 -0.1110 -1.1449
 7195SOL     OW33220   4.162   1.403   4.542  0.4072  0.5618 -0.4993
 7195SOL    HW133221   4.099   1.398   4.614 -0.1851  1.7119 -0.9546
 7195SOL    HW233222   4.213   1.322   4.553 -0.3472  0.1987  0.2916
 7196SOL     OW33223   0.026   4.027   7.168  0.1833 -0.5322 -0.5182
 7196SOL    HW133224   0.050   4.083   7.094 -0.3979 -1.7893 -1.6620
 7196SOL    HW233225   4.692   4.076   7.207  1.1140  0.5479 -0.1619
 7197SOL     OW33226   3.378   1.699  12.731  0.2891  0.1218 -0.0866
 7197SOL    HW133227   3.432   1.775  12.707  0.8409 -0.7599 -1.6257
 7197SOL    HW233228   3.318   1.734  12.797  0.9093 -3.5523  2.4285
 7198SOL     OW33229   1.956   0.601   3.796  0.6644  0.1962 -0.3406
 7198SOL    HW133230   1.976   0.508   3.785  1.5819  0.3864 -0.2694
 7198SOL    HW233231   2.039   0.640   3.769  2.1495 -0.4774  3.2101
 7199SOL     OW33232   3.918   1.795   3.985  0.3894  0.0555 -0.2180
 7199SOL    HW133233   3.857   1.746   4.040  0.7083 -0.0636  0.0282
 7199SOL    HW233234   3.864   1.814   3.908  0.3473  1.2335  0.1016
 7200SOL     OW33235   2.352   3.528  15.544 -0.5583 -0.5114 -0.6232
 7200SOL    HW133236   2.354   3.547  15.450 -0.2844  2.7308  0.0227
 7200SOL    HW233237   2.443   3.542  15.571 -0.4293 -0.2703 -1.1776
 7201SOL     OW33238   1.347   2.682   6.855 -0.2893  0.7983 -0.2075
 7201SOL    HW133239   1.416   2.621   6.828  0.6150  2.9616 -2.8241
 7201SOL    HW233240   1.282   2.667   6.786 -0.8260 -0.0872  0.4995
 7202SOL     OW33241   3.285   3.132   6.676 -0.1243  0.5021  0.0947
 7202SOL    HW133242   3.216   3.113   6.740 -0.3424  0.7192 -0.0740
 7202SOL    HW233243   3.334   3.050   6.674 -2.8843 -1.1512  0.5479
 7203SOL     OW33244   1.010   0.029  16.473  0.5641  0.3979  0.0247
 7203SOL    HW133245   0.983   0.004  16.385  1.3685 -0.1094 -0.0732
 7203SOL    HW233246   0.964   4.704  16.529  0.9511 -0.6038 -0.8054
 7204SOL     OW33247   2.877   1.474   4.780 -0.2222 -0.2950  0.3217
 7204SOL    HW133248   2.944   1.448   4.843 -0.5351 -0.9199  0.4002
 7204SOL    HW233249   2.882   1.414   4.705 -1.4433  0.6279 -0.5051
 7205SOL     OW33250   1.508   2.791  16.977 -0.1702  0.8441  0.5953
 7205SOL    HW133251   1.587   2.840  16.956  0.2570  0.4924  1.3689
 7205SOL    HW233252   1.440   2.845  16.936  0.4667  0.6138 -0.7591
 7206SOL     OW33253   0.983   2.275   1.433  0.0699 -0.7194  0.5446
 7206SOL    HW133254   0.916   2.240   1.492  0.1294 -0.5542  0.7129
 7206SOL    HW233255   0.962   2.368   1.432  0.7398 -0.5433  2.3063
 7207SOL     OW33256   1.903   0.538   1.667  0.7587 -0.2502 -0.3357
 7207SOL    HW133257   1.815   0.554   1.632  0.6283 -2.0386 -0.7865
 7207SOL    HW233258   1.890   0.583   1.751 -0.7980 -2.3830  0.5693
 7208SOL     OW33259   2.348   1.377  17.556  0.2272  0.1511  0.1986
 7208SOL    HW133260   2.373   1.402  17.467  0.7755 -0.6438  0.1223
 7208SOL    HW233261   2.311   1.459  17.590 -0.5694  0.3746 -1.2187
 7209SOL     OW33262   4.735   1.494   4.773 -0.0061  0.6073 -0.2138
 7209SOL    HW133263   0.092   1.496   4.773  0.0121 -0.8365  0.0505
 7209SOL    HW233264   4.721   1.473   4.680 -1.2922 -0.8330  0.3240
 7210SOL     OW33265   0.525   2.974  17.407  0.1531 -0.4258 -0.0062
 7210SOL    HW133266   0.440   3.013  17.427 -0.4454 -2.2199  0.9902
 7210SOL    HW233267   0.521   2.904  17.474  2.9158 -0.4516  0.1533
 7211SOL     OW33268   1.348   2.852  15.796 -0.0522  0.3085  0.2670
 7211SOL    HW133269   1.394   2.822  15.718 -1.1768  1.8058 -0.9553
 7211SOL    HW233270   1.276   2.789  15.802  1.5829 -1.5026  0.9721
 7212SOL     OW33271   4.015   1.098   6.438  0.1011 -0.1182  0.4774
 7212SOL    HW133272   3.958   1.171   6.464  0.2266  0.9629 -2.2509
 7212SOL    HW233273   4.000   1.105   6.343 -2.6632  1.9061  1.0451
 7213SOL     OW33274   0.859   0.743   6.603  0.4107 -0.2165  0.3174
 7213SOL    HW133275   0.868   0.668   6.662  0.2634  0.2811  0.9649
 7213SOL    HW233276   0.774   0.776   6.631 -0.0191 -0.6472 -0.4753
 7214SOL     OW33277   2.853   4.439   0.788  0.1144  0.4538 -0.1596
 7214SOL    HW133278   2.922   4.407   0.730 -1.0170  0.5582 -1.5440
 7214SOL    HW233279   2.873   4.374   0.855 -1.7580  0.9639  0.8817
 7215SOL     OW33280   2.511   4.722   0.962 -0.3901  0.4842  0.1007
 7215SOL    HW133281   2.545   0.068   0.933 -2.2106  1.0773 -0.3391
 7215SOL    HW233282   2.587   4.665   0.953 -2.4523 -2.2587 -0.3251
 7216SOL     OW33283   3.398   3.042  11.191 -0.1728 -0.2166 -0.0131
 7216SOL    HW133284   3.319   3.096  11.183 -0.2232 -0.4920 -1.3169
 7216SOL    HW233285   3.439   3.040  11.104 -1.3348 -1.2657 -0.5278
 7217SOL     OW33286   0.085   4.465  16.044  0.3046 -0.3317  0.1413
 7217SOL    HW133287   0.028   4.483  15.970  2.5973 -1.0714 -1.8079
 7217SOL    HW233288   0.055   4.382  16.080  0.3523  0.2690  1.5726
 7218SOL     OW33289   1.372   0.633   0.561 -0.3051  0.1390 -0.0343
 7218SOL    HW133290   1.443   0.639   0.497  0.5163 -1.4235  0.7320
 7218SOL    HW233291   1.357   0.728   0.559 -1.5114 -0.0885 -1.3913
 7219SOL     OW33292   4.548   2.989   7.986  0.0009  0.4604  0.1884
 7219SOL    HW133293   4.612   3.022   8.050  0.2440  0.4338 -0.0437
 7219SOL    HW233294   4.532   2.899   8.012 -0.0983  0.4748  0.1759
 7220SOL     OW33295   0.944   4.574  12.585  0.5991  0.3553  0.1707
 7220SOL    HW133296   1.018   4.612  12.538  0.9025 -2.5702 -1.7203
 7220SOL    HW233297   0.883   4.572  12.511 -0.1530 -0.2112  0.7996
 7221SOL     OW33298   0.161   1.250   4.790 -0.1559 -0.4360 -0.7764
 7221SOL    HW133299   0.143   1.205   4.707  1.6146 -0.6658 -1.0358
 7221SOL    HW233300   0.197   1.172   4.832 -0.7922 -0.7785 -0.8688
 7222SOL     OW33301   1.556   2.342   3.380  0.3790  0.5852  0.1401
 7222SOL    HW133302   1.560   2.365   3.287 -0.6473  0.1493 -0.0185
 7222SOL    HW233303   1.592   2.418   3.426  5.1524 -2.1656  0.8713
 7223SOL     OW33304   0.912   3.485  16.587 -0.2590  0.1161  0.4701
 7223SOL    HW133305   0.990   3.523  16.627  1.2550  0.6128 -2.9131
 7223SOL    HW233306   0.915   3.551  16.517 -0.2628 -1.7875 -1.3233
 7224SOL     OW33307   3.178   1.650   4.224  0.1821 -0.7073 -0.5194
 7224SOL    HW133308   3.082   1.647   4.226  0.0625  3.1467 -0.6271
 7224SOL    HW233309   3.187   1.691   4.138  0.0532  0.4159 -0.0051
 7225SOL     OW33310   0.067   3.903   6.057  0.2168  0.2598 -0.0911
 7225SOL    HW133311   0.065   3.971   5.990 -1.8781  0.1354 -0.1578
 7225SOL    HW233312   4.712   3.883   6.067 -0.0889  1.6811 -0.0590
 7226SOL     OW33313   3.143   0.241  16.440 -0.1376 -0.1043  0.0851
 7226SOL    HW133314   3.135   0.176  16.371 -1.7710  1.1976 -0.9706
 7226SOL    HW233315   3.206   0.301  16.401  3.9284 -4.2966  0.2309
 7227SOL     OW33316   3.813   0.594   3.526  0.6988 -0.0825  0.1774
 7227SOL    HW133317   3.744   0.651   3.493  0.4530 -1.7675 -2.2278
 7227SOL    HW233318   3.890   0.646   3.552  0.5683  1.0084 -1.6762
 7228SOL     OW33319   4.543   3.812  13.005 -0.4013  0.0094 -0.2130
 7228SOL    HW133320   4.524   3.894  12.960  0.6667  1.1672  1.4752
 7228SOL    HW233321   4.455   3.800  13.040 -0.8728  4.2062  0.0246
 7229SOL     OW33322   2.649   0.180  15.140 -0.6548  0.2370 -0.2717
 7229SOL    HW133323   2.609   0.218  15.218 -0.4175  0.8300 -0.4416
 7229SOL    HW233324   2.631   0.245  15.072  3.9895  1.3810 -0.3868
 7230SOL     OW33325   3.825   1.862   2.801  0.1483 -0.1983 -0.9558
 7230SOL    HW133326   3.794   1.885   2.889  0.8351  0.9900 -1.0201
 7230SOL    HW233327   3.764   1.909   2.745  0.2915  1.6629  0.4305
 7231SOL     OW33328   3.839   0.683   4.030 -0.3008  0.4144 -0.1588
 7231SOL    HW133329   3.892   0.762   4.015  1.2047 -0.4481  0.5350
 7231SOL    HW233330   3.892   0.611   3.996  0.7724  1.6920 -1.1554
 7232SOL     OW33331   1.085   0.066  13.349 -0.2184 -0.1010  0.5676
 7232SOL    HW133332   1.176   0.096  13.344 -0.1964 -0.4119 -0.9870
 7232SOL    HW233333   1.084   4.723  13.299 -0.3988  1.6722 -2.3473
 7233SOL     OW33334   4.077   0.562  12.969  0.1001  0.0947 -0.1525
 7233SOL    HW133335   4.047   0.645  13.006  1.5735  1.5987 -2.3777
 7233SOL    HW233336   4.136   0.534  13.039 -2.3302 -0.6104  1.6294
 7234SOL     OW33337   3.341   1.211   3.811 -0.0607  0.3065  0.1301
 7234SOL    HW133338   3.344   1.146   3.881 -1.6456 -1.0612 -1.0843
 7234SOL    HW233339   3.434   1.210   3.790 -0.6936 -1.2958 -2.5659
 7235SOL     OW33340   3.201   3.880  11.536  0.2659  0.1740 -0.1078
 7235SOL    HW133341   3.220   3.791  11.507  0.3385  1.0442 -2.7458
 7235SOL    HW233342   3.243   3.864  11.621 -0.7372  1.9194  0.7022
 7236SOL     OW33343   0.034   2.383   2.939  0.2608 -0.8361 -0.7091
 7236SOL    HW133344   4.717   2.434   2.998  3.1265  1.1098  0.2559
 7236SOL    HW233345   0.015   2.298   2.979 -0.9095  0.7667  2.1621
 7237SOL     OW33346   2.907   4.461   8.812  0.0821  0.3807  0.4073
 7237SOL    HW133347   2.964   4.524   8.767  0.9917  0.8520  2.1907
 7237SOL    HW233348   2.926   4.485   8.903  0.3371 -0.9740  0.7153
 7238SOL     OW33349   2.211   2.909   3.781  0.1323 -0.2915 -0.3261
 7238SOL    HW133350   2.139   2.857   3.819  0.5509 -0.1792  0.6087
 7238SOL    HW233351   2.218   2.977   3.848  0.9288  0.0349 -0.7425
 7239SOL     OW33352   4.111   1.857  10.887 -0.3928 -0.1703 -0.1219
 7239SOL    HW133353   4.038   1.821  10.937 -1.7278  2.7601 -0.0056
 7239SOL    HW233354   4.177   1.794  10.918 -2.9606 -3.2625 -0.9013
 7240SOL     OW33355   1.746   4.434  10.310  0.2002 -0.4562  0.0226
 7240SOL    HW133356   1.759   4.348  10.350 -0.5033 -1.1502 -1.2085
 7240SOL    HW233357   1.714   4.482  10.386  2.3111  0.7114  0.1764
 7241SOL     OW33358   3.889   3.220  14.852 -0.0503 -0.1388 -0.6084
 7241SOL    HW133359   3.903   3.127  14.871 -0.1597  0.4828  2.6053
 7241SOL    HW233360   3.817   3.238  14.913  0.9216  0.0741  0.4797
 7242SOL     OW33361   2.457   3.357   6.928  0.0690  0.6899 -0.6083
 7242SOL    HW133362   2.400   3.433   6.913 -1.3878 -0.0394  1.2693
 7242SOL    HW233363   2.405   3.322   7.000  1.3101  1.5780  0.7335
 7243SOL     OW33364   4.268   2.749   0.878  0.0316 -0.2322 -0.3818
 7243SOL    HW133365   4.348   2.706   0.906  0.6701 -0.4099 -2.4884
 7243SOL    HW233366   4.201   2.698   0.925  0.5488 -0.2207  0.3671
 7244SOL     OW33367   0.351   1.543   9.749 -0.5183  0.3456  0.6048
 7244SOL    HW133368   0.381   1.477   9.812  1.0190 -0.3575 -0.8768
 7244SOL    HW233369   0.399   1.617   9.785  2.1558 -0.3892 -1.5023
 7245SOL     OW33370   1.771   1.076  17.449  0.2988 -0.0733  0.2925
 7245SOL    HW133371   1.780   1.142  17.380 -0.8441  0.8587  1.0484
 7245SOL    HW233372   1.860   1.039  17.443 -0.2479 -1.3957  0.3576
 7246SOL     OW33373   2.617   0.503   3.693  0.0814 -0.5397 -0.6726
 7246SOL    HW133374   2.640   0.594   3.675 -3.4778  0.3969 -0.5342
 7246SOL    HW233375   2.540   0.517   3.748  0.9283 -1.4226  0.7430
 7247SOL     OW33376   3.356   0.745  11.179  0.5527  0.0891  0.4758
 7247SOL    HW133377   3.321   0.780  11.098  0.6045 -1.4825 -0.2256
 7247SOL    HW233378   3.434   0.699  11.149  0.3770  0.1339 -0.0415
 7248SOL     OW33379   1.190   2.054   0.633  0.0849  0.5372  0.0326
 7248SOL    HW133380   1.281   2.052   0.605 -0.4698 -0.5467 -1.7519
 7248SOL    HW233381   1.177   1.974   0.684 -0.5711 -0.6770 -2.0403
 7249SOL     OW33382   3.232   0.923   2.987  0.2612 -0.1483  0.5342
 7249SOL    HW133383   3.201   0.989   2.925  0.4595 -1.7969 -1.3120
 7249SOL    HW233384   3.151   0.878   3.008 -0.3467  2.4860  4.0597
 7250SOL     OW33385   4.062   1.895  16.591 -0.4340 -0.1738 -0.4322
 7250SOL    HW133386   4.009   1.820  16.617 -0.4187  0.1384  0.5183
 7250SOL    HW233387   4.050   1.946  16.672  1.5421 -0.3887  0.0169
 7251SOL     OW33388   3.583   1.613   8.469  0.3538 -0.1154  0.5589
 7251SOL    HW133389   3.600   1.634   8.377 -0.0912  1.1162  0.7682
 7251SOL    HW233390   3.600   1.696   8.512  1.1071 -0.4566  0.9274
 7252SOL     OW33391   0.813   3.325   8.845 -0.0205 -0.5616 -0.0004
 7252SOL    HW133392   0.798   3.283   8.760 -2.2683 -0.1657  0.2210
 7252SOL    HW233393   0.872   3.398   8.826  0.2628 -0.5451  0.9143
 7253SOL     OW33394   2.313   0.403  16.934  0.1881  0.5676  0.2547
 7253SOL    HW133395   2.303   0.407  16.839  0.8033 -1.0124  0.1322
 7253SOL    HW233396   2.364   0.480  16.959  0.1590  0.7188 -0.1500
 7254SOL     OW33397   0.904   0.442   7.889 -0.6967 -0.3225 -0.1002
 7254SOL    HW133398   0.980   0.443   7.948 -1.2956  0.4991  0.6539
 7254SOL    HW233399   0.954   0.469   7.812  0.5585  2.2525  1.5940
 7255SOL     OW33400   3.118   1.498   5.483  0.4763  0.0426 -0.6539
 7255SOL    HW133401   3.165   1.424   5.522  2.3738  0.7187 -1.6442
 7255SOL    HW233402   3.106   1.559   5.555 -2.7245 -1.3422 -0.0125
 7256SOL     OW33403   2.884   3.288  17.463 -0.0794  0.0500 -0.1551
 7256SOL    HW133404   2.952   3.300  17.530  0.5589 -0.2276 -0.7603
 7256SOL    HW233405   2.887   3.194  17.446 -1.4628 -0.4171  2.2124
 7257SOL     OW33406   0.760   1.599   9.224 -0.2082  0.2275  0.3772
 7257SOL    HW133407   0.839   1.571   9.178  0.1920  0.2710  1.0306
 7257SOL    HW233408   0.703   1.523   9.222 -0.7433  0.6169  0.7111
 7258SOL     OW33409   2.530   2.855   6.539 -0.0915 -0.0149 -0.2834
 7258SOL    HW133410   2.540   2.947   6.515 -1.4170 -0.3190 -2.0019
 7258SOL    HW233411   2.564   2.859   6.629 -0.9250 -0.1444  0.0435
 7259SOL     OW33412   4.618   4.015   0.203 -0.2886  0.5394  0.0355
 7259SOL    HW133413   4.629   3.928   0.166  1.8910  0.6102  0.5150
 7259SOL    HW233414   4.542   4.041   0.151 -0.3158  0.1662 -0.1065
 7260SOL     OW33415   1.762   0.136   5.322 -0.1124  0.4188 -0.2752
 7260SOL    HW133416   1.759   0.040   5.326  1.7728  0.4431  1.3357
 7260SOL    HW233417   1.847   0.148   5.365 -0.8287  1.3679  0.8742
 7261SOL     OW33418   4.285   0.951  12.921  0.1125 -0.0771  0.7408
 7261SOL    HW133419   4.379   0.954  12.941 -0.1959  0.5573  2.1206
 7261SOL    HW233420   4.257   0.974  13.010 -0.0481  1.0738  0.3860
 7262SOL     OW33421   4.603   4.519  12.481  0.3610 -0.0942  0.7194
 7262SOL    HW133422   4.558   4.533  12.398  0.4239 -0.0590  0.6916
 7262SOL    HW233423   4.563   4.584  12.539  3.1296  1.4774  0.8262
 7263SOL     OW33424   2.091   2.930   5.441  0.2275  0.0288 -0.0837
 7263SOL    HW133425   2.107   2.973   5.525  4.3588  2.1939 -1.9645
 7263SOL    HW233426   2.179   2.913   5.409  1.0697  2.1744  1.0621
 7264SOL     OW33427   2.127   0.349   6.651  0.1974  0.4741 -0.6149
 7264SOL    HW133428   2.064   0.411   6.613  0.2319  0.1674 -1.1802
 7264SOL    HW233429   2.070   0.272   6.656  2.4393 -1.0673  0.7250
 7265SOL     OW33430   3.793   4.619   9.444  0.0858  0.5328  0.6134
 7265SOL    HW133431   3.859   4.632   9.513  1.9132 -0.5011 -0.9367
 7265SOL    HW233432   3.752   4.705   9.446 -1.0387  0.0353 -1.3260
 7266SOL     OW33433   0.736   3.358  12.860 -0.0988  0.4741 -0.5512
 7266SOL    HW133434   0.761   3.442  12.898  0.2104 -0.1418  0.5988
 7266SOL    HW233435   0.755   3.296  12.931 -0.5276  0.1348 -0.7319
 7267SOL     OW33436   3.848   3.862   1.781 -0.1482 -1.0575 -0.2276
 7267SOL    HW133437   3.774   3.802   1.784 -1.9879  1.3105  0.7293
 7267SOL    HW233438   3.806   3.928   1.835  0.1830 -0.7111 -0.3922
 7268SOL     OW33439   2.703   0.824  15.259 -0.4167  0.1230 -0.3412
 7268SOL    HW133440   2.684   0.917  15.250 -1.3302 -0.1543 -1.3285
 7268SOL    HW233441   2.788   0.826  15.302 -0.2294  0.5917 -0.7379
 7269SOL     OW33442   4.210   2.887   8.012  0.2669  0.3718  0.1196
 7269SOL    HW133443   4.239   2.977   8.023 -0.6983  0.6775  0.1510
 7269SOL    HW233444   4.137   2.873   8.073 -0.1081 -0.2061 -0.4653
 7270SOL     OW33445   2.890   0.191  17.620  0.2858  0.6198  0.2178
 7270SOL    HW133446   2.857   0.252  17.554 -0.5707 -1.5462 -1.3309
 7270SOL    HW233447   2.814   0.167  17.673  0.8552 -0.2097  0.6560
 7271SOL     OW33448   1.721   2.517   9.283 -0.3837 -0.6918 -0.0186
 7271SOL    HW133449   1.656   2.513   9.213 -0.3221 -0.4744 -0.0873
 7271SOL    HW233450   1.802   2.491   9.239  0.3615  0.6561  0.5474
 7272SOL     OW33451   1.860   3.401  14.698  0.0868  0.3078  0.0726
 7272SOL    HW133452   1.870   3.361  14.612 -1.7186  1.6996 -0.7894
 7272SOL    HW233453   1.769   3.379  14.718  0.2599 -0.4271  0.0504
 7273SOL     OW33454   0.388   0.041   2.113 -0.2981 -0.1655  0.1683
 7273SOL    HW133455   0.384   0.103   2.186  3.6977  1.4504 -0.9790
 7273SOL    HW233456   0.298   0.009   2.103 -0.3984 -0.2333  1.2380
 7274SOL     OW33457   2.968   4.185   2.300  0.4243 -0.3886  0.0398
 7274SOL    HW133458   2.962   4.167   2.394 -0.3630 -0.1683  0.0264
 7274SOL    HW233459   2.999   4.276   2.302 -1.2231  0.1338  1.2115
 7275SOL     OW33460   0.506   1.993   8.118  0.5964  0.4641  0.3177
 7275SOL    HW133461   0.509   1.904   8.083  1.0170 -0.9575  3.9631
 7275SOL    HW233462   0.477   2.047   8.045 -1.2027 -1.5225 -0.4454
 7276SOL     OW33463   3.035   3.461   4.303  0.1747  1.0331  0.2378
 7276SOL    HW133464   3.062   3.376   4.268 -1.8099  0.9286 -1.0245
 7276SOL    HW233465   3.050   3.466   4.397  1.1810 -0.7696  0.1588
 7277SOL     OW33466   2.053   2.134  17.451  0.3388  0.6023  0.0586
 7277SOL    HW133467   2.036   2.136  17.357 -0.5320 -1.3236  0.1739
 7277SOL    HW233468   2.095   2.219  17.466 -2.5155  1.5224  2.7539
 7278SOL     OW33469   1.811   0.006   8.942 -0.2217 -0.1635  0.0310
 7278SOL    HW133470   1.797   4.650   8.940  0.5285 -0.2793  0.3336
 7278SOL    HW233471   1.897   0.003   8.985 -0.5725 -2.4032  0.5968
 7279SOL     OW33472   3.771   3.675  11.011  0.0869 -0.4647 -0.2187
 7279SOL    HW133473   3.747   3.609  11.077  0.8728 -2.5617 -2.0233
 7279SOL    HW233474   3.729   3.754  11.046  1.8791  0.0990  0.6828
 7280SOL     OW33475   3.246   4.105   0.851  0.3391 -0.1634  0.1134
 7280SOL    HW133476   3.261   4.071   0.938 -0.4978 -0.5324  0.1090
 7280SOL    HW233477   3.312   4.175   0.849  0.3568 -0.2455 -3.9012
 7281SOL     OW33478   0.755   4.444   4.803  0.3971  0.3386 -0.7082
 7281SOL    HW133479   0.745   4.533   4.837  2.7733  0.3683 -0.1261
 7281SOL    HW233480   0.794   4.459   4.717  1.3464  1.2262 -0.1205
 7282SOL     OW33481   3.300   1.762   7.720  0.1553  0.2360 -0.1625
 7282SOL    HW133482   3.321   1.713   7.640  1.4182  0.5821 -0.0502
 7282SOL    HW233483   3.344   1.842   7.688  1.9723 -0.4320  0.6515
 7283SOL     OW33484   4.225   2.867   3.353 -0.2653  0.0477  0.0643
 7283SOL    HW133485   4.175   2.915   3.287  0.4927  0.1499 -0.4359
 7283SOL    HW233486   4.316   2.886   3.330  0.3279 -2.6928  0.1266
 7284SOL     OW33487   2.074   0.173   1.287  0.0291  0.1309  0.3206
 7284SOL    HW133488   2.130   0.150   1.361 -0.4804  1.3729  1.0978
 7284SOL    HW233489   2.103   0.120   1.213  0.1272  1.1886 -0.3994
 7285SOL     OW33490   0.137   4.222  11.546  0.4036  0.2630  0.4838
 7285SOL    HW133491   0.222   4.204  11.507  0.1190  1.5054 -0.7291
 7285SOL    HW233492   0.168   4.212  11.636  0.1786 -0.5355  0.4719
 7286SOL     OW33493   1.279   1.084   8.270  0.8732  0.1953  0.2280
 7286SOL    HW133494   1.332   1.018   8.315 -0.0688 -0.7944 -0.1134
 7286SOL    HW233495   1.341   1.136   8.220 -2.6506  2.0119 -2.2115
 7287SOL     OW33496   1.807   2.057   4.436 -0.3944  0.6969  0.4982
 7287SOL    HW133497   1.852   1.977   4.408 -2.2373 -1.0073  2.3477
 7287SOL    HW233498   1.750   2.067   4.359 -0.6996 -0.3019  0.5954
 7288SOL     OW33499   3.642   2.059   4.695 -0.0872  0.0430 -0.0563
 7288SOL    HW133500   3.554   2.067   4.732 -0.3343  0.1136 -0.6696
 7288SOL    HW233501   3.623   2.062   4.601 -3.6579 -0.8913  0.6398
 7289SOL     OW33502   1.712   1.149   7.348 -0.6000  0.3462  0.0726
 7289SOL    HW133503   1.647   1.147   7.418 -0.9115 -0.0252 -0.2275
 7289SOL    HW233504   1.705   1.240   7.320 -0.7550  0.2414 -0.2205
 7290SOL     OW33505   3.753   3.865   9.231  0.1665  0.5437  0.2319
 7290SOL    HW133506   3.712   3.825   9.308  2.4284 -0.1255  1.0991
 7290SOL    HW233507   3.682   3.919   9.197 -1.4100 -1.9005 -0.3106
 7291SOL     OW33508   2.108   0.742   4.907  0.2170  0.1194  0.9121
 7291SOL    HW133509   2.147   0.825   4.879  0.8714 -0.4044  0.2742
 7291SOL    HW233510   2.160   0.726   4.986 -1.3657 -1.7683  1.5734
 7292SOL     OW33511   3.289   1.729   5.093  0.3628 -0.0474  0.0397
 7292SOL    HW133512   3.221   1.685   5.143  0.7329 -0.0700  0.5199
 7292SOL    HW233513   3.343   1.652   5.072  0.8393  0.2067  0.3490
 7293SOL     OW33514   2.874   3.676  14.932 -0.2798 -0.2360 -0.2461
 7293SOL    HW133515   2.883   3.738  15.005 -1.0595  0.2153 -0.5368
 7293SOL    HW233516   2.918   3.600  14.971  1.2384  1.4501  1.3338
 7294SOL     OW33517   0.788   2.688   4.229 -0.3698  0.4508  0.1657
 7294SOL    HW133518   0.742   2.625   4.284  0.5990  0.0924  0.5455
 7294SOL    HW233519   0.857   2.627   4.205  1.0982  1.8000  1.0046
 7295SOL     OW33520   4.625   0.572   6.192  0.1236 -0.4512 -0.7720
 7295SOL    HW133521   4.716   0.573   6.163  0.3084  1.7985 -0.0803
 7295SOL    HW233522   4.614   0.483   6.226 -2.3333  0.2095  0.1527
 7296SOL     OW33523   4.107   2.159   9.293 -0.2731 -0.8050 -0.1026
 7296SOL    HW133524   4.102   2.254   9.281  2.8546 -0.6991 -0.5609
 7296SOL    HW233525   4.200   2.145   9.277 -0.5700  0.5852 -3.0674
 7297SOL     OW33526   3.181   3.199   7.077  0.2838 -0.0830 -0.0367
 7297SOL    HW133527   3.217   3.279   7.041  0.6884 -1.2555 -2.2355
 7297SOL    HW233528   3.127   3.161   7.008 -2.4220  2.1371  0.8592
 7298SOL     OW33529   4.141   0.909  17.426 -0.5642  0.2920 -0.2308
 7298SOL    HW133530   4.177   0.986  17.380 -0.4875 -1.6983 -3.4779
 7298SOL    HW233531   4.220   0.890  17.477  0.5072  1.5336 -1.3978
 7299SOL     OW33532   3.472   0.987   4.994  0.6837  0.0873 -0.1761
 7299SOL    HW133533   3.474   0.894   5.015 -3.4394  0.2925  1.2393
 7299SOL    HW233534   3.530   0.990   4.918  0.3763 -0.2541 -0.4204
 7300SOL     OW33535   2.161   0.921  15.013  0.3846 -0.2912 -0.1077
 7300SOL    HW133536   2.195   1.002  15.049 -0.4842 -0.5324  1.2360
 7300SOL    HW233537   2.080   0.913  15.062  0.8087 -2.9579  0.1816
 7301SOL     OW33538   4.055   4.205  13.884 -0.6557 -0.2755 -0.2320
 7301SOL    HW133539   4.075   4.197  13.977  0.2583  1.1031 -0.3155
 7301SOL    HW233540   4.014   4.119  13.870 -0.3909 -0.1994 -1.5005
 7302SOL     OW33541   2.046   0.686   2.625 -0.3945 -0.2158  0.1335
 7302SOL    HW133542   1.959   0.664   2.593  0.0546  1.5968 -2.3575
 7302SOL    HW233543   2.017   0.739   2.699 -0.0182 -1.9206  1.4956
 7303SOL     OW33544   2.335   3.691   2.509 -0.1771 -0.4679 -0.0931
 7303SOL    HW133545   2.309   3.600   2.494  1.0342 -1.1991  2.1620
 7303SOL    HW233546   2.340   3.733   2.424  0.0846  2.2194  1.2465
 7304SOL     OW33547   3.464   2.800  12.490 -0.1388  0.2536  0.1546
 7304SOL    HW133548   3.371   2.785  12.509  0.4612 -1.9387  1.2986
 7304SOL    HW233549   3.502   2.810  12.577  1.9487 -1.2773 -0.5960
 7305SOL     OW33550   2.730   4.076  15.240 -0.5719  0.1342  0.0066
 7305SOL    HW133551   2.811   4.095  15.193 -1.0398  0.7952 -0.5243
 7305SOL    HW233552   2.726   4.158  15.288  1.1138 -0.3699  0.9926
 7306SOL     OW33553   2.247   3.771   8.996  0.5388 -0.1026 -0.0221
 7306SOL    HW133554   2.181   3.724   9.047  0.3357  1.5631  1.2261
 7306SOL    HW233555   2.321   3.711   9.001  1.6946  1.4335  1.2384
 7307SOL     OW33556   1.819   1.490   5.578  0.4137 -0.0907  0.9583
 7307SOL    HW133557   1.860   1.404   5.569 -1.2829 -0.5218 -2.5978
 7307SOL    HW233558   1.765   1.471   5.655 -1.0411  0.9228  0.1791
 7308SOL     OW33559   0.517   1.264   4.404 -0.4942 -0.3116  0.4712
 7308SOL    HW133560   0.553   1.277   4.491  1.5671  0.2358 -0.4591
 7308SOL    HW233561   0.564   1.324   4.345  1.0605  0.4913  2.5298
 7309SOL     OW33562   2.633   2.763   7.017 -0.6418 -0.4468 -0.1923
 7309SOL    HW133563   2.630   2.858   7.030 -1.8215 -0.8166  2.3507
 7309SOL    HW233564   2.567   2.735   7.081  0.0745  1.9054  1.5778
 7310SOL     OW33565   4.363   0.801   0.829  0.6602  0.4959 -0.5144
 7310SOL    HW133566   4.329   0.890   0.832  0.3925  0.4101 -1.0000
 7310SOL    HW233567   4.336   0.768   0.743  0.4207 -1.5216  0.3310
 7311SOL     OW33568   2.058   0.687   4.115 -0.1735 -0.4038  0.3612
 7311SOL    HW133569   2.060   0.773   4.157  0.4967  0.1179 -0.7437
 7311SOL    HW233570   2.087   0.632   4.188 -0.2395 -0.0929  0.6242
 7312SOL     OW33571   1.373   3.268   4.593  0.2584 -0.4115  0.6473
 7312SOL    HW133572   1.456   3.266   4.545 -0.6008 -1.5597 -0.8005
 7312SOL    HW233573   1.409   3.267   4.682 -1.0885 -0.5269  1.1789
 7313SOL     OW33574   4.184   4.008   3.849  0.0166  0.2487 -0.0647
 7313SOL    HW133575   4.155   3.936   3.904 -1.1321  0.6453 -0.1502
 7313SOL    HW233576   4.206   3.956   3.772  1.0625  2.6821 -1.4011
 7314SOL     OW33577   2.193   1.065   8.691  0.1945  0.2902 -0.4029
 7314SOL    HW133578   2.174   1.107   8.607  3.0287 -0.2883 -1.3302
 7314SOL    HW233579   2.229   1.138   8.742 -0.6351 -1.0198  2.0415
 7315SOL     OW33580   0.304   0.088   9.130  0.1458  0.2021 -0.3323
 7315SOL    HW133581   0.300   0.090   9.225  2.0909  3.0889 -0.3061
 7315SOL    HW233582   0.216   0.066   9.100 -0.0077  1.4850 -0.8618
 7316SOL     OW33583   2.903   1.257   5.549 -0.1359  0.0742  0.4116
 7316SOL    HW133584   2.920   1.301   5.466 -2.7491  1.0515  0.3824
 7316SOL    HW233585   2.917   1.333   5.606 -1.5490  0.1425  0.6773
 7317SOL     OW33586   1.377   4.404  14.699  0.3145  0.1598 -0.2908
 7317SOL    HW133587   1.281   4.409  14.693  0.1371 -0.7566  1.6038
 7317SOL    HW233588   1.392   4.320  14.655 -1.1087 -0.4720  0.4147
 7318SOL     OW33589   4.005   1.603   9.005  0.4285  0.0301  0.0212
 7318SOL    HW133590   3.938   1.552   8.959 -0.6239  0.4658  1.0915
 7318SOL    HW233591   4.001   1.691   8.969  1.0192 -0.1850 -0.5692
 7319SOL     OW33592   1.314   3.638   0.153  0.4386  0.1520 -0.4786
 7319SOL    HW133593   1.238   3.598   0.195 -0.2600  0.1615 -1.7486
 7319SOL    HW233594   1.320   3.730   0.176 -0.8342 -0.4744  2.2821
 7320SOL     OW33595   2.746   3.418   9.727 -0.6501 -0.2804 -0.3112
 7320SOL    HW133596   2.791   3.362   9.790 -0.0051 -0.0426 -0.5540
 7320SOL    HW233597   2.657   3.421   9.762 -0.9591 -2.9793 -0.8973
 7321SOL     OW33598   3.843   1.414   3.512 -0.2738 -0.7153 -0.4352
 7321SOL    HW133599   3.901   1.373   3.448  0.6305 -0.0268 -0.0656
 7321SOL    HW233600   3.901   1.475   3.558 -0.4273 -2.7157  2.4431
 7322SOL     OW33601   2.389   2.721   7.185 -0.1936 -0.2459  1.1129
 7322SOL    HW133602   2.343   2.663   7.247  1.7083 -1.8340  1.0239
 7322SOL    HW233603   2.320   2.772   7.143  0.3492  0.8701  1.5727
 7323SOL     OW33604   2.216   3.511   7.481  0.5497 -0.2648 -0.6393
 7323SOL    HW133605   2.302   3.472   7.474  0.3959 -0.9759  1.4523
 7323SOL    HW233606   2.197   3.489   7.572 -1.5258  0.1024 -0.9716
 7324SOL     OW33607   4.350   4.204   1.283  0.4700 -0.6187  0.2777
 7324SOL    HW133608   4.324   4.289   1.319  0.0597 -0.9543  0.7755
 7324SOL    HW233609   4.272   4.172   1.240 -0.2467  1.4938  0.0020
 7325SOL     OW33610   2.514   2.093   4.149  0.2303 -0.1704  0.6130
 7325SOL    HW133611   2.609   2.095   4.143  0.0761  0.4156 -1.6150
 7325SOL    HW233612   2.493   2.150   4.074 -0.1882  1.3347  1.8737
 7326SOL     OW33613   3.442   1.082  12.721 -0.5585 -0.4229 -0.6130
 7326SOL    HW133614   3.530   1.056  12.697 -0.1093  0.8441 -0.3562
 7326SOL    HW233615   3.400   1.068  12.636 -0.2993  0.3471 -0.8657
 7327SOL     OW33616   4.206   0.423   7.482 -0.1285  0.1501 -0.5101
 7327SOL    HW133617   4.193   0.384   7.568 -0.2046 -0.4782 -0.8029
 7327SOL    HW233618   4.238   0.510   7.506 -0.6896 -0.3308  1.9128
 7328SOL     OW33619   2.945   0.822   7.960  0.0657 -0.2903  0.9083
 7328SOL    HW133620   2.893   0.745   7.939  1.8828 -2.1369  3.1372
 7328SOL    HW233621   2.980   0.859   7.879 -1.9547  0.9075  0.5689
 7329SOL     OW33622   1.740   4.268   3.984  0.2600  0.1106  0.1052
 7329SOL    HW133623   1.819   4.296   3.938  0.5356 -2.3892 -0.9325
 7329SOL    HW233624   1.755   4.174   3.998  1.0578 -0.1884 -2.7892
 7330SOL     OW33625   3.600   0.400   7.678 -0.1264  0.5113 -1.4416
 7330SOL    HW133626   3.553   0.325   7.642  2.4423 -2.3008  1.1325
 7330SOL    HW233627   3.531   0.466   7.674 -1.6220 -0.9738  0.3085
 7331SOL     OW33628   2.904   4.314   5.160 -1.0944  0.1670  0.0208
 7331SOL    HW133629   2.977   4.375   5.151 -0.6948 -0.3581 -0.3214
 7331SOL    HW233630   2.830   4.367   5.187  0.2924  1.3948  1.3792
 7332SOL     OW33631   0.419   0.980  17.238 -0.2176  0.0920  0.2771
 7332SOL    HW133632   0.415   0.980  17.142 -1.9160  1.2056  0.3421
 7332SOL    HW233633   0.488   1.046  17.246  0.6642 -0.8999  0.8137
 7333SOL     OW33634   4.094   3.638  15.918  0.7994  0.8215  0.0456
 7333SOL    HW133635   4.159   3.654  15.986  1.6439 -1.0628 -0.3216
 7333SOL    HW233636   4.123   3.552  15.888  2.8136  1.3098  0.5987
 7334SOL     OW33637   4.442   3.877   3.058  0.4440  0.6169  0.0663
 7334SOL    HW133638   4.516   3.915   3.105  3.5119 -0.1078 -4.1791
 7334SOL    HW233639   4.484   3.881   2.972 -0.9715 -0.0278 -0.6559
 7335SOL     OW33640   3.603   1.637  13.731  0.2749 -0.0032  0.4034
 7335SOL    HW133641   3.600   1.708  13.795  1.5068  2.0898 -1.8348
 7335SOL    HW233642   3.596   1.689  13.650  0.3030 -1.7282 -0.7129
 7336SOL     OW33643   3.984   3.279  11.082  0.1364 -0.3016 -0.7175
 7336SOL    HW133644   3.951   3.192  11.103  1.5682 -0.6274  0.1173
 7336SOL    HW233645   3.943   3.291  10.996 -0.1471  0.1131 -0.5247
 7337SOL     OW33646   2.767   4.537   6.380 -0.1970 -0.0545 -0.2574
 7337SOL    HW133647   2.711   4.581   6.444 -0.5322 -0.9292  0.0556
 7337SOL    HW233648   2.734   4.447   6.389 -2.0256  0.8048  1.6952
 7338SOL     OW33649   0.012   0.426   7.910 -0.2191  0.4146  0.2631
 7338SOL    HW133650   0.065   0.415   7.988  0.8840  0.5888 -0.4621
 7338SOL    HW233651   4.706   0.507   7.934  2.3384  0.5681  4.3801
 7339SOL     OW33652   4.393   4.359  15.525 -0.0450  0.3340  0.4864
 7339SOL    HW133653   4.398   4.285  15.464 -1.6901 -1.7982  2.9872
 7339SOL    HW233654   4.373   4.439  15.475  0.0032  0.6145  0.9145
 7340SOL     OW33655   4.262   0.911   6.228  0.3803 -0.3605 -0.1975
 7340SOL    HW133656   4.257   0.817   6.212 -0.7564 -0.3403  0.0645
 7340SOL    HW233657   4.353   0.930   6.250  0.6475  0.0397 -1.6205
 7341SOL     OW33658   1.617   0.124   3.652  0.3596  0.5668  0.0594
 7341SOL    HW133659   1.530   0.163   3.661  0.6116  0.9896  0.6722
 7341SOL    HW233660   1.673   0.176   3.710 -0.7756 -0.1623  1.7898
 7342SOL     OW33661   1.519   2.508   9.113  0.0592  0.0276 -0.5265
 7342SOL    HW133662   1.475   2.590   9.090  0.2425  0.2279 -0.1520
 7342SOL    HW233663   1.540   2.470   9.027  3.2312  1.3843 -0.3651
 7343SOL     OW33664   2.592   2.273  17.743  0.1690  0.4156  0.3030
 7343SOL    HW133665   2.633   2.189   0.014  1.3851  1.2984  1.3311
 7343SOL    HW233666   2.675   2.321  17.737  0.7964 -0.7198 -0.2139
 7344SOL     OW33667   3.682   1.285   4.823  0.0038 -0.4897 -0.0091
 7344SOL    HW133668   3.654   1.285   4.915 -1.7440 -0.9247 -0.5468
 7344SOL    HW233669   3.670   1.193   4.802 -1.7384  0.0234 -1.3244
 7345SOL     OW33670   2.416   0.260  15.887  0.2150  0.3436  0.7787
 7345SOL    HW133671   2.338   0.266  15.943  0.1413  1.0828  0.5980
 7345SOL    HW233672   2.456   0.175  15.901  1.6292  0.9260  0.1903
 7346SOL     OW33673   3.692   1.293  17.065 -0.5111  0.4184 -0.1860
 7346SOL    HW133674   3.612   1.241  17.072  0.7905 -1.6189 -0.4682
 7346SOL    HW233675   3.716   1.302  17.157 -0.7938 -4.2806  0.3616
 7347SOL     OW33676   2.502   1.383   6.199  0.3585 -0.5716 -0.3986
 7347SOL    HW133677   2.501   1.294   6.235  0.9491 -1.4061 -2.4564
 7347SOL    HW233678   2.523   1.441   6.272 -1.9787  1.8479 -1.6422
 7348SOL     OW33679   3.397   1.797  17.526  0.5400 -0.1614 -0.4722
 7348SOL    HW133680   3.398   1.791  17.431  1.3104 -0.7186 -0.4253
 7348SOL    HW233681   3.379   1.704  17.542  0.1794 -0.2275 -1.2524
 7349SOL     OW33682   1.790   4.523   7.201 -0.5044 -0.3451 -0.2531
 7349SOL    HW133683   1.829   4.560   7.279  3.1018 -1.9241 -1.3021
 7349SOL    HW233684   1.866   4.544   7.146 -0.5374  2.4433  0.7770
 7350SOL     OW33685   1.613   4.717   7.471 -0.6249  0.2783  0.3516
 7350SOL    HW133686   1.550   4.670   7.415  1.1995  0.8974 -2.2170
 7350SOL    HW233687   1.654   4.649   7.524 -0.8797 -1.3459 -1.4924
 7351SOL     OW33688   2.324   2.580   7.982  0.2920 -0.2710  0.1394
 7351SOL    HW133689   2.373   2.539   7.910  1.0630  2.5583 -0.9564
 7351SOL    HW233690   2.259   2.520   8.017 -0.7616 -0.0060 -1.3335
 7352SOL     OW33691   2.521   3.390  12.631  0.0443  0.0359  0.1824
 7352SOL    HW133692   2.570   3.440  12.696  0.2737 -0.3159  0.2815
 7352SOL    HW233693   2.573   3.417  12.555 -0.0780  0.8997  0.4039
 7353SOL     OW33694   3.294   3.966   8.749  0.0142 -0.0040  0.6381
 7353SOL    HW133695   3.339   4.002   8.826 -1.0791  0.9010  0.8416
 7353SOL    HW233696   3.252   3.893   8.794  3.8063 -2.7097 -0.0935
 7354SOL     OW33697   2.282   0.872   4.735 -0.2274  0.0945  0.1354
 7354SOL    HW133698   2.242   0.792   4.702 -0.8309  0.6824 -0.5614
 7354SOL    HW233699   2.347   0.833   4.793  0.2226  2.3267  1.1427
 7355SOL     OW33700   1.606   4.735   4.203 -0.1862 -0.1767 -0.5527
 7355SOL    HW133701   1.533   4.679   4.178 -1.5125  1.7499 -1.0113
 7355SOL    HW233702   1.599   0.074   4.148 -0.6933  0.5425  0.5358
 7356SOL     OW33703   2.568   2.568   8.198 -0.4222 -0.3522  0.0585
 7356SOL    HW133704   2.569   2.474   8.185  0.0253 -0.6027  1.9321
 7356SOL    HW233705   2.549   2.603   8.111 -0.1415 -0.3556 -0.0039
 7357SOL     OW33706   0.125   2.256   9.227 -0.3355  0.2462  0.1625
 7357SOL    HW133707   0.101   2.320   9.160  3.1407  0.9678 -0.4253
 7357SOL    HW233708   0.122   2.175   9.176  1.4475  0.6576 -0.5943
 7358SOL     OW33709   2.642   0.993   1.591 -0.1350 -0.1589  0.1264
 7358SOL    HW133710   2.554   1.007   1.556  0.8284  0.9723 -1.8436
 7358SOL    HW233711   2.671   0.932   1.522  0.6726  1.7419 -1.2243
 7359SOL     OW33712   2.828   4.687  14.595  0.2862 -0.0575  0.1544
 7359SOL    HW133713   2.789   4.645  14.518 -1.2467  2.0745 -0.2388
 7359SOL    HW233714   2.825   0.037  14.558 -2.6301 -0.1489  0.1799
 7360SOL     OW33715   3.618   2.892   3.581  0.0834 -0.2307 -0.1519
 7360SOL    HW133716   3.601   2.812   3.632 -1.3197  0.7726  0.9445
 7360SOL    HW233717   3.688   2.852   3.529  0.6196 -1.4432  1.5015
 7361SOL     OW33718   1.110   2.280   7.036  0.5586 -0.6307 -0.7842
 7361SOL    HW133719   1.192   2.232   7.025  0.6451 -1.0575  1.7966
 7361SOL    HW233720   1.124   2.374   7.025  0.0665 -0.4472  0.2454
 7362SOL     OW33721   1.229   3.553   4.920  0.4464  0.0554 -0.5710
 7362SOL    HW133722   1.180   3.508   4.851  1.0413  0.4247 -1.2336
 7362SOL    HW233723   1.251   3.488   4.985  1.4498  0.3311 -0.6452
 7363SOL     OW33724   1.426   4.695   3.020  0.2103 -0.3434  0.5105
 7363SOL    HW133725   1.371   4.618   3.036  0.7148 -0.7521  0.2737
 7363SOL    HW233726   1.428   4.678   2.926 -0.0754 -0.9613  0.6115
 7364SOL     OW33727   4.672   3.069   9.287  0.0719 -0.5230  0.3264
 7364SOL    HW133728   4.688   3.157   9.250 -1.0777  0.1656  1.4764
 7364SOL    HW233729   0.001   3.057   9.354  0.5675 -1.8022 -0.4056
 7365SOL     OW33730   4.652   4.004   4.380 -0.0271  0.0422  0.1688
 7365SOL    HW133731   4.732   4.028   4.426 -1.4609 -0.0908  2.7100
 7365SOL    HW233732   4.586   4.016   4.448  0.3822  0.2559  0.5340
 7366SOL     OW33733   1.373   3.200   0.887 -0.5227 -0.1456 -0.4618
 7366SOL    HW133734   1.468   3.207   0.893 -0.4709  0.8044 -2.5266
 7366SOL    HW233735   1.349   3.285   0.924 -0.1767 -0.0231 -0.5215
 7367SOL     OW33736   0.370   1.770   2.711 -0.0020 -0.7277 -0.6441
 7367SOL    HW133737   0.360   1.678   2.686 -0.8715 -1.4616  2.4557
 7367SOL    HW233738   0.369   1.768   2.806 -0.8270  0.9437 -0.6266
 7368SOL     OW33739   0.214   3.844  14.830 -0.3272 -1.0589 -0.1524
 7368SOL    HW133740   0.295   3.870  14.873 -0.7633  0.4049 -0.2439
 7368SOL    HW233741   0.146   3.856  14.897 -0.9627  1.1453 -1.1981
 7369SOL     OW33742   0.135   1.726   7.813 -0.4000 -0.3313  0.4833
 7369SOL    HW133743   0.048   1.735   7.773 -0.2668  0.5857  0.3932
 7369SOL    HW233744   0.123   1.666   7.886  0.8980 -1.1654  0.0130
 7370SOL     OW33745   3.536   0.437   5.663 -0.0676 -0.4230  0.2238
 7370SOL    HW133746   3.623   0.430   5.623  0.1259 -1.4021  0.8276
 7370SOL    HW233747   3.561   0.463   5.751 -0.3936  0.3644  0.0872
 7371SOL     OW33748   1.265   1.944  11.218  0.5060  0.0244 -0.3568
 7371SOL    HW133749   1.220   2.023  11.247  0.4852 -0.5511  1.1986
 7371SOL    HW233750   1.324   1.979  11.152  0.2346  0.1245 -0.5463
 7372SOL     OW33751   3.317   0.478   3.966  0.4804 -0.3189 -0.4156
 7372SOL    HW133752   3.279   0.414   4.026 -0.7814 -0.0542 -0.9194
 7372SOL    HW233753   3.305   0.447   3.876  0.8606 -1.5647 -0.0234
 7373SOL     OW33754   0.118   1.531   8.010 -0.2127 -0.0449 -0.2240
 7373SOL    HW133755   0.126   1.526   8.105  1.6665 -2.4384 -0.4943
 7373SOL    HW233756   0.189   1.474   7.977  0.6661  2.1878 -2.1893
 7374SOL     OW33757   3.894   2.419   0.717  0.3125 -0.1097 -0.1749
 7374SOL    HW133758   3.901   2.512   0.694 -2.5777  0.0816 -0.3402
 7374SOL    HW233759   3.881   2.382   0.630 -1.2533 -1.6960  0.7411
 7375SOL     OW33760   1.793   1.874   3.987 -0.0625 -0.1608 -0.2712
 7375SOL    HW133761   1.756   1.816   3.921  0.5059  0.2153 -0.9207
 7375SOL    HW233762   1.742   1.845   4.062 -2.4947  2.0514 -1.0794
 7376SOL     OW33763   2.433   4.616  10.719  0.2541  0.3965 -0.0647
 7376SOL    HW133764   2.528   4.624  10.732  0.1793  1.3848 -0.1381
 7376SOL    HW233765   2.428   4.521  10.712 -1.2598  0.4721  0.1239
 7377SOL     OW33766   2.441   0.800   8.393 -0.2906 -0.4036  0.2218
 7377SOL    HW133767   2.511   0.849   8.435  0.7763 -1.1820 -0.6592
 7377SOL    HW233768   2.427   0.717   8.440  2.1000 -1.3741 -0.8265
 7378SOL     OW33769   4.603   1.954   1.911  0.3402  0.1726  0.2597
 7378SOL    HW133770   4.572   1.886   1.850  0.3378  1.7563 -1.4947
 7378SOL    HW233771   4.550   2.028   1.882 -0.4912  0.0947  1.5831
 7379SOL     OW33772   0.961   2.443  14.519 -0.0332  0.1768 -0.0539
 7379SOL    HW133773   1.002   2.504  14.580 -0.7922 -0.6740  1.3093
 7379SOL    HW233774   0.991   2.358  14.549 -1.0818 -0.7274 -1.5594
 7380SOL     OW33775   3.805   1.427   9.253  0.2996  0.0390  0.2180
 7380SOL    HW133776   3.846   1.514   9.254  0.5206 -0.0537 -1.8394
 7380SOL    HW233777   3.713   1.442   9.273 -0.1304 -0.0523 -1.6845
 7381SOL     OW33778   4.298   3.352   2.615 -0.2776 -0.1624 -0.0077
 7381SOL    HW133779   4.243   3.427   2.639 -1.7780  0.4095 -5.1846
 7381SOL    HW233780   4.253   3.314   2.540 -0.4459  2.1838 -1.1203
 7382SOL     OW33781   2.390   2.565   9.128  0.4588  0.3362  0.4027
 7382SOL    HW133782   2.320   2.592   9.068 -0.5248 -3.0367  0.0384
 7382SOL    HW233783   2.379   2.471   9.115  4.2758 -0.1768  0.9322
 7383SOL     OW33784   0.852   1.524   8.184  0.6228 -0.9193  0.2765
 7383SOL    HW133785   0.931   1.560   8.224  0.2234 -0.1737  0.3967
 7383SOL    HW233786   0.856   1.429   8.199  0.7531 -1.0898 -0.8674
 7384SOL     OW33787   1.440   4.045   7.477 -0.0850  0.1480 -0.5970
 7384SOL    HW133788   1.459   4.048   7.571 -2.3602 -0.0079 -0.1419
 7384SOL    HW233789   1.364   4.101   7.460 -1.2510 -1.2811 -0.1104
 7385SOL     OW33790   0.196   0.374   9.675  0.2997 -0.1755 -0.2805
 7385SOL    HW133791   0.101   0.373   9.665  0.3607 -1.4161 -0.6922
 7385SOL    HW233792   0.213   0.468   9.666  1.9149 -0.4645 -0.2465
 7386SOL     OW33793   4.713   3.003   8.304 -0.1109  0.1821 -0.0097
 7386SOL    HW133794   0.054   3.013   8.356  0.4323 -0.8422 -0.6396
 7386SOL    HW233795   0.005   2.943   8.236 -2.5862  1.1850 -1.9880
 7387SOL     OW33796   3.879   1.858   1.933 -0.4840 -0.9482 -0.2095
 7387SOL    HW133797   3.873   1.807   2.014 -0.2965 -0.2006  0.2752
 7387SOL    HW233798   3.786   1.872   1.916 -0.8238 -1.7637  0.9752
 7388SOL     OW33799   0.720   0.156  11.145 -0.1743  0.5527  0.2449
 7388SOL    HW133800   0.736   0.209  11.223 -2.3304  0.5190  0.7050
 7388SOL    HW233801   0.674   0.082  11.184 -0.3326  0.9854  0.8893
 7389SOL     OW33802   2.235   2.290   7.837 -0.1205 -0.0612 -0.2405
 7389SOL    HW133803   2.201   2.288   7.747 -0.7505 -1.0896  0.0244
 7389SOL    HW233804   2.317   2.241   7.834  0.1949  0.5376 -1.7546
 7390SOL     OW33805   0.455   2.813   8.167 -0.2671  0.2252  0.3992
 7390SOL    HW133806   0.396   2.741   8.189  1.1809 -1.3381 -0.8559
 7390SOL    HW233807   0.477   2.795   8.076  4.6151  0.7341  1.5096
 7391SOL     OW33808   2.848   3.491   9.014  0.1693  0.2650  0.2098
 7391SOL    HW133809   2.766   3.468   8.971  0.3284  3.1015 -1.5673
 7391SOL    HW233810   2.810   3.512   9.099 -0.1313  1.0741 -0.1250
 7392SOL     OW33811   4.407   3.734  14.056 -0.7826  0.2540 -0.0369
 7392SOL    HW133812   4.486   3.688  14.084 -1.0510 -0.0131  0.2941
 7392SOL    HW233813   4.395   3.804  14.119 -0.0628  1.4860 -1.2725
 7393SOL     OW33814   1.147   2.534   6.971 -0.0116 -0.2748 -0.0524
 7393SOL    HW133815   1.234   2.571   6.956 -0.0220 -1.1993 -2.3722
 7393SOL    HW233816   1.102   2.576   6.897  0.1549 -2.0215 -1.1434
 7394SOL     OW33817   1.641   0.250  16.160 -0.2157  0.2282  0.0592
 7394SOL    HW133818   1.715   0.293  16.204 -0.6684  0.8338  0.2237
 7394SOL    HW233819   1.608   0.324  16.109 -0.7210 -0.7365 -0.9958
 7395SOL     OW33820   0.116   2.546   4.417  0.7423  0.6304 -0.5258
 7395SOL    HW133821   0.183   2.522   4.480 -0.8425 -0.7903  0.6367
 7395SOL    HW233822   0.091   2.465   4.373  0.6569 -0.7680  2.0833
 7396SOL     OW33823   3.737   4.361   9.937  0.1768  0.0528 -0.5898
 7396SOL    HW133824   3.812   4.325   9.984 -1.1699  0.4808  1.9093
 7396SOL    HW233825   3.692   4.276   9.928  1.4008 -0.6239 -0.2412
 7397SOL     OW33826   3.654   1.341  13.409  0.2225 -0.2087 -0.1869
 7397SOL    HW133827   3.582   1.335  13.346  0.4181  1.2177 -0.5444
 7397SOL    HW233828   3.604   1.365  13.487 -1.6030 -0.0940 -1.3780
 7398SOL     OW33829   2.374   3.170  12.711  0.2465  0.0938 -0.1765
 7398SOL    HW133830   2.323   3.193  12.633 -0.1839 -0.2203  0.0107
 7398SOL    HW233831   2.431   3.246  12.707  0.7233 -0.2129  0.8871
 7399SOL     OW33832   1.270   3.090  15.640 -0.0020  0.8321 -0.2793
 7399SOL    HW133833   1.297   3.038  15.715 -0.6490 -0.5936 -1.0431
 7399SOL    HW233834   1.269   3.031  15.564  3.3519  2.2346 -1.4199
 7400SOL     OW33835   2.353   4.702   9.955 -0.3694 -0.0888  0.7032
 7400SOL    HW133836   2.362   4.616   9.996  0.1798 -0.4078 -0.0876
 7400SOL    HW233837   2.422   4.700   9.888 -1.1772 -0.8638 -0.1077
 7401SOL     OW33838   4.407   0.323  10.001  0.4396 -0.1489 -0.0649
 7401SOL    HW133839   4.444   0.409   9.984  1.2503 -0.7133 -1.1658
 7401SOL    HW233840   4.456   0.293  10.078 -0.2789  0.8240  0.7709
 7402SOL     OW33841   1.828   3.006   6.235 -0.6799  0.5406  0.2016
 7402SOL    HW133842   1.759   2.975   6.294  1.3003 -0.6090  1.8903
 7402SOL    HW233843   1.835   3.097   6.263 -1.6864  0.0554  2.0679
 7403SOL     OW33844   1.633   4.252   7.514  0.1044  0.3883 -0.3610
 7403SOL    HW133845   1.593   4.338   7.501 -2.5644 -0.5523  1.5495
 7403SOL    HW233846   1.569   4.202   7.463 -0.3690  1.8504 -1.1843
 7404SOL     OW33847   0.405   3.982   6.682  0.1100 -0.2980  0.5339
 7404SOL    HW133848   0.471   4.049   6.664  1.2698 -1.9095 -1.2662
 7404SOL    HW233849   0.432   3.958   6.770  1.0909 -0.9198  0.0593
 7405SOL     OW33850   3.352   4.720   5.835 -0.1095  0.1991 -0.1644
 7405SOL    HW133851   3.434   4.724   5.885 -2.1110  1.1652  3.0286
 7405SOL    HW233852   3.308   4.661   5.895  0.3166 -0.4530 -0.4903
 7406SOL     OW33853   3.328   4.378   5.166 -0.1207 -0.4831 -0.3151
 7406SOL    HW133854   3.367   4.290   5.167  0.3484 -0.2395  1.6294
 7406SOL    HW233855   3.265   4.382   5.237  0.2522  0.1981 -0.0318
 7407SOL     OW33856   2.485   2.280   5.656 -0.3524 -0.2042  0.4312
 7407SOL    HW133857   2.419   2.284   5.725 -1.7358 -1.7035 -0.7994
 7407SOL    HW233858   2.430   2.261   5.579 -1.7330  0.4415  1.2597
 7408SOL     OW33859   1.228   0.218   9.021  0.2468  0.1392 -0.6880
 7408SOL    HW133860   1.302   0.274   9.047 -1.3465  2.6738 -1.5607
 7408SOL    HW233861   1.237   0.154   9.091  0.0117  0.2279 -0.5731
 7409SOL     OW33862   1.209   4.057   6.900  0.0227  0.3114 -0.2472
 7409SOL    HW133863   1.262   3.993   6.853 -2.7046 -1.9540 -0.2490
 7409SOL    HW233864   1.214   4.019   6.988  0.8753  1.2721  0.1299
 7410SOL     OW33865   4.371   0.281  14.603  0.2927  0.1778  0.1814
 7410SOL    HW133866   4.323   0.204  14.572  1.8893 -0.8386  0.2857
 7410SOL    HW233867   4.375   0.268  14.698  1.4484 -0.9607 -0.0374
 7411SOL     OW33868   3.745   3.374   7.815 -0.3108 -0.1881 -0.1812
 7411SOL    HW133869   3.661   3.417   7.830 -0.1885 -1.7422  4.9113
 7411SOL    HW233870   3.714   3.295   7.769  0.0274 -0.1420 -0.4815
 7412SOL     OW33871   0.902   2.949   1.718  0.4380  0.2281  0.1859
 7412SOL    HW133872   0.841   3.023   1.715  1.2887  0.9665  1.0799
 7412SOL    HW233873   0.897   2.922   1.810 -0.3620  0.2554  0.1508
 7413SOL     OW33874   0.178   4.532   8.508 -0.0599 -1.1855  0.3030
 7413SOL    HW133875   0.240   4.489   8.568  1.1181 -2.2877 -1.7182
 7413SOL    HW233876   0.140   4.460   8.459 -0.3288  0.1923 -1.4944
 7414SOL     OW33877   1.462   1.664   1.155  0.4112  0.2559  0.3806
 7414SOL    HW133878   1.380   1.617   1.142  0.9377 -0.7628  0.7017
 7414SOL    HW233879   1.489   1.673   1.063  1.6877 -1.1647  0.6193
 7415SOL     OW33880   2.432   1.263   3.637  0.0605 -0.4214 -0.3914
 7415SOL    HW133881   2.503   1.243   3.698  0.5951  0.3337 -0.7640
 7415SOL    HW233882   2.359   1.232   3.690 -0.4060  1.9059  0.2947
 7416SOL     OW33883   3.644   1.023   2.332  0.1562  0.8969 -0.4588
 7416SOL    HW133884   3.739   1.022   2.326  0.2511 -0.1802  1.0945
 7416SOL    HW233885   3.639   1.025   2.428  1.1217  0.2117 -0.4031
 7417SOL     OW33886   3.187   4.727   0.483 -0.5258  0.7188 -0.2351
 7417SOL    HW133887   3.201   4.709   0.575  1.8080  1.7793 -0.4004
 7417SOL    HW233888   3.241   0.067   0.481  1.0140 -0.3093  1.4011
 7418SOL     OW33889   0.231   2.510   7.246  0.3218  0.1858 -0.2594
 7418SOL    HW133890   0.143   2.547   7.250 -0.1891 -1.2364  1.8542
 7418SOL    HW233891   0.284   2.550   7.315  0.4940 -0.9779  0.2899
 7419SOL     OW33892   2.882   2.199   1.859 -0.5301 -0.4767  0.0179
 7419SOL    HW133893   2.930   2.247   1.927  0.1430 -0.1386 -0.6995
 7419SOL    HW233894   2.835   2.268   1.813  0.6480 -0.1186 -0.6513
 7420SOL     OW33895   3.919   3.717   9.988 -0.7016 -0.4640  0.1716
 7420SOL    HW133896   3.826   3.741   9.988 -0.1109  1.8524 -0.3872
 7420SOL    HW233897   3.916   3.639   9.932  1.2588  1.5008 -2.6294
 7421SOL     OW33898   2.483   0.495   5.260  0.3708  0.1132  0.0813
 7421SOL    HW133899   2.568   0.536   5.242 -0.9458  2.2161 -1.2248
 7421SOL    HW233900   2.499   0.446   5.340 -2.3437  0.2296  0.6982
 7422SOL     OW33901   2.206   0.274   6.337  0.1588 -0.3141  0.1307
 7422SOL    HW133902   2.231   0.183   6.348 -0.1149 -0.2630  1.1490
 7422SOL    HW233903   2.111   0.262   6.334  0.4161 -2.2231  0.0709
 7423SOL     OW33904   2.988   1.784   8.293  0.6523 -0.1115 -0.0808
 7423SOL    HW133905   2.921   1.807   8.357 -0.0648 -2.8487  0.1250
 7423SOL    HW233906   3.046   1.725   8.340  1.6323  0.2746 -0.7973
 7424SOL     OW33907   4.250   1.606   3.806  0.1985  0.1798  0.9805
 7424SOL    HW133908   4.341   1.593   3.782  0.2762  3.4578 -0.4732
 7424SOL    HW233909   4.236   1.700   3.796 -0.1662 -0.0688 -0.9734
 7425SOL     OW33910   0.672   4.618  14.470 -0.2320  0.2098  0.7927
 7425SOL    HW133911   0.640   4.535  14.505 -0.6129 -0.3850 -0.9563
 7425SOL    HW233912   0.691   4.656  14.556  1.0778 -2.3221  1.6504
 7426SOL     OW33913   0.682   1.265   1.783 -0.2272  0.5488  0.6392
 7426SOL    HW133914   0.695   1.337   1.720  0.6013 -0.7504 -0.6730
 7426SOL    HW233915   0.738   1.200   1.740 -2.9801 -0.1686 -1.9362
 7427SOL     OW33916   2.702   1.893   7.538  0.5431  0.4233 -0.7892
 7427SOL    HW133917   2.726   1.978   7.576 -0.1300  0.5879 -0.7336
 7427SOL    HW233918   2.613   1.879   7.570  0.1514  1.0241 -1.6018
 7428SOL     OW33919   0.092   0.148   8.917  0.0616 -0.2602  0.4971
 7428SOL    HW133920   0.175   0.161   8.871 -1.1097  0.7648 -1.3294
 7428SOL    HW233921   0.057   0.073   8.868 -1.2361  0.6551  0.0063
 7429SOL     OW33922   2.820   4.532   5.404 -0.8016 -0.4590 -0.0529
 7429SOL    HW133923   2.885   4.464   5.423 -1.8956 -1.1291  1.2390
 7429SOL    HW233924   2.743   4.481   5.380  0.0749 -1.0550 -1.6652
 7430SOL     OW33925   1.588   4.664   3.453 -0.1319 -0.2399  0.3079
 7430SOL    HW133926   1.586   4.726   3.381 -0.4550 -0.3585  0.2142
 7430SOL    HW233927   1.600   4.721   3.529  1.8674  0.0619 -0.2157
 7431SOL     OW33928   1.693   3.105   9.573 -0.3182  0.3985  0.4068
 7431SOL    HW133929   1.716   3.171   9.507  3.0734  0.5087  1.6874
 7431SOL    HW233930   1.598   3.101   9.561 -0.6114  1.3340  2.3249
 7432SOL     OW33931   3.063   0.385   4.332  0.1721 -0.1852  0.0705
 7432SOL    HW133932   3.023   0.433   4.260  1.4073  1.9403  0.8108
 7432SOL    HW233933   2.999   0.393   4.402 -0.8829 -1.5280 -0.7345
 7433SOL     OW33934   0.657   2.729   2.753 -0.1233  1.3778 -0.1354
 7433SOL    HW133935   0.637   2.667   2.823  0.4584  0.6243 -0.6337
 7433SOL    HW233936   0.620   2.685   2.676 -0.5615  1.2044  0.1759
 7434SOL     OW33937   1.532   1.690   7.630  0.2519 -0.2381  0.0506
 7434SOL    HW133938   1.523   1.774   7.674 -2.8445 -0.5890  0.0605
 7434SOL    HW233939   1.440   1.672   7.609  0.6399 -0.4506 -1.4770
 7435SOL     OW33940   0.934   3.375   9.336 -0.0820  0.6338  0.4419
 7435SOL    HW133941   1.014   3.354   9.384  1.1693  0.3393 -1.8152
 7435SOL    HW233942   0.920   3.292   9.290 -0.8105  0.9972  0.0051
 7436SOL     OW33943   4.665   1.254   8.180  0.3034 -0.0101  0.1515
 7436SOL    HW133944   0.010   1.293   8.205 -0.0416  0.3280  0.7850
 7436SOL    HW233945   4.625   1.234   8.264 -1.0949  2.1793  0.0275
 7437SOL     OW33946   1.352   3.073   3.187 -0.0564 -0.3209  0.0971
 7437SOL    HW133947   1.263   3.049   3.159 -0.0434 -0.5705  0.2760
 7437SOL    HW233948   1.357   3.056   3.281  1.3161 -0.2587  0.0240
 7438SOL     OW33949   0.390   0.709   7.910 -0.8658  0.2149  0.7121
 7438SOL    HW133950   0.311   0.757   7.885  0.5530  1.5182 -1.2716
 7438SOL    HW233951   0.382   0.643   7.841 -1.7735  0.2038  0.8277
 7439SOL     OW33952   2.896   3.752  14.673 -0.4963 -0.1941  0.0956
 7439SOL    HW133953   2.975   3.698  14.677  0.4883  1.1685 -0.9027
 7439SOL    HW233954   2.865   3.731  14.761 -3.4122 -1.5430 -1.2643
 7440SOL     OW33955   3.914   0.311   9.143 -0.2150 -0.5272  0.3764
 7440SOL    HW133956   3.921   0.278   9.233  1.6268  0.8787  0.7569
 7440SOL    HW233957   3.894   0.231   9.096  0.0968 -0.7954  0.7028
 7441SOL     OW33958   2.347   0.821   3.182  0.1912 -0.0529  0.6789
 7441SOL    HW133959   2.354   0.742   3.128 -0.3379  0.3444  0.0214
 7441SOL    HW233960   2.278   0.804   3.247 -0.3613 -3.2353 -0.7415
 7442SOL     OW33961   1.508   3.910   6.359 -0.1602 -0.1980  0.6477
 7442SOL    HW133962   1.571   3.868   6.300 -0.7294  1.0914 -0.8988
 7442SOL    HW233963   1.479   3.831   6.405 -2.0414 -0.3198 -0.7278
 7443SOL     OW33964   3.658   1.795   7.874 -0.2120 -0.2297 -0.1127
 7443SOL    HW133965   3.678   1.852   7.948 -1.2762 -0.3892  0.2987
 7443SOL    HW233966   3.563   1.807   7.866 -0.0120  0.8123 -0.9605
 7444SOL     OW33967   1.332   1.964   9.566 -0.0337  0.4388 -0.0131
 7444SOL    HW133968   1.399   1.917   9.615  0.8430  0.3235 -1.3275
 7444SOL    HW233969   1.381   2.002   9.493  1.7031 -0.1133  0.8704
 7445SOL     OW33970   3.135   0.503   7.090  0.2249  0.4633  0.3420
 7445SOL    HW133971   3.093   0.559   7.155  1.2024 -1.1433  2.3416
 7445SOL    HW233972   3.130   0.418   7.134 -0.7296  0.6995  0.6739
 7446SOL     OW33973   1.234   3.751   8.589 -0.3048 -0.1269 -0.0275
 7446SOL    HW133974   1.318   3.796   8.576 -0.4276  0.5490  1.5201
 7446SOL    HW233975   1.174   3.825   8.597  0.2241  0.3263 -0.2901
 7447SOL     OW33976   2.510   4.336   8.480  0.2779  0.3428 -0.3164
 7447SOL    HW133977   2.588   4.304   8.525  2.4648  2.9993 -2.2050
 7447SOL    HW233978   2.544   4.425   8.469  1.8666 -0.5364 -2.5029
 7448SOL     OW33979   0.479   0.660   2.064 -0.5123  0.3653 -0.0078
 7448SOL    HW133980   0.417   0.613   2.120  1.6425 -1.9659  0.3928
 7448SOL    HW233981   0.446   0.750   2.067 -0.3989  0.4907 -2.8500
 7449SOL     OW33982   0.818   1.524   7.870 -0.3078 -0.2832 -0.2081
 7449SOL    HW133983   0.820   1.569   7.955 -0.8252 -2.0399  0.7273
 7449SOL    HW233984   0.845   1.437   7.899  2.4145  0.1106 -1.5213
 7450SOL     OW33985   3.397   4.207   5.564  0.1905  0.8296 -0.3932
 7450SOL    HW133986   3.386   4.114   5.545  1.1480  0.2518  1.9073
 7450SOL    HW233987   3.311   4.232   5.597  1.4271  3.0369  1.1069
 7451SOL     OW33988   2.167   1.622   6.570  0.1939 -0.3163 -0.1319
 7451SOL    HW133989   2.079   1.659   6.576 -0.8224 -2.9407  1.1776
 7451SOL    HW233990   2.192   1.662   6.486  3.0506 -0.2302  0.7591
 7452SOL     OW33991   3.400   3.050  11.467 -0.3140  0.2563 -0.4697
 7452SOL    HW133992   3.431   3.045  11.376 -1.1140  1.5117 -0.8046
 7452SOL    HW233993   3.341   2.975  11.471  1.2270 -0.8686  1.6755
 7453SOL     OW33994   1.343   4.499   0.149  0.0365  0.7004 -0.1249
 7453SOL    HW133995   1.381   4.548   0.076  0.0426 -0.6070 -1.0148
 7453SOL    HW233996   1.256   4.537   0.160  0.7164  2.0911  0.3766
 7454SOL     OW33997   1.309   0.961   6.469  0.6374 -0.6767  0.0883
 7454SOL    HW133998   1.315   1.057   6.463 -0.4818 -0.7169 -1.8213
 7454SOL    HW233999   1.213   0.954   6.473  1.0623 -5.2424  2.0542
 7455SOL     OW34000   0.013   1.203   2.631  0.8808  0.4501 -0.5361
 7455SOL    HW134001   4.707   1.242   2.707 -0.7474 -0.3574 -1.0665
 7455SOL    HW234002   0.043   1.122   2.671 -0.7158 -0.4326 -1.1107
 7456SOL     OW34003   4.665   3.724   2.136  0.1562 -0.1996 -0.5392
 7456SOL    HW134004   4.592   3.732   2.075 -0.2142  0.7103  0.0183
 7456SOL    HW234005   4.621   3.764   2.211 -1.3339  0.5017 -1.7861
 7457SOL     OW34006   0.935   1.333   3.767 -0.0935 -0.0135  0.5736
 7457SOL    HW134007   0.883   1.290   3.699  2.0687 -1.5060 -0.1480
 7457SOL    HW234008   0.866   1.380   3.813  0.1116 -0.5488  1.4280
 7458SOL     OW34009   0.662   0.967   6.415  0.4435 -0.0297  0.4767
 7458SOL    HW134010   0.606   0.944   6.489 -0.2253  2.1969  0.6669
 7458SOL    HW234011   0.746   0.985   6.459  1.2518 -1.4195 -0.4937
 7459SOL     OW34012   4.673   0.082   6.435  0.3043  0.1753  0.0989
 7459SOL    HW134013   4.653   0.033   6.515 -1.3315  0.6955  0.0008
 7459SOL    HW234014   4.639   0.024   6.368  1.2910 -1.2436  0.8235
 7460SOL     OW34015   4.728   3.843   7.881  0.1677 -0.1184 -0.5642
 7460SOL    HW134016   4.688   3.919   7.839  1.0504  1.1696  0.9287
 7460SOL    HW234017   4.710   3.781   7.810 -0.9403 -0.2927 -0.1265
 7461SOL     OW34018   3.578   2.374  11.284  0.2618 -0.3517 -0.1331
 7461SOL    HW134019   3.631   2.437  11.332 -0.6055  1.4617 -1.5689
 7461SOL    HW234020   3.645   2.310  11.258  1.0994 -0.2735  1.7903
 7462SOL     OW34021   0.011   1.272   7.167  0.0969  0.0917  0.5872
 7462SOL    HW134022   4.684   1.206   7.146 -1.1474  1.6011 -0.2342
 7462SOL    HW234023   4.734   1.278   7.261  0.4051  0.4000  0.6200
 7463SOL     OW34024   1.588   1.119  13.446 -0.6052 -0.3620  0.3907
 7463SOL    HW134025   1.520   1.163  13.396 -1.5448  0.2483  2.1922
 7463SOL    HW234026   1.583   1.167  13.529  0.0757 -0.7804  0.6773
 7464SOL     OW34027   1.199   1.165  11.430  0.1670  0.3273 -0.4178
 7464SOL    HW134028   1.187   1.178  11.335 -0.3473 -1.9940 -0.6645
 7464SOL    HW234029   1.277   1.110  11.440  0.4176  0.6529 -0.5609
 7465SOL     OW34030   2.930   3.237  16.639 -0.0255 -0.1453  0.0048
 7465SOL    HW134031   2.846   3.192  16.636  0.1182 -0.4990  1.4134
 7465SOL    HW234032   2.942   3.269  16.729  2.0895 -1.5521  0.2172
 7466SOL     OW34033   1.313   0.420  17.310  0.0295  0.1897 -0.1132
 7466SOL    HW134034   1.375   0.459  17.249 -1.8002 -0.7294 -2.5489
 7466SOL    HW234035   1.331   0.459  17.396 -0.6724 -1.4410  0.7557
 7467SOL     OW34036   0.392   0.901   1.554 -0.2059  0.0977 -0.2177
 7467SOL    HW134037   0.412   0.922   1.645 -2.5546 -2.2276  0.8433
 7467SOL    HW234038   0.369   0.985   1.514  2.8464  1.0248  0.0042
 7468SOL     OW34039   2.191   3.012   8.342  0.4476 -0.3945  0.3459
 7468SOL    HW134040   2.250   2.998   8.416  3.1093  0.0353 -1.7028
 7468SOL    HW234041   2.256   3.023   8.273  0.8973 -1.2672  0.6354
 7469SOL     OW34042   4.177   3.151   4.343  0.2631 -0.2551  0.0177
 7469SOL    HW134043   4.255   3.189   4.305  0.1891 -0.5657 -0.4479
 7469SOL    HW234044   4.114   3.182   4.278  0.0953  0.3178  0.4548
 7470SOL     OW34045   0.390   4.315  14.021  0.0379 -0.2667 -0.4019
 7470SOL    HW134046   0.458   4.383  14.023  1.1256 -1.4074  1.7802
 7470SOL    HW234047   0.317   4.365  13.985 -1.2843 -1.6118  0.4204
 7471SOL     OW34048   0.607   2.698   0.851 -0.4366  0.0738  0.1813
 7471SOL    HW134049   0.594   2.789   0.878 -1.9561  0.2729 -1.1761
 7471SOL    HW234050   0.540   2.653   0.903  0.1956 -2.0561 -0.8670
 7472SOL     OW34051   4.045   1.236   7.541  0.8102  0.5406  0.5092
 7472SOL    HW134052   3.990   1.176   7.491  1.2949 -1.2382  2.1208
 7472SOL    HW234053   3.992   1.251   7.620 -1.4951  2.4661 -1.4014
 7473SOL     OW34054   1.031   0.290  13.150 -0.3953  0.0390  0.0292
 7473SOL    HW134055   1.069   0.239  13.221 -0.4789 -0.6358 -0.4224
 7473SOL    HW234056   0.938   0.272  13.166 -0.9579  0.9590 -2.1762
 7474SOL     OW34057   4.012   0.684   9.969  0.3549 -0.2132 -0.2572
 7474SOL    HW134058   3.969   0.766   9.991 -1.1706 -1.2882  0.7234
 7474SOL    HW234059   4.051   0.710   9.885  2.6470  0.8634  1.1177
 7475SOL     OW34060   2.441   0.001   1.668 -0.6736  0.0897  0.4190
 7475SOL    HW134061   2.414   0.031   1.755 -2.0465  0.5304 -0.1616
 7475SOL    HW234062   2.528   0.041   1.668 -0.4735 -0.3618 -0.7968
 7476SOL     OW34063   3.796   1.726   0.265 -0.2297  0.6131  0.0054
 7476SOL    HW134064   3.841   1.782   0.203 -0.4706 -1.6735 -2.2390
 7476SOL    HW234065   3.725   1.691   0.211 -0.2073 -0.7910  0.8713
 7477SOL     OW34066   1.061   3.577   1.808  0.7034  0.0896 -0.2632
 7477SOL    HW134067   1.085   3.570   1.716 -2.1704  1.7431 -1.1175
 7477SOL    HW234068   1.067   3.485   1.833 -2.6842  0.0573  0.4559
 7478SOL     OW34069   1.829   3.276   6.391 -0.0482 -0.0525 -0.2966
 7478SOL    HW134070   1.750   3.245   6.434 -0.9118  1.9279 -0.4527
 7478SOL    HW234071   1.841   3.359   6.436 -2.9524  0.5239 -0.5834
 7479SOL     OW34072   3.104   3.054  12.491  0.3691 -0.0313  0.5805
 7479SOL    HW134073   3.016   3.027  12.462  1.6253 -3.7075  0.1128
 7479SOL    HW234074   3.159   2.988  12.447 -0.1648 -0.6724  0.8657
 7480SOL     OW34075   0.253   1.836   6.686 -0.1296 -0.1336  0.2826
 7480SOL    HW134076   0.167   1.864   6.718 -0.7040 -0.2591 -1.1718
 7480SOL    HW234077   0.313   1.868   6.754 -0.0758 -0.4765  0.3923
 7481SOL     OW34078   4.113   4.535   6.244  0.0330  0.0033  0.4543
 7481SOL    HW134079   4.038   4.480   6.267 -0.8589  1.4722  1.0762
 7481SOL    HW234080   4.076   4.610   6.198  2.4095 -0.3597 -2.0895
 7482SOL     OW34081   2.222   0.637   2.225 -0.7226  0.0250  0.1118
 7482SOL    HW134082   2.144   0.688   2.244 -0.2879  0.2826  1.1650
 7482SOL    HW234083   2.281   0.708   2.201 -1.3040  0.0227 -1.3340
 7483SOL     OW34084   0.119   1.671   3.711 -0.3299  0.0367  0.0194
 7483SOL    HW134085   0.112   1.591   3.764  0.9314  0.1273  0.3097
 7483SOL    HW234086   0.165   1.735   3.765 -2.4535  0.4407  1.3863
 7484SOL     OW34087   1.147   3.395   5.653 -0.5488 -0.3630 -0.1809
 7484SOL    HW134088   1.233   3.432   5.633  0.6210 -2.1271  1.5733
 7484SOL    HW234089   1.098   3.431   5.579 -1.8572  0.7100  1.2003
 7485SOL     OW34090   2.500   0.398  14.591 -0.5884 -0.0099  0.3736
 7485SOL    HW134091   2.444   0.467  14.556  1.9594  2.7377  1.7076
 7485SOL    HW234092   2.561   0.386  14.519  1.7951 -1.0553  2.5352
 7486SOL     OW34093   3.663   2.570   2.071 -0.6843 -0.0918 -0.6536
 7486SOL    HW134094   3.647   2.644   2.130  3.4889 -0.3911  0.8332
 7486SOL    HW234095   3.751   2.584   2.035 -0.6843  1.2256 -0.1394
 7487SOL     OW34096   4.435   2.427   9.287  0.7227  0.4280  0.5398
 7487SOL    HW134097   4.508   2.453   9.343  1.9166 -0.1908 -0.7399
 7487SOL    HW234098   4.441   2.335   9.311 -0.2853  0.0506 -0.6075
 7488SOL     OW34099   3.063   1.509   3.826  0.1644 -0.0100 -0.8163
 7488SOL    HW134100   3.025   1.493   3.740 -0.4238 -1.9496 -0.2152
 7488SOL    HW234101   2.989   1.487   3.884  0.4519 -1.9066 -1.1855
 7489SOL     OW34102   1.528   2.314   9.867 -0.1026  0.6222 -0.0527
 7489SOL    HW134103   1.588   2.241   9.877 -0.8302 -0.2271 -1.8570
 7489SOL    HW234104   1.514   2.350   9.955  0.6214 -0.7334  0.6087
 7490SOL     OW34105   3.686   2.618   2.928 -0.1164  0.4688 -0.1307
 7490SOL    HW134106   3.650   2.615   3.016 -1.1677  0.8738 -0.5470
 7490SOL    HW234107   3.744   2.692   2.940  0.8829 -0.3229 -0.0611
 7491SOL     OW34108   3.957   1.915   7.347 -0.0369 -1.2514 -0.0353
 7491SOL    HW134109   3.950   1.914   7.252 -0.6265 -0.1006  0.0042
 7491SOL    HW234110   3.978   2.008   7.355  0.5609 -1.4412  0.6614
 7492SOL     OW34111   3.670   3.998   8.865  0.0063  0.1963 -0.3031
 7492SOL    HW134112   3.684   3.905   8.880 -0.5387 -0.3609 -3.2262
 7492SOL    HW234113   3.579   4.000   8.896  0.1193  1.8798 -0.0678
 7493SOL     OW34114   1.750   0.876  17.635 -0.1978 -0.0284 -0.3805
 7493SOL    HW134115   1.668   0.830  17.615  0.5405 -0.3397 -2.6373
 7493SOL    HW234116   1.762   0.939  17.564 -1.2193 -0.0826 -0.5989
 7494SOL     OW34117   1.749   4.512   3.077  0.3975 -0.2426 -0.1756
 7494SOL    HW134118   1.749   4.568   3.000  0.8150  1.0005  0.7278
 7494SOL    HW234119   1.667   4.543   3.117 -0.3869 -0.6620 -1.4304
 7495SOL     OW34120   2.870   1.499   5.724  0.3693  0.0792  0.1528
 7495SOL    HW134121   2.873   1.595   5.718  1.4199  0.1572  1.9858
 7495SOL    HW234122   2.785   1.484   5.684  1.1850 -1.4002 -1.0278
 7496SOL     OW34123   0.703   3.909   6.481 -0.3698  0.0327  0.1369
 7496SOL    HW134124   0.712   3.875   6.570 -0.6250  2.3192  1.0437
 7496SOL    HW234125   0.782   3.963   6.475  0.3309 -0.7905  1.7487
 7497SOL     OW34126   4.457   2.070   9.999  0.3629  0.1376  0.7205
 7497SOL    HW134127   4.524   2.022   9.951 -0.1461  0.3891 -0.2355
 7497SOL    HW234128   4.488   2.161   9.996  0.4997  0.0236 -1.4275
 7498SOL     OW34129   1.976   3.781   5.244  0.5175 -0.3058 -0.5075
 7498SOL    HW134130   1.886   3.762   5.220  0.2974 -0.2793  0.2872
 7498SOL    HW234131   1.977   3.876   5.255 -1.3236 -0.2837 -0.4855
 7499SOL     OW34132   4.254   1.893   5.573 -0.1877 -0.0263  0.0626
 7499SOL    HW134133   4.259   1.914   5.480 -3.1359 -0.1531 -0.1046
 7499SOL    HW234134   4.346   1.897   5.601 -0.4316  1.5487  0.6258
 7500SOL     OW34135   3.529   1.392   7.425  0.8001  0.1215 -0.0053
 7500SOL    HW134136   3.575   1.440   7.356  0.3482 -1.0633 -1.1205
 7500SOL    HW234137   3.568   1.306   7.415 -2.5843 -1.1200 -2.0822
 7501SOL     OW34138   4.452   2.740   9.830  0.1134 -0.4924  0.1277
 7501SOL    HW134139   4.519   2.803   9.802  1.6382 -2.5561 -0.8844
 7501SOL    HW234140   4.498   2.659   9.807  0.7040 -0.0032 -0.4382
 7502SOL     OW34141   4.376   1.197   9.981 -0.8496 -0.2375  0.2326
 7502SOL    HW134142   4.458   1.197   9.930 -0.6043  2.4012  0.6149
 7502SOL    HW234143   4.361   1.104   9.961 -0.4928 -0.3691  0.5821
 7503SOL     OW34144   2.237   2.894   1.540  0.2761  0.3730  0.2283
 7503SOL    HW134145   2.218   2.837   1.615  1.8498 -1.9286 -1.1168
 7503SOL    HW234146   2.294   2.958   1.582 -0.0030  2.7725 -3.0439
 7504SOL     OW34147   1.581   1.590   3.479 -0.0356 -0.3722 -0.4653
 7504SOL    HW134148   1.521   1.521   3.453 -0.2744 -0.8767  1.3774
 7504SOL    HW234149   1.526   1.667   3.496  0.1751 -0.1123 -0.9543
 7505SOL     OW34150   3.006   2.838   0.901  0.3450  0.5058 -0.7043
 7505SOL    HW134151   3.078   2.854   0.839  1.6486  2.8328  1.4144
 7505SOL    HW234152   2.974   2.923   0.932  1.3212  0.6154  0.0184
 7506SOL     OW34153   3.796   1.992  10.264 -0.1382  0.0656  0.4559
 7506SOL    HW134154   3.885   2.001  10.299  0.1356 -0.3016 -0.1307
 7506SOL    HW234155   3.779   2.067  10.208 -0.5766 -0.4060 -0.0481
 7507SOL     OW34156   1.156   4.338   1.587  0.0939  0.0388 -0.4297
 7507SOL    HW134157   1.116   4.303   1.508 -1.4290 -1.9264  1.2167
 7507SOL    HW234158   1.152   4.433   1.579 -1.0386  0.0257  0.0234
 7508SOL     OW34159   4.204   3.528   3.360  0.2648  0.4655 -0.2720
 7508SOL    HW134160   4.259   3.591   3.406  1.0004  0.4399 -1.1062
 7508SOL    HW234161   4.249   3.514   3.276  1.7994  0.5608  0.5451
 7509SOL     OW34162   0.964   0.092   6.017 -0.0403  0.2594  0.5783
 7509SOL    HW134163   1.004   0.005   6.015  0.6133  0.6623 -3.9639
 7509SOL    HW234164   1.033   0.148   6.051  0.1573 -0.2637  1.0373
 7510SOL     OW34165   3.452   0.006   0.344 -0.3058 -0.1200 -0.1210
 7510SOL    HW134166   3.415   4.704   0.266 -1.9638 -0.7844  1.0052
 7510SOL    HW234167   3.395   0.080   0.364 -0.0348  0.1476 -0.3413
 7511SOL     OW34168   2.896   2.983   2.237 -0.7396 -0.5209  0.2797
 7511SOL    HW134169   2.860   2.999   2.325  2.9035  0.4646  1.6247
 7511SOL    HW234170   2.915   3.072   2.207 -0.3273 -1.3390 -1.8693
 7512SOL     OW34171   3.185   2.300   0.739  0.1359 -0.1658  0.1467
 7512SOL    HW134172   3.232   2.330   0.817 -0.7269 -0.0140  0.6060
 7512SOL    HW234173   3.097   2.334   0.754  0.4886  0.4279  0.9381
 7513SOL     OW34174   2.866   1.396   5.965  0.5568  0.0595  0.1052
 7513SOL    HW134175   2.815   1.317   5.949 -2.1142  2.0722 -1.4378
 7513SOL    HW234176   2.847   1.439   5.882  0.5619 -0.6104 -0.2362
 7514SOL     OW34177   0.975   3.239   4.342  0.4524  0.2081 -0.2624
 7514SOL    HW134178   0.977   3.143   4.346  0.9036  0.2018 -0.5794
 7514SOL    HW234179   1.040   3.249   4.412  0.8024  1.1287 -0.7145
 7515SOL     OW34180   1.874   3.743  12.702 -0.1713  0.2880 -0.0251
 7515SOL    HW134181   1.870   3.745  12.798  0.0282  6.2650 -0.1642
 7515SOL    HW234182   1.806   3.681  12.676 -1.3021  0.8545  1.5629
 7516SOL     OW34183   3.911   1.403   9.857  0.4081  0.6595  0.2929
 7516SOL    HW134184   3.861   1.321   9.859  1.8974 -0.2282  1.5299
 7516SOL    HW234185   4.001   1.371   9.870 -0.4783 -1.6790  0.5811
 7517SOL     OW34186   2.726   2.148   3.972  0.7429 -0.2208  0.1608
 7517SOL    HW134187   2.745   2.143   3.878  1.5210  0.2501  0.3002
 7517SOL    HW234188   2.692   2.238   3.974  0.6728 -0.2159 -1.2735
 7518SOL     OW34189   2.085   2.324   2.837 -0.0288 -0.1577 -0.0215
 7518SOL    HW134190   2.015   2.340   2.901 -1.0433 -2.2923 -0.5873
 7518SOL    HW234191   2.163   2.349   2.886  0.4363 -0.0476 -0.8224
 7519SOL     OW34192   0.279   3.333   4.581  0.0873  0.8348  0.2493
 7519SOL    HW134193   0.230   3.251   4.583  0.0017  0.9044  0.8441
 7519SOL    HW234194   0.363   3.300   4.549 -0.4807  0.2613 -0.6646
 7520SOL     OW34195   3.075   4.237   3.707  0.2505  0.4435  0.1451
 7520SOL    HW134196   3.054   4.286   3.628  1.6366  1.2472  0.2637
 7520SOL    HW234197   3.084   4.154   3.661 -1.3517 -0.0877  0.8328
 7521SOL     OW34198   3.997   0.030   7.303 -0.3689 -0.1277  0.0438
 7521SOL    HW134199   4.052   0.090   7.252  1.2138 -0.8884  0.8585
 7521SOL    HW234200   3.932   0.095   7.329 -0.1002  0.0708  0.2139
 7522SOL     OW34201   0.691   0.204   8.214 -0.5417 -0.1564 -0.4755
 7522SOL    HW134202   0.663   0.284   8.170 -2.2566  0.0892  1.0714
 7522SOL    HW234203   0.723   0.240   8.297  0.3047  1.6771 -1.6011
 7523SOL     OW34204   1.640   4.510   8.282 -0.4918 -0.2102 -0.3455
 7523SOL    HW134205   1.732   4.485   8.291 -0.6513 -0.7160 -0.1057
 7523SOL    HW234206   1.603   4.448   8.346 -1.9028  0.1324 -0.8298
 7524SOL     OW34207   1.499   0.157   7.935  0.5785 -0.2157 -0.1215
 7524SOL    HW134208   1.474   0.129   7.847  0.0084 -0.4485  0.1133
 7524SOL    HW234209   1.555   0.232   7.913  0.4068  0.5108  1.9660
 7525SOL     OW34210   4.668   1.136   2.193 -0.1794  0.3333 -0.0697
 7525SOL    HW134211   4.668   1.230   2.176  2.1586  0.5889  1.3892
 7525SOL    HW234212   4.731   1.135   2.265  0.8768 -1.3833 -1.0186
 7526SOL     OW34213   3.721   3.820   4.756 -0.1529  0.2946 -0.5110
 7526SOL    HW134214   3.713   3.909   4.722 -1.3161  0.5501  0.4417
 7526SOL    HW234215   3.736   3.836   4.849 -0.1689  2.4107 -0.8686
 7527SOL     OW34216   2.739   1.261   3.050 -0.5296  0.0485  0.1620
 7527SOL    HW134217   2.715   1.173   3.080 -1.3078  0.3218  0.3547
 7527SOL    HW234218   2.667   1.269   2.986 -0.5252 -2.8507 -0.2036
 7528SOL     OW34219   0.670   3.258   6.365  0.0344 -0.0654 -0.2287
 7528SOL    HW134220   0.723   3.206   6.305  1.3546  0.3527  0.5633
 7528SOL    HW234221   0.638   3.193   6.427 -0.0794  0.1032 -0.1095
 7529SOL     OW34222   1.043   2.026  14.926 -0.2248  0.3076  0.0271
 7529SOL    HW134223   0.993   1.944  14.925  0.8145 -0.3118 -0.7478
 7529SOL    HW234224   1.123   2.007  14.878 -1.1323  0.4549 -1.5213
 7530SOL     OW34225   0.771   1.536   8.901  0.6499 -0.3624  0.4883
 7530SOL    HW134226   0.710   1.496   8.964 -1.0225 -0.3360 -1.1018
 7530SOL    HW234227   0.848   1.479   8.901 -0.6583 -2.1495 -0.4836
 7531SOL     OW34228   4.065   3.806   5.442 -0.1429 -0.3271 -0.2952
 7531SOL    HW134229   4.106   3.860   5.509 -0.4454 -0.1032 -0.2867
 7531SOL    HW234230   3.996   3.768   5.496 -0.2571 -2.0443 -1.6179
 7532SOL     OW34231   1.484   0.459  17.085 -0.1814  0.1416  0.3037
 7532SOL    HW134232   1.482   0.368  17.054  0.9064  0.2304 -0.0320
 7532SOL    HW234233   1.515   0.517  17.016 -1.0791 -1.5743 -1.5403
 7533SOL     OW34234   3.383   2.439   4.029  0.4172 -0.8619  0.1884
 7533SOL    HW134235   3.428   2.359   4.003  0.2446  0.1901 -3.2919
 7533SOL    HW234236   3.458   2.484   4.068  2.0086 -1.4409 -2.2207
 7534SOL     OW34237   3.795   1.071  11.511  0.7162 -0.1795 -0.0428
 7534SOL    HW134238   3.818   0.988  11.469  2.7188  1.0501 -1.3896
 7534SOL    HW234239   3.709   1.074  11.470  0.8778  1.3269 -0.2667
 7535SOL     OW34240   3.216   0.791   9.867 -0.1004 -0.2193 -0.2094
 7535SOL    HW134241   3.160   0.788   9.790  0.4863  1.0183 -0.6898
 7535SOL    HW234242   3.162   0.823   9.939 -0.8755 -0.6084 -0.6195
 7536SOL     OW34243   2.500   1.050  17.237  0.3262  0.3675  0.5108
 7536SOL    HW134244   2.572   1.049  17.174 -1.3430 -2.0928 -1.3378
 7536SOL    HW234245   2.521   1.123  17.296 -0.4966  0.4078  0.7575
 7537SOL     OW34246   2.040   2.871   6.182  0.3284  0.2474  0.0961
 7537SOL    HW134247   1.988   2.792   6.168 -1.6795  1.6372 -0.4351
 7537SOL    HW234248   1.962   2.924   6.198  0.8243  1.0081  0.0000
 7538SOL     OW34249   0.848   4.115   0.958 -0.9935 -0.8559  0.2714
 7538SOL    HW134250   0.797   4.042   0.923 -2.4083  0.2659  0.0391
 7538SOL    HW234251   0.887   4.082   1.039  2.5743  0.3333 -0.9416
 7539SOL     OW34252   4.275   0.557   6.648 -0.4670  0.5118  0.1052
 7539SOL    HW134253   4.267   0.629   6.585 -2.8509 -1.6420 -2.0668
 7539SOL    HW234254   4.294   0.483   6.590  0.8301  1.1123 -0.2429
 7540SOL     OW34255   3.852   2.933  13.406  0.4930 -0.6204  0.0241
 7540SOL    HW134256   3.758   2.942  13.425  0.6926  0.3989  0.5259
 7540SOL    HW234257   3.884   2.950  13.494 -0.3896  1.3274 -0.0326
 7541SOL     OW34258   0.840   2.881   9.333 -0.0495 -0.1350 -0.1981
 7541SOL    HW134259   0.745   2.881   9.341 -0.0454 -1.2995 -0.1825
 7541SOL    HW234260   0.863   2.911   9.421  0.3882 -0.9471 -0.0411
 7542SOL     OW34261   4.678   2.252  17.071 -0.0314  0.3381 -0.4379
 7542SOL    HW134262   4.609   2.195  17.037 -1.4385  0.9349  1.4516
 7542SOL    HW234263   4.706   2.283  16.984 -2.2977  0.4658 -1.1323
 7543SOL     OW34264   2.150   3.922   3.814  0.6486  0.0533 -0.5348
 7543SOL    HW134265   2.242   3.946   3.804  0.6580  0.2839  0.1358
 7543SOL    HW234266   2.147   3.874   3.897 -0.9016  0.6985 -0.2175
 7544SOL     OW34267   0.357   3.791   5.570  0.0085  0.0190  0.7438
 7544SOL    HW134268   0.278   3.795   5.624 -0.9264 -1.0188 -0.5481
 7544SOL    HW234269   0.388   3.702   5.582  1.2783  0.4218  0.4306
 7545SOL     OW34270   1.924   2.028  10.866  0.6953 -0.3462  0.6610
 7545SOL    HW134271   1.851   2.084  10.894  1.4629  0.5377  0.9174
 7545SOL    HW234272   1.993   2.054  10.927 -2.8896 -0.0879  4.6126
 7546SOL     OW34273   3.136   0.781  15.659 -0.7615  0.4490 -0.4535
 7546SOL    HW134274   3.225   0.810  15.682 -1.3766 -0.3442  2.9321
 7546SOL    HW234275   3.152   0.688  15.675 -0.0632  0.7048  0.3804
 7547SOL     OW34276   3.438   1.543   9.600  0.0033  0.0984 -0.2317
 7547SOL    HW134277   3.471   1.483   9.533  0.5594 -1.9297  1.8281
 7547SOL    HW234278   3.445   1.625   9.551  0.6001  1.5597  2.2723
 7548SOL     OW34279   3.124   4.664   2.342  0.1796 -0.1095 -0.0999
 7548SOL    HW134280   3.174   4.689   2.419  0.5066  0.4916 -0.5046
 7548SOL    HW234281   3.061   4.736   2.351 -2.3730 -2.5350  1.3391
 7549SOL     OW34282   0.482   2.031   6.641  0.0415  0.2114 -0.1429
 7549SOL    HW134283   0.388   2.047   6.633 -0.3562 -1.6603  0.7172
 7549SOL    HW234284   0.513   2.088   6.571 -0.6011  0.8843  0.1255
 7550SOL     OW34285   3.925   4.282   5.391  0.5228  0.8576  0.3070
 7550SOL    HW134286   3.912   4.234   5.472  1.9663  1.0071  0.6138
 7550SOL    HW234287   3.887   4.362   5.427 -1.6965 -0.8964  1.9031
 7551SOL     OW34288   4.666   0.376   3.582  0.0025 -0.3507 -0.1905
 7551SOL    HW134289   4.596   0.356   3.521 -0.6945  2.0484 -0.2012
 7551SOL    HW234290   4.643   0.322   3.657 -0.9453  0.8429  0.3828
 7552SOL     OW34291   4.345   3.686   5.115 -0.3927  0.1385 -0.3035
 7552SOL    HW134292   4.252   3.670   5.129 -0.3970 -0.7721 -1.3001
 7552SOL    HW234293   4.363   3.774   5.146 -1.7879  0.2641  0.1418
 7553SOL     OW34294   0.273   0.108  16.332  0.1417  0.0664  0.1692
 7553SOL    HW134295   0.222   0.065  16.263 -0.7395 -0.4438  1.1365
 7553SOL    HW234296   0.276   0.193  16.288  1.4414  0.8434  1.7931
 7554SOL     OW34297   2.059   4.575   5.167 -0.5338  0.3209  0.1200
 7554SOL    HW134298   2.061   4.531   5.082  0.7757  3.2982 -1.4038
 7554SOL    HW234299   2.140   4.538   5.201 -1.1847 -1.4765 -0.2957
 7555SOL     OW34300   3.093   0.194   3.150  0.4057 -0.6747  0.1633
 7555SOL    HW134301   3.044   0.257   3.098  1.4456  1.4778  1.7810
 7555SOL    HW234302   3.027   0.182   3.218  0.7760  0.8637  0.7918
 7556SOL     OW34303   2.409   0.499   3.905 -0.2654 -1.2365  0.3919
 7556SOL    HW134304   2.492   0.515   3.950 -0.7419  0.7826  0.5804
 7556SOL    HW234305   2.380   0.426   3.959 -0.6714  0.3474  2.3016
 7557SOL     OW34306   1.609   3.418  16.604 -1.0160  0.2897  0.1482
 7557SOL    HW134307   1.584   3.460  16.522  0.1941  0.3095 -0.2127
 7557SOL    HW234308   1.574   3.481  16.667  2.2211  0.2152  1.9953
 7558SOL     OW34309   1.220   2.590   0.018 -0.0129  0.0186  0.4533
 7558SOL    HW134310   1.314   2.587   0.035  0.2379  1.1243 -0.7714
 7558SOL    HW234311   1.194   2.547   0.100  1.2685 -0.3491  0.6635
 7559SOL     OW34312   2.394   1.535   7.833  0.2181 -0.6864  0.4458
 7559SOL    HW134313   2.361   1.611   7.784  0.9541 -1.2781 -0.9602
 7559SOL    HW234314   2.331   1.467   7.808 -1.7369  1.3990 -0.2798
 7560SOL     OW34315   3.508   1.935   1.421 -0.1082 -0.6777  0.5731
 7560SOL    HW134316   3.576   1.947   1.487 -0.1190 -0.3254  0.5213
 7560SOL    HW234317   3.495   1.840   1.427 -0.6147 -0.5290  1.7505
 7561SOL     OW34318   1.719   1.911   8.972 -0.0010 -0.2550  0.4945
 7561SOL    HW134319   1.718   1.834   9.029  0.4336  1.6992  3.1126
 7561SOL    HW234320   1.755   1.879   8.889  0.7582 -2.0328  1.4949
 7562SOL     OW34321   4.257   3.856   2.072  0.0953  0.4796 -0.6470
 7562SOL    HW134322   4.325   3.792   2.049 -1.4981 -0.3603 -3.0322
 7562SOL    HW234323   4.205   3.861   1.992 -1.5616 -1.3882  0.3299
 7563SOL     OW34324   3.509   0.859   8.920  0.1622 -0.4245 -0.1955
 7563SOL    HW134325   3.470   0.810   8.992  0.4289 -0.1717  0.1188
 7563SOL    HW234326   3.571   0.919   8.960  0.8405 -1.3361  0.1252
 7564SOL     OW34327   1.118   3.870  17.546 -0.1943  0.6351  0.5024
 7564SOL    HW134328   1.188   3.814  17.513 -2.2985 -1.0529 -1.1481
 7564SOL    HW234329   1.042   3.815  17.524  2.0930 -2.3879  0.1134
 7565SOL     OW34330   4.379   1.469   9.738 -0.1937  0.3085 -0.3196
 7565SOL    HW134331   4.351   1.490   9.649 -2.3790  1.8438  0.7481
 7565SOL    HW234332   4.466   1.510   9.741 -0.7372  1.4329 -0.0035
 7566SOL     OW34333   4.127   2.334   4.301  0.4899 -0.4643  0.2658
 7566SOL    HW134334   4.144   2.427   4.286  2.0140 -0.5321  1.5022
 7566SOL    HW234335   4.099   2.345   4.392  3.1785  0.1261  1.0276
 7567SOL     OW34336   2.936   1.084   6.795  0.0114  0.2863  0.0735
 7567SOL    HW134337   2.996   1.157   6.812  0.2924 -0.1700  1.0778
 7567SOL    HW234338   2.867   1.148   6.781 -1.1936 -1.0802 -0.2524
 7568SOL     OW34339   1.484   0.720  14.226 -0.1101 -0.8496  0.1033
 7568SOL    HW134340   1.492   0.787  14.158  0.8626  0.6200  1.6561
 7568SOL    HW234341   1.566   0.672  14.223  0.8619  0.8585 -0.5572
 7569SOL     OW34342   3.340   0.566  16.658  0.1079  0.3325  0.2658
 7569SOL    HW134343   3.417   0.559  16.601  0.4801  0.1182  0.7905
 7569SOL    HW234344   3.278   0.565  16.586 -0.7941  0.1581  1.0482
 7570SOL     OW34345   0.920   2.081  10.800 -0.1969 -0.1746 -0.4962
 7570SOL    HW134346   0.951   2.087  10.890 -2.3581  0.1540  0.2150
 7570SOL    HW234347   0.827   2.059  10.807 -0.1487 -0.4478 -0.6797
 7571SOL     OW34348   3.905   0.907   6.679 -0.2244 -0.2844 -0.4595
 7571SOL    HW134349   3.855   0.825   6.684 -1.1970  0.2312 -1.4387
 7571SOL    HW234350   3.858   0.952   6.608  0.2159  1.4137  0.3208
 7572SOL     OW34351   1.602   4.458   7.835  0.0732  0.1945 -0.0378
 7572SOL    HW134352   1.534   4.470   7.768  0.2104 -0.6141 -0.3264
 7572SOL    HW234353   1.557   4.487   7.914 -0.5768  1.3390 -0.8095
 7573SOL     OW34354   4.614   1.583   6.557 -0.4361 -0.2746  0.0639
 7573SOL    HW134355   4.574   1.610   6.475 -2.4538  3.8580  2.4347
 7573SOL    HW234356   4.551   1.515   6.581 -0.4545  0.0328  0.8947
 7574SOL     OW34357   1.954   0.229  14.988 -0.5098 -0.0753  0.3126
 7574SOL    HW134358   1.867   0.221  14.950 -0.6691 -0.5454  0.7707
 7574SOL    HW234359   1.936   0.197  15.077  0.0610  0.9774  0.8052
 7575SOL     OW34360   3.180   3.292  11.158 -0.0049 -0.4459 -0.3991
 7575SOL    HW134361   3.193   3.369  11.103 -1.3029 -0.5081 -0.8015
 7575SOL    HW234362   3.219   3.321  11.240 -1.2262 -1.2141  0.4553
 7576SOL     OW34363   0.414   4.448  15.982 -0.1627 -0.0710  0.4497
 7576SOL    HW134364   0.321   4.446  15.958 -0.0489 -0.7395  0.0782
 7576SOL    HW234365   0.397   4.394  16.059 -0.1070 -0.7529 -0.0205
 7577SOL     OW34366   0.292   4.199  16.642 -0.1845 -0.4133 -0.0156
 7577SOL    HW134367   0.317   4.246  16.562  2.1907 -0.6312  0.6083
 7577SOL    HW234368   0.264   4.268  16.701 -1.9202 -1.1538  0.0372
 7578SOL     OW34369   4.576   0.689   7.408 -0.2584  0.2141  0.3315
 7578SOL    HW134370   4.635   0.747   7.359  0.2513 -0.8955 -0.3572
 7578SOL    HW234371   4.574   0.607   7.360  2.3557 -0.0265  0.6446
 7579SOL     OW34372   4.217   1.590  10.534 -0.1144 -0.0320 -0.3878
 7579SOL    HW134373   4.312   1.590  10.521 -0.0956 -1.2047 -0.3112
 7579SOL    HW234374   4.208   1.579  10.628  2.2680 -2.4698 -0.4150
 7580SOL     OW34375   0.378   2.118  11.819 -0.2867 -0.2071 -0.1281
 7580SOL    HW134376   0.461   2.107  11.864 -0.2032  1.0406  0.0402
 7580SOL    HW234377   0.327   2.164  11.885  1.4497  0.4324  0.7600
 7581SOL     OW34378   3.759   0.360   2.643  0.6112 -0.0443  0.3809
 7581SOL    HW134379   3.747   0.419   2.569  2.2863  0.6937  0.7029
 7581SOL    HW234380   3.666   0.343   2.658  0.4010  1.6338  0.9917
 7582SOL     OW34381   0.504   0.030   8.387 -0.1372  0.6719  0.0744
 7582SOL    HW134382   0.453   4.704   8.339  0.9224 -0.5602  0.5837
 7582SOL    HW234383   0.582   0.043   8.332  0.2103 -0.1134  0.3773
 7583SOL     OW34384   4.002   2.709   9.677 -0.4562 -0.3998  0.0902
 7583SOL    HW134385   3.973   2.771   9.610 -0.4066  0.1347  0.5740
 7583SOL    HW234386   3.934   2.720   9.743 -0.5411 -1.8602  0.2582
 7584SOL     OW34387   3.571   3.767  15.437  0.0259 -0.6617  0.3434
 7584SOL    HW134388   3.544   3.680  15.405 -2.1341 -0.1966  0.8798
 7584SOL    HW234389   3.569   3.821  15.358 -0.3963  0.3439  1.0496
 7585SOL     OW34390   2.821   0.535  14.155 -0.2560 -0.0730 -0.4048
 7585SOL    HW134391   2.871   0.487  14.089  0.5572 -1.1652  0.9953
 7585SOL    HW234392   2.884   0.597  14.191 -1.0045 -0.1023  0.9339
 7586SOL     OW34393   1.596   3.569   7.910 -0.2136 -0.9310 -0.2468
 7586SOL    HW134394   1.645   3.491   7.887  1.1271 -0.0414 -0.4300
 7586SOL    HW234395   1.587   3.621   7.830 -1.1688 -0.5854  0.0861
 7587SOL     OW34396   1.385   1.101   6.174 -0.0993  0.1552 -0.5955
 7587SOL    HW134397   1.462   1.047   6.158  0.3553  0.7822 -0.5129
 7587SOL    HW234398   1.322   1.041   6.135 -2.2731  1.7409  0.4770
 7588SOL     OW34399   4.107   1.621   7.778 -0.0091  0.0277 -0.1303
 7588SOL    HW134400   4.114   1.589   7.868  0.8854  0.1409 -0.1628
 7588SOL    HW234401   4.012   1.621   7.765 -0.4552  0.4900  3.2061
 7589SOL     OW34402   3.803   3.454   8.350 -0.6690  0.0993  0.3797
 7589SOL    HW134403   3.798   3.362   8.324  1.9349  0.3370 -0.9949
 7589SOL    HW234404   3.714   3.476   8.323  0.1597  2.0622 -0.7498
 7590SOL     OW34405   1.083   1.472   8.362  0.3275  0.1140 -0.6339
 7590SOL    HW134406   1.096   1.379   8.376  0.6699  0.2292 -0.1866
 7590SOL    HW234407   1.167   1.513   8.384  0.6123 -2.4664  3.0979
 7591SOL     OW34408   0.781   3.788   6.722 -0.0500 -0.2829 -0.2849
 7591SOL    HW134409   0.705   3.737   6.749 -0.9220  0.2111 -1.8354
 7591SOL    HW234410   0.847   3.719   6.713  1.6232  0.8981  2.6041
 7592SOL     OW34411   0.465   4.235  14.264 -0.6738  0.5263 -0.0930
 7592SOL    HW134412   0.446   4.249  14.172  1.7150 -1.6593 -0.9135
 7592SOL    HW234413   0.377   4.217  14.298  0.4818 -1.9142  1.5515
 7593SOL     OW34414   3.386   0.344  15.042  0.1801 -0.2544  0.0533
 7593SOL    HW134415   3.306   0.395  15.030 -0.4442 -0.8918  1.5165
 7593SOL    HW234416   3.413   0.322  14.954  0.8769  3.6777 -0.7314
 7594SOL     OW34417   4.696   1.336  16.107 -0.0706 -0.1629  0.2526
 7594SOL    HW134418   4.737   1.400  16.049  0.3054 -0.6462 -0.0120
 7594SOL    HW234419   4.612   1.327  16.062  1.3115 -0.6454 -2.1801
 7595SOL     OW34420   1.072   0.668  11.118  0.6908 -0.1141  0.2700
 7595SOL    HW134421   1.003   0.689  11.056 -0.2408 -1.9601  0.6722
 7595SOL    HW234422   1.124   0.606  11.067 -0.6181 -0.7836 -0.2584
 7596SOL     OW34423   1.496   1.343  14.500  0.7840  0.1957 -0.3070
 7596SOL    HW134424   1.477   1.252  14.525 -1.6206  1.1136  1.2123
 7596SOL    HW234425   1.427   1.353  14.435 -1.7214  1.0737  2.5190
 7597SOL     OW34426   4.683   2.289  11.638  0.2930  0.2260  0.2577
 7597SOL    HW134427   4.597   2.268  11.601 -0.8474  0.9827  2.4555
 7597SOL    HW234428   4.670   2.255  11.727  1.7900  1.4966  0.9539
 7598SOL     OW34429   0.354   0.587   5.242 -0.0172  0.1502  0.0529
 7598SOL    HW134430   0.335   0.680   5.229  0.2300  0.5331  2.3249
 7598SOL    HW234431   0.308   0.573   5.325  0.0222  1.3865  0.2912
 7599SOL     OW34432   1.871   3.048  12.156 -0.5921  0.7664 -0.3351
 7599SOL    HW134433   1.818   3.057  12.235  1.1805  0.8489  0.8488
 7599SOL    HW234434   1.959   3.042  12.195  0.2335 -0.7630 -2.4164
 7600SOL     OW34435   2.506   3.720   5.913  0.4957  0.1328  0.0499
 7600SOL    HW134436   2.433   3.660   5.928  0.3633  0.1681 -0.4398
 7600SOL    HW234437   2.560   3.697   5.988 -0.4551  1.1321  1.0411
 7601SOL     OW34438   4.130   2.143   4.942  0.1206 -0.2390  0.6902
 7601SOL    HW134439   4.070   2.146   5.016  0.9671  2.9481  1.2587
 7601SOL    HW234440   4.218   2.130   4.976  0.7444  2.4778  0.1627
 7602SOL     OW34441   1.201   4.637   0.489 -0.1772 -0.3575 -0.5732
 7602SOL    HW134442   1.223   4.546   0.471  0.3909 -0.6816  1.7980
 7602SOL    HW234443   1.149   4.629   0.569 -2.1983 -0.0967 -1.8722
 7603SOL     OW34444   0.670   0.653  13.977 -0.0326  0.4283 -0.3122
 7603SOL    HW134445   0.617   0.719  14.021 -2.0702 -0.8881 -0.7513
 7603SOL    HW234446   0.750   0.675  14.024 -0.8230  0.8178  0.8425
 7604SOL     OW34447   3.214   4.517  14.917 -0.5542  0.3358  0.5132
 7604SOL    HW134448   3.158   4.512  14.840  1.2309 -1.2735 -0.6758
 7604SOL    HW234449   3.168   4.465  14.983 -0.3028 -0.3096  0.1870
 7605SOL     OW34450   2.647   1.378   3.818 -0.2929  0.2708  0.0879
 7605SOL    HW134451   2.651   1.472   3.801 -2.7405  0.5703  1.2700
 7605SOL    HW234452   2.620   1.368   3.909  2.1532 -0.3339  0.7429
 7606SOL     OW34453   3.969   4.692   9.638  0.6034  0.3926 -0.6014
 7606SOL    HW134454   3.917   4.686   9.718  0.6832  0.4545 -0.5447
 7606SOL    HW234455   4.049   4.731   9.672  0.6141  0.0289 -0.2187
 7607SOL     OW34456   4.339   4.235   7.563  0.1926 -0.4472 -0.1653
 7607SOL    HW134457   4.388   4.301   7.612 -0.0280  0.8114 -1.6538
 7607SOL    HW234458   4.318   4.291   7.488  0.4643 -2.2596 -1.5895
 7608SOL     OW34459   4.499   1.714   7.217 -0.4886  0.3880 -0.1319
 7608SOL    HW134460   4.459   1.767   7.148  1.3593  1.7171 -0.1716
 7608SOL    HW234461   4.429   1.650   7.230 -1.0654  0.7077 -1.5694
 7609SOL     OW34462   1.126   1.160   0.070 -0.0604 -0.0524 -0.5742
 7609SOL    HW134463   1.167   1.149  17.738  2.4409  0.6086  0.5430
 7609SOL    HW234464   1.034   1.142   0.051  0.1235 -2.3875  0.7295
 7610SOL     OW34465   2.894   4.473  17.572 -0.0052 -0.0899 -0.1237
 7610SOL    HW134466   2.952   4.407  17.609  1.7092  1.0032 -0.8911
 7610SOL    HW234467   2.962   4.535  17.546  0.7024 -1.1762 -0.8397
 7611SOL     OW34468   1.770   3.687   9.253 -0.7462  0.0213 -0.6290
 7611SOL    HW134469   1.719   3.768   9.247  0.6241  0.6531 -3.6470
 7611SOL    HW234470   1.707   3.622   9.221  1.4840 -2.3224 -0.1681
 7612SOL     OW34471   2.487   1.838  12.809 -0.6916 -0.4740 -0.6277
 7612SOL    HW134472   2.496   1.862  12.901  0.8314 -1.0417 -0.6424
 7612SOL    HW234473   2.558   1.893  12.774 -0.1402 -0.3286  0.7378
 7613SOL     OW34474   2.874   0.963  14.570  0.1612 -0.1365  1.1882
 7613SOL    HW134475   2.952   0.933  14.523 -1.2601  0.3559 -1.5306
 7613SOL    HW234476   2.868   0.907  14.647  0.4368 -0.5398  0.9174
 7614SOL     OW34477   1.716   4.116   8.331 -0.3322 -0.1627  0.5235
 7614SOL    HW134478   1.777   4.052   8.295 -1.3731 -1.8413  1.7687
 7614SOL    HW234479   1.664   4.126   8.251 -0.0872 -2.1261  0.1291
 7615SOL     OW34480   4.595   2.874  16.767 -0.1241  0.3042 -0.1049
 7615SOL    HW134481   4.514   2.898  16.812 -0.2114  1.4921 -0.8803
 7615SOL    HW234482   4.595   2.951  16.710 -1.1548  0.1805 -0.2779
 7616SOL     OW34483   1.688   1.563   6.743  0.2044  0.0241  0.3411
 7616SOL    HW134484   1.686   1.516   6.826  1.1813 -1.3646 -0.4158
 7616SOL    HW234485   1.707   1.491   6.682  0.7784 -0.3888  1.0162
 7617SOL     OW34486   4.374   1.408   5.055  0.3692 -0.1084  0.3430
 7617SOL    HW134487   4.460   1.371   5.032 -0.7384 -2.0150 -0.6772
 7617SOL    HW234488   4.356   1.465   4.980 -0.4126  0.1407  0.7237
 7618SOL     OW34489   4.366   3.741   3.438  0.1388  0.1188 -0.1287
 7618SOL    HW134490   4.332   3.804   3.374 -1.3821  0.0693  0.6212
 7618SOL    HW234491   4.460   3.753   3.447 -0.1846  0.6044  2.5767
 7619SOL     OW34492   4.099   0.087  14.191  0.0728 -0.0109  0.3924
 7619SOL    HW134493   4.106   0.158  14.255 -1.7034 -0.3483  0.9692
 7619SOL    HW234494   4.004   0.076  14.200 -0.0651  1.4654  0.7271
 7620SOL     OW34495   1.032   1.525   8.672 -0.2892 -0.1301  0.0703
 7620SOL    HW134496   1.017   1.489   8.585  0.0144 -1.0221  0.3799
 7620SOL    HW234497   1.009   1.451   8.728 -2.0655 -0.7249 -1.4727
 7621SOL     OW34498   4.320   3.639   2.959 -0.4692  0.6584 -0.0274
 7621SOL    HW134499   4.334   3.724   3.000 -2.3564  1.0183 -0.1136
 7621SOL    HW234500   4.352   3.583   3.029 -0.3298  0.9006  0.1022
 7622SOL     OW34501   0.769   0.235   9.595 -0.5724  0.1314 -0.0341
 7622SOL    HW134502   0.713   0.307   9.623  1.2748  1.3729  0.4510
 7622SOL    HW234503   0.717   0.182   9.534 -2.4722  1.4630  0.4204
 7623SOL     OW34504   0.044   3.780   4.709 -0.2467  0.5788 -0.3084
 7623SOL    HW134505   0.115   3.797   4.772 -2.0374  2.1850  1.2825
 7623SOL    HW234506   4.717   3.739   4.765  0.6473 -0.4918 -0.0351
 7624SOL     OW34507   2.208   0.064  10.665  0.2190 -0.5090 -0.1642
 7624SOL    HW134508   2.233   0.108  10.584  1.5441 -0.4309  0.2726
 7624SOL    HW234509   2.284   0.006  10.674 -0.7990 -1.9500 -0.9725
 7625SOL     OW34510   0.843   3.010  17.534 -0.3932 -0.3801 -0.5050
 7625SOL    HW134511   0.772   2.949  17.553  0.6346 -1.3783  0.0758
 7625SOL    HW234512   0.808   3.098  17.520  1.1155  0.0079 -1.8894
 7626SOL     OW34513   3.608   0.973   1.612 -0.4041 -0.3290 -0.1464
 7626SOL    HW134514   3.587   1.019   1.531 -1.2617  0.8082  0.7078
 7626SOL    HW234515   3.524   0.934   1.635 -0.9541  0.3153 -1.0792
 7627SOL     OW34516   3.351   0.360  17.459 -0.1849 -0.6558  0.1411
 7627SOL    HW134517   3.387   0.449  17.456  1.6442 -1.4421 -1.2273
 7627SOL    HW234518   3.282   0.371  17.525 -1.0331 -3.4689 -0.2968
 7628SOL     OW34519   4.093   2.415  12.554 -0.2417  0.3428  0.3824
 7628SOL    HW134520   4.150   2.447  12.484  1.2317 -2.4907  0.2824
 7628SOL    HW234521   4.022   2.479  12.550 -1.5226 -1.0591  0.9067
 7629SOL     OW34522   2.962   0.417  12.277  0.0215  0.1343 -0.0932
 7629SOL    HW134523   2.879   0.377  12.252  0.3463 -0.7489  0.2382
 7629SOL    HW234524   3.015   0.382  12.205  0.5551  1.5282 -0.3762
 7630SOL     OW34525   1.476   3.948   2.095 -0.5872  0.2448  0.1871
 7630SOL    HW134526   1.401   3.930   2.038  0.3632 -0.2942 -0.8914
 7630SOL    HW234527   1.449   4.025   2.146 -1.5437 -1.3542  2.0764
 7631SOL     OW34528   2.973   2.326   1.028  0.4820  0.5170  0.4616
 7631SOL    HW134529   2.919   2.247   1.014  2.4324 -0.8290  0.5311
 7631SOL    HW234530   2.940   2.336   1.118 -1.2952 -2.6915  0.1821
 7632SOL     OW34531   4.485   0.459   5.016 -0.0006  0.2736 -0.4453
 7632SOL    HW134532   4.575   0.477   4.987  0.4029 -0.8439  0.0903
 7632SOL    HW234533   4.484   0.371   4.977  0.6395 -0.3160  0.8723
 7633SOL     OW34534   3.709   0.600   4.269 -0.0546 -0.0011  0.0380
 7633SOL    HW134535   3.761   0.632   4.195  0.0576  0.3257  0.2594
 7633SOL    HW234536   3.668   0.524   4.226 -0.5916  0.4645 -0.2739
 7634SOL     OW34537   4.700   1.955   3.816 -0.7900 -0.4412  0.1820
 7634SOL    HW134538   0.023   1.917   3.877 -1.0230  0.6856  1.1178
 7634SOL    HW234539   4.621   1.959   3.869 -1.0518  1.7509 -0.3461
 7635SOL     OW34540   1.764   0.955   2.574  0.4524 -0.0284 -0.1808
 7635SOL    HW134541   1.828   0.939   2.643 -0.3688  2.0128  1.0558
 7635SOL    HW234542   1.697   0.888   2.592 -0.5887  0.6922 -1.3991
 7636SOL     OW34543   0.553   3.113   4.156 -0.7514 -0.0147  0.2409
 7636SOL    HW134544   0.611   3.176   4.198  3.2944 -2.5924 -1.4092
 7636SOL    HW234545   0.522   3.065   4.233 -1.7396  0.0470 -0.1155
 7637SOL     OW34546   4.004   1.803   7.043  0.2580  0.5856 -0.3684
 7637SOL    HW134547   4.038   1.740   6.979  1.8505  1.5496 -0.4573
 7637SOL    HW234548   3.975   1.738   7.108 -0.8046  2.2016  0.7605
 7638SOL     OW34549   4.115   1.537   5.213  0.1648 -0.1865  0.0893
 7638SOL    HW134550   4.149   1.494   5.135  1.3961  0.7879  0.0785
 7638SOL    HW234551   4.076   1.461   5.256  0.0661 -0.4354 -0.4450
 7639SOL     OW34552   3.978   2.181   6.137 -0.5294 -0.1356  0.2857
 7639SOL    HW134553   3.937   2.233   6.206  1.7318  2.0453 -0.0160
 7639SOL    HW234554   3.974   2.093   6.175 -2.1052  0.7599  2.1893
 7640SOL     OW34555   3.235   3.317   5.273 -0.6739  0.5667 -0.2239
 7640SOL    HW134556   3.268   3.230   5.253  0.2156  0.6949  0.6992
 7640SOL    HW234557   3.315   3.368   5.259 -0.0498  0.1944  1.9627
 7641SOL     OW34558   4.410   3.973   4.550  0.5876 -0.6888  0.4399
 7641SOL    HW134559   4.315   3.981   4.546  0.6870  0.0110 -0.5740
 7641SOL    HW234560   4.419   3.926   4.633  2.8081 -0.7089  0.1798
 7642SOL     OW34561   0.356   1.530   2.019  0.3000  0.2709 -0.2463
 7642SOL    HW134562   0.327   1.592   2.085 -0.1032  0.1992 -0.3586
 7642SOL    HW234563   0.312   1.450   2.047 -1.1030  1.6436  1.4456
 7643SOL     OW34564   2.131   0.683   3.295 -0.2579 -0.0080 -0.5721
 7643SOL    HW134565   2.104   0.730   3.374 -3.0795 -2.2999 -0.1624
 7643SOL    HW234566   2.181   0.607   3.327 -0.6588  0.4743  1.2150
 7644SOL     OW34567   2.046   1.327   3.329 -0.1139 -0.0254  0.0640
 7644SOL    HW134568   1.964   1.377   3.330  0.3341  0.7660 -2.1694
 7644SOL    HW234569   2.051   1.313   3.424 -1.1448 -0.7626  0.0151
 7645SOL     OW34570   4.051   0.436  12.733  0.0008 -0.1201  0.2055
 7645SOL    HW134571   3.959   0.410  12.727 -0.2483  0.8388 -0.1513
 7645SOL    HW234572   4.041   0.490  12.811  0.5883 -1.2957  1.0969
 7646SOL     OW34573   0.768   2.304   0.546 -0.3656 -0.1171 -0.0113
 7646SOL    HW134574   0.768   2.392   0.509 -0.5828  0.0165  0.3109
 7646SOL    HW234575   0.836   2.253   0.502 -0.5177  0.4341 -0.8677
 7647SOL     OW34576   2.612   4.084   7.643  0.2673  0.2983 -0.5393
 7647SOL    HW134577   2.662   4.076   7.562  0.3341 -1.3837 -0.3433
 7647SOL    HW234578   2.681   4.117   7.702  0.8925  0.1746 -1.1989
 7648SOL     OW34579   1.249   0.436  10.450 -0.0381  0.1302 -0.3180
 7648SOL    HW134580   1.228   0.343  10.461 -0.0462  0.1469 -0.1898
 7648SOL    HW234581   1.256   0.442  10.355 -2.4329 -0.3923 -0.5243
 7649SOL     OW34582   1.775   3.986   2.363 -0.0488 -0.1676 -0.4692
 7649SOL    HW134583   1.746   4.033   2.285 -0.2902 -1.0576 -0.9199
 7649SOL    HW234584   1.729   4.029   2.434  0.4378  0.3638 -0.4804
 7650SOL     OW34585   3.433   2.102   8.046 -0.0383  0.2001  0.3432
 7650SOL    HW134586   3.461   2.154   7.971  1.8024  0.4607  1.1985
 7650SOL    HW234587   3.360   2.055   8.006 -1.0654  0.7931  1.5520
 7651SOL     OW34588   0.174   4.630   5.495 -0.3554 -0.2425 -0.2888
 7651SOL    HW134589   0.145   4.562   5.434  0.9448 -0.9083 -0.1497
 7651SOL    HW234590   0.265   4.650   5.475 -0.8205  1.0771 -1.1236
 7652SOL     OW34591   3.026   2.693  12.371  0.3111 -0.3509 -0.1428
 7652SOL    HW134592   3.083   2.767  12.392 -1.7207  0.7631  1.4273
 7652SOL    HW234593   2.963   2.730  12.310 -0.4374 -1.5809 -0.1289
 7653SOL     OW34594   1.595   1.903   5.015  0.2077  0.1322  0.2016
 7653SOL    HW134595   1.600   1.829   4.955  0.0618 -0.4367  0.8852
 7653SOL    HW234596   1.588   1.863   5.102  0.9703  2.0505  1.1319
 7654SOL     OW34597   0.456   2.069  14.121 -0.1781 -0.0519 -0.2721
 7654SOL    HW134598   0.466   2.030  14.208  5.0130  2.1752  0.1030
 7654SOL    HW234599   0.403   2.142  14.153  1.6290  1.6649 -1.2188
 7655SOL     OW34600   2.909   3.755   8.329  0.4381 -0.2777  0.1787
 7655SOL    HW134601   2.828   3.806   8.330  1.2144  0.9596  0.3742
 7655SOL    HW234602   2.884   3.676   8.377  1.6836 -0.0536  1.1824
 7656SOL     OW34603   2.774   4.165  10.876 -0.0687 -0.3469 -0.1466
 7656SOL    HW134604   2.809   4.201  10.795 -2.9676  0.1584 -1.1672
 7656SOL    HW234605   2.741   4.242  10.921  2.4703  0.3532  0.4982
 7657SOL     OW34606   0.556   2.058   7.042  0.1154 -0.1278  0.5232
 7657SOL    HW134607   0.534   2.149   7.021 -1.3970 -0.0374  2.5043
 7657SOL    HW234608   0.503   2.048   7.120  1.3536  0.7110  1.4740
 7658SOL     OW34609   4.354   2.260   5.548  0.0087 -0.0657  0.2102
 7658SOL    HW134610   4.403   2.178   5.556 -0.3882 -0.5252 -2.2095
 7658SOL    HW234611   4.407   2.312   5.609 -0.2693  0.7516 -0.2530
 7659SOL     OW34612   2.253   1.983   3.736  0.1503 -0.0651  0.3247
 7659SOL    HW134613   2.248   2.075   3.709  1.2561  0.1496  0.8362
 7659SOL    HW234614   2.194   1.984   3.812 -0.3726 -2.1542 -0.0630
 7660SOL     OW34615   1.278   4.214   3.851  0.2547 -0.6305  0.3783
 7660SOL    HW134616   1.351   4.274   3.841  1.2067 -1.7172  0.7215
 7660SOL    HW234617   1.279   4.163   3.770 -1.3119  1.6944 -1.0913
 7661SOL     OW34618   4.221   2.794   2.345  0.1765  0.5052 -0.3055
 7661SOL    HW134619   4.129   2.813   2.328 -0.1494 -1.3099 -0.6202
 7661SOL    HW234620   4.260   2.808   2.259 -0.3858  3.3545 -0.0846
 7662SOL     OW34621   2.479   0.866  11.090 -0.5798 -0.4657  0.4372
 7662SOL    HW134622   2.570   0.846  11.111  0.4006 -0.9184 -4.4453
 7662SOL    HW234623   2.466   0.816  11.009  1.6630 -0.1679 -0.1049
 7663SOL     OW34624   3.867   4.108   8.640 -0.3569  0.3533 -0.2839
 7663SOL    HW134625   3.820   4.085   8.721  3.5529 -0.8156  1.6665
 7663SOL    HW234626   3.885   4.201   8.637  0.6137  0.0927 -1.9433
 7664SOL     OW34627   3.233   0.004   6.304 -0.1387  0.4073  0.6991
 7664SOL    HW134628   3.159   4.723   6.362 -1.3722 -0.5586 -1.2215
 7664SOL    HW234629   3.192   0.068   6.246 -0.1351  1.9609  2.4138
 7665SOL     OW34630   0.767   2.905   8.107 -0.3656  0.0990 -0.1304
 7665SOL    HW134631   0.674   2.917   8.085 -0.1017  0.5890 -0.9965
 7665SOL    HW234632   0.788   2.991   8.144  2.9067 -1.6777  2.0787
 7666SOL     OW34633   3.583   2.014   7.082 -0.1480 -0.0355 -0.1206
 7666SOL    HW134634   3.537   2.057   7.154 -2.0283 -0.7910 -0.8639
 7666SOL    HW234635   3.669   2.048   7.105  0.2446  0.4075 -2.2739
 7667SOL     OW34636   0.113   1.262   3.053 -0.4953  0.3354  0.2062
 7667SOL    HW134637   0.204   1.291   3.061  0.2386 -1.3918 -1.6968
 7667SOL    HW234638   0.128   1.167   3.056 -0.4093  0.2974 -1.2074
 7668SOL     OW34639   2.642   3.907   4.359  0.4874 -0.0516  0.6807
 7668SOL    HW134640   2.619   3.949   4.442  1.3314  0.3120  0.7305
 7668SOL    HW234641   2.557   3.899   4.315  1.1521  0.1733 -0.6575
 7669SOL     OW34642   4.528   4.248   9.844  0.5917 -0.0684 -0.0801
 7669SOL    HW134643   4.456   4.252   9.780  0.9205  0.0716 -0.4357
 7669SOL    HW234644   4.603   4.293   9.807  0.2545  0.7419  0.2361
 7670SOL     OW34645   2.508   1.401   5.909  0.2410  0.6890  0.3176
 7670SOL    HW134646   2.559   1.322   5.928  0.1405  0.5114 -0.1686
 7670SOL    HW234647   2.478   1.435   5.993  0.2886 -2.0956  1.4639
 7671SOL     OW34648   3.144   2.292  11.572  0.4449  0.5325  0.0462
 7671SOL    HW134649   3.137   2.227  11.642 -0.4131  0.4241 -0.1411
 7671SOL    HW234650   3.239   2.305  11.569  0.4079  1.2603  1.7663
 7672SOL     OW34651   4.399   4.506   7.083  0.0318  0.2362 -0.0476
 7672SOL    HW134652   4.308   4.479   7.072 -0.1934  0.8714  0.2875
 7672SOL    HW234653   4.417   4.537   6.994  0.8112 -0.5824 -0.1718
 7673SOL     OW34654   3.478   0.571   2.384 -0.3124  0.1082  0.7909
 7673SOL    HW134655   3.573   0.559   2.386 -0.4976 -1.5453  0.0714
 7673SOL    HW234656   3.472   0.575   2.479 -2.5580 -0.1196  0.6571
 7674SOL     OW34657   3.260   2.830  11.479 -0.2981 -0.0332  0.0220
 7674SOL    HW134658   3.254   2.808  11.386 -2.6496  0.1797  0.1326
 7674SOL    HW234659   3.328   2.764  11.494 -1.8516 -1.7420 -0.4344
 7675SOL     OW34660   2.943   0.258   2.088 -0.3160 -0.1873 -0.3448
 7675SOL    HW134661   2.968   0.211   2.167  0.9491  1.5056  0.2572
 7675SOL    HW234662   3.003   0.225   2.021  0.8999  0.8531  0.2251
 7676SOL     OW34663   2.246   2.854   2.231 -0.2089 -0.4721  0.2375
 7676SOL    HW134664   2.302   2.792   2.278  2.5214  0.2214 -2.0957
 7676SOL    HW234665   2.206   2.896   2.307 -2.3855  0.0977 -1.2306
 7677SOL     OW34666   1.946   3.520  14.346 -0.1515  0.5796  0.3040
 7677SOL    HW134667   1.932   3.439  14.396  1.2758 -0.0400 -0.2915
 7677SOL    HW234668   2.027   3.554  14.384 -1.0094  1.5149  1.2974
 7678SOL     OW34669   2.071   1.106   3.833  0.5333  0.6803  0.0409
 7678SOL    HW134670   1.983   1.106   3.872  0.6904  3.2356  0.3831
 7678SOL    HW234671   2.093   1.199   3.831 -0.0448  0.8032 -0.4344
 7679SOL     OW34672   1.143   0.083  16.756 -0.8319 -0.3232 -0.4368
 7679SOL    HW134673   1.096   0.152  16.804 -0.0746 -0.0508 -0.0880
 7679SOL    HW234674   1.103   0.081  16.669 -2.3079 -0.3726  0.2416
 7680SOL     OW34675   2.146   0.063  14.816  0.7749  0.2591  0.7174
 7680SOL    HW134676   2.105   0.126  14.875  0.0562  1.1618 -0.7198
 7680SOL    HW234677   2.209   0.125  14.779  0.7042  0.6559  1.2612
 7681SOL     OW34678   0.170   3.099   2.193 -0.3807  0.0902  0.2207
 7681SOL    HW134679   0.192   3.193   2.199 -0.1782  0.0690 -0.1691
 7681SOL    HW234680   0.252   3.052   2.206 -0.6829  0.0704  1.9933
 7682SOL     OW34681   3.459   2.067   3.542  0.2558  0.0992 -0.1436
 7682SOL    HW134682   3.499   2.012   3.609 -0.3892  0.7684  0.8073
 7682SOL    HW234683   3.535   2.123   3.527  0.1095  1.0526  2.6203
 7683SOL     OW34684   2.779   1.598   3.588 -0.1694  0.1142 -0.0723
 7683SOL    HW134685   2.797   1.611   3.681  0.4979 -1.4100  0.0130
 7683SOL    HW234686   2.850   1.538   3.564 -0.7368  0.0491 -1.5549
 7684SOL     OW34687   0.896   0.682   2.485  0.0330  0.4163  0.2100
 7684SOL    HW134688   0.903   0.778   2.481  3.4825  0.1669  0.4399
 7684SOL    HW234689   0.929   0.683   2.575  1.6482 -1.4771 -0.3861
 7685SOL     OW34690   3.803   0.658   6.703  0.4093 -0.4399 -0.0856
 7685SOL    HW134691   3.883   0.615   6.735  0.7553 -0.2581 -0.7005
 7685SOL    HW234692   3.747   0.590   6.667 -0.3152 -0.0040  0.2138
 7686SOL     OW34693   2.480   0.606   3.047  0.2827  0.0964  0.3259
 7686SOL    HW134694   2.399   0.614   2.995  0.5747 -1.0368 -0.3230
 7686SOL    HW234695   2.551   0.610   2.983  1.5014  3.1741  1.9038
 7687SOL     OW34696   2.864   2.732   9.128  0.2084  0.0941 -0.1590
 7687SOL    HW134697   2.768   2.723   9.126 -0.2404  4.9683 -1.3246
 7687SOL    HW234698   2.867   2.783   9.210  0.4563 -2.4191  1.3874
 7688SOL     OW34699   0.518   3.968   5.983 -0.1795  0.0219 -0.0022
 7688SOL    HW134700   0.561   3.945   5.900 -0.4933 -0.9356  0.1102
 7688SOL    HW234701   0.562   3.903   6.038 -0.1613 -0.4844 -0.6178
 7689SOL     OW34702   4.427   1.526   5.597  0.0509  0.6855  0.3548
 7689SOL    HW134703   4.339   1.563   5.584  0.4569  1.4640 -0.1695
 7689SOL    HW234704   4.440   1.499   5.506 -0.1139 -0.2855  0.6191
 7690SOL     OW34705   4.448   1.058  14.100 -0.2239 -0.0202 -0.0239
 7690SOL    HW134706   4.476   1.137  14.053 -2.2619  1.2041  0.7962
 7690SOL    HW234707   4.498   0.986  14.061 -2.5510 -0.5008 -2.1312
 7691SOL     OW34708   1.452   1.627   8.119 -0.3975 -0.0369  0.2343
 7691SOL    HW134709   1.395   1.704   8.113 -2.1266 -1.3978 -0.8206
 7691SOL    HW234710   1.437   1.584   8.203  2.0216 -1.3096  0.0284
 7692SOL     OW34711   2.485   4.312   3.250 -0.4366  0.1302 -0.2756
 7692SOL    HW134712   2.469   4.400   3.284 -1.6214 -0.1535 -0.0969
 7692SOL    HW234713   2.432   4.318   3.170 -1.7538 -2.3225  0.4133
 7693SOL     OW34714   4.263   0.843   7.953 -0.0296 -0.3895 -0.0990
 7693SOL    HW134715   4.357   0.860   7.940  0.2486 -1.5674  0.3742
 7693SOL    HW234716   4.257   0.809   8.043 -0.5671 -1.1083 -0.4105
 7694SOL     OW34717   2.668   0.717   6.809  0.4857 -0.4397 -0.4714
 7694SOL    HW134718   2.675   0.764   6.892  1.3612 -2.6247  0.7043
 7694SOL    HW234719   2.573   0.703   6.799  0.0446  2.2580  0.0378
 7695SOL     OW34720   2.735   1.887   5.981  0.5273 -0.2198  0.1298
 7695SOL    HW134721   2.663   1.883   6.044 -0.6174 -0.3049 -1.1910
 7695SOL    HW234722   2.693   1.956   5.929 -0.2265 -1.2346 -0.6035
 7696SOL     OW34723   3.044   1.345   6.793  0.3424 -0.5501 -0.2162
 7696SOL    HW134724   3.064   1.379   6.880 -3.6788  2.3661 -0.4477
 7696SOL    HW234725   3.081   1.419   6.745  0.3905 -0.4853 -0.0772
 7697SOL     OW34726   2.695   0.940   5.242 -0.5266  0.4535 -0.8581
 7697SOL    HW134727   2.731   0.908   5.159  1.3107 -0.3919  0.2482
 7697SOL    HW234728   2.773   0.923   5.294 -0.0353  0.7926 -1.4761
 7698SOL     OW34729   4.307   4.352  17.434  0.3748  0.0861 -0.3233
 7698SOL    HW134730   4.260   4.270  17.445 -0.2742  0.2506 -1.9017
 7698SOL    HW234731   4.376   4.343  17.500  0.1191  2.5845  0.2906
 7699SOL     OW34732   3.736   2.689   9.278  0.5967 -0.5057 -0.0489
 7699SOL    HW134733   3.688   2.751   9.224 -1.2238 -1.7910  0.0660
 7699SOL    HW234734   3.673   2.617   9.271  0.2254 -0.0866 -0.9477
 7700SOL     OW34735   1.316   1.914  16.185 -0.0969  0.0359 -0.6846
 7700SOL    HW134736   1.255   1.862  16.132  0.0152  1.0003 -1.7807
 7700SOL    HW234737   1.317   2.002  16.148 -0.6663  0.9575  1.5478
 7701SOL     OW34738   2.738   3.902   2.712 -0.1408 -0.6567 -0.2605
 7701SOL    HW134739   2.755   3.962   2.785  0.2454 -0.5171 -0.4673
 7701SOL    HW234740   2.699   3.823   2.750 -2.8528  0.5207 -0.5295
 7702SOL     OW34741   2.639   2.538  14.480 -0.3652 -0.3876 -0.1361
 7702SOL    HW134742   2.550   2.506  14.463 -0.9711  1.5869 -0.7171
 7702SOL    HW234743   2.656   2.574  14.393 -1.7565 -1.7228 -0.9675
 7703SOL     OW34744   2.722   3.626   1.429  0.3025 -0.0533  0.1813
 7703SOL    HW134745   2.786   3.612   1.499  0.9941 -2.4321 -0.9557
 7703SOL    HW234746   2.668   3.682   1.485 -1.9045 -1.2474 -0.7458
 7704SOL     OW34747   0.599   1.285   7.374  0.0893 -0.1432 -0.2530
 7704SOL    HW134748   0.556   1.367   7.397 -0.6266 -1.4900  3.2063
 7704SOL    HW234749   0.528   1.238   7.330 -0.0500 -0.2177  0.0560
 7705SOL     OW34750   3.883   2.153   5.102  0.2293 -0.1689 -0.3241
 7705SOL    HW134751   3.831   2.201   5.167 -0.9325 -0.5423 -0.9699
 7705SOL    HW234752   3.847   2.192   5.022 -1.9649 -0.8990  0.3016
 7706SOL     OW34753   4.051   2.568   7.426  0.1684  0.1539  0.6156
 7706SOL    HW134754   4.019   2.615   7.503  0.4820  1.3741 -0.0072
 7706SOL    HW234755   4.037   2.475   7.447  1.0896 -0.2848 -0.7254
 7707SOL     OW34756   3.746   0.500   2.391  0.3979  0.2602  0.6778
 7707SOL    HW134757   3.801   0.435   2.348  0.3480  0.9693 -0.4768
 7707SOL    HW234758   3.797   0.579   2.372 -2.6648  2.0811 -0.0454
 7708SOL     OW34759   1.187   2.367  11.052  0.3316 -0.3348 -0.3448
 7708SOL    HW134760   1.236   2.287  11.032  1.2282 -0.1513  1.1393
 7708SOL    HW234761   1.108   2.320  11.079  0.8125 -0.2762  1.1578
 7709SOL     OW34762   2.673   2.855   6.047  0.2752 -0.4447 -0.7414
 7709SOL    HW134763   2.585   2.841   6.012  0.1679 -0.3581 -0.5036
 7709SOL    HW234764   2.662   2.820   6.135 -3.8135 -2.6209 -2.1568
 7710SOL     OW34765   4.046   1.265   1.505 -0.2769  0.2328 -0.1365
 7710SOL    HW134766   4.058   1.229   1.417  0.0204 -1.0298  0.4167
 7710SOL    HW234767   3.950   1.269   1.510 -0.1932  0.3970  1.2509
 7711SOL     OW34768   0.198   4.367   3.626 -0.5453 -0.3643  0.1154
 7711SOL    HW134769   0.112   4.410   3.627  0.8596  2.4440  1.6710
 7711SOL    HW234770   0.212   4.404   3.539 -1.0467  1.4386  0.7884
 7712SOL     OW34771   3.842   2.476   8.763 -0.5360  0.1780 -0.1264
 7712SOL    HW134772   3.834   2.506   8.853 -0.7151 -0.6323  0.1225
 7712SOL    HW234773   3.867   2.385   8.777  0.2821 -0.0581 -3.1081
 7713SOL     OW34774   4.681   3.751   0.832 -0.0491  0.3610 -0.1184
 7713SOL    HW134775   0.011   3.688   0.851  1.8736  1.4863 -3.4262
 7713SOL    HW234776   4.709   3.772   0.743  1.7246 -0.3455  0.2903
 7714SOL     OW34777   1.141   4.293   6.484 -0.0175  0.0821  0.1334
 7714SOL    HW134778   1.131   4.209   6.438  2.5712 -0.0564 -0.1827
 7714SOL    HW234779   1.179   4.350   6.417  0.8221 -0.5418  0.0728
 7715SOL     OW34780   0.142   4.364  17.093 -0.0793 -0.5917  0.2125
 7715SOL    HW134781   0.214   4.318  17.051  0.1171  1.2190 -1.4424
 7715SOL    HW234782   0.151   4.457  17.070  0.9553 -1.2588 -2.0394
 7716SOL     OW34783   3.375   3.079   0.972  0.4182  0.0980  0.4870
 7716SOL    HW134784   3.425   3.159   0.989 -0.1634  0.4325  0.6130
 7716SOL    HW234785   3.341   3.106   0.887 -1.8568  2.0810  2.0035
 7717SOL     OW34786   0.178   3.536   9.616  0.0536  0.4089 -0.3048
 7717SOL    HW134787   0.116   3.490   9.672  1.4116 -0.2841  0.6326
 7717SOL    HW234788   0.249   3.474   9.601  0.4033  0.5639  0.7746
 7718SOL     OW34789   4.344   4.385   6.349 -0.1508  0.3979  0.1938
 7718SOL    HW134790   4.274   4.432   6.304  0.0603  1.1063  0.6102
 7718SOL    HW234791   4.379   4.340   6.272  0.7774 -0.6241  1.1921
 7719SOL     OW34792   3.320   1.196   8.016 -0.1022 -0.4808 -0.4281
 7719SOL    HW134793   3.339   1.139   8.090 -0.8388  1.0887  0.9825
 7719SOL    HW234794   3.405   1.193   7.972  1.0733 -1.8630  1.9275
 7720SOL     OW34795   1.977   2.786   3.808 -0.3236 -0.3955  0.6753
 7720SOL    HW134796   1.919   2.770   3.733 -0.6452  2.0589  0.4103
 7720SOL    HW234797   1.924   2.860   3.837 -3.0013 -2.0777  0.1193
 7721SOL     OW34798   1.091   4.407   4.004  0.5441 -0.1328 -0.5305
 7721SOL    HW134799   1.038   4.403   4.083  0.3279  1.7205 -0.5803
 7721SOL    HW234800   1.160   4.342   4.018  0.1164 -0.0329  2.0861
 7722SOL     OW34801   3.779   1.196  14.321 -0.3793 -0.2773  0.0903
 7722SOL    HW134802   3.839   1.134  14.362  0.7671 -0.2308 -1.5000
 7722SOL    HW234803   3.770   1.164  14.231  0.0308 -1.1581  0.3613
 7723SOL     OW34804   1.756   4.105   6.122 -0.2991  0.2095  0.0944
 7723SOL    HW134805   1.767   4.035   6.058  1.6996  0.0351  0.6208
 7723SOL    HW234806   1.844   4.130   6.151 -0.5721 -1.3109  2.2287
 7724SOL     OW34807   1.975   2.818  14.421  0.3563 -0.5239 -0.1728
 7724SOL    HW134808   1.993   2.912  14.417 -0.3759 -0.5672 -5.0099
 7724SOL    HW234809   1.917   2.809  14.345 -1.6867  0.2308  1.2997
 7725SOL     OW34810   3.339   0.233   0.403  0.6473  0.1158  0.1941
 7725SOL    HW134811   3.400   0.239   0.330 -1.7345  1.1149 -1.7239
 7725SOL    HW234812   3.361   0.316   0.445  0.4238  0.9621 -1.3893
 7726SOL     OW34813   1.804   3.083  16.626  0.0635  0.3695  0.3653
 7726SOL    HW134814   1.839   3.018  16.565  2.5395  0.3067  1.8620
 7726SOL    HW234815   1.872   3.150  16.630  0.8495 -0.4525  0.7865
 7727SOL     OW34816   1.062   4.015   4.819  0.3979 -0.0146  0.3360
 7727SOL    HW134817   0.983   4.067   4.834  1.1224  0.8739  1.0552
 7727SOL    HW234818   1.091   4.042   4.732  0.7097  0.4106  0.5763
 7728SOL     OW34819   4.475   3.755   7.147  0.1212  0.1440  0.4946
 7728SOL    HW134820   4.513   3.762   7.234 -2.0879 -0.6929  1.5142
 7728SOL    HW234821   4.555   3.726   7.103 -1.4413 -1.8546 -1.0179
 7729SOL     OW34822   0.398   2.006   4.915  0.0495 -0.2419 -0.2135
 7729SOL    HW134823   0.460   2.003   4.989 -0.7075 -2.0141  0.3306
 7729SOL    HW234824   0.309   2.013   4.949  0.2786 -0.3964  0.4256
 7730SOL     OW34825   1.278   2.897  15.410 -0.2631  0.3608  0.1031
 7730SOL    HW134826   1.230   2.968  15.367 -0.4819  0.5588  0.6765
 7730SOL    HW234827   1.234   2.817  15.383 -1.0013  0.7820  0.0580
 7731SOL     OW34828   3.054   3.673   5.175  0.2004 -0.3091  0.3250
 7731SOL    HW134829   3.007   3.690   5.094 -1.6115 -1.7084  1.0827
 7731SOL    HW234830   3.119   3.743   5.168  4.0033 -3.7978  0.6604
 7732SOL     OW34831   0.760   0.708   9.330  0.3720  0.1842  0.3031
 7732SOL    HW134832   0.778   0.618   9.302  1.3277  0.2938  0.5649
 7732SOL    HW234833   0.828   0.719   9.397 -0.1401  0.9339  0.6987
 7733SOL     OW34834   3.589   0.146   2.465 -0.5701  0.0334 -0.9789
 7733SOL    HW134835   3.537   0.221   2.495 -1.5423 -0.7622 -0.6913
 7733SOL    HW234836   3.541   0.099   2.397 -2.1731 -0.6481  0.6344
 7734SOL     OW34837   1.826   3.570  13.693  0.6900 -0.1562 -0.4187
 7734SOL    HW134838   1.906   3.563  13.745  0.1230 -0.2726  0.4532
 7734SOL    HW234839   1.838   3.491  13.642  0.1723 -0.7706  0.4054
 7735SOL     OW34840   3.806   0.127   8.435 -0.8535  0.3167 -0.1463
 7735SOL    HW134841   3.804   0.150   8.528  3.4236 -0.8005  0.2208
 7735SOL    HW234842   3.875   0.189   8.413  0.1393 -1.3149 -1.6230
 7736SOL     OW34843   3.482   1.938   6.317  0.3080 -0.1984 -0.6610
 7736SOL    HW134844   3.472   1.884   6.238 -0.4657 -0.8923 -0.0902
 7736SOL    HW234845   3.401   1.917   6.364  2.2365 -3.0640  1.3312
 7737SOL     OW34846   3.454   1.734   2.526 -0.1236  0.6427  0.1162
 7737SOL    HW134847   3.532   1.751   2.474  0.5415 -0.7540  0.6484
 7737SOL    HW234848   3.395   1.798   2.487  0.0225  1.1062  0.6540
 7738SOL     OW34849   0.948   3.237   3.344 -0.3757 -0.5871 -0.1614
 7738SOL    HW134850   0.941   3.288   3.424  2.8339 -1.4198  0.6752
 7738SOL    HW234851   0.863   3.194   3.340  0.6831 -3.0368  3.2597
 7739SOL     OW34852   2.743   4.688   5.097 -0.2751  0.2864 -0.5714
 7739SOL    HW134853   2.827   4.731   5.082 -0.6212  0.9394 -0.6289
 7739SOL    HW234854   2.739   4.694   5.193 -2.5870 -1.0821 -0.5977
 7740SOL     OW34855   3.951   3.110   8.299 -0.1517  0.6283 -0.1985
 7740SOL    HW134856   4.035   3.122   8.343 -0.4082  0.1575  0.4206
 7740SOL    HW234857   3.897   3.098   8.377 -0.8254 -0.6951 -0.8679
 7741SOL     OW34858   3.364   3.783  17.337  0.0562 -0.3900 -0.3022
 7741SOL    HW134859   3.334   3.728  17.264  3.7372  0.6894 -2.5929
 7741SOL    HW234860   3.296   3.777  17.405  1.2849  0.4438  0.9905
 7742SOL     OW34861   4.437   0.669   8.135 -0.0218  0.1085 -0.4668
 7742SOL    HW134862   4.512   0.646   8.190  0.2359 -0.1134 -0.9076
 7742SOL    HW234863   4.406   0.579   8.124  0.6828 -0.1901  0.0341
 7743SOL     OW34864   4.410   4.317   9.591 -0.3474 -0.0413 -0.2702
 7743SOL    HW134865   4.463   4.352   9.520 -0.7730  2.6407  0.7429
 7743SOL    HW234866   4.347   4.267   9.539  0.3170  0.2916 -1.3853
 7744SOL     OW34867   3.520   3.522  15.319 -0.3621  0.3851  0.3794
 7744SOL    HW134868   3.514   3.480  15.405 -2.8084  0.6523  0.3432
 7744SOL    HW234869   3.485   3.459  15.257 -0.4714  1.5969 -0.7865
 7745SOL     OW34870   2.486   1.087   8.529 -0.4347 -0.2432 -0.0397
 7745SOL    HW134871   2.518   1.002   8.559  1.0481  1.0514  2.0187
 7745SOL    HW234872   2.517   1.136   8.605  0.0079  1.4717 -1.3189
 7746SOL     OW34873   2.132   2.133   6.996 -0.0303  0.2796  0.1232
 7746SOL    HW134874   2.123   2.046   6.957  0.9184  0.4150 -0.3999
 7746SOL    HW234875   2.040   2.158   6.985  0.7257  2.9815 -0.0501
 7747SOL     OW34876   0.363   3.106   7.543 -0.0576 -0.1074  0.7920
 7747SOL    HW134877   0.357   3.150   7.628 -0.1457 -0.1297  0.7978
 7747SOL    HW234878   0.340   3.181   7.488 -0.1269  1.7392  3.3285
 7748SOL     OW34879   1.407   2.502   4.088 -0.5513  0.3429 -0.8619
 7748SOL    HW134880   1.453   2.449   4.023 -0.4256 -0.6181  0.0263
 7748SOL    HW234881   1.315   2.497   4.064 -1.2431  2.5636  1.2802
 7749SOL     OW34882   0.166   1.952   9.164  0.2019  0.0460  0.5885
 7749SOL    HW134883   0.127   1.927   9.080  0.1143  1.7480  0.1084
 7749SOL    HW234884   0.135   1.878   9.216 -0.2240 -0.1004  0.1271
 7750SOL     OW34885   0.835   3.227   6.586  0.1413  0.1853 -0.4839
 7750SOL    HW134886   0.760   3.262   6.635  0.0879  0.0057 -0.4392
 7750SOL    HW234887   0.804   3.264   6.503 -0.3138  1.6070  0.3288
 7751SOL     OW34888   4.285   1.195   3.742 -0.0440 -0.0697  0.3265
 7751SOL    HW134889   4.351   1.127   3.751 -1.0857 -1.6688 -3.9496
 7751SOL    HW234890   4.334   1.263   3.696 -2.3264  1.5943  0.3220
 7752SOL     OW34891   1.625   0.692   9.425  0.3810  0.2323  0.2464
 7752SOL    HW134892   1.701   0.751   9.433  0.6184  0.3801 -3.1353
 7752SOL    HW234893   1.557   0.743   9.469  1.0374  0.6264  0.8050
 7753SOL     OW34894   2.632   2.142   6.842 -0.1672 -0.3823 -0.3701
 7753SOL    HW134895   2.696   2.080   6.805 -0.5019  0.3748 -2.2357
 7753SOL    HW234896   2.624   2.216   6.782  1.7376  0.5684  0.5404
 7754SOL     OW34897   0.475   2.056   2.405  0.3850  0.2562 -0.5114
 7754SOL    HW134898   0.421   1.984   2.437  0.9774  0.1140  0.1658
 7754SOL    HW234899   0.502   2.029   2.316  0.1129 -1.3858 -0.1063
 7755SOL     OW34900   4.573   2.877   5.275 -0.6582 -0.2062  0.7139
 7755SOL    HW134901   4.493   2.893   5.225 -1.5347 -1.3548  1.7608
 7755SOL    HW234902   4.626   2.849   5.199 -0.7948  1.1904  0.1059
 7756SOL     OW34903   3.632   0.881   1.938 -0.0245 -0.2725 -0.1720
 7756SOL    HW134904   3.556   0.884   1.879 -1.0282  0.0367  1.1257
 7756SOL    HW234905   3.586   0.878   2.023 -1.0751 -0.0405 -0.7273
 7757SOL     OW34906   3.047   2.153   5.459  1.0056 -0.1132 -0.4409
 7757SOL    HW134907   3.136   2.168   5.426  1.7178  0.0864  1.5685
 7757SOL    HW234908   2.996   2.159   5.378 -2.1146  1.3637  1.6485
 7758SOL     OW34909   4.593   3.773  12.385 -0.3669  0.3787 -0.8694
 7758SOL    HW134910   4.517   3.823  12.355 -1.8615 -1.3916 -0.0441
 7758SOL    HW234911   4.620   3.737  12.301  0.2198 -2.5781  0.5906
 7759SOL     OW34912   3.202   2.036   3.462  0.2077  0.2417  0.4787
 7759SOL    HW134913   3.283   2.052   3.510  1.3872  1.9900 -2.0977
 7759SOL    HW234914   3.237   1.971   3.402 -0.4951  2.3098 -2.1518
 7760SOL     OW34915   3.401   3.917  14.960  0.0470  0.2076  0.4668
 7760SOL    HW134916   3.322   3.863  14.972 -0.7350  1.2233 -0.0980
 7760SOL    HW234917   3.407   3.917  14.864 -2.6159  0.5927  0.2945
 7761SOL     OW34918   1.240   0.153   4.793  0.0249 -0.2625 -0.2393
 7761SOL    HW134919   1.238   0.073   4.740 -0.5848 -0.4901  0.1309
 7761SOL    HW234920   1.322   0.200   4.777  0.9396 -1.5573  0.5734
 7762SOL     OW34921   2.209   0.536   1.651  0.5914 -0.2641 -0.0552
 7762SOL    HW134922   2.139   0.589   1.689  0.8084  0.9962 -1.4240
 7762SOL    HW234923   2.268   0.513   1.723  0.7209  0.0963 -0.0461
 7763SOL     OW34924   2.515   2.962   8.164  0.0480  0.8143 -0.0227
 7763SOL    HW134925   2.583   2.898   8.142  0.5166  1.2181  0.2650
 7763SOL    HW234926   2.539   2.994   8.250  0.9332  2.8210 -1.0227
 7764SOL     OW34927   4.309   1.144  10.292  0.5116  0.5698  0.2066
 7764SOL    HW134928   4.330   1.062  10.247  1.7750  0.7129  0.5197
 7764SOL    HW234929   4.305   1.121  10.385  0.9492 -0.2190  0.0298
 7765SOL     OW34930   1.155   2.615   2.318 -0.2853  0.1948 -0.1574
 7765SOL    HW134931   1.118   2.615   2.406 -0.0117 -1.6714 -0.0412
 7765SOL    HW234932   1.145   2.522   2.299 -1.7726  0.2340  0.4174
 7766SOL     OW34933   1.956   0.875   2.799 -0.4004  0.8700 -0.3407
 7766SOL    HW134934   2.029   0.911   2.850  0.9499  0.0367 -1.6894
 7766SOL    HW234935   1.886   0.851   2.860  0.6916  0.3508  0.7055
 7767SOL     OW34936   1.874   3.423  16.486 -0.1230 -0.2156  0.2308
 7767SOL    HW134937   1.781   3.409  16.503 -0.6821  0.1398 -2.5434
 7767SOL    HW234938   1.926   3.361  16.537 -1.2693 -1.2077  0.1985
 7768SOL     OW34939   2.037   4.181  12.761 -0.1635 -0.9132  0.1717
 7768SOL    HW134940   2.041   4.122  12.837 -2.7441 -0.5650  0.5995
 7768SOL    HW234941   2.006   4.119  12.694 -0.4892 -0.8410  0.2524
 7769SOL     OW34942   3.442   4.621   6.239 -0.4027  0.3383 -0.6422
 7769SOL    HW134943   3.507   4.645   6.306 -0.4307  1.9446 -1.1770
 7769SOL    HW234944   3.363   4.665   6.270 -1.1715 -0.8488 -0.9244
 7770SOL     OW34945   0.311   4.518  15.574 -0.5368  0.2275 -0.8035
 7770SOL    HW134946   0.377   4.484  15.634  0.9434  0.6691 -2.1905
 7770SOL    HW234947   0.281   4.437  15.534 -1.3535 -0.4563  1.1635
 7771SOL     OW34948   4.297   3.227  14.774 -0.5523 -0.0945 -0.2888
 7771SOL    HW134949   4.377   3.184  14.805 -0.8211 -0.8940 -0.7035
 7771SOL    HW234950   4.290   3.191  14.686 -1.3152 -0.9556  0.1374
 7772SOL     OW34951   2.255   2.787  10.087  0.0954 -0.1826  0.1309
 7772SOL    HW134952   2.314   2.820  10.020  1.6653  0.8585  1.9936
 7772SOL    HW234953   2.195   2.856  10.114  0.2754 -0.2497  0.7113
 7773SOL     OW34954   0.391   1.442   7.247  0.2282 -0.1044  0.4274
 7773SOL    HW134955   0.339   1.514   7.210 -0.6378  0.0724  1.9840
 7773SOL    HW234956   0.373   1.450   7.341  0.1992 -3.1486  0.6791
 7774SOL     OW34957   0.879   1.860  15.997 -0.3287  0.2354 -0.3667
 7774SOL    HW134958   0.880   1.891  15.907  3.4688 -0.2378 -0.4690
 7774SOL    HW234959   0.786   1.866  16.018 -0.4149 -0.6009 -0.5099
 7775SOL     OW34960   2.821   4.711   2.469  0.3696  0.9414 -0.4749
 7775SOL    HW134961   2.826   4.624   2.430  0.5464  1.1248 -0.8623
 7775SOL    HW234962   2.772   0.013   2.398 -0.6202 -0.9280 -0.8588
 7776SOL     OW34963   3.893   1.145   9.367 -0.3627  0.5961 -0.5545
 7776SOL    HW134964   3.852   1.223   9.330 -0.9419  0.3930 -0.3553
 7776SOL    HW234965   3.925   1.185   9.447  1.1921 -1.0245 -0.3539
 7777SOL     OW34966   4.105   1.520   9.301  0.2744 -0.0971 -0.4927
 7777SOL    HW134967   4.129   1.607   9.334 -0.8680  0.7522 -1.9127
 7777SOL    HW234968   4.017   1.541   9.270  0.0864  1.8729  1.3333
 7778SOL     OW34969   4.509   2.830   9.239 -0.2133 -0.2855  0.1979
 7778SOL    HW134970   4.436   2.852   9.298 -0.0775 -0.4655  0.4344
 7778SOL    HW234971   4.573   2.899   9.254 -0.5798  0.0480  0.2372
 7779SOL     OW34972   2.129   1.329  15.184  0.2852 -0.1863  0.0479
 7779SOL    HW134973   2.083   1.388  15.124  0.6322  0.6383  0.5886
 7779SOL    HW234974   2.072   1.336  15.261 -0.8215 -1.9126 -0.6030
 7780SOL     OW34975   2.241   4.678   9.303 -0.1716  0.2646 -0.5346
 7780SOL    HW134976   2.261   0.005   9.369  1.0364 -1.0871  0.4494
 7780SOL    HW234977   2.327   4.666   9.263  1.1546 -0.7584  2.6136
 7781SOL     OW34978   0.087   0.727   9.910 -0.3245 -0.4510 -0.1142
 7781SOL    HW134979   0.045   0.674   9.842  0.1226 -0.3593 -0.4592
 7781SOL    HW234980   0.124   0.658   9.965  0.3646  0.8335  1.0327
 7782SOL     OW34981   0.931   2.822   2.880 -0.2882  0.3717  0.2241
 7782SOL    HW134982   0.922   2.910   2.845  3.0303  0.9362  0.8189
 7782SOL    HW234983   0.853   2.775   2.849 -0.9227  0.1317  2.2051
 7783SOL     OW34984   3.849   3.674  11.453 -0.3560  0.2228 -0.3652
 7783SOL    HW134985   3.882   3.711  11.372 -0.7553  0.1267 -0.5721
 7783SOL    HW234986   3.817   3.589  11.420  2.0615 -0.7932 -0.0944
 7784SOL     OW34987   4.180   0.570   7.109  0.2880 -0.0170 -0.3804
 7784SOL    HW134988   4.139   0.489   7.080  2.3019 -1.5712  1.0993
 7784SOL    HW234989   4.125   0.577   7.187  3.1237  1.1824  1.5404
 7785SOL     OW34990   2.246   0.271   0.271  0.0474 -0.2636 -0.7073
 7785SOL    HW134991   2.228   0.247   0.362  1.3577 -1.1210 -0.6726
 7785SOL    HW234992   2.177   0.333   0.249  1.3021  1.7319  0.9334
 7786SOL     OW34993   2.594   3.694   6.838 -0.6887  0.1572 -0.2648
 7786SOL    HW134994   2.516   3.744   6.863  0.9517  1.7871  1.5659
 7786SOL    HW234995   2.555   3.656   6.760 -0.7969  0.1306 -0.1979
 7787SOL     OW34996   2.728   4.583   2.023 -0.1896 -0.2576  0.0195
 7787SOL    HW134997   2.722   4.679   2.019 -0.0481 -0.1872  1.8309
 7787SOL    HW234998   2.720   4.565   2.116 -0.2926  2.3784  0.5074
 7788SOL     OW34999   3.853   2.886   6.543 -0.7990  0.3774  0.1712
 7788SOL    HW135000   3.912   2.940   6.596 -1.0360  2.2965 -1.5198
 7788SOL    HW235001   3.916   2.814   6.534 -1.4473 -0.0792 -0.7244
 7789SOL     OW35002   2.335   0.061   2.955  0.1885  0.1342 -0.4368
 7789SOL    HW135003   2.409   0.004   2.974  1.1270  1.0724 -1.2430
 7789SOL    HW235004   2.269   4.737   2.925  1.0470  0.0211 -2.1258
 7790SOL     OW35005   4.625   2.042   5.395 -0.1007 -0.5320 -0.0190
 7790SOL    HW135006   4.687   1.971   5.378  0.6682 -0.2606  1.7066
 7790SOL    HW235007   4.607   2.052   5.301  2.9358  1.2129 -0.4268
 7791SOL     OW35008   2.469   3.524  14.941 -0.1942  0.4026 -0.1037
 7791SOL    HW135009   2.556   3.527  14.982 -0.2536 -0.0125  0.0497
 7791SOL    HW235010   2.448   3.616  14.958  0.3476  0.1924  1.7194
 7792SOL     OW35011   0.830   1.989   9.366 -0.1554 -0.1026  0.1835
 7792SOL    HW135012   0.823   2.030   9.452  3.7467 -0.4213  0.6302
 7792SOL    HW235013   0.799   2.064   9.315 -1.7010  0.3726  1.8325
 7793SOL     OW35014   0.768   1.990   7.552  0.8246 -0.2827 -0.7254
 7793SOL    HW135015   0.762   2.079   7.517 -0.9060 -0.3571 -0.6133
 7793SOL    HW235016   0.754   1.941   7.471 -1.1381 -0.0904 -0.5005
 7794SOL     OW35017   0.244   3.414   3.814  0.0325  0.1454  0.5021
 7794SOL    HW135018   0.173   3.478   3.817  0.5168  0.6633  1.0376
 7794SOL    HW235019   0.275   3.404   3.904  2.0442 -0.2550 -0.2277
 7795SOL     OW35020   1.444   0.112   7.664  0.1234  0.2438 -0.0904
 7795SOL    HW135021   1.496   0.064   7.600  0.7019  3.0596 -1.7527
 7795SOL    HW235022   1.409   0.188   7.617 -1.3931  1.1132  2.4607
 7796SOL     OW35023   1.482   1.856   4.590 -0.0660 -0.1948 -0.1351
 7796SOL    HW135024   1.426   1.918   4.637 -0.2456 -0.6475  0.2422
 7796SOL    HW235025   1.499   1.910   4.513 -0.5079  1.1215  0.6874
 7797SOL     OW35026   2.788   1.563   6.198 -0.3149  0.1796 -0.0010
 7797SOL    HW135027   2.824   1.503   6.263 -4.8794 -0.2629  2.0620
 7797SOL    HW235028   2.770   1.495   6.133  1.7220 -1.8691  1.5744
 7798SOL     OW35029   3.708   2.820   8.988  0.3297 -0.7404  0.4618
 7798SOL    HW135030   3.784   2.874   9.008  0.6690 -0.3861 -1.8021
 7798SOL    HW235031   3.670   2.871   8.916 -0.1486  1.1799  2.0571
 7799SOL     OW35032   4.233   0.075   7.064  0.4049  0.4965  0.7519
 7799SOL    HW135033   4.211   4.736   7.116 -0.0745 -1.5270 -2.5124
 7799SOL    HW235034   4.252   0.145   7.126  0.8759  0.7554  0.3152
 7800SOL     OW35035   3.199   0.316   5.392 -0.0806 -0.2472  0.2066
 7800SOL    HW135036   3.184   0.410   5.395 -0.0911 -0.2559  0.4032
 7800SOL    HW235037   3.279   0.297   5.343 -1.2678 -0.8922 -1.5285
 7801SOL     OW35038   1.079   2.665   1.460 -0.5286 -0.0636 -0.3442
 7801SOL    HW135039   1.120   2.711   1.533  2.3427 -0.0743 -1.9600
 7801SOL    HW235040   1.145   2.670   1.391  0.2233  1.0521  0.4410
 7802SOL     OW35041   3.216   4.709   0.758 -0.0371  0.6645 -0.4421
 7802SOL    HW135042   3.246   0.031   0.826 -1.8287 -1.6990  2.4194
 7802SOL    HW235043   3.128   4.689   0.787  0.7403  1.2730  2.3205
 7803SOL     OW35044   1.008   3.992  15.635  0.4711  0.4175 -0.3115
 7803SOL    HW135045   1.052   4.063  15.682  1.8571 -1.2404  0.8722
 7803SOL    HW235046   0.924   4.030  15.611  0.5602  1.9462  1.7607
 7804SOL     OW35047   4.545   4.489  14.216 -0.0485  0.8186 -0.4170
 7804SOL    HW135048   4.586   4.563  14.262 -0.4923 -0.3022  1.7743
 7804SOL    HW235049   4.538   4.529  14.129  0.8614 -1.2723 -1.4434
 7805SOL     OW35050   1.379   0.953  11.741  0.0721 -0.4355 -0.2980
 7805SOL    HW135051   1.286   0.973  11.754  0.0661  0.1342 -1.2166
 7805SOL    HW235052   1.406   0.996  11.660  0.1122 -1.5489 -0.8766
 7806SOL     OW35053   1.672   2.397   8.068 -0.5183  0.8711 -0.3588
 7806SOL    HW135054   1.650   2.311   8.103  1.1608  1.2473  1.5860
 7806SOL    HW235055   1.736   2.381   7.999  0.0330  1.1944  0.0760
 7807SOL     OW35056   3.793   1.947   4.230 -0.4203 -0.0754  0.0174
 7807SOL    HW135057   3.863   1.997   4.187  0.0222 -1.6545 -1.0792
 7807SOL    HW235058   3.842   1.869   4.255  0.5498  0.3243 -0.6403
 7808SOL     OW35059   3.254   4.635   3.815 -0.1873  0.0076 -0.1776
 7808SOL    HW135060   3.285   4.556   3.770 -0.2802  1.2950 -2.5077
 7808SOL    HW235061   3.169   4.609   3.850  0.7061 -2.1345  0.3991
 7809SOL     OW35062   3.113   4.310   4.741 -0.1227 -0.1344 -0.0081
 7809SOL    HW135063   3.162   4.353   4.671  0.6154 -2.8599 -1.1638
 7809SOL    HW235064   3.059   4.382   4.775 -1.3296 -1.2803  0.5129
 7810SOL     OW35065   3.770   3.287   3.327 -0.9487 -0.3005  0.1009
 7810SOL    HW135066   3.688   3.320   3.364 -3.1845 -3.0934 -2.3550
 7810SOL    HW235067   3.837   3.314   3.390 -0.6277  1.8115 -1.1343
 7811SOL     OW35068   1.392   0.401   9.144 -0.3032  0.2500 -0.0160
 7811SOL    HW135069   1.469   0.438   9.100 -0.8888 -1.6148 -2.5480
 7811SOL    HW235070   1.416   0.387   9.235 -2.2411 -2.1643  0.1330
 7812SOL     OW35071   3.141   0.440  14.896  0.0078 -0.4300  0.1889
 7812SOL    HW135072   3.113   0.419  14.807 -1.8655  1.2572  0.3737
 7812SOL    HW235073   3.069   0.395  14.941  2.0994 -0.5204  3.4085
 7813SOL     OW35074   2.692   2.557   6.552  0.3356  0.0321  0.1138
 7813SOL    HW135075   2.668   2.478   6.505  0.3139  0.0080  0.1663
 7813SOL    HW235076   2.659   2.549   6.642  0.9257  0.5503  0.3808
 7814SOL     OW35077   4.582   3.550   5.266  0.1203 -0.6774 -0.1002
 7814SOL    HW135078   4.646   3.484   5.238  2.9494  1.4898  1.2254
 7814SOL    HW235079   4.553   3.579   5.180  0.8619 -2.5312 -0.9965
 7815SOL     OW35080   3.162   1.713   3.580  0.3582 -0.4314  0.4000
 7815SOL    HW135081   3.152   1.799   3.623 -2.2900 -0.5892  0.1097
 7815SOL    HW235082   3.251   1.717   3.545  0.1418  2.2307  0.1161
 7816SOL     OW35083   2.613   2.750   1.669 -0.0793  0.0963  0.0496
 7816SOL    HW135084   2.684   2.777   1.728  0.3216  0.1951 -0.4722
 7816SOL    HW235085   2.617   2.823   1.607  1.9302 -1.6666 -1.8953
 7817SOL     OW35086   0.251   0.636  13.280 -0.3334 -0.7517  0.1449
 7817SOL    HW135087   0.314   0.637  13.207 -0.2877  0.1458  0.1936
 7817SOL    HW235088   0.313   0.681  13.339 -0.6751 -0.5298  0.3319
 7818SOL     OW35089   4.321   0.913  14.516  0.0326 -0.0878 -0.3657
 7818SOL    HW135090   4.293   0.992  14.470 -2.0370 -0.5262  0.1617
 7818SOL    HW235091   4.342   0.857  14.441  1.8353  1.6046 -1.1385
 7819SOL     OW35092   1.155   2.339   5.491  0.4574 -0.0782  0.5042
 7819SOL    HW135093   1.188   2.314   5.404 -1.8145 -1.2812 -0.0182
 7819SOL    HW235094   1.124   2.254   5.522 -1.0660  1.4059  3.0783
 7820SOL     OW35095   1.341   0.451   9.563 -0.0086  0.0122  0.0856
 7820SOL    HW135096   1.286   0.457   9.485  0.9483 -5.3542 -1.0510
 7820SOL    HW235097   1.302   0.520   9.616 -1.0020  2.1363 -3.4667
 7821SOL     OW35098   2.696   1.084  15.188  0.0525 -0.3560  0.5455
 7821SOL    HW135099   2.648   1.121  15.262 -0.5756 -1.8333  0.8817
 7821SOL    HW235100   2.780   1.130  15.193  1.6988 -3.2570 -0.7827
 7822SOL     OW35101   0.757   2.671   0.627 -0.2226 -0.6556 -0.0618
 7822SOL    HW135102   0.674   2.639   0.594  0.7477 -1.3053 -1.8741
 7822SOL    HW235103   0.734   2.699   0.716 -0.4328  0.1608 -0.3687
 7823SOL     OW35104   1.491   1.058   9.795 -0.0410  0.5088 -0.3914
 7823SOL    HW135105   1.405   1.046   9.755 -0.3724 -0.5433  0.6231
 7823SOL    HW235106   1.546   1.047   9.718  0.6621  3.4758 -0.3075
 7824SOL     OW35107   0.956   3.394   3.600  0.0632  0.1814  0.1067
 7824SOL    HW135108   1.004   3.423   3.677  0.0208  0.1960  0.1278
 7824SOL    HW235109   0.896   3.465   3.581 -1.2431 -1.5677 -2.2568
 7825SOL     OW35110   3.828   3.185   6.887  0.4559  0.0297 -0.1238
 7825SOL    HW135111   3.750   3.234   6.912 -0.6606 -1.4317 -0.7645
 7825SOL    HW235112   3.795   3.098   6.908 -2.0172  0.4731 -2.2386
 7826SOL     OW35113   1.507   1.375   4.461  0.1617 -0.0054  0.3417
 7826SOL    HW135114   1.602   1.363   4.453  0.2638  2.2476 -2.1294
 7826SOL    HW235115   1.484   1.389   4.369 -1.8887 -0.5928  0.7617
 7827SOL     OW35116   4.509   1.911   2.783 -0.2223  0.2369 -0.1571
 7827SOL    HW135117   4.489   1.819   2.795 -1.6003  0.7717  1.6173
 7827SOL    HW235118   4.469   1.962   2.854  1.8602  0.4802  0.8338
 7828SOL     OW35119   1.400   2.740   9.436  0.4407 -0.6591  0.4197
 7828SOL    HW135120   1.386   2.732   9.342 -2.3303 -0.3034  0.8050
 7828SOL    HW235121   1.495   2.729   9.445  0.4323 -0.8846  0.2511
 7829SOL     OW35122   1.739   0.261  12.012 -0.0835 -0.4380  0.6865
 7829SOL    HW135123   1.793   0.335  11.986  0.1160 -0.4350  1.1084
 7829SOL    HW235124   1.673   0.277  11.944  4.0524  2.1334 -2.7815
 7830SOL     OW35125   3.456   0.744   2.156  1.1018  0.3365 -0.0081
 7830SOL    HW135126   3.548   0.750   2.183  1.2707 -1.4940 -0.1990
 7830SOL    HW235127   3.418   0.692   2.227  1.7205  1.1825  0.9586
 7831SOL     OW35128   2.463   2.448  14.812  0.0277 -0.0706 -0.8400
 7831SOL    HW135129   2.557   2.467  14.806  0.1163 -0.6773 -1.3547
 7831SOL    HW235130   2.432   2.460  14.722 -0.0656  1.7716 -0.5559
 7832SOL     OW35131   0.069   1.832  11.762  0.2496 -0.3213 -0.8891
 7832SOL    HW135132   0.072   1.908  11.705 -0.5285  1.2718  1.1777
 7832SOL    HW235133   0.052   1.879  11.844  1.2520 -1.4449 -0.0235
 7833SOL     OW35134   2.315   1.554   3.047 -0.5034  0.2113  0.2837
 7833SOL    HW135135   2.276   1.638   3.022 -0.7452  0.1465  0.4442
 7833SOL    HW235136   2.279   1.559   3.135 -1.0714  1.0433  0.0099
 7834SOL     OW35137   4.321   2.693  17.372  0.1657  0.2578  0.4769
 7834SOL    HW135138   4.345   2.641  17.295  0.1133 -0.7813  1.1683
 7834SOL    HW235139   4.230   2.712  17.349  0.5070  0.7343 -0.5177
 7835SOL     OW35140   2.632   3.809   1.632 -0.5461  0.1283 -0.4402
 7835SOL    HW135141   2.579   3.886   1.608  2.7558  1.4980 -3.3367
 7835SOL    HW235142   2.579   3.779   1.706 -1.0263  1.5809 -0.1772
 7836SOL     OW35143   3.652   0.511  15.722  0.3944 -0.1276 -0.1354
 7836SOL    HW135144   3.647   0.599  15.683 -2.0848  0.1431  0.7827
 7836SOL    HW235145   3.717   0.525  15.791  2.3154 -1.6112 -1.6573
 7837SOL     OW35146   2.562   2.762   9.198 -0.4435  0.5092 -0.0560
 7837SOL    HW135147   2.513   2.684   9.172 -0.4015  0.5106 -0.1389
 7837SOL    HW235148   2.500   2.836   9.198  0.2684  1.1077 -2.0183
 7838SOL     OW35149   4.673   2.828   5.032  0.1293 -0.9664 -0.5107
 7838SOL    HW135150   4.625   2.754   4.996  1.6111 -1.7994 -0.7877
 7838SOL    HW235151   4.666   2.888   4.958 -2.3882  0.4421  0.8700
 7839SOL     OW35152   2.955   0.272   7.437  0.2148  0.1077  0.1883
 7839SOL    HW135153   2.950   0.235   7.526  1.3903  2.0502  1.0528
 7839SOL    HW235154   2.969   0.365   7.454 -1.3312  0.4899 -0.6449
 7840SOL     OW35155   3.066   0.149   6.698 -0.2085  0.1932  0.0862
 7840SOL    HW135156   3.134   0.203   6.658  0.0722  1.0612  1.7517
 7840SOL    HW235157   3.029   0.200   6.769 -1.3855 -0.0301 -0.3655
 7841SOL     OW35158   0.980   2.147   2.449  0.5098 -0.1640 -0.0630
 7841SOL    HW135159   1.057   2.117   2.498  1.4467  3.6020  0.7448
 7841SOL    HW235160   0.932   2.065   2.437  0.9647 -0.4523  0.0872
 7842SOL     OW35161   4.169   2.341  10.387  0.2572 -0.0666  0.8965
 7842SOL    HW135162   4.180   2.416  10.328  1.1430 -1.5628 -0.8412
 7842SOL    HW235163   4.259   2.332  10.420  0.8900 -2.9355 -1.6062
 7843SOL     OW35164   1.137   3.829   6.567  0.4273  0.7450  0.1999
 7843SOL    HW135165   1.219   3.809   6.612 -0.4188 -3.0742 -0.0115
 7843SOL    HW235166   1.081   3.754   6.583  0.7730  0.7558  1.4684
 7844SOL     OW35167   1.874   4.358   8.371 -0.6769  0.2665 -0.1826
 7844SOL    HW135168   1.933   4.331   8.442 -2.1406 -1.2896  0.4312
 7844SOL    HW235169   1.815   4.283   8.364 -0.2789  0.0336 -1.0011
 7845SOL     OW35170   2.600   1.310   4.510  0.3440 -0.1731 -0.4453
 7845SOL    HW135171   2.555   1.394   4.501  2.5372  1.2197  1.6065
 7845SOL    HW235172   2.662   1.307   4.437  0.4748  3.1784 -0.4678
 7846SOL     OW35173   0.942   3.785   2.404 -0.1196 -0.1197 -0.4460
 7846SOL    HW135174   0.852   3.783   2.373 -0.6895 -2.8073  1.4068
 7846SOL    HW235175   0.958   3.692   2.416 -1.9238 -0.7534 -3.0092
 7847SOL     OW35176   1.560   4.142  14.930 -0.2024  0.1144 -0.4042
 7847SOL    HW135177   1.627   4.075  14.943 -0.7739 -0.2566  0.5997
 7847SOL    HW235178   1.602   4.189  14.858  1.4906  0.5057  0.8570
 7848SOL     OW35179   0.479   4.622   0.484 -0.2121 -0.0053  0.1555
 7848SOL    HW135180   0.396   4.575   0.486  0.4460 -1.0231  3.1290
 7848SOL    HW235181   0.544   4.566   0.526  0.2021  0.4134  0.0747
 7849SOL     OW35182   3.081   1.448  16.108 -0.2940  0.7964 -0.4738
 7849SOL    HW135183   3.059   1.467  16.200  0.4595 -2.7576  0.4248
 7849SOL    HW235184   3.147   1.380  16.117 -0.8443  0.2245 -0.7568
 7850SOL     OW35185   4.573   1.954   8.101  0.2191 -0.0813  0.0948
 7850SOL    HW135186   4.502   2.011   8.071 -0.2489 -1.9136 -2.2622
 7850SOL    HW235187   4.561   1.876   8.047 -0.5362 -0.2461  0.4874
 7851SOL     OW35188   4.735   1.339   6.406 -1.1155 -0.4661 -0.0508
 7851SOL    HW135189   0.008   1.326   6.500 -0.7105  0.0946 -0.0236
 7851SOL    HW235190   4.668   1.275   6.382 -0.2295 -1.2705 -0.3685
 7852SOL     OW35191   2.884   4.255   4.197 -0.7962  0.0089 -0.3422
 7852SOL    HW135192   2.810   4.315   4.194  0.3005  1.3066 -1.7111
 7852SOL    HW235193   2.893   4.244   4.102 -3.1841 -0.9838 -0.4448
 7853SOL     OW35194   2.151   3.934   7.637 -0.5668  0.3307 -0.0602
 7853SOL    HW135195   2.215   4.002   7.656  0.6884 -0.5667 -1.0776
 7853SOL    HW235196   2.156   3.921   7.542 -2.0288  0.6581 -0.1850
 7854SOL     OW35197   3.884   4.519  11.904 -0.6610 -0.2252  0.0922
 7854SOL    HW135198   3.941   4.447  11.877 -0.0278 -0.7578  2.8625
 7854SOL    HW235199   3.910   4.585  11.839  1.9156  0.4191  1.7684
 7855SOL     OW35200   1.482   0.394   7.050 -0.0882 -0.4311 -0.4603
 7855SOL    HW135201   1.432   0.472   7.029  0.7467 -0.1538 -1.3627
 7855SOL    HW235202   1.575   0.410   7.068  0.0680  0.6117 -2.3061
 7856SOL     OW35203   2.950   2.054   2.999 -0.8629  0.6140  0.2515
 7856SOL    HW135204   2.962   1.966   3.034  2.0338  0.8061 -0.2686
 7856SOL    HW235205   2.972   2.042   2.906 -0.1916  2.4368  0.1768
 7857SOL     OW35206   3.464   3.290   6.532  0.0586  0.5293 -0.3204
 7857SOL    HW135207   3.428   3.342   6.460  0.1930  1.7880  0.5161
 7857SOL    HW235208   3.385   3.259   6.575  0.7178 -0.1935  0.3764
 7858SOL     OW35209   2.727   1.710   7.347  0.1932  0.2627  0.2803
 7858SOL    HW135210   2.731   1.780   7.413 -0.2278 -1.2051  1.8721
 7858SOL    HW235211   2.649   1.659   7.368  0.8026 -0.8722 -0.2338
 7859SOL     OW35212   4.450   2.714   2.919 -0.5013  0.3086 -0.3795
 7859SOL    HW135213   4.487   2.791   2.964  0.6242 -0.2781 -0.2941
 7859SOL    HW235214   4.465   2.738   2.828  1.0815 -1.1769 -0.5157
 7860SOL     OW35215   0.650   0.644  10.312  0.3401 -0.0530  0.0967
 7860SOL    HW135216   0.708   0.575  10.343  1.0727 -0.1855 -1.5911
 7860SOL    HW235217   0.599   0.607  10.240 -2.6568  1.4228  1.4511
 7861SOL     OW35218   2.603   0.074  14.879 -0.8953 -0.7683 -0.3660
 7861SOL    HW135219   2.558   0.045  14.959 -0.6571 -0.7499 -0.2229
 7861SOL    HW235220   2.542   0.143  14.853  2.4183  2.9919  1.7683
 7862SOL     OW35221   2.553   3.342   8.150  0.5708 -0.0738 -0.0879
 7862SOL    HW135222   2.588   3.285   8.219  0.3441  0.1142  0.1866
 7862SOL    HW235223   2.630   3.353   8.094 -0.4672  1.3193 -1.2359
 7863SOL     OW35224   2.131   1.097   5.116  0.2983 -0.1801 -0.6403
 7863SOL    HW135225   2.160   1.171   5.169  0.6102 -0.8328  0.1020
 7863SOL    HW235226   2.209   1.043   5.107  0.3372 -0.2769  0.2885
 7864SOL     OW35227   3.222   0.290   7.744 -0.1976 -0.2030 -0.1338
 7864SOL    HW135228   3.300   0.251   7.704  0.3545  1.5226 -0.7336
 7864SOL    HW235229   3.259   0.375   7.769 -1.8189  0.2949  0.5266
 7865SOL     OW35230   2.443   2.451   7.775 -0.6972  0.4741 -0.0197
 7865SOL    HW135231   2.469   2.456   7.684 -0.6285 -0.0128 -0.0235
 7865SOL    HW235232   2.415   2.360   7.785  0.0664  0.1934 -0.4491
 7866SOL     OW35233   2.972   0.011   6.456  0.1514 -0.2695  0.7804
 7866SOL    HW135234   3.000   0.059   6.534 -1.1577  0.3272  0.8811
 7866SOL    HW235235   2.922   4.677   6.493  0.3798 -1.1856 -0.6997
 7867SOL     OW35236   3.383   4.225   8.146  0.0946  0.4030 -0.0714
 7867SOL    HW135237   3.454   4.238   8.209  0.6126  0.1032 -0.5987
 7867SOL    HW235238   3.327   4.160   8.188 -0.7565  1.1373 -0.0574
 7868SOL     OW35239   1.173   3.251   9.371 -0.0139 -0.3222  0.1209
 7868SOL    HW135240   1.254   3.296   9.398  0.5612 -0.6088 -1.1639
 7868SOL    HW235241   1.203   3.160   9.366 -1.6534 -0.7277 -2.2570
 7869SOL     OW35242   2.249   0.350   8.215 -0.5453  0.4829 -0.1947
 7869SOL    HW135243   2.227   0.413   8.148  2.1361  0.3537 -1.2089
 7869SOL    HW235244   2.217   0.389   8.297 -1.4282 -0.3532 -0.1387
 7870SOL     OW35245   1.550   1.014   4.428  0.7114 -0.6169  0.6395
 7870SOL    HW135246   1.544   0.963   4.509 -0.6623 -1.4975 -0.0167
 7870SOL    HW235247   1.636   1.053   4.445  1.6625 -0.2783 -5.0134
 7871SOL     OW35248   2.648   1.521   3.369 -0.0699 -0.1423 -0.2918
 7871SOL    HW135249   2.679   1.604   3.332  1.4915 -0.8561 -0.5677
 7871SOL    HW235250   2.653   1.540   3.463 -0.5183 -0.4900 -0.2014
 7872SOL     OW35251   3.936   3.840   9.653  0.4456 -0.1293  0.1327
 7872SOL    HW135252   3.868   3.778   9.626 -0.6426  1.3615 -0.5542
 7872SOL    HW235253   4.006   3.819   9.591  1.2510 -1.4758  1.5094
 7873SOL     OW35254   1.391   0.003   5.512 -0.2167  0.4180 -0.1405
 7873SOL    HW135255   1.459   0.057   5.551 -1.2080 -1.3076  4.0114
 7873SOL    HW235256   1.438   4.659   5.511 -1.4005 -0.2433 -0.9830
 7874SOL     OW35257   2.155   4.314   3.259 -0.0239 -0.0718  0.1021
 7874SOL    HW135258   2.172   4.230   3.217 -1.6123 -0.3594  0.0603
 7874SOL    HW235259   2.076   4.334   3.209  0.0574 -2.7156 -1.1001
 7875SOL     OW35260   3.094   2.098   4.387 -0.7447  0.4673 -0.6869
 7875SOL    HW135261   3.139   2.182   4.379 -0.0654 -0.0228 -2.1731
 7875SOL    HW235262   3.082   2.068   4.297 -1.0002  1.7595 -1.0824
 7876SOL     OW35263   3.777   2.130   3.863  0.1539  0.4458 -0.1951
 7876SOL    HW135264   3.780   2.201   3.928  1.0340  1.8644 -1.7752
 7876SOL    HW235265   3.740   2.060   3.917  0.6037 -1.8858 -2.9467
 7877SOL     OW35266   1.374   3.506  12.707 -0.2354  0.1829 -0.0842
 7877SOL    HW135267   1.365   3.420  12.667  1.0453  0.9857 -2.0836
 7877SOL    HW235268   1.429   3.549  12.642 -1.2202  0.4743 -0.7313
 7878SOL     OW35269   3.445   1.076   3.209 -0.3374  0.5066 -0.8199
 7878SOL    HW135270   3.385   1.019   3.161  0.0980 -0.0260 -0.7421
 7878SOL    HW235271   3.463   1.137   3.138 -2.0797  0.0467 -1.6704
 7879SOL     OW35272   3.525   3.705   2.198  0.4611 -0.6089 -0.5607
 7879SOL    HW135273   3.574   3.624   2.187 -0.4445 -1.1271 -0.8062
 7879SOL    HW235274   3.458   3.689   2.265  0.1885  1.1731 -0.4072
 7880SOL     OW35275   0.446   4.718   5.503 -0.5038  0.1265 -0.6195
 7880SOL    HW135276   0.532   4.730   5.544 -0.8841  0.8140 -0.0286
 7880SOL    HW235277   0.465   4.649   5.439 -0.7844 -2.2603  1.8328
 7881SOL     OW35278   1.749   0.595   3.297  0.2318 -0.0674  0.1470
 7881SOL    HW135279   1.802   0.576   3.374  1.4518 -0.9799 -0.9238
 7881SOL    HW235280   1.701   0.670   3.332 -3.2475 -1.3741 -1.6854
 7882SOL     OW35281   3.594   1.949   8.312  0.1944 -0.1784 -0.1299
 7882SOL    HW135282   3.572   2.031   8.355  0.1314 -0.5775  0.5966
 7882SOL    HW235283   3.507   1.914   8.298  0.0293  0.0222  0.3902
 7883SOL     OW35284   2.007   2.906   1.787 -0.4531  0.1086  0.4495
 7883SOL    HW135285   2.019   2.866   1.873  0.0905 -1.2497 -0.2705
 7883SOL    HW235286   1.954   2.981   1.816 -0.9601  0.4880 -1.4482
 7884SOL     OW35287   4.078   2.151   7.244  0.1750 -0.3747 -0.2462
 7884SOL    HW135288   4.076   2.228   7.186  0.5101 -0.0558  0.1661
 7884SOL    HW235289   4.173   2.142   7.236  0.2185 -0.8740  0.9857
 7885SOL     OW35290   0.529   0.274   2.027 -0.3596  0.0063 -0.0675
 7885SOL    HW135291   0.512   0.189   2.069 -0.8379  0.3537  0.4443
 7885SOL    HW235292   0.606   0.299   2.078  1.2553 -0.0280 -2.5348
 7886SOL     OW35293   0.381   2.204   8.502  0.4158  0.5277 -0.0680
 7886SOL    HW135294   0.411   2.177   8.589 -0.5485 -0.2503  0.0277
 7886SOL    HW235295   0.376   2.299   8.510 -1.0032  0.5214 -0.9857
 7887SOL     OW35296   0.693   1.366   6.470 -0.0719 -0.4654 -0.2995
 7887SOL    HW135297   0.726   1.372   6.380  0.1906  0.2573 -0.1569
 7887SOL    HW235298   0.661   1.453   6.495  1.5382  0.2640 -0.7779
 7888SOL     OW35299   2.414   2.133   3.246  0.4138  0.3418 -0.0741
 7888SOL    HW135300   2.494   2.162   3.204  0.5313 -0.1626 -0.1935
 7888SOL    HW235301   2.410   2.038   3.239  0.8386  0.4437 -1.5888
 7889SOL     OW35302   0.897   4.235   4.950 -0.9240 -0.7171  0.4862
 7889SOL    HW135303   0.931   4.275   5.030 -0.0524 -0.4090 -0.0424
 7889SOL    HW235304   0.840   4.303   4.914  0.5843 -0.9982 -2.3746
 7890SOL     OW35305   2.022   3.863   4.683 -0.5816  0.1298 -0.2806
 7890SOL    HW135306   1.983   3.873   4.596 -0.2733  0.2649 -0.4023
 7890SOL    HW235307   2.016   3.956   4.705  1.0669  0.4038 -1.0125
 7891SOL     OW35308   0.516   0.852  14.888  0.2029 -0.2023 -0.4318
 7891SOL    HW135309   0.435   0.902  14.896  0.1320 -0.4553  0.4037
 7891SOL    HW235310   0.541   0.869  14.798 -0.5930 -1.3425 -0.8696
 7892SOL     OW35311   2.391   2.984   8.552 -0.6211  0.5369 -0.2010
 7892SOL    HW135312   2.422   2.922   8.618  0.7420  1.7234  0.2866
 7892SOL    HW235313   2.433   3.067   8.577 -0.6773 -0.2928  2.6716
 7893SOL     OW35314   0.853   2.381   2.527 -0.3657  0.2526 -0.4776
 7893SOL    HW135315   0.899   2.308   2.487 -0.2619  0.7930 -1.3456
 7893SOL    HW235316   0.819   2.344   2.608 -0.2792  0.3819 -0.3806
 7894SOL     OW35317   4.726   0.887   7.276 -0.4326 -0.0616 -0.6275
 7894SOL    HW135318   4.681   0.969   7.258  2.2250  1.4488 -0.4844
 7894SOL    HW235319   4.727   0.851   7.188 -0.0086  0.8823 -1.0131
 7895SOL     OW35320   4.226   2.476   5.728  0.0609  0.8451 -0.0246
 7895SOL    HW135321   4.263   2.424   5.800  1.1759  2.6734  0.7222
 7895SOL    HW235322   4.213   2.409   5.661  1.6481 -0.1840  0.6823
 7896SOL     OW35323   0.123   3.959   3.605 -0.1192 -0.2703  0.1353
 7896SOL    HW135324   0.043   3.922   3.567 -1.2987 -0.3365  2.7145
 7896SOL    HW235325   0.092   4.043   3.637 -2.7861 -1.6652  1.2382
 7897SOL     OW35326   3.425   0.083   4.937 -0.5033  0.0938 -0.2152
 7897SOL    HW135327   3.416   0.138   4.859 -1.1597 -1.8311 -1.4989
 7897SOL    HW235328   3.337   0.085   4.972  0.4428 -0.1669  2.1387
 7898SOL     OW35329   4.415   1.886  14.782  0.3188 -0.3018  0.0342
 7898SOL    HW135330   4.348   1.849  14.724  0.4865  0.5457 -0.6970
 7898SOL    HW235331   4.408   1.832  14.860 -1.3613 -0.8312 -0.4783
 7899SOL     OW35332   4.192   4.146  13.087  0.0905 -0.3462  0.4292
 7899SOL    HW135333   4.242   4.151  13.168  0.5839 -0.8115  0.1593
 7899SOL    HW235334   4.117   4.201  13.107  0.2494  0.3201 -0.7415
 7900SOL     OW35335   0.180   4.181   2.098 -0.3082 -0.2538 -0.0382
 7900SOL    HW135336   0.123   4.127   2.044  0.2592 -0.6582 -0.2408
 7900SOL    HW235337   0.175   4.264   2.050  2.5502  1.6181  2.8416
 7901SOL     OW35338   0.939   2.149   4.183  0.2046  0.3840  0.5406
 7901SOL    HW135339   0.941   2.124   4.276  2.0329  0.8977  0.6372
 7901SOL    HW235340   1.007   2.215   4.171 -0.2941  0.8026  0.0526
 7902SOL     OW35341   4.559   2.223   6.919  0.0905 -0.2950 -0.1915
 7902SOL    HW135342   4.566   2.148   6.978  1.7327 -0.4284 -0.5695
 7902SOL    HW235343   4.603   2.191   6.840  0.8277  0.7928 -0.2252
 7903SOL     OW35344   0.546   2.152  15.878 -0.2640  0.4507 -0.3598
 7903SOL    HW135345   0.508   2.137  15.792  1.5004 -2.1789 -0.6835
 7903SOL    HW235346   0.486   2.097  15.929  0.8269  0.4740  0.9600
 7904SOL     OW35347   0.004   2.429  11.910  0.1692 -0.3452  0.0469
 7904SOL    HW135348   0.072   2.462  11.850 -0.8947 -0.9431 -1.4697
 7904SOL    HW235349   4.689   2.508  11.921  2.0018  0.7634  1.1216
 7905SOL     OW35350   4.615   4.230   1.890  0.2260 -0.6838  0.1076
 7905SOL    HW135351   4.538   4.200   1.841 -0.6705  0.7581  0.6685
 7905SOL    HW235352   4.667   4.149   1.885  0.5257 -0.4692 -0.2725
 7906SOL     OW35353   2.872   1.886   9.536  0.0852 -0.2107 -0.5309
 7906SOL    HW135354   2.907   1.811   9.584  0.2255  0.4990  0.4650
 7906SOL    HW235355   2.783   1.893   9.571  0.5658 -1.7076  1.0127
 7907SOL     OW35356   2.570   0.613   1.123  0.3162 -0.3671  0.1311
 7907SOL    HW135357   2.546   0.705   1.125  0.4002 -0.3264 -0.6281
 7907SOL    HW235358   2.545   0.597   1.032 -1.6064 -2.0572  0.9530
 7908SOL     OW35359   2.246   0.078   1.456 -0.1649  0.1066  0.4591
 7908SOL    HW135360   2.295   0.042   1.530  1.3386  0.8669 -0.1856
 7908SOL    HW235361   2.316   0.079   1.391 -0.4623 -0.7003  0.1231
 7909SOL     OW35362   0.417   3.611   5.011 -0.2884 -0.2634  0.5747
 7909SOL    HW135363   0.406   3.530   4.960 -0.5443  0.0963  0.0611
 7909SOL    HW235364   0.326   3.623   5.040 -0.2469 -2.4161  1.6244
 7910SOL     OW35365   3.897   3.991   7.463 -0.3012 -0.1564  0.5175
 7910SOL    HW135366   3.886   3.985   7.368 -1.5296  0.2933  0.6369
 7910SOL    HW235367   3.976   4.043   7.477 -0.0272 -0.3875 -0.1752
 7911SOL     OW35368   3.992   1.767   2.625 -0.3522  0.5444 -0.4877
 7911SOL    HW135369   3.970   1.680   2.658 -1.2157  1.0670  0.3156
 7911SOL    HW235370   3.922   1.813   2.672  0.5689  0.1358  1.2763
 7912SOL     OW35371   2.450   3.554   1.545  0.9402 -0.3008  0.3911
 7912SOL    HW135372   2.516   3.496   1.583 -1.3140 -2.5461  0.8567
 7912SOL    HW235373   2.465   3.629   1.601 -2.2333  0.3219  0.3652
 7913SOL     OW35374   0.100   3.881   3.017 -0.4215 -0.0823 -0.0215
 7913SOL    HW135375   0.193   3.888   2.995  0.1854  0.6900  2.7018
 7913SOL    HW235376   0.057   3.836   2.944  1.0431  0.4667 -1.2179
 7914SOL     OW35377   1.968   0.086   0.182  0.5197  0.1584 -0.1814
 7914SOL    HW135378   1.997   0.126   0.100  0.3977 -1.2438 -0.9233
 7914SOL    HW235379   2.023   0.008   0.194 -2.1476 -2.0988 -2.5979
 7915SOL     OW35380   4.443   0.197  14.842  0.2782 -0.8110 -0.8676
 7915SOL    HW135381   4.455   0.265  14.909  0.2723 -1.8207  0.1617
 7915SOL    HW235382   4.534   0.185  14.814 -0.4060 -3.0980 -2.0641
 7916SOL     OW35383   4.634   3.418   2.828  0.0048  0.2532 -1.0978
 7916SOL    HW135384   4.630   3.389   2.737  2.0036 -2.1207 -0.4256
 7916SOL    HW235385   4.581   3.350   2.869  0.8766 -0.5330 -1.2659
 7917SOL     OW35386   4.377   2.196   8.667  0.4472  0.3835 -0.3889
 7917SOL    HW135387   4.287   2.199   8.635  0.6143  0.0560 -0.9014
 7917SOL    HW235388   4.420   2.277   8.641  1.4872 -0.1666 -0.3989
 7918SOL     OW35389   0.504   2.661   4.061 -0.4645 -0.3140 -0.5904
 7918SOL    HW135390   0.504   2.600   4.135 -1.1238  0.4768  0.0606
 7918SOL    HW235391   0.447   2.728   4.099  0.4848 -0.1223  0.4584
 7919SOL     OW35392   0.641   0.025   4.281  0.1992  0.4355 -0.2223
 7919SOL    HW135393   0.564   0.066   4.320  1.1058  1.0387  0.9359
 7919SOL    HW235394   0.675   4.710   4.353  0.9646  1.2503  0.0305
 7920SOL     OW35395   1.856   0.467  14.209 -0.2286 -0.2244 -0.3016
 7920SOL    HW135396   1.779   0.496  14.160 -0.8377  0.4957  1.0887
 7920SOL    HW235397   1.922   0.467  14.139 -0.1954  3.5723 -0.2466
 7921SOL     OW35398   0.023   4.711  15.434 -0.0202 -0.2428  0.7214
 7921SOL    HW135399   4.672   4.712  15.401  1.2053  1.2123 -2.4809
 7921SOL    HW235400   0.063   4.723  15.348  1.9125  0.1033  1.6776
 7922SOL     OW35401   1.720   1.240  12.252 -0.1767  0.2422 -0.3645
 7922SOL    HW135402   1.646   1.258  12.310 -1.4247 -0.9981 -1.5831
 7922SOL    HW235403   1.672   1.241  12.169 -0.7231 -1.9361 -0.0621
 7923SOL     OW35404   3.739   1.710   9.518  0.1417  0.0961  0.5567
 7923SOL    HW135405   3.727   1.671   9.604 -1.5615 -0.2970  0.1351
 7923SOL    HW235406   3.670   1.776   9.518 -1.2357 -1.3513 -0.2995
 7924SOL     OW35407   3.097   3.667  14.172  0.8003  0.2619  0.2552
 7924SOL    HW135408   3.134   3.728  14.235  1.8707  1.3397 -1.4110
 7924SOL    HW235409   3.146   3.588  14.193 -0.8509 -1.3224 -1.7309
 7925SOL     OW35410   1.855   3.862   1.372  0.0208  0.4037  0.2002
 7925SOL    HW135411   1.870   3.799   1.442  0.0882 -2.0227 -1.9913
 7925SOL    HW235412   1.790   3.923   1.408 -1.2687  0.0460 -1.4900
 7926SOL     OW35413   3.176   0.217   3.792 -0.4878 -0.4618 -1.2581
 7926SOL    HW135414   3.130   0.295   3.763  0.4072 -0.4835 -2.7327
 7926SOL    HW235415   3.109   0.149   3.782 -1.5304  0.1041  1.8056
 7927SOL     OW35416   2.313   0.647   7.310 -0.0372 -0.3736 -0.2593
 7927SOL    HW135417   2.365   0.572   7.280  2.1976  0.0544  2.5101
 7927SOL    HW235418   2.249   0.607   7.369 -0.7170  0.1572 -0.6593
 7928SOL     OW35419   2.776   0.917   9.732 -0.5565  0.6899 -0.4700
 7928SOL    HW135420   2.749   0.895   9.821 -2.8150  1.7146 -0.9010
 7928SOL    HW235421   2.709   0.872   9.680  0.6436  2.2153 -3.3858
 7929SOL     OW35422   1.102   1.112   0.623 -0.5222 -0.6536  0.1633
 7929SOL    HW135423   1.194   1.101   0.644  0.0592  0.4748 -1.7465
 7929SOL    HW235424   1.061   1.122   0.709  1.9694  1.7368  1.0987
 7930SOL     OW35425   1.705   1.644   4.866  0.7030 -0.0884  0.4249
 7930SOL    HW135426   1.639   1.625   4.799  2.6176 -0.3928 -1.3616
 7930SOL    HW235427   1.712   1.557   4.904  0.1671  0.0666  0.8818
 7931SOL     OW35428   2.156   0.799   8.688  0.3613 -0.0295 -0.0436
 7931SOL    HW135429   2.250   0.808   8.673  0.5349 -2.0361 -0.1832
 7931SOL    HW235430   2.138   0.891   8.703  1.0751  0.2086 -0.5893
 7932SOL     OW35431   2.263   3.261   1.408  0.6789 -0.3721 -0.5385
 7932SOL    HW135432   2.226   3.349   1.416  0.8477 -0.3765  0.2777
 7932SOL    HW235433   2.219   3.218   1.335 -0.8814 -0.4584  0.4505
 7933SOL     OW35434   0.970   2.493   3.103  0.5050  0.7751  0.0002
 7933SOL    HW135435   0.910   2.463   3.035  0.7401 -0.0067  0.1325
 7933SOL    HW235436   0.952   2.585   3.083  0.0059  0.2481 -1.9863
 7934SOL     OW35437   1.155   4.628   3.836 -0.0868  0.6029 -0.1996
 7934SOL    HW135438   1.121   4.548   3.876  0.6707 -0.5483 -1.8670
 7934SOL    HW235439   1.249   4.611   3.845 -0.2504 -1.2587 -1.8786
 7935SOL     OW35440   1.904   1.744   4.720  0.2275 -0.4620  0.6484
 7935SOL    HW135441   1.843   1.714   4.787 -1.0824  2.1922  0.6316
 7935SOL    HW235442   1.848   1.743   4.642 -0.1783  1.6964  0.9196
 7936SOL     OW35443   2.100   2.434   3.213  0.4657  0.0700 -0.0281
 7936SOL    HW135444   2.010   2.401   3.211  0.0353  1.3132 -1.5696
 7936SOL    HW235445   2.088   2.528   3.201  1.4775  0.1762 -0.2168
 7937SOL     OW35446   1.592   1.516   9.590 -0.0256 -0.4384 -0.3263
 7937SOL    HW135447   1.634   1.589   9.546  3.0977 -1.1562  1.4765
 7937SOL    HW235448   1.503   1.550   9.594  0.4643  0.8881 -1.0392
 7938SOL     OW35449   0.862   0.107   5.477 -0.3184 -0.3909  0.6168
 7938SOL    HW135450   0.956   0.102   5.496 -0.5734 -1.5470  1.5961
 7938SOL    HW235451   0.852   0.033   5.417  0.4590  0.7075 -0.8719
 7939SOL     OW35452   0.112   0.461   2.855 -0.0346  0.4122  0.2699
 7939SOL    HW135453   0.019   0.437   2.865  0.7904 -1.6665  3.1566
 7939SOL    HW235454   0.108   0.524   2.783  1.2916  0.9193  0.6419
 7940SOL     OW35455   1.006   0.210  10.762 -0.2288  0.6750 -0.9097
 7940SOL    HW135456   1.018   0.292  10.810 -0.1211 -0.5972  1.2790
 7940SOL    HW235457   0.913   0.214  10.740 -0.5411 -0.8725  0.1294
 7941SOL     OW35458   2.746   3.125   2.441 -0.0576  0.2405  0.3124
 7941SOL    HW135459   2.730   3.219   2.443 -0.2626  0.2315 -1.2309
 7941SOL    HW235460   2.789   3.104   2.524  0.9057 -3.0849 -0.9884
 7942SOL     OW35461   2.698   1.873   4.004  0.1936  0.0643 -0.0143
 7942SOL    HW135462   2.686   1.965   3.981  2.4566 -0.6449 -3.9240
 7942SOL    HW235463   2.793   1.865   3.998  0.4839  2.9093  0.5723
 7943SOL     OW35464   0.981   0.105   2.343 -0.2457  0.2748  0.4462
 7943SOL    HW135465   1.075   0.089   2.336 -0.4887 -0.7285 -0.4824
 7943SOL    HW235466   0.954   0.033   2.401  1.6751  1.1301  2.4036
 7944SOL     OW35467   0.157   2.478  17.494 -0.0657  0.2684  0.2559
 7944SOL    HW135468   0.164   2.467  17.399 -0.4208  0.3124  0.2233
 7944SOL    HW235469   0.062   2.490  17.503 -0.5044 -2.5452 -0.5623
 7945SOL     OW35470   0.064   0.281  11.220  0.5228  0.0497 -0.4429
 7945SOL    HW135471   0.021   0.254  11.301  0.6897  0.0477 -0.3549
 7945SOL    HW235472   0.132   0.342  11.248 -0.0878  0.8502 -0.7282
 7946SOL     OW35473   2.766   3.750  15.838  0.2849  0.0576  0.0902
 7946SOL    HW135474   2.723   3.667  15.858 -1.7861  2.1334  4.3373
 7946SOL    HW235475   2.701   3.790  15.781 -1.6580  0.3683  2.5389
 7947SOL     OW35476   0.140   0.891   8.917  0.0318 -0.1386  0.1361
 7947SOL    HW135477   0.210   0.853   8.970  1.2781  0.3064 -1.1643
 7947SOL    HW235478   0.114   0.966   8.970 -0.1483  1.2776 -1.9349
 7948SOL     OW35479   1.310   3.039  11.439  0.4322 -0.1193  0.1852
 7948SOL    HW135480   1.384   3.099  11.436  1.4470 -1.3289  1.1588
 7948SOL    HW235481   1.343   2.967  11.494 -3.8558 -1.1167  1.4685
 7949SOL     OW35482   2.789   3.013   4.367  0.0084  0.2004 -0.1387
 7949SOL    HW135483   2.843   3.037   4.292  1.1364  2.3448  1.3610
 7949SOL    HW235484   2.746   2.933   4.336 -1.0479  1.6521 -2.4397
 7950SOL     OW35485   1.811   3.811   7.342  0.0743 -0.6980 -0.0791
 7950SOL    HW135486   1.830   3.846   7.429 -1.9532 -3.8909  1.6295
 7950SOL    HW235487   1.866   3.733   7.337  4.0065  2.0973 -0.2237
 7951SOL     OW35488   0.511   2.805   6.835  0.4680 -0.3816  0.3043
 7951SOL    HW135489   0.422   2.831   6.814  0.6566 -0.1140 -0.1693
 7951SOL    HW235490   0.517   2.811   6.931  1.6181 -0.7050  0.2564
 7952SOL     OW35491   0.957   2.257   8.043  0.5559 -0.1048 -0.0141
 7952SOL    HW135492   1.014   2.333   8.052 -1.3704  1.2637  0.6815
 7952SOL    HW235493   0.909   2.294   7.969 -0.0474  1.1190  0.9883
 7953SOL     OW35494   3.931   0.845   2.481  0.3679  0.2223  0.1311
 7953SOL    HW135495   3.866   0.876   2.545 -0.3035 -1.5461  0.3111
 7953SOL    HW235496   3.916   0.905   2.408  0.3992 -2.4583 -2.0556
 7954SOL     OW35497   3.789   1.572  17.751 -0.0966 -0.0040 -0.6784
 7954SOL    HW135498   3.830   1.499  17.706 -1.0805 -0.3708 -0.9743
 7954SOL    HW235499   3.863   1.629   0.020 -0.6802  0.1710  0.9041
 7955SOL     OW35500   4.391   3.929   9.042  0.1399 -0.2397 -0.1442
 7955SOL    HW135501   4.480   3.961   9.055 -0.4140  0.9929  0.6050
 7955SOL    HW235502   4.404   3.847   9.088 -2.9164 -0.9534 -0.5694
 7956SOL     OW35503   2.738   2.172   7.717 -0.0136 -0.6245 -0.1914
 7956SOL    HW135504   2.798   2.222   7.661 -1.2143  1.8956  0.7728
 7956SOL    HW235505   2.723   2.234   7.788 -1.1267  0.3234 -1.2415
 7957SOL     OW35506   1.551   0.516   2.056 -0.2800  0.3565  0.1630
 7957SOL    HW135507   1.496   0.568   1.997  3.2448  0.7579 -2.7503
 7957SOL    HW235508   1.539   0.568   2.135  0.9460  0.3772  0.3219
 7958SOL     OW35509   4.143   3.841   4.049 -0.2355 -0.6699  0.0149
 7958SOL    HW135510   4.232   3.807   4.060 -0.3395 -1.0149 -0.2357
 7958SOL    HW235511   4.103   3.812   4.130 -0.3272  1.5046  0.7560
 7959SOL     OW35512   0.921   4.452   0.803  0.4009  0.0188  0.0666
 7959SOL    HW135513   0.853   4.495   0.750 -0.8869 -1.2670  0.6724
 7959SOL    HW235514   0.997   4.506   0.781  0.4920 -0.4518 -0.7717
 7960SOL     OW35515   3.090   2.178   5.941 -0.1247 -0.1905 -0.1612
 7960SOL    HW135516   3.014   2.233   5.957 -0.5108 -0.8165  0.1567
 7960SOL    HW235517   3.055   2.090   5.957 -1.5263  0.1355 -1.4978
 7961SOL     OW35518   1.343   3.762  10.878 -0.6947  0.4911  0.2810
 7961SOL    HW135519   1.392   3.689  10.916 -1.6529 -1.0754 -1.4702
 7961SOL    HW235520   1.294   3.787  10.956 -1.0427  2.9561 -0.7426
 7962SOL     OW35521   1.949   3.818  17.699 -0.3153 -0.2711 -0.0237
 7962SOL    HW135522   2.020   3.843   0.006 -1.9258  0.9291  1.3579
 7962SOL    HW235523   1.976   3.847  17.612 -0.0885 -1.3843 -0.3345
 7963SOL     OW35524   4.226   0.727   2.021 -0.8174  0.5140 -0.2250
 7963SOL    HW135525   4.310   0.713   2.065 -0.8840  3.5066  0.8131
 7963SOL    HW235526   4.230   0.821   2.005 -0.4412  0.4311 -0.6202
 7964SOL     OW35527   3.256   1.466   4.734  0.1160  0.2720 -0.1186
 7964SOL    HW135528   3.336   1.519   4.736  1.3885 -1.7320  1.9824
 7964SOL    HW235529   3.204   1.542   4.710  0.5754  1.0272  1.2703
 7965SOL     OW35530   1.511   4.347   2.749  0.1559  0.0455  0.0556
 7965SOL    HW135531   1.573   4.395   2.694 -0.7785  0.4453 -0.6435
 7965SOL    HW235532   1.566   4.324   2.824 -0.5271 -0.7163  0.3187
 7966SOL     OW35533   4.341   1.248   5.757 -0.0293  0.4828 -0.0900
 7966SOL    HW135534   4.278   1.303   5.711  0.5162  0.7633 -0.5067
 7966SOL    HW235535   4.389   1.316   5.803  1.2990 -0.4543 -0.0908
 7967SOL     OW35536   2.317   2.726   3.095  0.3854 -0.4196 -0.0006
 7967SOL    HW135537   2.345   2.806   3.140 -2.8781  1.6445 -1.6046
 7967SOL    HW235538   2.376   2.729   3.020 -2.0210 -1.2766 -1.9372
 7968SOL     OW35539   4.131   0.648   6.060  0.1202 -0.4076 -0.5013
 7968SOL    HW135540   4.055   0.609   6.102  0.2832 -0.1990 -0.0180
 7968SOL    HW235541   4.202   0.600   6.102  1.0029  2.3498  1.2111
 7969SOL     OW35542   3.423   0.246   5.270 -0.2228  0.0316 -0.1568
 7969SOL    HW135543   3.492   0.299   5.229 -0.1731  0.5326  0.5833
 7969SOL    HW235544   3.473   0.176   5.312  0.1017 -0.4703 -1.3817
 7970SOL     OW35545   1.064   1.881   9.648  0.2424 -0.3433  0.3764
 7970SOL    HW135546   1.150   1.913   9.620 -1.1456  0.0569 -3.5141
 7970SOL    HW235547   1.012   1.961   9.636  0.6025 -0.2629 -0.6642
 7971SOL     OW35548   2.508   1.372   4.053 -0.4456 -0.1220 -0.2703
 7971SOL    HW135549   2.479   1.462   4.064  0.7931  0.3167 -0.5695
 7971SOL    HW235550   2.492   1.346   4.144  0.0248 -1.6176 -0.6092
 7972SOL     OW35551   0.438   0.816   3.333  0.0163  0.3655  0.1042
 7972SOL    HW135552   0.527   0.781   3.326 -0.5563 -1.2074  0.7089
 7972SOL    HW235553   0.423   0.776   3.419  0.1813  1.1877  0.5090
 7973SOL     OW35554   4.092   4.048   1.197  0.0106 -0.8604  0.0741
 7973SOL    HW135555   4.014   3.999   1.172 -0.4517  0.2736 -0.7479
 7973SOL    HW235556   4.141   4.034   1.115  0.2114 -0.8415  0.1915
 7974SOL     OW35557   3.527   2.442   3.582 -0.5174  0.3748 -0.3204
 7974SOL    HW135558   3.580   2.368   3.611 -0.0409  0.7644 -0.2015
 7974SOL    HW235559   3.587   2.470   3.514  0.6129  0.8259  0.8629
 7975SOL     OW35560   0.397   2.780   7.864  0.1221 -0.2614 -0.3450
 7975SOL    HW135561   0.414   2.874   7.862  0.8385 -0.2934  3.3362
 7975SOL    HW235562   0.451   2.738   7.797  2.4117  0.3019  1.1740
 7976SOL     OW35563   3.823   3.097  14.462 -0.4054 -0.0039  0.2708
 7976SOL    HW135564   3.869   3.176  14.491  0.7798 -0.9916  1.0505
 7976SOL    HW235565   3.792   3.125  14.376 -2.3422 -2.1621  0.2702
 7977SOL     OW35566   0.855   2.331   2.129 -0.3834 -0.2872 -0.4177
 7977SOL    HW135567   0.839   2.246   2.170 -1.3294  0.5140  0.8773
 7977SOL    HW235568   0.776   2.385   2.134 -0.5878 -0.7995  1.8486
 7978SOL     OW35569   4.009   3.686   8.719  0.0605 -0.0243 -0.2320
 7978SOL    HW135570   3.983   3.717   8.806 -0.1077 -0.2677 -0.1958
 7978SOL    HW235571   4.090   3.647   8.751  0.8122  3.4460  2.0489
 7979SOL     OW35572   2.208   4.420  13.111  0.1610  0.2150  0.9339
 7979SOL    HW135573   2.207   4.341  13.164  1.6862  0.0619  0.7458
 7979SOL    HW235574   2.299   4.444  13.132  0.5756  0.5149 -1.2103
 7980SOL     OW35575   2.948   2.442   0.772 -0.2228  1.0734  0.0579
 7980SOL    HW135576   2.871   2.497   0.781 -1.0560 -0.0045 -0.4060
 7980SOL    HW235577   2.978   2.435   0.862  0.4552  0.4870 -0.2090
 7981SOL     OW35578   0.322   1.376   4.235  0.1419  0.6806 -0.2350
 7981SOL    HW135579   0.382   1.320   4.284 -1.0964  0.4467  0.9858
 7981SOL    HW235580   0.255   1.318   4.198  0.6703  0.0642 -0.2342
 7982SOL     OW35581   2.203   0.887   7.487  0.5777  0.3352  0.4467
 7982SOL    HW135582   2.141   0.956   7.510 -1.5584 -1.1631 -0.8832
 7982SOL    HW235583   2.187   0.839   7.569  2.1857  0.1418  0.6479
 7983SOL     OW35584   4.582   3.077   7.692  0.0484  0.0440  0.6174
 7983SOL    HW135585   4.591   3.016   7.765 -0.1596 -1.0442 -0.2599
 7983SOL    HW235586   4.550   3.027   7.617  0.0681 -0.4729  0.9542
 7984SOL     OW35587   4.382   3.564   3.831 -0.1935 -0.6190  0.1755
 7984SOL    HW135588   4.286   3.558   3.828 -0.2163  0.4936 -1.2339
 7984SOL    HW235589   4.384   3.628   3.901 -0.2214 -0.8076  0.3501
 7985SOL     OW35590   3.552   3.462   8.281 -0.1420  0.4913 -0.0256
 7985SOL    HW135591   3.563   3.519   8.205 -0.0668  0.5125  0.0011
 7985SOL    HW235592   3.482   3.499   8.334 -0.1677  1.6749 -0.8854
 7986SOL     OW35593   4.533   4.330  11.966 -0.1365 -0.7876  0.3508
 7986SOL    HW135594   4.497   4.414  11.936  2.9903  0.9638  1.5804
 7986SOL    HW235595   4.488   4.307  12.047 -0.6513 -1.5103 -0.1400
 7987SOL     OW35596   3.935   3.342   9.333 -0.1005 -0.3544 -0.7498
 7987SOL    HW135597   3.938   3.427   9.290  2.1627 -0.4624 -0.8192
 7987SOL    HW235598   4.029   3.320   9.328  0.5675  2.5254 -0.5873
 7988SOL     OW35599   3.798   3.489   4.410 -0.2215  0.1198 -0.5750
 7988SOL    HW135600   3.790   3.583   4.391  0.4257  0.9109  3.0256
 7988SOL    HW235601   3.865   3.492   4.478 -0.8031 -4.2712  0.1756
 7989SOL     OW35602   3.722   4.714   8.789  0.4170 -0.1358 -0.3750
 7989SOL    HW135603   3.717   0.065   8.757 -1.1797 -0.2238 -0.3887
 7989SOL    HW235604   3.708   4.668   8.706  0.2074  1.7997 -1.4087
 7990SOL     OW35605   0.807   1.324   9.865  0.3013 -0.0598 -0.3880
 7990SOL    HW135606   0.754   1.262   9.815 -0.7687 -0.3112  1.0567
 7990SOL    HW235607   0.773   1.299   9.951  0.8332 -1.8285 -0.6713
 7991SOL     OW35608   0.572   4.459  12.368  0.1073 -0.1900  0.4049
 7991SOL    HW135609   0.658   4.499  12.361  1.1815 -2.6890 -0.8323
 7991SOL    HW235610   0.580   4.404  12.446  3.9584 -0.7168 -0.3808
 7992SOL     OW35611   0.116   3.425   7.367  0.4856  0.2033 -0.0682
 7992SOL    HW135612   0.071   3.359   7.420  2.4498  1.4422  3.1760
 7992SOL    HW235613   0.045   3.488   7.381  1.1773  1.1540 -0.7939
 7993SOL     OW35614   1.590   2.589   5.791 -0.3693 -0.3951 -0.0745
 7993SOL    HW135615   1.500   2.561   5.803  0.4191 -2.2184  1.6526
 7993SOL    HW235616   1.623   2.550   5.873 -1.1350  1.3817  1.0951
 7994SOL     OW35617   2.202   0.556   8.046  0.0237 -0.0513  0.3113
 7994SOL    HW135618   2.142   0.585   8.114  1.6193  2.5212  0.5850
 7994SOL    HW235619   2.212   0.642   8.006 -2.9168 -0.4527 -1.3114
 7995SOL     OW35620   2.627   0.671   1.381 -0.3734 -0.4512 -0.3643
 7995SOL    HW135621   2.614   0.621   1.301  1.1259 -1.5643  0.0630
 7995SOL    HW235622   2.719   0.647   1.395 -0.1419  0.6905  0.0455
 7996SOL     OW35623   1.832   4.129   1.160  0.6909 -0.1729  0.9423
 7996SOL    HW135624   1.801   4.208   1.205 -0.5855  0.3318 -0.8266
 7996SOL    HW235625   1.921   4.120   1.193  0.9469  0.7628  0.5198
 7997SOL     OW35626   0.570   2.429   3.677  0.0247  0.2928 -0.4789
 7997SOL    HW135627   0.566   2.495   3.608 -0.1834  2.1351  1.2884
 7997SOL    HW235628   0.550   2.351   3.625  0.5956  0.4513 -0.9378
 7998SOL     OW35629   1.845   1.104   8.982 -0.3753 -0.2254  0.2366
 7998SOL    HW135630   1.830   1.010   8.971  0.4407 -0.3154 -0.0659
 7998SOL    HW235631   1.766   1.125   9.032  1.0014  0.5066  2.1070
 7999SOL     OW35632   4.150   3.749   9.542  0.9235  0.2459 -0.4795
 7999SOL    HW135633   4.187   3.790   9.620 -0.5372 -1.0784  0.9166
 7999SOL    HW235634   4.170   3.656   9.559  2.0888  0.7627  1.0493
 8000SOL     OW35635   2.058   0.438   5.224 -0.1197 -0.2202 -0.3044
 8000SOL    HW135636   2.111   0.516   5.207 -1.5255  0.7239 -0.3615
 8000SOL    HW235637   2.129   0.375   5.236  1.0110  1.0833 -0.1472
 8001SOL     OW35638   0.610   3.897   5.744 -0.6824 -0.1546 -0.0675
 8001SOL    HW135639   0.697   3.909   5.704  0.4503 -0.4967  2.3011
 8001SOL    HW235640   0.549   3.897   5.670  0.1221  1.2934 -0.7327
 8002SOL     OW35641   2.652   1.355   9.751 -0.0745 -0.4585 -0.1549
 8002SOL    HW135642   2.657   1.260   9.738  2.8742 -0.1300 -1.4845
 8002SOL    HW235643   2.590   1.357   9.824 -1.5702  0.0300 -1.4381
 8003SOL     OW35644   1.029   3.457   6.992  0.3579 -0.1002  0.3816
 8003SOL    HW135645   1.106   3.414   6.955  0.2414  0.4564 -0.5149
 8003SOL    HW235646   1.002   3.384   7.048 -0.9635 -0.1550 -0.3305
 8004SOL     OW35647   2.957   3.843   2.550 -0.0549  0.0629  0.1265
 8004SOL    HW135648   3.012   3.920   2.562 -1.4583  1.0260  0.3757
 8004SOL    HW235649   2.883   3.872   2.603 -1.9782 -1.7666 -1.5553
 8005SOL     OW35650   2.354   4.442   5.934 -0.1486  0.6533  0.0793
 8005SOL    HW135651   2.414   4.404   5.869 -0.2424  1.1854 -0.3169
 8005SOL    HW235652   2.370   4.536   5.924 -1.6073  0.9315  0.4347
 8006SOL     OW35653   1.390   2.989   3.431 -0.0762 -0.3615 -0.5735
 8006SOL    HW135654   1.357   2.899   3.426  1.6744 -1.0799  0.6439
 8006SOL    HW235655   1.318   3.029   3.479  0.2647 -0.3791 -0.0414
 8007SOL     OW35656   4.183   1.774   2.927  0.2481  0.1563 -0.2041
 8007SOL    HW135657   4.142   1.842   2.874  0.9662 -0.2391 -1.2747
 8007SOL    HW235658   4.110   1.717   2.955  0.0043  0.9981  0.8516
 8008SOL     OW35659   1.024   4.396   6.082  0.1980 -0.9706 -0.2308
 8008SOL    HW135660   1.087   4.324   6.085 -0.6605 -1.6058  2.0302
 8008SOL    HW235661   1.081   4.463   6.044 -0.7805  0.5772  1.0534
 8009SOL     OW35662   0.119   4.315   8.786 -0.1830 -0.3012  0.3386
 8009SOL    HW135663   0.202   4.344   8.747  0.0124 -0.6070  0.5281
 8009SOL    HW235664   0.149   4.284   8.871  0.4354  0.2293  0.3144
 8010SOL     OW35665   2.668   1.366  16.973 -0.0272  0.1077  0.5448
 8010SOL    HW135666   2.706   1.311  17.042  0.4542  0.7832  0.8172
 8010SOL    HW235667   2.697   1.319  16.894  1.7596  1.4908  0.3802
 8011SOL     OW35668   3.889   1.016   5.103 -0.1872  0.3041  0.4911
 8011SOL    HW135669   3.869   1.107   5.082 -0.4037  0.9744  3.5506
 8011SOL    HW235670   3.805   0.981   5.133 -0.0143 -0.8625 -0.4158
 8012SOL     OW35671   1.236   2.387   1.424  0.0068 -0.0575  0.1126
 8012SOL    HW135672   1.150   2.346   1.411  1.4363 -2.3336 -2.2342
 8012SOL    HW235673   1.290   2.324   1.376  0.5893 -0.6421  1.5495
 8013SOL     OW35674   3.318   3.057   5.271 -0.5147 -0.4631 -0.5181
 8013SOL    HW135675   3.414   3.058   5.276 -0.5933  0.1603  0.7451
 8013SOL    HW235676   3.307   3.063   5.176 -0.4661 -3.3929 -0.7295
 8014SOL     OW35677   1.774   1.199   6.229  0.3663  0.6916 -0.0382
 8014SOL    HW135678   1.794   1.267   6.164  2.8698 -0.5073 -0.5426
 8014SOL    HW235679   1.851   1.194   6.285 -0.5136  2.6425  1.3451
 8015SOL     OW35680   3.595   1.547   0.789  0.2487 -0.1874  0.1751
 8015SOL    HW135681   3.624   1.580   0.874 -1.6082 -0.3613  0.8608
 8015SOL    HW235682   3.592   1.452   0.799 -1.5181 -0.0515  0.8277
 8016SOL     OW35683   0.457   1.433   9.980 -0.0998 -0.1442  0.0545
 8016SOL    HW135684   0.370   1.404  10.008 -1.4345  2.0102 -1.7927
 8016SOL    HW235685   0.496   1.346   9.974  1.1674  0.4402 -0.1330
 8017SOL     OW35686   1.978   3.925   6.035 -0.6160 -0.5301 -0.4327
 8017SOL    HW135687   2.018   4.001   6.076  0.0433 -0.6908 -0.7782
 8017SOL    HW235688   2.027   3.857   6.081 -0.5671 -0.1465  0.0816
 8018SOL     OW35689   3.710   1.103   8.739 -0.5830  0.0936 -0.0211
 8018SOL    HW135690   3.703   1.072   8.830 -2.2790 -2.7031 -1.1244
 8018SOL    HW235691   3.769   1.178   8.743 -1.4501  0.8764 -1.7973
 8019SOL     OW35692   2.813   3.509   2.306  0.2296 -0.4680 -0.3337
 8019SOL    HW135693   2.820   3.605   2.303  1.8497 -0.4980  2.2847
 8019SOL    HW235694   2.733   3.501   2.358  2.3871 -0.7378  2.9068
 8020SOL     OW35695   1.747   1.228   7.029  0.1699 -0.4589  0.0036
 8020SOL    HW135696   1.703   1.294   7.082 -1.6948  1.1068 -3.5056
 8020SOL    HW235697   1.839   1.253   7.024  0.3039 -1.3313 -1.9792
 8021SOL     OW35698   1.819   0.263   6.088  0.5664  0.1689  0.3955
 8021SOL    HW135699   1.832   0.355   6.066 -0.0226  0.6379  1.9821
 8021SOL    HW235700   1.724   0.268   6.097  0.3577 -1.0977 -1.0913
 8022SOL     OW35701   0.077   1.852   1.631 -0.1117 -1.0076 -0.0901
 8022SOL    HW135702   0.070   1.777   1.690 -0.2042 -0.9245  0.0039
 8022SOL    HW235703   0.096   1.927   1.687  1.0028  0.0298 -1.8382
 8023SOL     OW35704   4.707   1.824  14.969 -0.1754  0.4620 -0.0317
 8023SOL    HW135705   0.001   1.905  14.929  1.2837  0.3489  0.9314
 8023SOL    HW235706   4.638   1.851  15.030 -0.5483  1.4421 -0.8899
 8024SOL     OW35707   2.767   2.865   1.942  0.0673  0.7281 -0.0488
 8024SOL    HW135708   2.717   2.947   1.944  0.6626  1.0144  2.4522
 8024SOL    HW235709   2.780   2.840   2.033 -2.3444 -0.6793 -0.0721
 8025SOL     OW35710   2.451   0.011   0.278  0.0621  0.1979  0.3110
 8025SOL    HW135711   2.464   0.094   0.233 -1.2706  0.0518 -0.3425
 8025SOL    HW235712   2.491   0.023   0.364  0.8705 -2.1993  0.2672
 8026SOL     OW35713   2.584   2.544   4.147 -0.0786 -0.1882 -0.7137
 8026SOL    HW135714   2.517   2.482   4.120  0.5056 -0.8070 -0.7377
 8026SOL    HW235715   2.667   2.497   4.148 -1.0045 -1.8148  0.7863
 8027SOL     OW35716   2.991   2.750   8.758  0.2967 -0.2087 -0.1775
 8027SOL    HW135717   2.950   2.733   8.672  0.5258  0.2702 -0.3822
 8027SOL    HW235718   3.072   2.795   8.735  0.6364  0.4210  2.2761
 8028SOL     OW35719   3.673   1.825   8.615  0.2821  0.5788 -0.4040
 8028SOL    HW135720   3.625   1.887   8.670 -1.0654 -1.0050  0.2083
 8028SOL    HW235721   3.748   1.879   8.588  1.6976 -0.9185  0.5925
 8029SOL     OW35722   4.087   4.447   1.178 -0.5569 -0.2249  0.3306
 8029SOL    HW135723   4.126   4.410   1.256  1.7152  1.4445 -0.0290
 8029SOL    HW235724   4.063   4.538   1.196 -3.2171 -0.5692 -1.3343
 8030SOL     OW35725   2.154   2.204   4.583  0.0308  0.0849  0.1217
 8030SOL    HW135726   2.138   2.123   4.534 -1.5630 -0.2082  1.1556
 8030SOL    HW235727   2.101   2.261   4.527 -1.5845 -0.2261  1.3517
 8031SOL     OW35728   4.714   2.911   2.247  0.1044  0.4609  0.0085
 8031SOL    HW135729   4.669   2.953   2.321  2.7087  1.4578  1.0500
 8031SOL    HW235730   0.048   2.972   2.233  0.8603 -0.2305  0.9119
 8032SOL     OW35731   3.994   4.029   2.536 -0.0469  0.3352  0.1074
 8032SOL    HW135732   3.910   3.983   2.533 -1.9630  3.6779  1.9279
 8032SOL    HW235733   4.031   3.974   2.467 -0.4247 -0.2747  0.3872
 8033SOL     OW35734   1.229   1.917  12.835 -0.0253 -0.4686 -0.1127
 8033SOL    HW135735   1.178   1.838  12.846  0.3609 -0.7467 -0.3288
 8033SOL    HW235736   1.211   1.946  12.746  2.4462 -0.9109 -0.7653
 8034SOL     OW35737   2.719   4.541   9.128 -0.0302  0.0883 -0.1288
 8034SOL    HW135738   2.806   4.581   9.138  0.1848 -0.1445 -1.0734
 8034SOL    HW235739   2.736   4.448   9.115 -1.3551  0.2435 -2.9809
 8035SOL     OW35740   3.626   3.047   7.555  0.5684  0.1720  0.2018
 8035SOL    HW135741   3.666   3.016   7.473 -0.5867  1.9480 -1.0175
 8035SOL    HW235742   3.675   3.129   7.558  0.6650  0.1095  0.3328
 8036SOL     OW35743   3.413   3.318   4.251  0.4927  0.1758  0.4918
 8036SOL    HW135744   3.348   3.261   4.292  0.9619 -0.3870  0.4574
 8036SOL    HW235745   3.475   3.313   4.324  0.9136 -0.5388  0.0845
 8037SOL     OW35746   1.709   0.796   2.070 -0.5102 -0.8035 -0.2976
 8037SOL    HW135747   1.658   0.867   2.110 -0.4759 -1.0333  0.1518
 8037SOL    HW235748   1.727   0.748   2.151  0.3005 -0.8552 -0.5194
 8038SOL     OW35749   1.779   2.170   1.876  0.5923 -0.4677  0.8009
 8038SOL    HW135750   1.748   2.147   1.788  0.9265 -0.5323  0.7022
 8038SOL    HW235751   1.707   2.226   1.906  0.9563  0.4876 -0.1040
 8039SOL     OW35752   0.294   3.849  10.256  0.9522  0.2757 -0.5050
 8039SOL    HW135753   0.376   3.878  10.296  0.4270  2.4293 -0.9828
 8039SOL    HW235754   0.227   3.902  10.300  1.6582  2.3573 -1.9230
 8040SOL     OW35755   2.897   1.825   1.666  0.5393 -0.1868 -0.6369
 8040SOL    HW135756   2.976   1.879   1.665  1.4529 -1.4828  1.5223
 8040SOL    HW235757   2.825   1.888   1.659 -0.2351 -0.9960  0.0510
 8041SOL     OW35758   2.001   1.166   2.777  0.0353  0.0439 -0.0310
 8041SOL    HW135759   2.041   1.147   2.862 -1.7198 -1.6006  0.4238
 8041SOL    HW235760   2.002   1.079   2.738  1.9105  0.1586 -0.2070
 8042SOL     OW35761   0.918   4.223   5.653 -0.1071 -0.4121  0.3238
 8042SOL    HW135762   0.878   4.262   5.731 -1.6058  0.6469 -0.9630
 8042SOL    HW235763   0.879   4.271   5.580  0.4975 -0.2918  0.0754
 8043SOL     OW35764   2.455   1.941   8.522  0.6788 -0.4042  0.3543
 8043SOL    HW135765   2.458   2.037   8.521 -0.3355 -0.3762  0.7482
 8043SOL    HW235766   2.396   1.926   8.449 -0.9706  0.0675  1.5943
 8044SOL     OW35767   2.155   3.332   5.577 -0.6049  0.0200 -0.0213
 8044SOL    HW135768   2.202   3.406   5.614 -2.6975  0.3568  1.9645
 8044SOL    HW235769   2.160   3.358   5.485  0.2989  0.3176  0.1125
 8045SOL     OW35770   2.398   1.909   8.259  0.1404  0.0776  0.3821
 8045SOL    HW135771   2.375   1.835   8.203 -1.4199  0.0392  1.0828
 8045SOL    HW235772   2.494   1.906   8.256  0.0333  0.1144 -2.4098
 8046SOL     OW35773   2.255   0.625   2.932  0.1089 -0.2342  0.5623
 8046SOL    HW135774   2.248   0.543   2.885  0.0795 -0.2573  0.6070
 8046SOL    HW235775   2.172   0.627   2.981 -0.7260 -1.3378 -0.8218
 8047SOL     OW35776   2.491   4.270  15.047  0.1527  0.0308  0.1881
 8047SOL    HW135777   2.448   4.259  15.132 -0.0178  3.3310  0.5349
 8047SOL    HW235778   2.530   4.357  15.054 -0.7387  0.6145 -2.2063
 8048SOL     OW35779   1.683   1.397   8.444 -0.1311  0.0875  0.1684
 8048SOL    HW135780   1.712   1.341   8.372  1.5353  2.8952 -1.3393
 8048SOL    HW235781   1.589   1.403   8.428  0.3284  1.9070 -1.8044
 8049SOL     OW35782   0.106   0.392   6.278  0.9543  0.4243  0.0788
 8049SOL    HW135783   0.126   0.401   6.371 -1.8254  0.6862  0.6523
 8049SOL    HW235784   0.011   0.379   6.286  0.8814  0.4499 -0.7403
 8050SOL     OW35785   1.391   1.501   1.981  0.0851 -0.3218  0.4709
 8050SOL    HW135786   1.385   1.577   2.039 -1.1456 -0.6890  0.8141
 8050SOL    HW235787   1.319   1.516   1.920  0.3800 -2.6597 -0.4764
 8051SOL     OW35788   3.494   3.912   7.053  0.2088  0.1100 -0.0383
 8051SOL    HW135789   3.566   3.953   7.101 -1.6286  4.2908 -0.8083
 8051SOL    HW235790   3.535   3.910   6.967 -0.1580  1.6658 -0.2619
 8052SOL     OW35791   0.966   2.158   7.238  0.0962 -0.6539 -0.4692
 8052SOL    HW135792   1.015   2.174   7.157  1.2240  1.6358  0.6658
 8052SOL    HW235793   1.031   2.107   7.287  0.5499 -0.6435 -1.0622
 8053SOL     OW35794   1.405   0.107  14.712  0.0970  0.5146 -0.3899
 8053SOL    HW135795   1.379   0.107  14.804  2.1542 -2.0376  0.1645
 8053SOL    HW235796   1.450   0.192  14.705  0.9224  0.2176  1.3934
 8054SOL     OW35797   2.134   1.449  17.297  0.1972  0.0629 -0.2932
 8054SOL    HW135798   2.074   1.418  17.365  1.1729  1.1453  1.0922
 8054SOL    HW235799   2.209   1.451  17.357 -1.3504 -1.8249  1.6949
 8055SOL     OW35800   1.048   1.768   3.003 -0.1688 -0.0049 -0.5126
 8055SOL    HW135801   1.008   1.704   3.062 -1.6030  0.8177 -0.5821
 8055SOL    HW235802   1.134   1.727   3.003  0.9850  2.5107  2.7346
 8056SOL     OW35803   1.682   0.157   5.034  0.3020  0.0278  0.0560
 8056SOL    HW135804   1.706   0.109   5.113  0.5299 -1.8832 -1.1644
 8056SOL    HW235805   1.587   0.157   5.038  0.2484 -1.6633 -1.2166
 8057SOL     OW35806   1.846   0.457   4.543  0.3361  0.0420  0.3659
 8057SOL    HW135807   1.878   0.530   4.596 -0.0053  0.5629 -0.1430
 8057SOL    HW235808   1.751   0.465   4.549  0.3911 -0.2049  1.4659
 8058SOL     OW35809   3.703   2.433   6.127 -0.2910 -0.2077  0.3229
 8058SOL    HW135810   3.624   2.462   6.081 -0.4193 -0.8408  0.1381
 8058SOL    HW235811   3.760   2.506   6.103  0.3731 -0.2801  1.6576
 8059SOL     OW35812   4.377   0.122   5.141  0.0553  0.3285  0.5479
 8059SOL    HW135813   4.287   0.112   5.171  0.5129 -2.9078  0.8568
 8059SOL    HW235814   4.369   0.122   5.046  0.8155  1.6586  0.4806
 8060SOL     OW35815   0.478   0.402   2.805  0.4520 -0.1427  0.3745
 8060SOL    HW135816   0.427   0.376   2.881  1.7801 -0.5052  1.1425
 8060SOL    HW235817   0.502   0.315   2.773  2.0229  0.4087  0.0388
 8061SOL     OW35818   3.368   4.613   3.265  0.3116  0.5178  0.1888
 8061SOL    HW135819   3.444   4.568   3.228  0.9228  2.0363 -0.3927
 8061SOL    HW235820   3.360   4.681   3.198 -2.6999 -0.7426 -0.7372
 8062SOL     OW35821   4.536   2.822   2.682  0.1645  0.3877  0.1703
 8062SOL    HW135822   4.619   2.775   2.683  0.7388  1.4373  0.8253
 8062SOL    HW235823   4.547   2.898   2.626  2.1327 -1.0147 -1.3400
 8063SOL     OW35824   4.431   2.069   2.982 -0.6533 -0.9710  0.9673
 8063SOL    HW135825   4.397   2.071   3.072 -1.9359  1.5747  0.4569
 8063SOL    HW235826   4.524   2.087   2.996 -0.6028 -1.0764  0.7605
 8064SOL     OW35827   2.578   3.022   7.134 -0.2784 -0.9283  0.3655
 8064SOL    HW135828   2.658   3.016   7.187  0.2816 -0.2765 -0.4066
 8064SOL    HW235829   2.538   3.096   7.179 -1.8947 -1.6413  0.1081
 8065SOL     OW35830   2.659   3.727   8.852 -0.0059  0.5229  0.4854
 8065SOL    HW135831   2.645   3.685   8.936  0.2980 -1.6302 -0.5524
 8065SOL    HW235832   2.570   3.710   8.820  0.3987 -2.0260  0.7445
 8066SOL     OW35833   2.074   4.700  15.390 -0.0456 -0.1613  0.3905
 8066SOL    HW135834   2.028   0.016  15.326 -1.8099 -2.2323 -0.1310
 8066SOL    HW235835   2.144   0.020  15.419  0.0942  0.4482 -1.1789
 8067SOL     OW35836   4.292   2.672   6.614  0.2726  0.0533 -0.2040
 8067SOL    HW135837   4.337   2.593   6.585  0.2640 -0.5681  1.4707
 8067SOL    HW235838   4.320   2.683   6.705 -1.1433  1.7724  0.0302
 8068SOL     OW35839   3.052   2.739   5.262 -0.2271  0.0790 -0.0675
 8068SOL    HW135840   2.981   2.739   5.199  0.1315 -1.6372 -0.4615
 8068SOL    HW235841   3.128   2.737   5.203 -0.9973  2.3838 -1.1479
 8069SOL     OW35842   3.474   1.957   8.774  0.6573  1.1968  0.2476
 8069SOL    HW135843   3.465   1.977   8.867  1.2777 -3.8276  1.3542
 8069SOL    HW235844   3.405   1.891   8.778  1.8752 -0.0677  0.2160
 8070SOL     OW35845   3.667   2.566   7.567 -0.0534 -0.6260 -0.0979
 8070SOL    HW135846   3.712   2.484   7.588  0.7213 -0.5985 -1.6715
 8070SOL    HW235847   3.587   2.567   7.619  0.7924 -2.3807  1.2485
 8071SOL     OW35848   0.666   4.474  16.273  0.4843 -0.0187  0.0581
 8071SOL    HW135849   0.651   4.390  16.317 -0.1754 -1.1413 -2.3089
 8071SOL    HW235850   0.580   4.514  16.260 -0.3117 -1.8008 -0.2648
 8072SOL     OW35851   4.679   0.121   5.558  0.0113  0.4638 -0.1895
 8072SOL    HW135852   4.735   0.043   5.558  0.9721  1.1692  1.6276
 8072SOL    HW235853   4.593   0.081   5.540 -0.3697  2.7179 -3.2591
 8073SOL     OW35854   4.374   4.275  12.317  0.0052 -0.0106  0.1607
 8073SOL    HW135855   4.321   4.218  12.262 -0.0072 -0.2596  0.4303
 8073SOL    HW235856   4.336   4.255  12.403 -1.1070 -2.3015 -0.8637
 8074SOL     OW35857   2.977   3.167  14.099 -0.2909  0.2432  0.3439
 8074SOL    HW135858   2.902   3.110  14.122  0.3112 -1.5290 -2.0897
 8074SOL    HW235859   2.939   3.213  14.024 -1.0330  0.5725  0.9162
 8075SOL     OW35860   1.252   2.996   9.382  0.2038  0.2711  0.3717
 8075SOL    HW135861   1.275   2.955   9.466  0.8155  1.2705  0.7021
 8075SOL    HW235862   1.288   2.943   9.312  2.2457  3.2596 -0.8439
 8076SOL     OW35863   4.138   1.355   5.624  0.0595  0.1212 -0.0865
 8076SOL    HW135864   4.069   1.327   5.564  0.1756 -0.6515  0.1352
 8076SOL    HW235865   4.168   1.441   5.596 -2.1713  0.3260 -1.7599
 8077SOL     OW35866   2.565   4.367   7.497 -0.3220  0.5131 -0.2843
 8077SOL    HW135867   2.579   4.278   7.529 -0.9354  0.4062 -0.3107
 8077SOL    HW235868   2.496   4.360   7.431  2.8867 -2.8795 -3.2877
 8078SOL     OW35869   2.445   0.592   2.539  0.4682  0.1582 -0.0452
 8078SOL    HW135870   2.437   0.687   2.542 -1.1067 -0.0118  1.2012
 8078SOL    HW235871   2.466   0.568   2.449 -1.9350 -0.2277 -0.5040
 8079SOL     OW35872   4.664   4.018  11.838  0.3445 -0.3884 -0.3446
 8079SOL    HW135873   4.657   3.961  11.761 -2.1904 -0.2054 -0.2491
 8079SOL    HW235874   0.017   4.010  11.863 -0.3384 -1.8110  1.6455
 8080SOL     OW35875   2.647   0.937   0.877  0.0237  0.3403 -0.1370
 8080SOL    HW135876   2.698   0.979   0.946 -0.5576  0.0766  0.4493
 8080SOL    HW235877   2.572   0.894   0.919 -0.4459  1.2898 -0.0026
 8081SOL     OW35878   2.662   1.429  10.352  0.3290  0.0787  0.0157
 8081SOL    HW135879   2.705   1.386  10.278 -0.8887  1.8770 -1.7378
 8081SOL    HW235880   2.683   1.384  10.434 -1.1840 -2.0551 -0.7832
 8082SOL     OW35881   3.342   2.101   4.241 -0.0173  0.3414 -0.0166
 8082SOL    HW135882   3.314   2.148   4.320 -0.2046 -3.5908  2.2423
 8082SOL    HW235883   3.335   2.172   4.177  1.2287 -0.4748 -1.0329
 8083SOL     OW35884   4.188   1.637   4.412  0.4975  0.1401  0.4184
 8083SOL    HW135885   4.102   1.677   4.396  1.2527  1.5541 -0.0750
 8083SOL    HW235886   4.163   1.546   4.432 -0.6236  0.0732 -1.2854
 8084SOL     OW35887   1.982   2.334   1.964 -0.6482 -0.3598 -0.5302
 8084SOL    HW135888   1.921   2.268   1.932 -0.2413  0.7968 -3.6794
 8084SOL    HW235889   2.021   2.297   2.044  0.9819  1.0561 -0.6622
 8085SOL     OW35890   4.346   3.533   9.662 -0.1681  0.3378 -0.4576
 8085SOL    HW135891   4.299   3.460   9.704 -0.0771 -0.1557 -1.2044
 8085SOL    HW235892   4.342   3.592   9.737  2.0809 -1.6024  1.1979
 8086SOL     OW35893   3.520   2.582  14.968  0.8906  0.3942 -0.0845
 8086SOL    HW135894   3.440   2.622  14.934  0.4384 -2.1612 -2.0518
 8086SOL    HW235895   3.516   2.495  14.927 -0.3470  0.3485  0.1328
 8087SOL     OW35896   4.455   0.388   9.106 -0.3769  0.0851 -0.0456
 8087SOL    HW135897   4.486   0.336   9.032  1.7860 -1.0833  1.6944
 8087SOL    HW235898   4.360   0.381   9.094 -0.4353  0.0344  0.4609
 8088SOL     OW35899   4.676   4.034   4.675 -0.1156  0.8702 -0.2730
 8088SOL    HW135900   4.721   3.950   4.680 -3.2403 -0.8739 -1.3031
 8088SOL    HW235901   4.584   4.007   4.685  0.3812  0.1066  2.2372
 8089SOL     OW35902   3.326   0.490   1.727  0.2827  0.3645 -0.3428
 8089SOL    HW135903   3.272   0.569   1.717  2.5845  1.9281 -0.5782
 8089SOL    HW235904   3.384   0.522   1.796  0.4986 -1.5143  0.3327
 8090SOL     OW35905   1.156   3.391   6.381 -0.2989  0.1302 -0.5571
 8090SOL    HW135906   1.174   3.430   6.466  2.6394 -0.0918 -1.0695
 8090SOL    HW235907   1.109   3.313   6.409  0.7022 -0.2234  0.1101
 8091SOL     OW35908   1.404   1.284  11.736 -0.0886  0.6114 -0.9934
 8091SOL    HW135909   1.312   1.263  11.751  1.0945 -3.2594  0.7962
 8091SOL    HW235910   1.430   1.238  11.657  2.3655 -0.0007  0.1558
 8092SOL     OW35911   2.310   4.728   8.786  0.5517 -0.8279 -0.3352
 8092SOL    HW135912   2.351   4.709   8.870 -1.7625 -1.3815  0.6601
 8092SOL    HW235913   2.334   4.646   8.741  3.2619  0.0723 -0.5191
 8093SOL     OW35914   1.280   0.412   7.273 -0.5186  0.6038  0.1299
 8093SOL    HW135915   1.337   0.339   7.249 -2.4620 -1.1329  0.7616
 8093SOL    HW235916   1.195   0.381   7.242 -0.2561  0.0004  0.0202
 8094SOL     OW35917   3.930   3.287   9.615  0.3332 -0.6732 -0.0220
 8094SOL    HW135918   3.851   3.233   9.624  0.6469 -1.3306 -1.2311
 8094SOL    HW235919   3.913   3.317   9.526 -0.1725 -0.4689  0.1423
 8095SOL     OW35920   1.647   0.329   2.930  0.0600 -0.3324  0.5009
 8095SOL    HW135921   1.616   0.360   3.015 -1.4438 -1.1564  0.2702
 8095SOL    HW235922   1.737   0.317   2.959  0.2367 -0.9827 -0.3073
 8096SOL     OW35923   3.914   3.009   4.596  0.4303  0.5606  0.1147
 8096SOL    HW135924   3.923   2.999   4.691  0.0931 -1.2059 -0.0423
 8096SOL    HW235925   3.957   2.930   4.566  1.0376  1.5399 -1.5673
 8097SOL     OW35926   4.150   4.180   1.683 -0.4204 -0.5091  0.3207
 8097SOL    HW135927   4.224   4.143   1.636 -0.8963 -0.2649 -0.6172
 8097SOL    HW235928   4.083   4.158   1.617  0.0885 -1.2809  0.0520
 8098SOL     OW35929   3.977   1.749   6.061  0.0247 -0.0786 -0.6923
 8098SOL    HW135930   4.049   1.724   6.004  1.4472  1.1352  0.5726
 8098SOL    HW235931   4.007   1.833   6.096  0.4675 -0.7512  0.5497
 8099SOL     OW35932   3.623   2.730   6.563 -0.0658  0.1882 -0.2464
 8099SOL    HW135933   3.698   2.787   6.576  1.8680 -1.8781 -2.3468
 8099SOL    HW235934   3.613   2.730   6.467  1.1528 -0.7005 -0.3770
 8100SOL     OW35935   3.294   3.516  13.661 -0.0590  0.4158 -0.2133
 8100SOL    HW135936   3.329   3.605  13.658 -0.3618  0.4941 -1.3205
 8100SOL    HW235937   3.200   3.532  13.655  0.0951  1.5086  0.4065
 8101SOL     OW35938   3.327   3.888   4.152 -0.1650 -0.4406  0.1842
 8101SOL    HW135939   3.271   3.921   4.222 -1.1402 -2.2949  0.2609
 8101SOL    HW235940   3.320   3.795   4.170  0.4456 -0.5266 -0.0143
 8102SOL     OW35941   4.520   1.002   3.363 -0.1593  0.2582 -0.2068
 8102SOL    HW135942   4.548   0.911   3.362 -0.8406  0.0393  0.6117
 8102SOL    HW235943   4.603   1.049   3.360  1.0603 -1.9693 -1.0987
 8103SOL     OW35944   4.481   1.333  10.793 -0.1198  0.1508 -0.0044
 8103SOL    HW135945   4.545   1.264  10.772 -0.8062 -0.8536  1.2046
 8103SOL    HW235946   4.543   1.406  10.799  0.3285 -0.2021 -0.2784
 8104SOL     OW35947   0.153   1.676   5.933  0.1154  0.0300  0.3858
 8104SOL    HW135948   0.118   1.729   5.860  1.6954 -0.8190 -0.9843
 8104SOL    HW235949   0.160   1.587   5.900  2.0257  0.1568  0.4594
 8105SOL     OW35950   1.697   3.147   5.151  0.1655  0.7052 -0.0840
 8105SOL    HW135951   1.760   3.165   5.220 -1.1223  0.7768  1.0727
 8105SOL    HW235952   1.675   3.237   5.127 -0.0774  0.8432  0.6513
 8106SOL     OW35953   0.881   1.509  12.221  0.1264 -0.7471 -0.5018
 8106SOL    HW135954   0.949   1.543  12.279  1.7590 -4.4713 -0.2432
 8106SOL    HW235955   0.872   1.424  12.263 -0.2506 -0.7416 -0.5702
 8107SOL     OW35956   3.318   0.978   6.673 -0.8054 -0.4253  0.1478
 8107SOL    HW135957   3.305   1.007   6.763  1.2011 -1.2554  0.7029
 8107SOL    HW235958   3.283   1.056   6.630 -1.6438 -0.6864  0.3602
 8108SOL     OW35959   2.892   3.471   8.379  0.0062 -0.1905 -0.3929
 8108SOL    HW135960   2.960   3.435   8.436 -0.5223 -1.7507 -0.7389
 8108SOL    HW235961   2.821   3.485   8.442  0.4161 -1.5443  0.3696
 8109SOL     OW35962   0.947   3.540   7.740  0.0322  0.1807 -0.1841
 8109SOL    HW135963   0.994   3.510   7.817  1.7351  1.1234 -0.8618
 8109SOL    HW235964   0.934   3.454   7.699  2.2199  0.2830 -1.0807
 8110SOL     OW35965   4.531   0.062   3.977 -0.7538  0.6344  0.4442
 8110SOL    HW135966   4.557   4.709   3.974 -0.8409  0.6213  0.0582
 8110SOL    HW235967   4.440   0.059   3.949  0.3428  2.1305 -3.3047
 8111SOL     OW35968   4.135   0.028   0.436  0.2631 -0.2465 -0.0706
 8111SOL    HW135969   4.173   4.685   0.402  1.6173  0.5527 -0.4644
 8111SOL    HW235970   4.129   0.014   0.531 -1.6215 -1.6605 -0.3898
 8112SOL     OW35971   0.911   3.312   7.384  0.1428  0.2874  0.0593
 8112SOL    HW135972   0.906   3.408   7.382 -0.3273  0.2921  1.2640
 8112SOL    HW235973   0.933   3.294   7.293  2.0858 -1.4494  0.8635
 8113SOL     OW35974   1.170   4.018   8.630  0.3078 -0.0984  0.4481
 8113SOL    HW135975   1.192   4.028   8.722  0.1463  0.4436  0.4279
 8113SOL    HW235976   1.077   3.995   8.637  0.3582  0.1777  1.9658
 8114SOL     OW35977   3.849   3.324  10.850  0.4078  0.3556  0.6897
 8114SOL    HW135978   3.754   3.331  10.839  0.7981  0.6391 -2.4815
 8114SOL    HW235979   3.873   3.293  10.762 -1.9694  0.9392 -0.1624
 8115SOL     OW35980   2.855   0.523   4.883 -0.0552 -0.0374 -0.0829
 8115SOL    HW135981   2.849   0.612   4.848  1.1842  0.7472  1.7372
 8115SOL    HW235982   2.949   0.511   4.873 -0.1155 -1.9456  1.5913
 8116SOL     OW35983   4.195   4.538  14.715  0.5406 -0.4826  0.0978
 8116SOL    HW135984   4.248   4.581  14.649 -2.0333  0.7098 -1.1964
 8116SOL    HW235985   4.106   4.536  14.678 -0.1147 -1.1233  1.6909
 8117SOL     OW35986   4.351   1.073   1.433 -0.2985 -0.3801 -0.4628
 8117SOL    HW135987   4.300   1.120   1.367  1.1742  1.9436  0.0642
 8117SOL    HW235988   4.415   1.030   1.376 -0.9747 -0.1018 -1.4196
 8118SOL     OW35989   3.791   1.876  11.324  0.1172 -0.5000 -0.2305
 8118SOL    HW135990   3.788   1.784  11.298 -4.2006 -0.6690  0.7784
 8118SOL    HW235991   3.823   1.871  11.414  0.7654  1.5924 -0.3470
 8119SOL     OW35992   0.421   4.522   6.129  0.6222 -0.4253  0.0237
 8119SOL    HW135993   0.379   4.606   6.109 -1.3976 -1.3907  0.3072
 8119SOL    HW235994   0.384   4.506   6.216 -0.1339  1.3064  0.0133
 8120SOL     OW35995   0.054   0.959   2.756 -0.3413  0.7160  0.1668
 8120SOL    HW135996   0.128   0.927   2.705 -3.0408 -1.8908 -2.1511
 8120SOL    HW235997   0.045   0.901   2.832 -0.3117 -0.6521 -0.8668
 8121SOL     OW35998   1.980   4.535   8.729  0.1974  0.8279  0.3222
 8121SOL    HW135999   2.058   4.497   8.687  0.0578 -1.6970  2.4074
 8121SOL    HW236000   1.989   4.631   8.727 -1.9063  1.0167 -0.2985
 8122SOL     OW36001   1.405   0.316   3.652 -0.3705  0.8741 -0.1362
 8122SOL    HW136002   1.427   0.272   3.569 -0.9266 -1.7488  1.1108
 8122SOL    HW236003   1.317   0.345   3.631 -0.1867  1.6446  0.1892
 8123SOL     OW36004   0.572   2.082   6.025 -0.1623  0.0812  0.4957
 8123SOL    HW136005   0.592   2.042   6.109  2.0231  0.2825  0.0505
 8123SOL    HW236006   0.482   2.052   6.008 -0.2412  0.6992 -0.1852
 8124SOL     OW36007   0.154   1.008   8.453  0.3197  0.0279 -0.0366
 8124SOL    HW136008   0.069   1.010   8.408  2.0570  2.4722 -3.2204
 8124SOL    HW236009   0.134   1.062   8.530 -0.2068 -0.1138 -0.0712
 8125SOL     OW36010   3.925   3.611   2.028 -0.2470  0.0899 -0.0374
 8125SOL    HW136011   3.887   3.695   2.051  2.0705  1.3114 -0.6618
 8125SOL    HW236012   4.001   3.612   2.086 -1.7097 -1.1332  1.8947
 8126SOL     OW36013   0.157   1.217   5.998 -0.1415  0.0864  0.2302
 8126SOL    HW136014   0.067   1.203   6.028 -0.0246 -0.2655  0.4134
 8126SOL    HW236015   0.139   1.309   5.980 -0.1774 -0.0515 -0.4153
 8127SOL     OW36016   3.348   1.814  10.878  0.1425  0.8300  0.4074
 8127SOL    HW136017   3.400   1.739  10.906 -0.8377  0.7367  1.9527
 8127SOL    HW236018   3.264   1.771  10.862  0.8414 -1.1145  2.0120
 8128SOL     OW36019   0.003   1.530  15.930 -0.6481  0.2380 -0.0519
 8128SOL    HW136020   4.666   1.570  15.886 -0.8501  2.0457  1.9399
 8128SOL    HW236021   0.056   1.609  15.941 -0.2064 -0.4213  2.6173
 8129SOL     OW36022   0.948   2.386   6.464 -0.3254  0.0643 -0.0256
 8129SOL    HW136023   0.975   2.344   6.546  0.8610 -0.1370 -0.5259
 8129SOL    HW236024   1.003   2.463   6.468  0.2640 -0.3709  0.2010
 8130SOL     OW36025   3.811   4.057  15.159 -0.5088 -0.0385 -0.2795
 8130SOL    HW136026   3.865   3.979  15.173 -0.3149  0.4480  1.6004
 8130SOL    HW236027   3.842   4.085  15.245 -0.5145 -0.5958 -0.0956
 8131SOL     OW36028   2.733   4.393   6.936 -0.8164 -0.4878 -0.2291
 8131SOL    HW136029   2.804   4.442   6.893 -0.9577 -0.8098 -0.8305
 8131SOL    HW236030   2.669   4.463   6.947 -1.4584 -1.6066  2.9559
 8132SOL     OW36031   1.649   1.766  15.956 -0.1644  0.7697  0.1376
 8132SOL    HW136032   1.620   1.747  16.046  1.2579  1.8645  0.8322
 8132SOL    HW236033   1.589   1.715  15.902 -0.0732  2.5481 -1.6719
 8133SOL     OW36034   3.768   0.279   4.155 -0.0973  0.2355  0.1829
 8133SOL    HW136035   3.767   0.214   4.084  2.1627  0.4465 -0.0308
 8133SOL    HW236036   3.679   0.313   4.144 -0.1536 -0.2721 -0.9399
 8134SOL     OW36037   0.362   1.499   2.960 -0.0805 -0.0728  0.2835
 8134SOL    HW136038   0.386   1.480   2.870 -2.1316 -0.1535 -0.2441
 8134SOL    HW236039   0.427   1.567   2.978 -0.1611  0.5785 -1.8586
 8135SOL     OW36040   1.553   0.762   5.355  0.5545 -0.1184 -0.0771
 8135SOL    HW136041   1.584   0.702   5.288  0.4201  0.8498 -1.0091
 8135SOL    HW236042   1.475   0.721   5.392 -0.7523  0.2732 -2.4157
 8136SOL     OW36043   4.404   0.543   7.767 -0.0961  0.0391  0.3573
 8136SOL    HW136044   4.467   0.483   7.725 -0.9381 -0.6736  0.0976
 8136SOL    HW236045   4.404   0.499   7.852  2.9217 -1.1132 -0.2455
 8137SOL     OW36046   2.669   2.735  15.940  0.3017 -0.1555  0.3047
 8137SOL    HW136047   2.681   2.787  16.019  0.1720 -1.1680  0.9996
 8137SOL    HW236048   2.634   2.656  15.982 -0.2478 -0.0339  0.0769
 8138SOL     OW36049   2.930   4.594  15.496 -0.0628 -0.9794  0.1820
 8138SOL    HW136050   2.909   4.679  15.457 -0.3806 -2.0581 -2.0343
 8138SOL    HW236051   3.025   4.596  15.496 -0.0851  0.0664 -2.8151
 8139SOL     OW36052   3.422   4.624  16.146 -0.8377  0.0314 -0.2278
 8139SOL    HW136053   3.387   4.546  16.190 -1.8916  0.4726 -0.3022
 8139SOL    HW236054   3.435   4.597  16.055  0.4883  0.9408 -0.3206
 8140SOL     OW36055   1.132   1.419   0.475 -0.1161 -0.2540  0.0637
 8140SOL    HW136056   1.129   1.343   0.417  0.3137 -1.0054  1.0231
 8140SOL    HW236057   1.158   1.485   0.411 -1.3900  0.0121 -0.1721
 8141SOL     OW36058   2.202   4.469   7.939 -0.2561  0.0429 -0.0607
 8141SOL    HW136059   2.174   4.511   8.021 -1.4568  0.1211 -0.5049
 8141SOL    HW236060   2.215   4.384   7.981  3.0254  2.2898  3.3817
 8142SOL     OW36061   2.639   0.331   4.335 -0.0822 -0.2957  0.1035
 8142SOL    HW136062   2.581   0.407   4.343  0.0030 -0.3280  1.0759
 8142SOL    HW236063   2.607   0.291   4.416 -0.8247 -0.6621 -0.3663
 8143SOL     OW36064   2.151   3.670  15.863  0.2314  0.0167 -0.0535
 8143SOL    HW136065   2.097   3.714  15.797  0.6703  0.5506 -0.0605
 8143SOL    HW236066   2.082   3.613  15.897  2.2386 -0.9664  2.3479
 8144SOL     OW36067   3.943   2.204   8.831 -0.7328 -0.2570  0.0921
 8144SOL    HW136068   4.024   2.167   8.867 -0.0534  2.0199  0.8906
 8144SOL    HW236069   3.934   2.161   8.747  1.9101  1.8708 -1.2729
 8145SOL     OW36070   1.190   4.166   4.594 -0.4579  0.3221  0.1313
 8145SOL    HW136071   1.174   4.260   4.606  0.5999  0.3223  1.4772
 8145SOL    HW236072   1.141   4.154   4.513 -0.2107  2.0238 -0.2662
 8146SOL     OW36073   1.678   4.642   3.802  0.1516 -0.7103  0.3273
 8146SOL    HW136074   1.745   4.604   3.746 -1.6879 -0.1924 -2.2507
 8146SOL    HW236075   1.658   4.723   3.755  2.2323 -1.1841 -1.3435
 8147SOL     OW36076   2.169   0.972   1.245 -0.2642 -0.2795 -0.8033
 8147SOL    HW136077   2.110   0.950   1.173 -2.4239 -0.4518  0.9992
 8147SOL    HW236078   2.209   0.889   1.269  0.7987 -0.0261 -1.7093
 8148SOL     OW36079   0.704   2.251   8.472 -0.7905  0.0759  0.2411
 8148SOL    HW136080   0.611   2.267   8.456 -0.5138  0.3843 -1.0136
 8148SOL    HW236081   0.721   2.189   8.401  2.3437  0.7051  0.4346
 8149SOL     OW36082   3.498   3.383   0.602  0.0493 -0.2753  0.0270
 8149SOL    HW136083   3.474   3.312   0.662 -1.2111 -0.0921 -0.2679
 8149SOL    HW236084   3.582   3.400   0.645 -0.7575  2.7000  0.4461
 8150SOL     OW36085   2.542   1.051   4.400 -0.0864  0.5293 -0.0593
 8150SOL    HW136086   2.581   0.996   4.468  0.3563 -0.4482 -1.1016
 8150SOL    HW236087   2.526   1.131   4.450 -0.1656 -0.0696  0.8589
 8151SOL     OW36088   3.683   0.127   6.829 -0.0747 -0.4985 -0.1823
 8151SOL    HW136089   3.608   0.136   6.771 -0.5905 -1.7534  0.2923
 8151SOL    HW236090   3.640   0.112   6.913 -0.9866 -0.6613 -0.6832
 8152SOL     OW36091   4.598   4.376   6.166 -0.5967  0.5186 -0.0560
 8152SOL    HW136092   4.684   4.412   6.145 -0.3335 -0.6831 -0.9668
 8152SOL    HW236093   4.556   4.435   6.103 -0.7885  0.5143  0.0677
 8153SOL     OW36094   0.154   2.311   8.242 -0.0193 -0.6055  0.5230
 8153SOL    HW136095   0.199   2.276   8.319  0.4716  1.3590  1.1533
 8153SOL    HW236096   0.121   2.234   8.197  0.8705 -0.3022 -0.6488
 8154SOL     OW36097   1.232   1.877  15.336  0.1093 -0.3397  0.3004
 8154SOL    HW136098   1.153   1.827  15.358  1.0865 -1.4976  1.1482
 8154SOL    HW236099   1.183   1.944  15.288 -0.4523 -1.3691 -0.5526
 8155SOL     OW36100   1.746   2.063   3.299 -0.3296 -0.8375  0.3135
 8155SOL    HW136101   1.663   2.107   3.317  1.0639  2.0302 -0.3954
 8155SOL    HW236102   1.711   1.975   3.286 -1.5161 -0.1167 -1.4094
 8156SOL     OW36103   1.699   3.567   2.862 -0.3180  0.1831  0.3355
 8156SOL    HW136104   1.610   3.594   2.885 -0.5583  0.4892 -0.9521
 8156SOL    HW236105   1.747   3.649   2.850  0.6203 -0.7695 -2.4501
 8157SOL     OW36106   2.110   0.705   6.737 -0.3830 -0.3343  0.1238
 8157SOL    HW136107   2.066   0.620   6.747 -1.6045  0.0796 -1.6338
 8157SOL    HW236108   2.185   0.691   6.795  0.4122  0.5881 -0.6704
 8158SOL     OW36109   0.075   0.400   5.921  0.3936  0.4204 -0.1371
 8158SOL    HW136110   0.079   0.485   5.964 -1.3263  0.6507 -0.4118
 8158SOL    HW236111   4.737   0.405   5.864  1.2859 -1.8872 -1.5410
 8159SOL     OW36112   3.922   1.509   6.180 -0.0052 -0.0735 -0.2098
 8159SOL    HW136113   3.942   1.596   6.147 -0.8743  0.2555  0.1330
 8159SOL    HW236114   3.827   1.505   6.170  0.0449 -0.0579 -0.6867
 8160SOL     OW36115   3.303   1.682   9.111  0.0768 -0.1512  0.1643
 8160SOL    HW136116   3.278   1.673   9.203 -0.6536  1.0047  0.0887
 8160SOL    HW236117   3.363   1.609   9.097 -0.1979 -0.3190 -0.1521
 8161SOL     OW36118   0.118   3.918  15.079 -0.4943 -0.1133  0.0153
 8161SOL    HW136119   0.183   3.988  15.080 -1.0781  0.4329 -0.7187
 8161SOL    HW236120   0.123   3.872  15.163  4.7256  2.0807  0.9003
 8162SOL     OW36121   0.445   0.759   4.053  0.1202 -0.3633  0.2190
 8162SOL    HW136122   0.538   0.775   4.038  0.0197  0.3653  0.3865
 8162SOL    HW236123   0.423   0.673   4.016  2.1938 -0.6250 -0.3993
 8163SOL     OW36124   1.262   2.201   5.267  0.3719  0.0308  0.1317
 8163SOL    HW136125   1.352   2.225   5.245  1.0247 -0.8746  1.8906
 8163SOL    HW236126   1.272   2.110   5.240 -0.7345 -0.4070  1.1761
 8164SOL     OW36127   0.501   0.875   2.773 -0.6995  0.4050 -0.3540
 8164SOL    HW136128   0.572   0.917   2.724 -1.6560  0.9502 -1.2681
 8164SOL    HW236129   0.528   0.783   2.776  1.2424  0.9200 -1.6661
 8165SOL     OW36130   0.415   1.517   8.413 -0.5657 -0.2875 -0.0068
 8165SOL    HW136131   0.375   1.429   8.415 -1.1425 -0.0421 -1.1255
 8165SOL    HW236132   0.337   1.569   8.431 -0.8174  0.0467 -2.0544
 8166SOL     OW36133   0.611   0.297   6.885  0.4422 -0.4464  0.3528
 8166SOL    HW136134   0.578   0.241   6.955 -2.9851 -0.2507 -1.1063
 8166SOL    HW236135   0.640   0.376   6.932  2.8863  0.4384 -2.6700
 8167SOL     OW36136   1.082   2.535   9.496  0.8507 -0.0612  0.0340
 8167SOL    HW136137   1.132   2.459   9.525  1.3496  0.0362 -0.5654
 8167SOL    HW236138   1.080   2.589   9.575  2.3101 -1.3850  0.9580
 8168SOL     OW36139   0.968   3.832   3.087 -0.0395 -0.2756 -0.1504
 8168SOL    HW136140   0.893   3.792   3.045  0.3354  0.1372 -1.2141
 8168SOL    HW236141   0.996   3.770   3.154 -1.8749 -1.5199 -0.5556
 8169SOL     OW36142   1.219   1.085  15.929 -0.1871  0.2659  0.1154
 8169SOL    HW136143   1.247   1.164  15.882  1.5158 -1.1600 -1.2669
 8169SOL    HW236144   1.304   1.041  15.921 -0.2028  0.2586 -0.0134
 8170SOL     OW36145   1.654   2.680   5.527  0.3833 -0.1876  0.1497
 8170SOL    HW136146   1.748   2.679   5.547  0.3398 -0.5727  0.3384
 8170SOL    HW236147   1.622   2.634   5.604  1.3295  0.4018  0.9070
 8171SOL     OW36148   4.374   4.608   7.921 -0.1101  0.6097 -0.3243
 8171SOL    HW136149   4.370   4.514   7.940  1.7713  0.5337 -0.2374
 8171SOL    HW236150   4.310   4.613   7.851 -0.1503  1.6109 -0.2190
 8172SOL     OW36151   4.400   2.026  10.269 -0.1521 -0.2399 -0.1831
 8172SOL    HW136152   4.479   1.972  10.275  1.1510  1.7112  0.5200
 8172SOL    HW236153   4.390   2.022  10.174 -0.0415 -1.1024 -0.1588
 8173SOL     OW36154   3.658   2.268  14.084  0.0846 -0.2582  0.1425
 8173SOL    HW136155   3.666   2.187  14.033  1.7459 -0.5838  0.9273
 8173SOL    HW236156   3.721   2.245  14.152 -1.6893  0.4148  1.9854
 8174SOL     OW36157   0.859   0.564  11.720  0.3624 -0.1520  0.1735
 8174SOL    HW136158   0.824   0.517  11.644 -1.2772  1.7141 -0.2200
 8174SOL    HW236159   0.817   0.507  11.784  0.2031  1.3369  1.3915
 8175SOL     OW36160   3.409   1.899  16.260  0.5879  0.0461 -0.2612
 8175SOL    HW136161   3.449   1.830  16.208  0.2121 -0.4534  0.1120
 8175SOL    HW236162   3.318   1.871  16.267  0.4111  0.6979  0.0474
 8176SOL     OW36163   0.009   4.000  13.229  0.1222 -0.2542  0.0074
 8176SOL    HW136164   0.026   4.010  13.135 -1.3272 -2.1812 -0.4546
 8176SOL    HW236165   0.064   4.069  13.267 -0.4897  0.7545 -0.9069
 8177SOL     OW36166   2.633   0.543   4.029 -0.1586 -0.3581  0.2907
 8177SOL    HW136167   2.642   0.528   4.123  1.5882 -0.3208  0.1206
 8177SOL    HW236168   2.720   0.518   3.997 -0.1273 -1.3983  1.1882
 8178SOL     OW36169   1.881   0.906   6.761 -0.3161 -0.5236  0.6567
 8178SOL    HW136170   1.852   0.864   6.842 -0.1061  0.9683  1.5019
 8178SOL    HW236171   1.971   0.875   6.758 -0.8570 -1.9418 -1.3586
 8179SOL     OW36172   2.566   1.994  13.033 -0.7035  0.1732  0.3015
 8179SOL    HW136173   2.545   2.062  13.097 -0.7106 -0.5903  1.1084
 8179SOL    HW236174   2.613   2.038  12.962  2.8672  0.2488  2.7017
 8180SOL     OW36175   4.430   3.329   1.720 -0.3065  0.1119  0.2608
 8180SOL    HW136176   4.484   3.353   1.645  0.8663  0.8920  1.3463
 8180SOL    HW236177   4.487   3.269   1.768  1.2666  3.1198  2.1712
 8181SOL     OW36178   3.773   1.017   2.637 -0.6228  0.1919  0.1218
 8181SOL    HW136179   3.740   0.945   2.691  0.7652  0.4435  1.2945
 8181SOL    HW236180   3.697   1.071   2.616 -1.4704 -0.7235  0.8268
 8182SOL     OW36181   2.835   4.105  16.490  0.7046 -0.5206  0.2503
 8182SOL    HW136182   2.766   4.162  16.457 -0.1465 -0.5570  1.9248
 8182SOL    HW236183   2.859   4.064  16.407  1.5022 -0.1536  0.2950
 8183SOL     OW36184   1.621   1.593   7.397  0.6929  0.4202  0.1218
 8183SOL    HW136185   1.563   1.649   7.345 -2.5818 -3.5534 -0.5168
 8183SOL    HW236186   1.595   1.617   7.486 -1.8303 -1.5155 -0.0804
 8184SOL     OW36187   2.852   1.775   5.752 -0.8712 -0.1913  0.0255
 8184SOL    HW136188   2.898   1.854   5.721  1.7603 -2.3988 -1.6381
 8184SOL    HW236189   2.827   1.798   5.842  1.5067  0.8203  0.4215
 8185SOL     OW36190   2.347   4.309   3.006  0.5222  0.2687  0.3607
 8185SOL    HW136191   2.336   4.377   2.939  0.1825 -1.4373 -1.3252
 8185SOL    HW236192   2.254   4.287   3.013  0.8531 -1.9217 -2.1998
 8186SOL     OW36193   2.557   1.069   7.607  0.1507  0.0619  0.1278
 8186SOL    HW136194   2.648   1.047   7.628 -0.0733 -0.7834  0.2270
 8186SOL    HW236195   2.508   1.024   7.675  1.3178 -0.0270  0.9062
 8187SOL     OW36196   2.698   3.238   7.453  0.0098  0.2169 -0.7325
 8187SOL    HW136197   2.783   3.246   7.497  0.2380 -2.4449 -0.7010
 8187SOL    HW236198   2.664   3.162   7.500 -2.2512  0.0636 -2.6267
 8188SOL     OW36199   1.961   0.122  10.722  0.7411 -0.1308  0.0729
 8188SOL    HW136200   1.979   0.174  10.800 -2.1214 -0.0879  0.6962
 8188SOL    HW236201   2.047   0.085  10.700  1.6984  2.0458  0.1845
 8189SOL     OW36202   0.420   4.118  11.951 -0.1924  0.1522 -0.3217
 8189SOL    HW136203   0.471   4.175  12.009  1.2133 -0.9359 -0.4967
 8189SOL    HW236204   0.478   4.043  11.939  0.2802  0.6783 -1.3478
 8190SOL     OW36205   0.307   1.499   2.695  0.0982 -0.0890 -0.0194
 8190SOL    HW136206   0.211   1.490   2.700  0.2770 -0.8276  1.8685
 8190SOL    HW236207   0.317   1.454   2.611  2.0052 -0.2737  0.3205
 8191SOL     OW36208   1.835   4.714   4.008 -0.3320 -0.4438 -0.3301
 8191SOL    HW136209   1.776   4.684   3.938  1.1844 -0.3506 -1.6652
 8191SOL    HW236210   1.782   4.707   4.087 -1.8049 -0.4052 -1.3215
 8192SOL     OW36211   1.031   0.999   1.985  0.3193 -0.1371 -0.3892
 8192SOL    HW136212   1.091   1.029   1.917 -1.9557 -1.6838 -3.0671
 8192SOL    HW236213   1.044   0.909   1.957  1.7229 -0.2914  0.7567
 8193SOL     OW36214   2.755   4.650  17.739 -0.0975  0.1306 -0.0392
 8193SOL    HW136215   2.813   4.588  17.694  0.0650  0.7157 -0.6254
 8193SOL    HW236216   2.693   4.592   0.031  1.2495  0.1837  1.9108
 8194SOL     OW36217   4.058   1.084   1.284 -0.8205  0.5382  0.3172
 8194SOL    HW136218   4.084   1.008   1.336  1.6736 -0.0772 -1.8901
 8194SOL    HW236219   3.972   1.059   1.249  0.8677 -3.0923 -1.1759
 8195SOL     OW36220   3.438   1.528   4.162 -0.0018  0.7743  0.1337
 8195SOL    HW136221   3.387   1.505   4.084  0.1876 -3.2187  1.1862
 8195SOL    HW236222   3.368   1.564   4.217 -2.1356 -1.9990 -0.7883
 8196SOL     OW36223   1.475   1.943  15.466 -0.2652  0.2203  0.0287
 8196SOL    HW136224   1.468   2.038  15.460  0.6667  0.2000 -1.4560
 8196SOL    HW236225   1.407   1.920  15.402 -1.9502  2.4659  1.0233
 8197SOL     OW36226   0.335   0.337   3.016  0.1051  0.1941  0.1142
 8197SOL    HW136227   0.251   0.371   2.986  0.2961  0.8613  0.3350
 8197SOL    HW236228   0.286   0.256   3.032  1.0403 -0.4813 -0.4172
 8198SOL     OW36229   4.614   4.483   2.658 -0.1152 -0.2846 -0.8800
 8198SOL    HW136230   4.617   4.421   2.584  0.2308 -0.9208 -0.3337
 8198SOL    HW236231   4.586   4.563   2.614 -0.1553  0.3013  0.2121
 8199SOL     OW36232   1.681   0.409   5.494  0.0008  0.5083  0.3870
 8199SOL    HW136233   1.668   0.453   5.410 -0.1412 -2.2230 -1.0175
 8199SOL    HW236234   1.690   0.322   5.455 -0.1678 -1.0240  3.7989
 8200SOL     OW36235   0.676   0.482  11.000  0.0933 -0.7793  0.0558
 8200SOL    HW136236   0.640   0.397  10.977  1.7032 -1.6622  0.7951
 8200SOL    HW236237   0.709   0.466  11.089  1.4771 -1.0036 -0.4935
 8201SOL     OW36238   4.298   1.604   9.073  0.4147 -0.1339 -0.1878
 8201SOL    HW136239   4.209   1.569   9.070  1.0836 -1.6503 -2.9959
 8201SOL    HW236240   4.311   1.616   8.979  0.5840  0.1556 -0.1280
 8202SOL     OW36241   0.101   1.812   5.386 -0.1102 -0.0441 -0.3429
 8202SOL    HW136242   0.150   1.738   5.421  3.0958  1.6956 -1.2146
 8202SOL    HW236243   0.016   1.769   5.376 -0.6373  1.0090 -0.3511
 8203SOL     OW36244   3.462   4.284   9.172 -0.2579 -0.1750 -0.0028
 8203SOL    HW136245   3.515   4.321   9.242 -0.9459 -0.8842  0.8850
 8203SOL    HW236246   3.379   4.283   9.219 -0.2772 -1.3608 -0.0392
 8204SOL     OW36247   4.544   0.937   9.934  0.4131  0.0932  0.4043
 8204SOL    HW136248   4.511   0.931  10.023  0.9433 -0.9992  0.5233
 8204SOL    HW236249   4.633   0.900   9.936  0.4801  0.2082 -0.5542
 8205SOL     OW36250   0.546   4.663   8.000  0.1063 -0.3803 -0.2161
 8205SOL    HW136251   0.478   4.617   8.048 -0.0524 -0.0403 -0.1163
 8205SOL    HW236252   0.583   4.723   8.064 -1.3024  0.0242  0.2169
 8206SOL     OW36253   3.688   4.036   0.774 -0.3178 -0.0896  0.8324
 8206SOL    HW136254   3.705   4.054   0.681 -0.7342  0.9554  0.9663
 8206SOL    HW236255   3.713   4.123   0.806 -1.9879 -0.3250  2.7299
 8207SOL     OW36256   0.106   1.879   3.016 -0.0515  0.7804 -0.2345
 8207SOL    HW136257   0.111   1.784   3.003 -1.5396  0.3088  2.6506
 8207SOL    HW236258   0.199   1.900   3.017  0.2393 -0.4874  1.0897
 8208SOL     OW36259   3.199   3.185  16.572  0.3934 -0.0095 -0.1050
 8208SOL    HW136260   3.259   3.146  16.635  0.4604 -0.1611 -0.2640
 8208SOL    HW236261   3.120   3.208  16.621  0.6361 -1.4881  0.9559
 8209SOL     OW36262   0.340   4.132   3.575  0.2087  0.5666 -0.1711
 8209SOL    HW136263   0.278   4.073   3.618 -3.0762  3.9360 -0.3164
 8209SOL    HW236264   0.292   4.213   3.559 -0.0954  0.4733  0.2839
 8210SOL     OW36265   1.311   0.747   8.712  0.0336 -0.1303 -0.4444
 8210SOL    HW136266   1.307   0.840   8.687  1.3330 -0.2902 -1.2493
 8210SOL    HW236267   1.315   0.702   8.628 -4.1520 -1.1270 -0.1025
 8211SOL     OW36268   3.771   3.791   3.446 -0.1177 -0.3022 -0.1403
 8211SOL    HW136269   3.827   3.734   3.394  0.3150  2.7237 -3.0415
 8211SOL    HW236270   3.833   3.863   3.462 -0.5832  0.1367 -0.3089
 8212SOL     OW36271   0.424   2.579  11.664  0.3041  0.0764 -0.2005
 8212SOL    HW136272   0.498   2.639  11.667 -0.9734  1.4770  3.4855
 8212SOL    HW236273   0.460   2.491  11.654 -0.0202 -0.0606 -0.1615
 8213SOL     OW36274   2.975   1.126   3.457 -0.4721  0.1025 -0.4382
 8213SOL    HW136275   2.923   1.196   3.418 -2.3492 -0.3133  1.3188
 8213SOL    HW236276   3.055   1.172   3.482  0.3221 -1.6190  0.1983
 8214SOL     OW36277   1.801   0.969   3.773 -0.4028  0.8060 -0.1287
 8214SOL    HW136278   1.817   0.908   3.700 -1.6838  0.3786 -0.0592
 8214SOL    HW236279   1.770   0.902   3.834 -1.6394  0.2233 -1.3823
 8215SOL     OW36280   2.017   1.337   7.408  0.1713 -0.0365 -0.0008
 8215SOL    HW136281   2.077   1.343   7.334  1.1036 -0.4685  0.7122
 8215SOL    HW236282   2.013   1.243   7.426  0.6459  0.5003  2.9271
 8216SOL     OW36283   0.682   0.168   6.304  0.1839  0.8231  0.0487
 8216SOL    HW136284   0.587   0.179   6.311  0.0684 -0.4752  0.4608
 8216SOL    HW236285   0.717   0.203   6.386 -0.1955 -0.4813  0.7561
 8217SOL     OW36286   4.078   3.395   5.706  1.0379  0.4231 -0.1562
 8217SOL    HW136287   4.142   3.367   5.640 -0.4911 -0.1215 -1.4121
 8217SOL    HW236288   4.133   3.399   5.784 -1.0514 -1.5752  1.4359
 8218SOL     OW36289   0.999   4.539   8.539 -0.1789  0.8214  1.0357
 8218SOL    HW136290   0.997   4.454   8.495  2.2891  1.2569  0.0625
 8218SOL    HW236291   1.089   4.571   8.542  0.2084 -0.3414  1.8429
 8219SOL     OW36292   1.779   3.149   8.439 -0.0355 -0.2291 -0.2050
 8219SOL    HW136293   1.840   3.196   8.497  1.1848 -1.3417 -0.5975
 8219SOL    HW236294   1.800   3.197   8.359  0.0953  0.5249  0.2800
 8220SOL     OW36295   2.122   1.721   3.526  0.6474  0.5489  0.8236
 8220SOL    HW136296   2.186   1.666   3.481 -1.3792 -0.4560 -0.8664
 8220SOL    HW236297   2.142   1.690   3.614 -0.5253 -0.5669  0.7105
 8221SOL     OW36298   1.210   2.616  10.939  0.2598  0.0763  0.0216
 8221SOL    HW136299   1.241   2.661  11.017 -0.9435  1.9684 -0.6099
 8221SOL    HW236300   1.228   2.523  10.955 -0.9195 -0.0544  0.5440
 8222SOL     OW36301   2.800   3.378   0.155 -0.0647 -0.3309  0.2429
 8222SOL    HW136302   2.785   3.469   0.180 -0.1854 -0.5494  0.9437
 8222SOL    HW236303   2.799   3.329   0.237  0.3609  0.9813  1.0282
 8223SOL     OW36304   3.550   3.757  14.526  0.0937 -0.7670  0.6149
 8223SOL    HW136305   3.499   3.787  14.600 -1.5133  0.7104 -1.0935
 8223SOL    HW236306   3.482   3.711  14.476 -1.2532 -0.3715  2.1070
 8224SOL     OW36307   1.057   2.132   2.092 -0.5601  0.0268 -0.0375
 8224SOL    HW136308   1.110   2.140   2.012 -1.1005  0.5624 -0.3483
 8224SOL    HW236309   1.024   2.222   2.093 -1.7349 -0.3885 -1.3375
 8225SOL     OW36310   4.230   1.735   8.238  0.4133 -0.0123 -0.2454
 8225SOL    HW136311   4.318   1.742   8.199  0.7293 -0.0184  0.4563
 8225SOL    HW236312   4.230   1.649   8.280  2.0097 -0.0139 -0.2350
 8226SOL     OW36313   3.905   2.558   2.306 -0.4593 -0.1018  0.3965
 8226SOL    HW136314   3.889   2.650   2.283  0.6050  0.8408  3.3925
 8226SOL    HW236315   3.972   2.563   2.374  0.7046  1.5078 -0.8461
 8227SOL     OW36316   4.308   3.391   5.560 -0.4212  0.0414 -0.0150
 8227SOL    HW136317   4.371   3.320   5.544 -0.8802  0.1083 -2.0943
 8227SOL    HW236318   4.366   3.467   5.563 -0.2226 -0.1852  1.9462
 8228SOL     OW36319   1.643   0.384   1.233 -0.0015  0.1066 -0.2437
 8228SOL    HW136320   1.563   0.435   1.242  0.0387  0.4617 -1.8730
 8228SOL    HW236321   1.613   0.294   1.231  2.2104 -0.6103 -1.5587
 8229SOL     OW36322   0.776   0.899   6.167 -0.2073  0.7225  0.0272
 8229SOL    HW136323   0.733   0.925   6.249 -1.8141  1.9051 -1.1704
 8229SOL    HW236324   0.719   0.828   6.138  1.1412 -0.5609  0.5342
 8230SOL     OW36325   3.559   3.506   4.930 -0.1814 -1.2889  0.3680
 8230SOL    HW136326   3.608   3.561   4.991 -1.2308 -0.4689  0.4787
 8230SOL    HW236327   3.565   3.421   4.973  0.9362 -0.3521  2.0270
 8231SOL     OW36328   3.122   0.720  13.114 -0.2813  0.2222  0.2378
 8231SOL    HW136329   3.036   0.741  13.077 -0.9303  0.1491  1.7192
 8231SOL    HW236330   3.177   0.706  13.037 -1.1897 -1.4227 -0.1201
 8232SOL     OW36331   1.657   4.320  14.082 -0.7116 -0.3031 -0.2340
 8232SOL    HW136332   1.736   4.361  14.118 -0.3487 -2.1654  1.0560
 8232SOL    HW236333   1.637   4.263  14.156  0.6609  0.0519  0.4085
 8233SOL     OW36334   2.835   2.741  10.256  0.2130 -0.0025 -0.7282
 8233SOL    HW136335   2.909   2.799  10.275 -0.3769  0.2837  0.6608
 8233SOL    HW236336   2.870   2.661  10.295  0.5881  1.0490  1.0671
 8234SOL     OW36337   4.495   2.813  15.462  0.6100 -0.0134 -0.0057
 8234SOL    HW136338   4.564   2.813  15.528 -0.4429  0.8764  1.0848
 8234SOL    HW236339   4.548   2.796  15.384 -1.4357  0.9920 -1.6232
 8235SOL     OW36340   2.531   0.830  14.593  1.0547  0.1074  0.5539
 8235SOL    HW136341   2.454   0.827  14.650  0.6094  0.2581 -0.0456
 8235SOL    HW236342   2.509   0.756  14.538  0.7539  0.4412  0.2234
 8236SOL     OW36343   1.744   4.334   4.298 -0.0021  0.0051 -0.4229
 8236SOL    HW136344   1.748   4.429   4.310 -1.6707  0.0139  0.1566
 8236SOL    HW236345   1.711   4.330   4.208  0.4173 -0.0409 -0.5719
 8237SOL     OW36346   2.826   0.413   7.079  0.3750 -0.0742  0.4293
 8237SOL    HW136347   2.848   0.499   7.114  0.7288  0.8064 -1.9365
 8237SOL    HW236348   2.731   0.420   7.091  0.3572  0.4916 -0.0505
 8238SOL     OW36349   1.279   2.038   4.662  0.3482 -0.1672  0.8074
 8238SOL    HW136350   1.225   1.960   4.677  0.9588 -0.7069  0.2348
 8238SOL    HW236351   1.230   2.106   4.708 -2.1544 -0.8740 -0.8512
 8239SOL     OW36352   2.826   3.300   4.658  0.4738  0.0865  0.4947
 8239SOL    HW136353   2.814   3.376   4.715 -3.1449  0.7313 -1.0957
 8239SOL    HW236354   2.736   3.282   4.631  1.1566 -0.2458 -1.5811
 8240SOL     OW36355   2.880   1.104  13.934  0.1673  0.0307 -0.4581
 8240SOL    HW136356   2.908   1.165  13.866  0.1474  2.5902  1.8156
 8240SOL    HW236357   2.913   1.139  14.017 -2.5664 -1.1680  1.1537
 8241SOL     OW36358   0.901   0.224   5.128  0.1724  0.0955  0.3059
 8241SOL    HW136359   0.948   0.181   5.057 -1.2463  0.3809 -0.7972
 8241SOL    HW236360   0.880   0.305   5.082  1.3454  1.1765  1.6577
 8242SOL     OW36361   4.437   4.295   3.653  1.0166  0.2262  0.5834
 8242SOL    HW136362   4.374   4.366   3.668 -0.9081 -1.9918  2.8257
 8242SOL    HW236363   4.396   4.232   3.595  0.2956  0.7576  0.5221
 8243SOL     OW36364   4.515   3.738   1.462  0.3605  0.5192 -0.0883
 8243SOL    HW136365   4.421   3.747   1.470  0.2749 -0.3888 -0.0671
 8243SOL    HW236366   4.509   3.670   1.395 -1.1638  1.0920 -0.5220
 8244SOL     OW36367   4.017   1.710  11.951  0.3293  0.3555 -0.3884
 8244SOL    HW136368   3.946   1.762  11.912 -0.3154 -0.4005 -0.2178
 8244SOL    HW236369   4.012   1.749  12.039 -2.1026  2.5715 -1.4931
 8245SOL     OW36370   1.611   3.746   6.960 -0.0754  0.9817  0.2705
 8245SOL    HW136371   1.652   3.813   7.015  1.1373 -0.6068  1.3213
 8245SOL    HW236372   1.615   3.779   6.871 -0.3438 -0.0317 -0.1218
 8246SOL     OW36373   1.346   3.615   7.509 -0.8525 -0.3599  0.0309
 8246SOL    HW136374   1.320   3.539   7.456 -0.0110 -0.2664 -0.4997
 8246SOL    HW236375   1.275   3.671   7.478 -0.4261  0.5698  0.7677
 8247SOL     OW36376   2.150   3.067  14.237 -0.2870 -0.1467 -0.2581
 8247SOL    HW136377   2.206   3.105  14.305 -0.4199 -0.2075 -0.1177
 8247SOL    HW236378   2.068   3.075  14.284  0.1196 -1.0133  0.5895
 8248SOL     OW36379   0.495   4.573   3.618  0.1518  0.1733  0.1086
 8248SOL    HW136380   0.443   4.575   3.699 -1.3700  0.4258 -0.8798
 8248SOL    HW236381   0.422   4.564   3.557  1.6250  2.3121 -1.9823
 8249SOL     OW36382   0.276   1.479   8.718 -0.6139  0.2119  0.4933
 8249SOL    HW136383   0.187   1.514   8.713 -0.3411  1.0122  1.3149
 8249SOL    HW236384   0.290   1.456   8.626  0.5214  1.9164  0.2260
 8250SOL     OW36385   1.563   4.303   3.753 -0.1357 -0.2681 -0.2330
 8250SOL    HW136386   1.636   4.295   3.815 -0.0964 -1.2108 -0.3989
 8250SOL    HW236387   1.607   4.320   3.670 -0.9200 -0.4564 -0.6803
 8251SOL     OW36388   4.098   3.651   7.139 -0.1518  0.7679 -0.1372
 8251SOL    HW136389   4.140   3.628   7.222  0.7405  1.9721 -0.2623
 8251SOL    HW236390   4.020   3.596   7.148  1.4570 -1.3992  0.6324
 8252SOL     OW36391   1.742   2.135   2.783  0.2972  0.5687  0.3544
 8252SOL    HW136392   1.795   2.119   2.705 -1.4305 -3.5983  0.0517
 8252SOL    HW236393   1.779   2.075   2.847  1.8432 -0.9088 -1.9081
 8253SOL     OW36394   2.172   1.352   7.186 -0.2628  0.2559 -0.0851
 8253SOL    HW136395   2.208   1.271   7.152 -1.0616 -0.3037  0.4053
 8253SOL    HW236396   2.122   1.396   7.117 -2.4827 -0.7274  0.8892
 8254SOL     OW36397   1.118   4.034   6.363  0.0004 -0.5665 -0.0751
 8254SOL    HW136398   1.154   3.984   6.290 -1.0326 -1.9336  0.3430
 8254SOL    HW236399   1.113   3.968   6.431  1.4480 -1.7235 -1.0958
 8255SOL     OW36400   3.776   2.459   3.867  0.5905 -0.1664  0.0836
 8255SOL    HW136401   3.844   2.526   3.861  0.4785 -0.2353 -1.9995
 8255SOL    HW236402   3.702   2.516   3.851  2.9120  2.6522 -0.6577
 8256SOL     OW36403   2.777   2.751   4.044 -0.0965  0.2519 -0.0805
 8256SOL    HW136404   2.786   2.657   4.064  1.6449  0.3776 -0.2799
 8256SOL    HW236405   2.709   2.752   3.976 -1.4102 -1.2921  1.1873
 8257SOL     OW36406   3.288   1.853   8.238  0.5574  0.4817 -0.2429
 8257SOL    HW136407   3.313   1.772   8.193 -1.4055  0.3488 -1.0971
 8257SOL    HW236408   3.273   1.920   8.172  1.1304  1.6017  0.7593
 8258SOL     OW36409   2.789   1.288   3.333 -0.1767 -0.1126 -0.3104
 8258SOL    HW136410   2.770   1.374   3.371  0.3777 -0.1680  0.0856
 8258SOL    HW236411   2.799   1.310   3.240 -0.4778 -2.1627 -0.8163
 8259SOL     OW36412   2.138   3.391   4.285 -0.3180  0.0931 -0.0017
 8259SOL    HW136413   2.119   3.474   4.329  0.9097 -0.1700  1.0397
 8259SOL    HW236414   2.061   3.341   4.311 -0.7033  1.4652  1.5693
 8260SOL     OW36415   4.514   1.201   2.462 -0.2473  0.3188 -0.1570
 8260SOL    HW136416   4.480   1.219   2.549 -2.0322  2.3991 -1.2822
 8260SOL    HW236417   4.608   1.206   2.484 -0.0892  0.4069 -0.8558
 8261SOL     OW36418   2.310   3.543   0.566  0.0211 -0.0857  0.1869
 8261SOL    HW136419   2.402   3.569   0.568  0.7696 -2.5769 -1.6985
 8261SOL    HW236420   2.264   3.606   0.621  2.5338  2.1895 -0.3332
 8262SOL     OW36421   0.237   0.154   6.797 -0.3605 -0.4750 -0.0927
 8262SOL    HW136422   0.196   0.240   6.802 -1.5709 -1.0207 -0.6103
 8262SOL    HW236423   0.179   0.116   6.863 -1.8110 -0.2815 -1.2517
 8263SOL     OW36424   2.441   3.869  16.861  0.4063  0.5183  0.3244
 8263SOL    HW136425   2.467   3.940  16.920 -0.8491 -0.0267  1.5411
 8263SOL    HW236426   2.474   3.790  16.904  0.0676 -0.0997 -0.5522
 8264SOL     OW36427   1.825   0.846   9.505  0.6137 -0.1267 -0.1520
 8264SOL    HW136428   1.852   0.927   9.548 -0.2076 -0.9789  1.9488
 8264SOL    HW236429   1.898   0.785   9.509  2.4202  1.9377 -1.3590
 8265SOL     OW36430   2.310   2.900  15.669 -0.0125 -0.5397 -0.1118
 8265SOL    HW136431   2.319   2.806  15.688  0.8655 -0.4440 -0.0877
 8265SOL    HW236432   2.231   2.919  15.720 -0.8530 -1.9072 -0.8776
 8266SOL     OW36433   2.455   0.577  11.101  0.4616  0.2991 -0.1208
 8266SOL    HW136434   2.537   0.626  11.093  0.6750  0.3402  2.1934
 8266SOL    HW236435   2.427   0.592  11.192 -0.6813  1.2831 -0.6457
 8267SOL     OW36436   2.688   1.426  16.239 -0.4752 -0.5152  0.0231
 8267SOL    HW136437   2.637   1.355  16.280 -2.3130  0.3485 -0.7667
 8267SOL    HW236438   2.758   1.369  16.207  1.4222  1.8529 -0.0213
 8268SOL     OW36439   2.581   4.215   1.169 -1.0106  0.3886 -0.0202
 8268SOL    HW136440   2.658   4.161   1.189  0.4352  2.2688 -0.5356
 8268SOL    HW236441   2.609   4.302   1.198 -0.2442  0.2671 -0.3963
 8269SOL     OW36442   3.493   3.310   9.428  0.5748  0.2028 -0.7927
 8269SOL    HW136443   3.480   3.333   9.520  3.1178  0.4058 -0.4882
 8269SOL    HW236444   3.460   3.388   9.383 -1.1592  1.0636  1.9558
 8270SOL     OW36445   1.562   3.649   7.251  0.3353 -0.2540 -0.3751
 8270SOL    HW136446   1.612   3.669   7.330 -0.1572 -1.4485  0.2400
 8270SOL    HW236447   1.528   3.734   7.224  0.7355  0.3673  1.0746
 8271SOL     OW36448   3.927   4.495   7.225  0.5320 -0.6407  0.3493
 8271SOL    HW136449   3.940   4.583   7.262 -1.8940 -1.1415  2.4142
 8271SOL    HW236450   3.875   4.520   7.149 -0.8817 -0.5908  1.3347
 8272SOL     OW36451   2.106   0.572   8.821 -0.7939  0.0317  0.0956
 8272SOL    HW136452   2.099   0.514   8.746  0.7661 -0.3729  0.2687
 8272SOL    HW236453   2.133   0.652   8.777  1.5832 -0.2809  0.9959
 8273SOL     OW36454   1.825   0.012  13.405 -0.1473  0.3558  0.1737
 8273SOL    HW136455   1.807   4.680  13.342 -0.6225 -0.8625  1.6729
 8273SOL    HW236456   1.915   4.731  13.429  0.8687 -0.1865 -4.0229
 8274SOL     OW36457   4.325   1.700   7.645 -0.5926 -0.1108 -0.4537
 8274SOL    HW136458   4.245   1.665   7.684  0.3923 -0.6542  1.0607
 8274SOL    HW236459   4.315   1.688   7.550  0.4331 -1.4777 -0.3880
 8275SOL     OW36460   0.837   2.542   1.398  0.7078  0.0250  0.0600
 8275SOL    HW136461   0.926   2.577   1.393  0.9489 -0.8298 -1.4688
 8275SOL    HW236462   0.794   2.586   1.325  2.5637  0.3246 -0.8587
 8276SOL     OW36463   3.176   3.736   7.890  1.0311  0.2789  0.3780
 8276SOL    HW136464   3.129   3.810   7.852 -0.1888 -0.4732  0.4160
 8276SOL    HW236465   3.135   3.657   7.855  1.7612  0.0917 -0.0371
 8277SOL     OW36466   4.337   1.500   6.166 -0.3103  0.4125  0.5231
 8277SOL    HW136467   4.344   1.438   6.093 -1.0552  1.6561 -0.6157
 8277SOL    HW236468   4.432   1.510   6.176  0.1219 -1.2174 -1.8056
 8278SOL     OW36469   4.117   0.427   1.022 -0.7178  0.1500 -0.7099
 8278SOL    HW136470   4.051   0.417   1.091 -0.2371 -0.8272 -0.3981
 8278SOL    HW236471   4.187   0.483   1.054 -0.2541  0.0499 -1.5672
 8279SOL     OW36472   4.519   3.425   4.807  0.2712  0.6244  0.2005
 8279SOL    HW136473   4.434   3.439   4.848 -0.3597 -1.5717 -0.3217
 8279SOL    HW236474   4.489   3.373   4.732  0.8061  1.1685 -0.3882
 8280SOL     OW36475   1.121   4.527   7.725 -0.4395 -0.0122 -0.7009
 8280SOL    HW136476   1.118   4.516   7.821  0.7389 -0.2143 -0.6805
 8280SOL    HW236477   1.056   4.461   7.700 -0.5928 -0.4907  0.9096
 8281SOL     OW36478   4.620   2.702   3.298  0.4993 -0.0431  0.1595
 8281SOL    HW136479   4.592   2.792   3.311  0.5536  0.2593 -1.8226
 8281SOL    HW236480   4.535   2.658   3.299  0.3406  0.2674 -0.1928
 8282SOL     OW36481   4.383   0.217   0.776 -0.0550  0.0231 -0.1530
 8282SOL    HW136482   4.443   0.201   0.703 -0.0830  0.3189 -0.2427
 8282SOL    HW236483   4.347   0.301   0.748 -0.1902 -0.4654 -1.4414
 8283SOL     OW36484   0.663   3.997   7.233  0.1430 -0.4599 -0.3594
 8283SOL    HW136485   0.612   3.955   7.163 -2.7788  0.8767  0.9927
 8283SOL    HW236486   0.669   3.931   7.302  0.4684  0.3549  0.3906
 8284SOL     OW36487   3.659   1.981   1.655 -0.3420  0.2490  0.0797
 8284SOL    HW136488   3.728   1.915   1.666  1.0913  1.3692 -2.0513
 8284SOL    HW236489   3.700   2.067   1.670  0.1420  0.3792 -1.9732
 8285SOL     OW36490   3.056   0.782   6.905 -0.3728  0.3734 -0.2132
 8285SOL    HW136491   2.979   0.816   6.951 -1.0072  1.5144 -2.1424
 8285SOL    HW236492   3.084   0.715   6.967 -1.6887 -1.6280 -1.8136
 8286SOL     OW36493   0.129   1.832   9.896  0.1162 -0.0296  0.0938
 8286SOL    HW136494   0.224   1.824   9.909  0.2483  1.1385 -0.1903
 8286SOL    HW236495   0.105   1.765   9.960  1.6427  0.3710  1.1178
 8287SOL     OW36496   0.831   4.112   4.597 -0.1044 -0.3024 -0.0784
 8287SOL    HW136497   0.787   4.056   4.661  0.3518 -0.6136 -0.0406
 8287SOL    HW236498   0.909   4.060   4.577 -0.3160 -0.9765  0.8371
 8288SOL     OW36499   1.198   1.333   2.233 -0.1527  0.7304  0.1054
 8288SOL    HW136500   1.274   1.292   2.192 -1.7143 -2.1956  0.1430
 8288SOL    HW236501   1.135   1.344   2.162 -0.3872  1.3479  0.4049
 8289SOL     OW36502   3.096   3.524   3.953 -0.2281  0.0749 -0.6541
 8289SOL    HW136503   3.048   3.605   3.969  1.4382  1.0876 -0.8345
 8289SOL    HW236504   3.042   3.462   4.003  2.1708  1.6880  3.8830
 8290SOL     OW36505   1.174   1.863   4.333  0.2034 -0.0593  0.0370
 8290SOL    HW136506   1.145   1.856   4.241 -0.0440  0.1221  0.1019
 8290SOL    HW236507   1.267   1.879   4.318 -0.0175 -1.4265 -2.8856
 8291SOL     OW36508   0.564   2.306  14.032 -0.1478  0.2149  0.0697
 8291SOL    HW136509   0.530   2.217  14.018 -0.8048  0.1953  1.7799
 8291SOL    HW236510   0.580   2.310  14.126 -1.2558  1.6412  0.1935
 8292SOL     OW36511   1.690   2.021   1.657 -0.2677  0.9812 -0.4789
 8292SOL    HW136512   1.607   1.994   1.617  0.1921  1.0526 -1.4720
 8292SOL    HW236513   1.753   2.000   1.588 -0.0250 -1.1120  0.3836
 8293SOL     OW36514   0.288   4.273   7.505  0.1787  0.3306 -0.3667
 8293SOL    HW136515   0.285   4.280   7.409  1.9255 -5.0295 -0.8738
 8293SOL    HW236516   0.375   4.309   7.522  1.0159 -2.3514  1.0656
 8294SOL     OW36517   0.403   4.308   1.625 -0.1508 -0.8004  0.0539
 8294SOL    HW136518   0.350   4.381   1.593  1.9156  0.5307 -0.3488
 8294SOL    HW236519   0.448   4.340   1.703  0.6382  0.2317 -0.8264
 8295SOL     OW36520   0.252   3.359   9.356  0.1146  0.3249 -0.1325
 8295SOL    HW136521   0.265   3.351   9.451 -0.0447  0.4615 -0.0982
 8295SOL    HW236522   0.307   3.295   9.311  0.0660 -0.4592  0.9312
 8296SOL     OW36523   2.109   4.133   1.218 -0.0934 -0.0745 -0.0124
 8296SOL    HW136524   2.188   4.188   1.214 -0.9451  0.9446 -2.9313
 8296SOL    HW236525   2.136   4.050   1.178  1.1768 -0.1231  0.9407
 8297SOL     OW36526   0.840   1.169   8.557 -0.3105  0.4828  0.4036
 8297SOL    HW136527   0.818   1.250   8.603 -0.8847 -0.1300  1.2060
 8297SOL    HW236528   0.928   1.186   8.525 -0.5011 -0.1953 -0.5098
 8298SOL     OW36529   1.898   3.548  15.004  0.4797 -0.2277  0.3430
 8298SOL    HW136530   1.871   3.553  14.912  0.1607 -0.8241  0.4093
 8298SOL    HW236531   1.812   3.558  15.045 -0.3780  1.3565 -1.8377
 8299SOL     OW36532   2.452   1.167   8.008  0.1686 -0.0539 -0.6354
 8299SOL    HW136533   2.490   1.080   7.995 -0.9216 -0.7117  0.6464
 8299SOL    HW236534   2.485   1.210   7.929 -0.8466  0.0469 -1.0003
 8300SOL     OW36535   1.538   2.989   2.024 -0.1428  0.0180  0.1238
 8300SOL    HW136536   1.496   2.978   2.109  1.0595 -0.6745  0.6381
 8300SOL    HW236537   1.550   2.902   1.987 -1.7804 -1.3295  2.7737
 8301SOL     OW36538   4.707   2.813   4.633 -0.1125 -0.1858 -0.3898
 8301SOL    HW136539   4.664   2.867   4.699  0.5659 -0.0867 -0.0221
 8301SOL    HW236540   0.044   2.781   4.682 -1.9500 -2.4289  0.9251
 8302SOL     OW36541   3.411   3.856   3.724 -0.1926  0.3552 -0.0799
 8302SOL    HW136542   3.406   3.763   3.748  1.3313  0.6691  1.4524
 8302SOL    HW236543   3.465   3.847   3.646 -0.1973 -1.7039  0.1601
 8303SOL     OW36544   4.109   3.079   2.871  0.0898  0.5198 -0.5476
 8303SOL    HW136545   4.119   2.986   2.853  0.2751  0.4647 -0.1837
 8303SOL    HW236546   4.042   3.096   2.805 -1.8966 -1.3003  0.9984
 8304SOL     OW36547   3.720   3.980   3.843  0.3304  0.1111  0.3510
 8304SOL    HW136548   3.641   3.971   3.896 -0.3276  1.2747 -0.4359
 8304SOL    HW236549   3.743   3.888   3.830 -5.5838 -1.4555  1.0130
 8305SOL     OW36550   4.183   0.818  14.130  0.1683 -0.7357  0.9764
 8305SOL    HW136551   4.251   0.802  14.196  1.5334  1.1947  0.0310
 8305SOL    HW236552   4.097   0.796  14.166 -0.8600 -1.2698 -1.8074
 8306SOL     OW36553   0.116   0.271   8.140 -0.7172  0.1257  0.0913
 8306SOL    HW136554   0.167   0.258   8.220 -0.8141 -1.5493 -0.1370
 8306SOL    HW236555   0.193   0.269   8.083 -0.8028 -0.3488 -0.0067
 8307SOL     OW36556   1.860   2.360   4.505  0.0278  0.2168  0.0624
 8307SOL    HW136557   1.872   2.410   4.424 -0.6020 -0.6192 -0.5483
 8307SOL    HW236558   1.811   2.288   4.464 -0.5328 -0.6083  2.2144
 8308SOL     OW36559   2.318   2.590   8.604  0.5510  0.5495 -0.3432
 8308SOL    HW136560   2.223   2.596   8.614  0.3633 -0.7686 -1.3997
 8308SOL    HW236561   2.320   2.560   8.513 -1.8793 -1.8532  0.4106
 8309SOL     OW36562   2.911   3.850   6.634  0.9325 -0.9437  0.3917
 8309SOL    HW136563   2.986   3.837   6.576  0.6605  0.0472 -0.1883
 8309SOL    HW236564   2.946   3.901   6.708 -1.1225 -0.9544  1.3642
 8310SOL     OW36565   4.366   1.236  17.102 -0.6347  0.3500  0.3686
 8310SOL    HW136566   4.389   1.148  17.132 -1.7504 -0.5191 -1.3503
 8310SOL    HW236567   4.432   1.244  17.033  0.1224 -0.8052  0.9549
 8311SOL     OW36568   1.391   3.977   4.671  0.0753  0.3253  0.1241
 8311SOL    HW136569   1.382   4.009   4.761 -2.1596  0.9743 -0.3171
 8311SOL    HW236570   1.335   4.040   4.625 -2.0943 -1.1865  0.6658
 8312SOL     OW36571   2.824   3.724   8.627  0.2665  0.7306  0.0378
 8312SOL    HW136572   2.765   3.735   8.701 -0.8145 -0.2446 -0.6693
 8312SOL    HW236573   2.839   3.816   8.606 -1.8042  1.4093  1.5490
 8313SOL     OW36574   0.809   0.999   3.324  0.3149 -0.5373 -0.2583
 8313SOL    HW136575   0.722   1.035   3.343  1.7833  3.8544 -1.6935
 8313SOL    HW236576   0.838   0.996   3.415 -1.4894  0.3949  0.3415
 8314SOL     OW36577   3.558   4.077   2.541  0.3032 -0.0047  0.2546
 8314SOL    HW136578   3.601   4.121   2.467 -1.4958  0.0458 -0.7669
 8314SOL    HW236579   3.586   4.127   2.617 -0.9022 -1.8845  1.9214
 8315SOL     OW36580   1.577   1.602  16.273 -0.2048 -0.2386  0.1700
 8315SOL    HW136581   1.489   1.636  16.292  0.6690  1.6406  0.9167
 8315SOL    HW236582   1.631   1.668  16.316  2.5753 -2.9521  0.7831
 8316SOL     OW36583   1.099   2.302   9.085 -0.8655 -0.3675 -0.3874
 8316SOL    HW136584   1.007   2.316   9.061 -1.1956  0.4938  1.4370
 8316SOL    HW236585   1.096   2.289   9.180 -1.3348  0.2105 -0.3252
 8317SOL     OW36586   1.592   2.966   3.711 -0.2695  0.1434 -0.2795
 8317SOL    HW136587   1.602   3.025   3.637  1.1116  0.6578  0.3117
 8317SOL    HW236588   1.642   3.015   3.776 -0.1610 -2.5668  1.7029
 8318SOL     OW36589   2.683   4.567   4.669  0.5453 -0.0048  0.4821
 8318SOL    HW136590   2.762   4.566   4.614 -1.3443  2.7808 -2.3150
 8318SOL    HW236591   2.683   4.475   4.693 -0.6833 -1.0488 -3.5394
 8319SOL     OW36592   4.573   0.055   1.253 -0.0214 -0.1445 -0.0205
 8319SOL    HW136593   4.666   0.057   1.230 -0.0468 -0.9897 -0.1707
 8319SOL    HW236594   4.532   0.088   1.173  0.7728 -2.1330 -1.2345
 8320SOL     OW36595   2.634   0.617  13.634 -0.2186 -0.5452  0.6352
 8320SOL    HW136596   2.630   0.529  13.597 -3.4781 -0.5129  0.8701
 8320SOL    HW236597   2.595   0.598  13.719  2.5411 -0.1633  1.9582
 8321SOL     OW36598   0.826   4.017   9.456 -0.0393 -0.0086 -0.1560
 8321SOL    HW136599   0.761   3.965   9.409  0.5929 -0.3132 -0.6829
 8321SOL    HW236600   0.802   4.101   9.417  2.4738  0.2291 -1.2138
 8322SOL     OW36601   1.469   4.088   3.395 -0.0490  0.2577 -0.2663
 8322SOL    HW136602   1.519   4.008   3.414  0.1457  0.4498  0.0244
 8322SOL    HW236603   1.540   4.143   3.361 -1.1669  1.9176  0.0927
 8323SOL     OW36604   1.855   3.076   1.971 -0.3201 -0.6786  0.0093
 8323SOL    HW136605   1.889   3.082   2.060  0.0557  1.0110 -0.2550
 8323SOL    HW236606   1.762   3.058   1.981 -1.0476  3.6272  0.8017
 8324SOL     OW36607   0.190   2.433   1.593 -0.3776 -0.6668  0.5179
 8324SOL    HW136608   0.254   2.422   1.663 -1.5506 -1.7593  1.4249
 8324SOL    HW236609   0.244   2.481   1.531  0.9333 -1.2284  1.2390
 8325SOL     OW36610   4.054   0.250   3.150  0.4961 -0.7886  1.1393
 8325SOL    HW136611   3.961   0.238   3.132  0.8603 -1.1301 -0.5284
 8325SOL    HW236612   4.095   0.217   3.070  1.6032  0.9823  0.9751
 8326SOL     OW36613   3.146   3.913   6.114  0.4994 -0.3594 -0.2596
 8326SOL    HW136614   3.095   3.836   6.090 -0.9038 -0.1773  2.1080
 8326SOL    HW236615   3.086   3.984   6.092  1.0403  0.5840  1.2839
 8327SOL     OW36616   1.012   0.243   7.514  0.4051 -0.5176 -0.2030
 8327SOL    HW136617   0.996   0.200   7.429  0.1536 -0.3470 -0.2428
 8327SOL    HW236618   1.023   0.333   7.483 -0.5488 -0.1592  0.4780
 8328SOL     OW36619   4.234   1.709  13.429  0.0410 -0.1507 -0.3288
 8328SOL    HW136620   4.260   1.801  13.430  1.3754 -0.5408  2.5775
 8328SOL    HW236621   4.140   1.722  13.441 -0.0024 -0.8608  0.1368
 8329SOL     OW36622   0.219   1.397   2.199 -0.4896  0.0636  0.2733
 8329SOL    HW136623   0.132   1.410   2.162 -0.5002  0.4926  0.4372
 8329SOL    HW236624   0.190   1.353   2.279 -0.9082 -0.4240 -0.1515
 8330SOL     OW36625   0.951   3.947   7.813 -0.2456 -0.0777  0.2552
 8330SOL    HW136626   0.906   4.026   7.784  2.0996  1.5824  1.1284
 8330SOL    HW236627   1.043   3.966   7.799 -0.4119  1.3066  1.0608
 8331SOL     OW36628   2.181   1.111   8.021 -0.1203 -0.7633  0.0539
 8331SOL    HW136629   2.274   1.092   8.031 -0.3277 -2.1228 -0.6675
 8331SOL    HW236630   2.188   1.200   8.055  2.7305 -0.4051 -1.4581
 8332SOL     OW36631   1.613   3.190  15.472 -0.1492  0.3894  0.4826
 8332SOL    HW136632   1.588   3.098  15.482 -0.1701  0.5606  2.1128
 8332SOL    HW236633   1.658   3.181  15.388 -0.1315  2.7831  0.2469
 8333SOL     OW36634   1.328   0.943   9.554  0.4304  0.3930  0.3369
 8333SOL    HW136635   1.382   0.970   9.479 -0.1300  1.5764  0.3719
 8333SOL    HW236636   1.299   1.023   9.597 -0.4136  1.6646 -2.5891
 8334SOL     OW36637   3.946   3.864  11.843  0.2363 -0.1549 -0.2130
 8334SOL    HW136638   3.886   3.909  11.782  0.9075 -0.4052 -1.0676
 8334SOL    HW236639   3.957   3.781  11.796 -2.2940 -0.9067  0.5496
 8335SOL     OW36640   0.539   4.564  13.999  0.1073 -0.4756  0.6729
 8335SOL    HW136641   0.588   4.545  14.079  0.7803  1.5118  0.7402
 8335SOL    HW236642   0.541   4.659  13.991 -2.1859 -0.6726 -2.1455
 8336SOL     OW36643   3.553   4.216   7.206  0.7983 -0.6310 -0.0453
 8336SOL    HW136644   3.577   4.202   7.298 -2.0215 -0.5891  0.6966
 8336SOL    HW236645   3.627   4.183   7.155  1.1082  0.3478 -0.2414
 8337SOL     OW36646   0.330   3.399   1.908 -0.1042 -0.4691  0.3196
 8337SOL    HW136647   0.372   3.485   1.907  1.0672 -1.0680 -1.4061
 8337SOL    HW236648   0.273   3.394   1.831 -0.5594  2.2251  0.4930
 8338SOL     OW36649   0.343   0.405   7.181  0.0011  0.4361  0.1551
 8338SOL    HW136650   0.402   0.368   7.247  0.1549  2.3306  1.0845
 8338SOL    HW236651   0.261   0.418   7.229  0.5097 -3.0515  1.9162
 8339SOL     OW36652   1.961   1.604   9.080  0.5390 -0.4179 -0.2108
 8339SOL    HW136653   1.938   1.533   9.020 -1.0333  1.3276 -1.6832
 8339SOL    HW236654   1.883   1.660   9.085  2.6529  2.3812  1.1129
 8340SOL     OW36655   4.553   0.225   8.207  0.4431 -0.2531  0.2152
 8340SOL    HW136656   4.524   0.150   8.155 -0.6631  0.7721 -0.6371
 8340SOL    HW236657   4.645   0.230   8.181  0.6084  0.0406  0.8421
 8341SOL     OW36658   0.208   2.970   3.627  0.1009 -0.0584  0.1536
 8341SOL    HW136659   0.130   2.978   3.682 -0.8755 -0.3991 -1.2011
 8341SOL    HW236660   0.215   3.059   3.592 -1.2374  0.0361  0.1493
 8342SOL     OW36661   0.505   0.722   5.752  0.0531  0.3248 -0.2934
 8342SOL    HW136662   0.525   0.797   5.808  0.5974 -1.8606  2.4265
 8342SOL    HW236663   0.580   0.725   5.693  0.5196  0.8078  0.3154
 8343SOL     OW36664   2.908   2.822   8.428  0.3019 -0.3016 -0.1372
 8343SOL    HW136665   2.956   2.741   8.410  2.4055  1.1629 -1.1013
 8343SOL    HW236666   2.893   2.853   8.338  2.4805 -0.5041 -0.5716
 8344SOL     OW36667   2.903   0.477  13.667  0.1207 -0.2395 -0.0622
 8344SOL    HW136668   2.910   0.571  13.684 -1.3783 -0.5408  2.3176
 8344SOL    HW236669   2.816   0.471  13.627 -0.1234 -3.8560  1.0293
 8345SOL     OW36670   1.867   2.404   8.429 -0.3737 -0.2083 -0.4444
 8345SOL    HW136671   1.914   2.476   8.386 -0.0998 -0.0558  0.1103
 8345SOL    HW236672   1.798   2.389   8.365 -2.9427  0.5366  2.1423
 8346SOL     OW36673   3.399   3.170   8.038  0.2723  0.0598  0.1248
 8346SOL    HW136674   3.486   3.143   8.011 -0.3038 -1.5848 -0.0904
 8346SOL    HW236675   3.378   3.118   8.115  0.4259 -0.2227 -0.0232
 8347SOL     OW36676   1.424   1.561   9.316 -0.5511 -0.0810  0.5221
 8347SOL    HW136677   1.406   1.647   9.278 -0.2865 -0.9991 -1.6576
 8347SOL    HW236678   1.423   1.583   9.409 -1.2883  0.2823  0.4296
 8348SOL     OW36679   4.069   1.769   2.361  0.6791  0.0816  0.0401
 8348SOL    HW136680   4.038   1.796   2.447  1.2159 -0.2698  0.3440
 8348SOL    HW236681   4.160   1.799   2.362  0.5394  0.4541  1.6973
 8349SOL     OW36682   1.144   2.339   2.266  0.4242 -0.0825  0.4698
 8349SOL    HW136683   1.070   2.282   2.284 -0.3863  1.1315  1.0247
 8349SOL    HW236684   1.218   2.281   2.285  1.7727  1.1650 -1.0043
 8350SOL     OW36685   0.686   4.368  14.632 -1.1054  0.7455  0.0387
 8350SOL    HW136686   0.689   4.373  14.728 -0.0455 -1.0604  0.0995
 8350SOL    HW236687   0.645   4.283  14.617  1.2713 -0.3925 -0.0731
 8351SOL     OW36688   0.835   0.479   5.790 -0.1292 -0.4455 -0.3470
 8351SOL    HW136689   0.840   0.511   5.880  1.7134  0.1370 -0.6640
 8351SOL    HW236690   0.802   0.389   5.798  1.3479 -0.9636 -0.1029
 8352SOL     OW36691   1.072   0.302   5.381  0.4851 -0.1039 -0.4585
 8352SOL    HW136692   0.999   0.278   5.324 -0.2613 -2.9850  1.6948
 8352SOL    HW236693   1.143   0.239   5.371  1.6783  1.1325  0.2058
 8353SOL     OW36694   2.267   1.705   1.849  0.2255  0.0060 -0.0625
 8353SOL    HW136695   2.216   1.628   1.877  0.4299 -0.5862 -1.3335
 8353SOL    HW236696   2.244   1.777   1.908 -3.6070 -0.8457 -0.4971
 8354SOL     OW36697   1.515   2.449   2.584 -0.4261 -0.2501  0.2733
 8354SOL    HW136698   1.470   2.479   2.663 -2.6034 -0.2627 -0.9663
 8354SOL    HW236699   1.515   2.356   2.607 -2.0631 -0.6924 -1.5257
 8355SOL     OW36700   4.223   1.901   9.988 -0.1987 -0.0065 -0.6314
 8355SOL    HW136701   4.290   1.969   9.993 -0.7367  0.4590  0.2117
 8355SOL    HW236702   4.180   1.935   9.909  1.5568  3.5612 -0.0597
 8356SOL     OW36703   1.983   2.328   2.235 -0.2135  0.0603 -0.1492
 8356SOL    HW136704   2.025   2.407   2.269  1.7908 -2.0060  2.2285
 8356SOL    HW236705   1.892   2.357   2.240  0.1060  0.9471  0.4813
 8357SOL     OW36706   1.474   2.283   6.452  0.0183  0.4252 -0.2197
 8357SOL    HW136707   1.569   2.288   6.450  0.0807 -0.7851 -0.3650
 8357SOL    HW236708   1.467   2.187   6.454  0.7251  0.3553 -1.0893
 8358SOL     OW36709   0.207   0.411   6.554  0.0097  0.1479 -0.0125
 8358SOL    HW136710   0.292   0.371   6.576 -0.3938 -0.5728  0.2343
 8358SOL    HW236711   0.151   0.391   6.629  0.3022 -1.1936 -0.1488
 8359SOL     OW36712   1.414   1.678   8.615  0.4083  0.2337 -0.6335
 8359SOL    HW136713   1.366   1.619   8.673  0.5361 -0.3938 -1.1774
 8359SOL    HW236714   1.433   1.758   8.665  0.1847 -1.8618  2.8176
 8360SOL     OW36715   3.572   4.261  15.226 -0.3288  0.3549  0.0630
 8360SOL    HW136716   3.519   4.257  15.147  0.0332 -0.5338 -0.1327
 8360SOL    HW236717   3.628   4.183  15.224 -0.8947 -0.0507  0.2702
 8361SOL     OW36718   4.570   3.337   2.569 -0.6145 -0.4285 -0.0936
 8361SOL    HW136719   4.567   3.335   2.473  0.8838 -0.6607 -0.1285
 8361SOL    HW236720   4.480   3.369   2.573 -0.5173 -0.0542 -0.8807
 8362SOL     OW36721   4.508   1.965   7.035 -0.1913  0.0400 -0.0307
 8362SOL    HW136722   4.423   1.982   7.074 -1.0820  0.9606 -2.3875
 8362SOL    HW236723   4.466   1.933   6.955 -0.4815 -1.4599  0.7264
 8363SOL     OW36724   4.183   0.397   1.968  0.0594  0.3223 -0.6163
 8363SOL    HW136725   4.233   0.364   1.894  0.9346  0.9462 -0.3066
 8363SOL    HW236726   4.248   0.373   2.035  1.8464 -0.3259 -2.5619
 8364SOL     OW36727   1.317   1.065   9.263 -0.1312 -0.5318 -0.0751
 8364SOL    HW136728   1.248   1.129   9.249 -0.2509 -0.8378 -0.8752
 8364SOL    HW236729   1.330   1.029   9.176 -1.9025 -0.7131 -0.2687
 8365SOL     OW36730   4.407   3.108   8.895  0.0152 -0.9013  0.0250
 8365SOL    HW136731   4.457   3.045   8.844  0.6994 -0.6341  0.3578
 8365SOL    HW236732   4.484   3.156   8.924 -1.7749  1.3518  1.0562
 8366SOL     OW36733   4.040   1.367  10.556 -0.0843 -0.6097  0.4130
 8366SOL    HW136734   4.097   1.340  10.627 -0.9801 -0.2942  1.2566
 8366SOL    HW236735   4.080   1.444  10.515 -1.5587 -0.6201 -1.0390
 8367SOL     OW36736   3.764   4.053   7.011  0.0924  0.3546 -0.0325
 8367SOL    HW136737   3.834   4.056   7.076  1.7580 -2.0537 -1.7019
 8367SOL    HW236738   3.812   4.033   6.931  2.8429  2.1699  1.1791
 8368SOL     OW36739   4.456   2.388   0.530  0.4506  0.0714  0.1893
 8368SOL    HW136740   4.480   2.466   0.580  0.3737  0.0270  0.2956
 8368SOL    HW236741   4.487   2.417   0.444  0.4104  1.7536  0.7267
 8369SOL     OW36742   1.856   0.744  12.551 -0.1505  0.0231  0.1590
 8369SOL    HW136743   1.781   0.796  12.579 -0.7525 -1.0999  0.6454
 8369SOL    HW236744   1.921   0.813  12.559 -2.1204  1.8988 -0.2650
 8370SOL     OW36745   0.319   4.423  12.469  0.1545  0.2095  0.4796
 8370SOL    HW136746   0.402   4.437  12.424  0.1874  2.1966  1.1758
 8370SOL    HW236747   0.266   4.382  12.401 -0.6713 -0.9491  1.8043
 8371SOL     OW36748   2.469   0.161  16.221 -0.5043  0.4000  0.3515
 8371SOL    HW136749   2.552   0.167  16.267 -0.9399  1.4500  0.9959
 8371SOL    HW236750   2.473   0.244  16.174 -0.1703 -1.0735 -2.2525
 8372SOL     OW36751   0.016   1.741   9.256 -0.2293  0.1646 -0.3066
 8372SOL    HW136752   0.023   1.664   9.313 -0.8684  1.6773  1.8433
 8372SOL    HW236753   4.697   1.706   9.188  0.2974 -0.1746 -0.5729
 8373SOL     OW36754   2.085   1.551   2.813  0.3376  0.1151  0.3234
 8373SOL    HW136755   2.040   1.495   2.877 -1.7568 -0.3255 -1.5535
 8373SOL    HW236756   2.129   1.619   2.864 -0.4057  0.5652  0.3627
 8374SOL     OW36757   0.542   0.364   4.808 -0.2971  0.7731  0.6495
 8374SOL    HW136758   0.462   0.394   4.765 -1.5221 -2.2352  0.8351
 8374SOL    HW236759   0.520   0.360   4.901 -2.1539  2.8518  0.2723
 8375SOL     OW36760   1.636   4.090   6.566 -0.1955  0.5187  0.9377
 8375SOL    HW136761   1.570   4.099   6.498 -0.8591  0.0619  1.5283
 8375SOL    HW236762   1.645   4.182   6.589  1.4858  0.3845  0.8404
 8376SOL     OW36763   0.096   1.351  16.618 -0.3345  0.1070  0.2293
 8376SOL    HW136764   0.101   1.436  16.662 -1.0802  1.2647 -1.8929
 8376SOL    HW236765   0.049   1.382  16.541 -1.7467 -1.6975  0.3729
 8377SOL     OW36766   2.134   2.983   3.272 -0.0867 -0.0367 -0.1096
 8377SOL    HW136767   2.229   2.977   3.282 -0.3574  0.6831  2.9531
 8377SOL    HW236768   2.108   2.986   3.364 -1.9060  1.4325 -0.6680
 8378SOL     OW36769   1.707   3.633   5.749  0.5635 -0.0173  0.1158
 8378SOL    HW136770   1.795   3.614   5.782  0.8729 -0.6926 -1.1335
 8378SOL    HW236771   1.656   3.571   5.801  1.8055 -1.9535 -0.9819
 8379SOL     OW36772   0.806   1.090   7.349 -0.2015 -0.2538 -0.1770
 8379SOL    HW136773   0.751   1.099   7.427 -1.2327 -0.4432 -0.8831
 8379SOL    HW236774   0.755   1.151   7.295  0.5012  1.5132  1.1374
 8380SOL     OW36775   0.800   0.774   7.951 -0.4609 -0.2706  0.1909
 8380SOL    HW136776   0.894   0.761   7.962 -0.0509  2.7194  0.1170
 8380SOL    HW236777   0.779   0.779   8.044  1.1222  0.1804  0.5117
 8381SOL     OW36778   1.447   0.985   7.402  0.6151 -0.3579 -0.3094
 8381SOL    HW136779   1.426   0.933   7.324  2.8525 -1.5457 -0.1215
 8381SOL    HW236780   1.383   1.055   7.393  2.3287  1.0459 -1.5125
 8382SOL     OW36781   0.738   2.620   5.197  0.1175  0.0866 -0.9049
 8382SOL    HW136782   0.786   2.590   5.119  0.3090 -0.4390 -0.5828
 8382SOL    HW236783   0.807   2.668   5.243 -0.0726  0.2301 -0.7700
 8383SOL     OW36784   2.150   2.245   0.329  0.2801 -0.6134  0.2059
 8383SOL    HW136785   2.125   2.334   0.357  2.3170  0.3626 -1.0682
 8383SOL    HW236786   2.094   2.230   0.253  2.4612 -0.5731 -1.3891
 8384SOL     OW36787   3.276   0.740   9.071  0.2497  0.2329  0.1800
 8384SOL    HW136788   3.212   0.697   9.013 -1.8841  1.7885  1.3573
 8384SOL    HW236789   3.227   0.758   9.151 -0.1295 -2.4368  0.5573
 8385SOL     OW36790   4.257   3.656   8.857 -0.6440 -0.1762 -0.2688
 8385SOL    HW136791   4.259   3.737   8.908 -0.4066 -1.4639  1.7700
 8385SOL    HW236792   4.270   3.597   8.931  2.1094 -0.2834 -0.8437
 8386SOL     OW36793   2.079   0.469   2.394 -0.2159  0.2735 -0.3805
 8386SOL    HW136794   2.111   0.536   2.334 -0.3440  0.8899  0.2368
 8386SOL    HW236795   2.129   0.502   2.469  1.0656 -1.3189 -0.5293
 8387SOL     OW36796   1.118   2.074  15.182  0.3124  0.0068  0.3832
 8387SOL    HW136797   1.090   2.165  15.190 -2.4032 -0.7094 -0.8176
 8387SOL    HW236798   1.091   2.070  15.090 -0.0996 -1.1091  0.5563
 8388SOL     OW36799   1.914   4.541   8.087 -0.4226 -0.2860 -0.3276
 8388SOL    HW136800   1.844   4.606   8.078 -0.1083  0.1487  0.4061
 8388SOL    HW236801   1.871   4.456   8.082 -3.6111  1.3364 -0.6735
 8389SOL     OW36802   2.081   3.581   1.164 -0.0342  0.6941 -0.1683
 8389SOL    HW136803   2.094   3.674   1.183  0.2098  0.4790  0.7404
 8389SOL    HW236804   2.133   3.545   1.236  1.2904  3.8329  0.4439
 8390SOL     OW36805   4.637   2.722   8.918  0.2843 -0.1819  0.2456
 8390SOL    HW136806   4.721   2.737   8.963 -0.4658 -1.2854  2.0208
 8390SOL    HW236807   4.576   2.708   8.990  0.0742 -1.4024 -0.1696
 8391SOL     OW36808   4.431   4.324   0.295  0.2112  0.0984 -0.3394
 8391SOL    HW136809   4.408   4.300   0.205  0.9218 -2.2392  0.1001
 8391SOL    HW236810   4.495   4.393   0.279  0.8552 -0.2726  0.6810
 8392SOL     OW36811   0.407   1.519  14.898  0.2048  0.3596  0.1243
 8392SOL    HW136812   0.424   1.471  14.979  0.6401  1.0123  0.4200
 8392SOL    HW236813   0.328   1.573  14.903  0.5586  0.7306  1.5718
 8393SOL     OW36814   3.124   2.489  11.028  0.2371 -0.5123 -0.3457
 8393SOL    HW136815   3.031   2.468  11.022  0.0984 -0.3467  1.1179
 8393SOL    HW236816   3.153   2.464  10.941  0.4129 -0.2730 -0.3573
 8394SOL     OW36817   2.823   3.177   1.743 -0.4818 -0.2509  0.2322
 8394SOL    HW136818   2.857   3.184   1.832 -0.6014 -0.3894  0.2897
 8394SOL    HW236819   2.827   3.083   1.725  1.6519 -0.4277  1.6643
 8395SOL     OW36820   3.647   4.473   4.837  0.1674 -0.1182 -0.0061
 8395SOL    HW136821   3.698   4.395   4.861  0.5671  0.5495  1.3220
 8395SOL    HW236822   3.561   4.430   4.836  0.1523 -0.0656 -0.8661
 8396SOL     OW36823   1.746   0.412   4.914  0.1951  0.1607 -0.6260
 8396SOL    HW136824   1.715   0.331   4.954 -1.9297  1.4957  0.4643
 8396SOL    HW236825   1.668   0.458   4.882 -0.2221 -0.0591  0.0943
 8397SOL     OW36826   4.254   3.918   5.836  0.2585 -0.5074 -0.5791
 8397SOL    HW136827   4.295   3.852   5.780  0.1249 -0.1413 -1.1115
 8397SOL    HW236828   4.333   3.943   5.884  0.0770  1.4075 -1.2846
 8398SOL     OW36829   4.378   3.679   4.385 -0.0640 -0.4050 -0.1540
 8398SOL    HW136830   4.416   3.608   4.436  0.7168  1.4158  1.7628
 8398SOL    HW236831   4.439   3.751   4.400 -1.0072  0.5362 -0.8682
 8399SOL     OW36832   0.535   0.347  16.540 -0.0807  0.0438  0.4749
 8399SOL    HW136833   0.613   0.389  16.576  1.5450 -0.3621 -2.5608
 8399SOL    HW236834   0.539   0.383  16.452 -2.2676  0.7985  0.6984
 8400SOL     OW36835   2.767   0.472  16.985  0.1218 -0.1608 -0.2916
 8400SOL    HW136836   2.746   0.392  16.936  2.0979  0.5236 -2.2900
 8400SOL    HW236837   2.774   0.531  16.910 -0.8212 -0.7396 -0.8390
 8401SOL     OW36838   3.400   1.749   2.186 -0.1526 -0.3134  0.5980
 8401SOL    HW136839   3.481   1.717   2.227  0.5245  1.8786  1.0199
 8401SOL    HW236840   3.426   1.835   2.153 -1.5948  0.3973  1.3180
 8402SOL     OW36841   0.295   1.264  16.993  0.1248 -0.3445 -0.0663
 8402SOL    HW136842   0.353   1.296  16.924  2.2841 -3.0378  0.5215
 8402SOL    HW236843   0.224   1.229  16.940 -1.5554  2.0104  0.6395
 8403SOL     OW36844   4.190   0.998   9.894  0.3192 -0.2135  0.4807
 8403SOL    HW136845   4.096   0.979   9.889  0.5208 -0.2938 -2.8661
 8403SOL    HW236846   4.204   1.058   9.822  0.0282 -1.7600 -0.8612
 8404SOL     OW36847   3.694   3.498   3.139 -0.1909 -0.0130  0.1077
 8404SOL    HW136848   3.745   3.576   3.160  0.5767 -0.4725 -0.0544
 8404SOL    HW236849   3.734   3.438   3.202 -0.6068 -1.5599 -1.0913
 8405SOL     OW36850   3.626   4.382  15.491 -0.5995  0.1553 -0.0073
 8405SOL    HW136851   3.582   4.466  15.482  2.4197  1.6612 -0.7556
 8405SOL    HW236852   3.594   4.341  15.410 -0.6711 -4.6288  2.4073
 8406SOL     OW36853   3.571   3.911   6.776 -0.4061 -0.1939 -0.0481
 8406SOL    HW136854   3.646   3.956   6.737 -0.6419 -0.4443 -0.7733
 8406SOL    HW236855   3.556   3.849   6.706  1.1163 -0.7511  0.1096
 8407SOL     OW36856   1.984   3.390  11.561 -0.0575 -0.3780 -0.4552
 8407SOL    HW136857   2.029   3.357  11.639 -0.1660 -0.0437 -0.2482
 8407SOL    HW236858   1.937   3.465  11.597  0.5455  0.3592 -1.2044
 8408SOL     OW36859   1.152   0.537   9.358  0.2550  0.1752 -0.1452
 8408SOL    HW136860   1.212   0.589   9.304  0.3731  0.0895 -0.0960
 8408SOL    HW236861   1.083   0.517   9.296 -0.4198 -0.0806  0.6865
 8409SOL     OW36862   4.188   0.929   5.352  0.0182  0.3044 -0.4335
 8409SOL    HW136863   4.278   0.898   5.348  0.0596  0.4401 -0.5318
 8409SOL    HW236864   4.186   0.968   5.440 -2.5053  0.0296 -0.3639
 8410SOL     OW36865   2.205   1.520   4.778 -0.5761 -0.1647 -0.3044
 8410SOL    HW136866   2.239   1.431   4.763 -0.5240 -0.5051  1.8024
 8410SOL    HW236867   2.273   1.564   4.829 -1.9951  0.9205  0.6438
 8411SOL     OW36868   1.612   4.139   5.779 -0.2396 -0.1340 -0.6601
 8411SOL    HW136869   1.574   4.054   5.757 -0.2133 -0.9327  2.3560
 8411SOL    HW236870   1.703   4.114   5.792 -0.5559 -0.6745  0.5365
 8412SOL     OW36871   2.495   0.421   6.919  0.4289 -0.3960 -0.2241
 8412SOL    HW136872   2.568   0.423   6.857  1.6087  1.9373  1.2504
 8412SOL    HW236873   2.439   0.365   6.865 -2.6209  1.7252  0.7469
 8413SOL     OW36874   0.388   4.060  10.605  0.0272  0.1744  0.5384
 8413SOL    HW136875   0.352   4.004  10.673  2.9748 -0.5541  1.4772
 8413SOL    HW236876   0.392   3.997  10.533  1.7966  2.1397 -1.1000
 8414SOL     OW36877   4.670   3.705  15.708  0.2325 -0.1291  0.7471
 8414SOL    HW136878   4.634   3.793  15.710 -1.5390 -0.8433 -0.0102
 8414SOL    HW236879   4.601   3.665  15.762 -1.0702  0.9277 -0.1323
 8415SOL     OW36880   3.644   1.006   7.743 -0.5844  0.4078  0.3618
 8415SOL    HW136881   3.638   1.059   7.663  3.2997 -2.8075 -2.0457
 8415SOL    HW236882   3.611   0.923   7.709  0.2018  0.7152 -1.1803
 8416SOL     OW36883   1.112   3.757  15.617  0.2497 -0.0046 -0.6887
 8416SOL    HW136884   1.165   3.785  15.542  1.2076  0.5766  0.2058
 8416SOL    HW236885   1.077   3.842  15.646 -0.0239 -1.0455  2.0440
 8417SOL     OW36886   1.720   1.357  11.092 -0.2138  0.6013 -0.2015
 8417SOL    HW136887   1.736   1.268  11.122  0.1174  0.1530 -1.7159
 8417SOL    HW236888   1.626   1.374  11.090 -0.4001 -0.2807  1.1882
 8418SOL     OW36889   1.383   3.139   8.421  0.4671 -0.1210  0.5195
 8418SOL    HW136890   1.304   3.192   8.431  1.4422  1.6956 -1.3315
 8418SOL    HW236891   1.431   3.177   8.495 -0.2904 -3.1037  2.5352
 8419SOL     OW36892   3.452   2.820   9.243  0.4000 -0.0607  0.2113
 8419SOL    HW136893   3.479   2.837   9.153  3.3886 -1.0850  0.9057
 8419SOL    HW236894   3.398   2.742   9.232 -1.3512  1.2613 -0.5488
 8420SOL     OW36895   1.867   0.089  11.166  0.5728 -0.1200 -0.0740
 8420SOL    HW136896   1.871   0.182  11.188  2.7142 -0.2710  0.2220
 8420SOL    HW236897   1.907   0.051  11.244 -0.4881  1.1740  1.1050
 8421SOL     OW36898   2.245   3.497  17.687 -0.3306 -0.4453  0.3559
 8421SOL    HW136899   2.218   3.551   0.009  0.4658 -0.1496  0.4298
 8421SOL    HW236900   2.159   3.506  17.644 -0.1428 -1.2168 -0.1678
 8422SOL     OW36901   3.113   0.468   8.117 -0.0821 -0.4849 -0.1611
 8422SOL    HW136902   3.030   0.430   8.086 -0.6575 -0.2838  1.1038
 8422SOL    HW236903   3.162   0.392   8.148  2.1456  0.4530 -1.4310
 8423SOL     OW36904   2.295   2.105  12.069  0.6253 -0.4076  0.3779
 8423SOL    HW136905   2.271   2.071  12.155  2.2225  1.2468  1.4762
 8423SOL    HW236906   2.259   2.043  12.006 -1.0994  0.2028  0.7647
 8424SOL     OW36907   1.580   0.892   7.648 -0.8787  0.5767 -0.2470
 8424SOL    HW136908   1.531   0.814   7.673  0.9791 -0.6885 -0.5910
 8424SOL    HW236909   1.560   0.901   7.555  0.0625 -3.9594 -0.8620
 8425SOL     OW36910   0.478   2.590   4.894  0.1343  0.0663 -0.4650
 8425SOL    HW136911   0.453   2.596   4.986  0.4804 -0.7510 -0.3167
 8425SOL    HW236912   0.507   2.680   4.878 -0.2756  0.4668  0.9834
 8426SOL     OW36913   0.901   3.175   8.143  0.5109 -0.6536 -0.2386
 8426SOL    HW136914   0.899   3.254   8.196  0.4519  0.2080 -1.5407
 8426SOL    HW236915   0.939   3.108   8.200  0.8144 -0.5882 -0.3643
 8427SOL     OW36916   2.914   1.451   0.136  0.4473  0.3145 -0.4159
 8427SOL    HW136917   2.956   1.394   0.071 -0.5770 -0.5502 -0.3396
 8427SOL    HW236918   2.844   1.400   0.178  1.3949 -1.9311 -1.5526
 8428SOL     OW36919   0.997   2.200  14.655  0.2014  0.0149  0.2018
 8428SOL    HW136920   1.089   2.188  14.677 -0.0885 -1.7585  0.4357
 8428SOL    HW236921   0.991   2.134  14.585  1.1687 -0.0768  0.2121
 8429SOL     OW36922   3.129   0.568   5.560 -0.1621 -0.4838  0.1666
 8429SOL    HW136923   3.159   0.656   5.580  2.5712 -1.0359 -1.6396
 8429SOL    HW236924   3.171   0.517   5.630  2.0703  0.1839 -0.6984
 8430SOL     OW36925   4.312   2.999   5.728  0.4740  0.1308 -0.1442
 8430SOL    HW136926   4.368   3.041   5.662  1.3483  0.3692  0.7438
 8430SOL    HW236927   4.333   2.906   5.719  1.4501  0.1863  1.5165
 8431SOL     OW36928   0.129   0.836   1.822 -0.2346  0.1569  0.1360
 8431SOL    HW136929   0.100   0.833   1.913 -2.1820  0.7730 -0.4549
 8431SOL    HW236930   0.155   0.744   1.817  2.2861  0.8380  0.8470
 8432SOL     OW36931   3.013   4.056  16.017  0.4072  0.0196  0.0342
 8432SOL    HW136932   2.983   4.014  15.937  0.1152 -1.4793  0.9466
 8432SOL    HW236933   3.079   4.117  15.982  0.2848  1.6945  2.7610
 8433SOL     OW36934   4.576   2.617   4.888 -0.5551  0.3410  0.1756
 8433SOL    HW136935   4.519   2.540   4.882 -1.8552  1.1673  2.1865
 8433SOL    HW236936   4.658   2.569   4.872 -1.4286 -0.8242 -0.8635
 8434SOL     OW36937   2.363   1.034   2.604  0.4360 -0.1478  0.8660
 8434SOL    HW136938   2.348   0.957   2.659  2.1299  0.2024  1.8445
 8434SOL    HW236939   2.398   1.001   2.521 -1.2180 -1.6014  0.7623
 8435SOL     OW36940   2.656   2.074   2.331  0.2364  0.2927 -0.1396
 8435SOL    HW136941   2.744   2.037   2.330  1.1040  2.2691  2.9480
 8435SOL    HW236942   2.674   2.148   2.272  0.6398  0.0067 -0.3701
 8436SOL     OW36943   2.217   1.693   6.319 -0.3635 -0.0906  0.8284
 8436SOL    HW136944   2.138   1.746   6.308 -0.8242 -1.1710 -1.0041
 8436SOL    HW236945   2.206   1.636   6.243 -1.7516 -0.6490  1.4285
 8437SOL     OW36946   2.129   0.939  16.416  0.0001 -0.2595 -0.1292
 8437SOL    HW136947   2.057   0.950  16.479  1.2655  0.4963  1.1871
 8437SOL    HW236948   2.117   0.849  16.386 -0.0373 -0.1134 -0.5405
 8438SOL     OW36949   3.053   0.655   8.324  0.0727  0.3337 -0.3510
 8438SOL    HW136950   3.057   0.601   8.245  1.2900  1.2762 -0.9292
 8438SOL    HW236951   2.964   0.690   8.319 -0.8940 -2.0633  0.0879
 8439SOL     OW36952   3.294   1.845   8.523 -0.3834 -0.2167  0.2801
 8439SOL    HW136953   3.386   1.823   8.542 -1.2076 -2.0613  2.1173
 8439SOL    HW236954   3.298   1.862   8.429  0.1692  1.7191  0.6507
 8440SOL     OW36955   1.554   1.097  11.220  0.0350 -0.0271 -0.5077
 8440SOL    HW136956   1.638   1.115  11.260 -0.6733 -0.4720  1.1616
 8440SOL    HW236957   1.582   1.067  11.133 -0.6000 -2.0081 -0.0395
 8441SOL     OW36958   2.025   0.345   4.927  0.3742  0.4598 -0.5335
 8441SOL    HW136959   2.051   0.427   4.968 -0.5123  1.2062 -1.4605
 8441SOL    HW236960   1.929   0.347   4.930  0.3825 -0.0180  0.1564
 8442SOL     OW36961   3.403   3.818   6.081 -0.2892  0.7607 -0.0441
 8442SOL    HW136962   3.430   3.759   6.011 -0.5630  0.8573 -0.2322
 8442SOL    HW236963   3.316   3.846   6.052  0.2640  1.4813 -1.0012
 8443SOL     OW36964   0.611   0.567   7.511  0.1632 -0.8767  0.1330
 8443SOL    HW136965   0.659   0.607   7.584 -0.9970  1.0223 -0.1625
 8443SOL    HW236966   0.666   0.577   7.433 -1.1130  0.0423 -0.6354
 8444SOL     OW36967   0.043   0.038   5.857 -0.3927  0.2764 -0.2142
 8444SOL    HW136968   0.120   0.052   5.802 -1.4097 -0.0575 -1.7390
 8444SOL    HW236969   0.059   0.078   5.942 -1.7488  0.4523 -0.0339
 8445SOL     OW36970   3.001   2.685   3.821  0.2714  0.5701 -0.3868
 8445SOL    HW136971   2.949   2.722   3.892 -0.4822  1.6081 -1.4900
 8445SOL    HW236972   3.008   2.766   3.770 -2.1245  1.5790  0.8885
 8446SOL     OW36973   2.702   3.590   6.171  0.4478 -0.8106  0.0130
 8446SOL    HW136974   2.667   3.501   6.179  0.1561 -0.6235  0.8808
 8446SOL    HW236975   2.759   3.592   6.248  0.1330  0.2065  0.2211
 8447SOL     OW36976   1.990   3.020   9.398  0.6767 -0.3567  0.0869
 8447SOL    HW136977   2.018   2.929   9.408  1.0689 -0.2230  0.2046
 8447SOL    HW236978   1.971   3.044   9.488  2.3359 -1.5510  0.7544
 8448SOL     OW36979   1.453   1.536   2.470  0.3162  0.5730  0.8893
 8448SOL    HW136980   1.524   1.516   2.530 -1.0570 -2.9011  1.3417
 8448SOL    HW236981   1.380   1.520   2.529 -1.1849 -0.7753 -1.3017
 8449SOL     OW36982   1.914   4.585   6.677  0.6688 -0.4072  0.5500
 8449SOL    HW136983   1.841   4.599   6.617 -0.3081  0.2461  1.8867
 8449SOL    HW236984   1.876   4.505   6.714  2.3153 -1.5508 -0.2155
 8450SOL     OW36985   3.643   2.545   3.200 -0.0003 -0.1588 -0.2713
 8450SOL    HW136986   3.700   2.546   3.277  1.6916 -0.0678 -1.5367
 8450SOL    HW236987   3.580   2.612   3.228  0.6594  0.5493 -0.4716
 8451SOL     OW36988   2.375   1.176   3.185  0.5477 -0.1528 -0.0350
 8451SOL    HW136989   2.308   1.116   3.219 -0.4908 -0.8590 -3.3348
 8451SOL    HW236990   2.422   1.190   3.267  0.5858  0.4248 -0.1603
 8452SOL     OW36991   3.919   3.928   5.226  0.2675  0.3879 -0.4467
 8452SOL    HW136992   3.840   3.934   5.281  0.2952 -1.3443 -0.2050
 8452SOL    HW236993   3.969   3.871   5.285  2.8277  1.1673 -1.8820
 8453SOL     OW36994   1.864   3.692   1.591 -0.6628  0.3168 -0.9163
 8453SOL    HW136995   1.777   3.675   1.555 -0.6790 -0.4571 -0.5246
 8453SOL    HW236996   1.842   3.731   1.676  2.2817 -3.3332  1.5128
 8454SOL     OW36997   4.119   3.122   8.802 -0.7918  0.2530  0.3157
 8454SOL    HW136998   4.047   3.076   8.846 -0.6988  1.0874  1.3597
 8454SOL    HW236999   4.194   3.082   8.846 -2.0974 -2.9365 -0.3671
 8455SOL     OW37000   3.904   3.770   0.743 -0.0648 -0.0433 -0.0144
 8455SOL    HW137001   3.855   3.824   0.805  0.5958  0.9371 -0.3402
 8455SOL    HW237002   3.984   3.746   0.789  0.7113 -2.0942 -2.4919
 8456SOL     OW37003   1.291   3.149   2.534  0.2703  0.0997 -0.4925
 8456SOL    HW137004   1.378   3.182   2.513  0.5416 -0.6810 -0.5988
 8456SOL    HW237005   1.314   3.093   2.609 -0.5433 -2.4978 -2.2107
 8457SOL     OW37006   1.115   3.426   9.634  0.1743 -0.2929 -0.6370
 8457SOL    HW137007   1.129   3.411   9.728 -3.6977  1.8436  0.2946
 8457SOL    HW237008   1.182   3.372   9.594  1.2974  0.3754  0.3493
 8458SOL     OW37009   4.635   0.090  12.183  0.0992  0.5230 -0.0474
 8458SOL    HW137010   4.564   0.035  12.217  0.6504  1.0818  2.0218
 8458SOL    HW237011   4.599   0.107  12.096  0.3178  0.0704 -0.2279
 8459SOL     OW37012   1.777   3.124  15.822  0.0849 -0.8788  0.9456
 8459SOL    HW137013   1.867   3.146  15.796 -0.4701 -0.6569 -0.8284
 8459SOL    HW237014   1.722   3.196  15.789 -0.4767 -1.5003  0.5336
 8460SOL     OW37015   3.993   2.857  13.757  0.1968 -0.2423  0.2411
 8460SOL    HW137016   3.952   2.776  13.785  0.8125 -1.2045 -1.6283
 8460SOL    HW237017   4.081   2.820  13.752 -0.1789 -1.3456  1.9202
 8461SOL     OW37018   3.971   3.452   3.022  0.5698 -0.6512 -0.0192
 8461SOL    HW137019   4.056   3.490   3.045  0.5065 -0.6472  0.2077
 8461SOL    HW237020   3.986   3.359   3.042  1.4036 -0.5494 -0.1577
 8462SOL     OW37021   2.931   2.642   9.471  0.9530 -0.1290  0.2431
 8462SOL    HW137022   2.838   2.629   9.492  0.6046  0.8411 -0.7313
 8462SOL    HW237023   2.921   2.731   9.438 -1.5465 -0.8595 -1.0093
 8463SOL     OW37024   2.628   2.711   2.241  0.0637 -0.3262 -0.0147
 8463SOL    HW137025   2.618   2.804   2.257 -1.8747 -0.5551  0.1854
 8463SOL    HW237026   2.551   2.689   2.187 -0.0260  0.3802 -0.1707
 8464SOL     OW37027   2.827   3.539   6.915 -0.5022  0.3935  0.1767
 8464SOL    HW137028   2.767   3.611   6.896 -0.5239  0.2914 -0.1359
 8464SOL    HW237029   2.765   3.490   6.970  0.5333  0.2608  1.2280
 8465SOL     OW37030   0.251   3.239   3.609 -0.0604 -0.4300 -0.1360
 8465SOL    HW137031   0.333   3.225   3.656 -0.0833  0.2154  0.0968
 8465SOL    HW237032   0.217   3.302   3.672  1.3890  1.6922 -1.4977
 8466SOL     OW37033   4.267   3.464   8.438 -0.3124 -0.1435  0.1639
 8466SOL    HW137034   4.248   3.376   8.471  0.0684 -0.1787  0.2895
 8466SOL    HW237035   4.226   3.473   8.352  1.0299  1.2252 -0.3324
 8467SOL     OW37036   3.011   3.560  13.662  0.9748 -0.1843  0.5327
 8467SOL    HW137037   2.978   3.645  13.631  0.8614 -0.3772  0.1238
 8467SOL    HW237038   2.949   3.494  13.631  1.7605 -0.2748 -0.8465
 8468SOL     OW37039   1.216   2.790  13.797  0.0958 -0.1174 -0.7152
 8468SOL    HW137040   1.157   2.717  13.779  0.2188 -0.2094 -0.7438
 8468SOL    HW237041   1.150   2.860  13.798  1.0984  0.8100  1.4019
 8469SOL     OW37042   3.185   1.453   1.751  0.1263 -0.1841 -0.2012
 8469SOL    HW137043   3.277   1.470   1.774  0.2434 -1.4673  0.3134
 8469SOL    HW237044   3.182   1.363   1.785  0.7175 -0.7705 -1.6818
 8470SOL     OW37045   1.282   3.679  15.812 -0.2316  0.0749  0.4428
 8470SOL    HW137046   1.229   3.708  15.738 -0.3648  1.0629  0.9225
 8470SOL    HW237047   1.225   3.610  15.844 -2.3350  1.4734 -0.2786
 8471SOL     OW37048   4.462   2.609   0.685 -0.2665  0.1969  0.1125
 8471SOL    HW137049   4.461   2.611   0.780 -1.3377  0.7048  0.0985
 8471SOL    HW237050   4.374   2.638   0.660  0.0175  0.5270 -0.4943
 8472SOL     OW37051   3.428   0.280   7.295  0.4746 -0.5592  0.0465
 8472SOL    HW137052   3.485   0.266   7.219  2.0091  1.6833  0.7743
 8472SOL    HW237053   3.341   0.258   7.262 -0.3786  2.2973  0.3569
 8473SOL     OW37054   0.332   3.816   1.545 -0.1997  0.3823  0.3077
 8473SOL    HW137055   0.423   3.845   1.544 -0.1551  0.2971  2.0484
 8473SOL    HW237056   0.295   3.867   1.618  0.9987 -2.3262  2.7685
 8474SOL     OW37057   4.211   0.233  13.967 -0.1237  0.8738  0.4491
 8474SOL    HW137058   4.276   0.167  13.990 -1.5999 -1.3276 -1.6787
 8474SOL    HW237059   4.140   0.234  14.031 -0.5441 -2.3774 -0.0047
 8475SOL     OW37060   0.012   3.327   4.905  0.0635  0.3347  0.0619
 8475SOL    HW137061   4.728   3.302   4.994 -1.4550  1.2776 -0.0570
 8475SOL    HW237062   4.673   3.372   4.872  0.8859  1.3654 -0.4740
 8476SOL     OW37063   0.321   2.577   1.919 -0.0414  0.3799  0.0411
 8476SOL    HW137064   0.343   2.664   1.884  1.9322  0.3336  1.1551
 8476SOL    HW237065   0.369   2.526   1.853  3.3493  1.3947  1.7176
 8477SOL     OW37066   3.164   3.484  15.959 -0.2869 -0.1095 -0.1778
 8477SOL    HW137067   3.082   3.472  15.912 -1.5183  0.1996  1.8724
 8477SOL    HW237068   3.135   3.440  16.039  0.6761 -0.3891  0.0227
 8478SOL     OW37069   3.419   2.100   7.282  0.3576  0.8217 -0.1993
 8478SOL    HW137070   3.364   2.034   7.325 -1.8843  2.5246 -0.4493
 8478SOL    HW237071   3.402   2.182   7.328 -3.5126 -0.0370 -0.0830
 8479SOL     OW37072   2.978   1.300   7.321  0.4718  0.0266 -0.4129
 8479SOL    HW137073   3.072   1.292   7.306  0.7068  0.8390  0.5597
 8479SOL    HW237074   2.936   1.258   7.247 -0.2668 -0.2204  0.1460
 8480SOL     OW37075   0.993   0.650  12.824 -0.2513 -0.4013 -0.1912
 8480SOL    HW137076   0.913   0.660  12.876  0.2777  1.1554  0.3119
 8480SOL    HW237077   1.013   0.560  12.853  1.3271 -0.2883 -0.9402
 8481SOL     OW37078   4.109   0.110   1.078  0.3953  0.2968  0.0085
 8481SOL    HW137079   4.023   0.111   1.036  0.3532 -0.7386  0.0734
 8481SOL    HW237080   4.133   0.203   1.085  0.1867  0.2192  1.6566
 8482SOL     OW37081   0.768   4.096   8.433  0.2469 -0.3173 -0.0420
 8482SOL    HW137082   0.688   4.094   8.486 -0.9151 -0.6664 -1.8080
 8482SOL    HW237083   0.823   4.045   8.492  2.2691  0.9051 -0.8384
 8483SOL     OW37084   2.375   3.494   5.026  0.3506  0.2820  0.0425
 8483SOL    HW137085   2.320   3.536   5.092 -1.5255 -0.3390 -1.1052
 8483SOL    HW237086   2.445   3.557   5.010  1.7798 -1.2872  0.1019
 8484SOL     OW37087   1.678   0.258   2.361 -0.1674 -0.0899  0.1427
 8484SOL    HW137088   1.763   0.295   2.334 -0.9098  0.2791 -1.6797
 8484SOL    HW237089   1.660   0.209   2.281 -4.0614 -1.1691  1.7084
 8485SOL     OW37090   0.683   0.605  13.192  0.0195 -0.1746  0.4843
 8485SOL    HW137091   0.733   0.524  13.180  1.8801  1.0785 -0.3094
 8485SOL    HW237092   0.705   0.641  13.278  0.9744  1.4233 -0.4188
 8486SOL     OW37093   3.620   1.269   0.783  0.5260  0.1658 -0.7153
 8486SOL    HW137094   3.699   1.261   0.835 -0.2164 -1.2748  0.1834
 8486SOL    HW237095   3.633   1.196   0.723  0.0515 -1.7307  1.5193
 8487SOL     OW37096   0.940   4.456  16.497  0.0524 -0.0769 -0.4671
 8487SOL    HW137097   0.875   4.483  16.562  0.7407 -2.1465  1.0789
 8487SOL    HW237098   0.915   4.506  16.420  0.5776  0.7109 -0.1246
 8488SOL     OW37099   3.362   3.193   9.001 -0.5027  0.0694 -0.0967
 8488SOL    HW137100   3.312   3.213   9.080 -0.5273  0.5873 -0.2445
 8488SOL    HW237101   3.424   3.266   8.997 -1.7260  1.1676  0.8474
 8489SOL     OW37102   0.926   1.417  12.553  0.2613 -0.5871 -0.4665
 8489SOL    HW137103   0.924   1.322  12.542 -1.3116 -0.7581  1.2911
 8489SOL    HW237104   0.976   1.429  12.634  0.2065 -0.0455 -0.5137
 8490SOL     OW37105   2.029   1.921   3.906  0.0491 -0.2504 -0.4389
 8490SOL    HW137106   2.073   1.865   3.971 -0.4959 -0.8166 -0.5584
 8490SOL    HW237107   1.941   1.913   3.941 -0.8741  1.7273 -2.3952
 8491SOL     OW37108   2.535   0.806   3.979  0.3409 -0.4465  0.0326
 8491SOL    HW137109   2.575   0.725   4.011  0.4244  0.3560  1.9328
 8491SOL    HW237110   2.558   0.788   3.888  0.2829  1.0410 -0.2820
 8492SOL     OW37111   1.252   0.808   4.954  0.0534 -0.1774  0.4140
 8492SOL    HW137112   1.189   0.846   5.015 -1.0541 -1.0138 -0.2083
 8492SOL    HW237113   1.214   0.798   4.866 -2.5333 -0.1620  1.5366
 8493SOL     OW37114   0.178   2.018   4.624 -0.5192 -0.1520  0.5060
 8493SOL    HW137115   0.178   2.029   4.529 -3.7448 -1.6121  0.3373
 8493SOL    HW237116   0.260   2.066   4.636 -0.5142  0.9925 -4.2955
 8494SOL     OW37117   2.420   2.911   3.295  0.5014  0.5203 -0.0689
 8494SOL    HW137118   2.443   2.924   3.387 -0.9056 -0.3072  0.4015
 8494SOL    HW237119   2.503   2.926   3.250  0.7722  0.8250  0.5337
 8495SOL     OW37120   2.860   2.219   0.065  0.5089  0.2108  0.9794
 8495SOL    HW137121   2.849   2.254   0.153  1.6649 -2.8246  2.3333
 8495SOL    HW237122   2.955   2.203   0.069  0.3907 -0.3222  1.6124
 8496SOL     OW37123   2.793   3.502   5.917  0.3407 -0.8535  0.1454
 8496SOL    HW137124   2.799   3.406   5.912 -0.2684 -0.9780  1.6775
 8496SOL    HW237125   2.767   3.512   6.009 -1.4352  1.4086 -0.5976
 8497SOL     OW37126   0.606   1.653   8.576  0.5836 -0.3371  0.6737
 8497SOL    HW137127   0.527   1.693   8.613  0.6522 -0.1106  0.5709
 8497SOL    HW237128   0.563   1.617   8.499  1.2221 -0.5352  0.4158
 8498SOL     OW37129   0.082   3.969   2.304 -0.3409 -0.0092 -0.4429
 8498SOL    HW137130   0.089   4.049   2.252 -0.7626  0.1148 -0.3128
 8498SOL    HW237131   0.166   3.929   2.284 -0.3998 -0.4547  0.2166
 8499SOL     OW37132   0.368   3.846  13.390  0.3193  0.0057  0.3269
 8499SOL    HW137133   0.373   3.753  13.371 -2.4945 -0.3975  1.5810
 8499SOL    HW237134   0.460   3.872  13.379 -0.2568  1.5631 -0.7958
 8500SOL     OW37135   1.312   2.530  16.520  0.2888  0.5762  0.1323
 8500SOL    HW137136   1.401   2.547  16.491  0.7055 -1.2215  0.3513
 8500SOL    HW237137   1.288   2.447  16.478 -0.0294  2.3381 -3.0942
 8501SOL     OW37138   4.621   1.289   6.040  0.2366 -0.4973  0.4675
 8501SOL    HW137139   4.529   1.264   6.052 -0.0425  0.4082  0.2264
 8501SOL    HW237140   4.610   1.378   6.008 -1.0865  0.6727  4.1926
 8502SOL     OW37141   4.126   4.731  13.519 -0.0510 -0.1439  0.2074
 8502SOL    HW137142   4.087   0.052  13.455  1.1988 -1.3676 -1.6974
 8502SOL    HW237143   4.176   0.049  13.577 -1.1659  0.7877  0.2523
 8503SOL     OW37144   2.461   0.574   8.606  0.3323  0.2650  0.3460
 8503SOL    HW137145   2.476   0.531   8.690  0.1998  1.9763  1.2575
 8503SOL    HW237146   2.374   0.541   8.584  0.6677 -1.1568  1.1281
 8504SOL     OW37147   3.874   1.316   5.081 -0.8247  0.2108  0.1029
 8504SOL    HW137148   3.963   1.295   5.053  0.1354 -1.0134  3.9950
 8504SOL    HW237149   3.851   1.402   5.045  1.7558  1.2712  0.9401
 8505SOL     OW37150   2.616   0.382   3.425 -0.0555  0.2278  0.1058
 8505SOL    HW137151   2.615   0.441   3.500 -1.1983 -0.1562  0.3868
 8505SOL    HW237152   2.543   0.326   3.450 -0.7678  0.8036 -0.7045
 8506SOL     OW37153   2.372   0.229   3.535 -0.3280  0.5078 -0.4319
 8506SOL    HW137154   2.344   0.173   3.607 -1.9224  0.8292 -0.8080
 8506SOL    HW237155   2.373   0.164   3.465 -0.2180  0.4946 -0.4193
 8507SOL     OW37156   2.025   1.637   7.563  0.3937 -0.1216  0.1660
 8507SOL    HW137157   2.024   1.561   7.505  1.4897 -0.1065  0.1283
 8507SOL    HW237158   1.940   1.627   7.605  1.5161  1.2383  2.8082
 8508SOL     OW37159   2.313   0.416   2.722 -0.1156  0.1452 -0.0419
 8508SOL    HW137160   2.391   0.374   2.758 -0.4923 -1.2031 -0.8061
 8508SOL    HW237161   2.347   0.444   2.637 -0.4192  4.7174  1.3589
 8509SOL     OW37162   3.685   0.354  16.198 -0.0911  0.2098 -0.5124
 8509SOL    HW137163   3.623   0.370  16.128  0.8413 -0.4830 -1.4967
 8509SOL    HW237164   3.643   0.283  16.246 -2.0936  1.4850 -0.4018
 8510SOL     OW37165   3.546   0.105  15.844  0.9546 -0.3843  0.2418
 8510SOL    HW137166   3.556   0.085  15.751  0.2632 -1.2547  0.3628
 8510SOL    HW237167   3.516   0.019  15.873 -1.3669  0.1674 -0.5289
 8511SOL     OW37168   0.330   1.599   9.316 -0.0470 -0.1691  0.0551
 8511SOL    HW137169   0.285   1.556   9.244  1.4511 -0.5314 -0.6707
 8511SOL    HW237170   0.410   1.623   9.269 -0.4545 -0.9187 -1.0254
 8512SOL     OW37171   2.302   2.819   5.041  0.4230  0.1528 -0.0736
 8512SOL    HW137172   2.345   2.887   4.989  1.1032 -0.3570 -0.1711
 8512SOL    HW237173   2.312   2.864   5.125 -2.2774  1.1997 -0.3087
 8513SOL     OW37174   4.685   1.086   7.560 -0.3325 -0.6666  0.1057
 8513SOL    HW137175   4.634   1.028   7.504  0.3074 -0.6469 -0.4860
 8513SOL    HW237176   0.038   1.065   7.545 -0.1877 -0.4748  0.7316
 8514SOL     OW37177   2.436   2.910   1.893 -0.4588  0.1287  0.4247
 8514SOL    HW137178   2.403   2.979   1.951  0.8320  1.3560 -0.2845
 8514SOL    HW237179   2.447   2.970   1.820  0.0697  0.6554  0.9322
 8515SOL     OW37180   2.600   0.313  15.386  0.1570  0.0865  0.0071
 8515SOL    HW137181   2.565   0.331  15.473  2.0847  1.8397  0.4158
 8515SOL    HW237182   2.628   0.394  15.344  0.9395 -1.1351 -1.8801
 8516SOL     OW37183   0.296   3.843   8.166 -0.5100  0.3814  0.4088
 8516SOL    HW137184   0.348   3.881   8.095  0.7434  0.4416  1.3618
 8516SOL    HW237185   0.280   3.756   8.132  1.5494 -1.9785  5.4572
 8517SOL     OW37186   2.253   0.922   5.933  0.1768 -0.0150 -0.4344
 8517SOL    HW137187   2.226   1.007   5.967 -1.0983 -1.1513  1.4087
 8517SOL    HW237188   2.337   0.943   5.892 -0.4800  0.7144 -1.3907
 8518SOL     OW37189   3.789   2.004   9.661  0.4000 -0.2555 -0.0717
 8518SOL    HW137190   3.824   1.973   9.578  1.3227  0.6880 -0.0441
 8518SOL    HW237191   3.856   1.969   9.719 -0.2363  0.6119  1.1974
 8519SOL     OW37192   2.265   2.261  14.934 -0.2085  0.3897  0.4435
 8519SOL    HW137193   2.280   2.356  14.937  0.1138  0.3923 -1.6582
 8519SOL    HW237194   2.174   2.256  14.965 -1.1850  0.3845 -2.4722
 8520SOL     OW37195   2.324   0.004   3.687 -0.0010  0.1139 -0.6418
 8520SOL    HW137196   2.417   4.723   3.701 -0.6166 -0.6480  2.4745
 8520SOL    HW237197   2.284   4.656   3.697  1.3757 -0.5208 -0.5566
 8521SOL     OW37198   3.544   0.350  15.945 -0.0033  0.1586  0.4983
 8521SOL    HW137199   3.549   0.261  15.910 -0.5172 -0.4969  2.0816
 8521SOL    HW237200   3.574   0.392  15.865 -2.5573 -1.1532 -1.1543
 8522SOL     OW37201   2.634   1.744   4.268  0.4903  0.6377 -0.2425
 8522SOL    HW137202   2.633   1.798   4.190  5.2182  1.4012  0.2315
 8522SOL    HW237203   2.550   1.699   4.277 -0.1785  1.7316 -1.0022
 8523SOL     OW37204   2.776   3.648   0.226  0.3935 -0.0907 -0.2057
 8523SOL    HW137205   2.774   3.740   0.199  0.1562 -0.1978 -0.5566
 8523SOL    HW237206   2.859   3.641   0.274  0.6449  0.4095 -0.5678
 8524SOL     OW37207   0.306   3.018  16.786  0.2187  0.4357 -0.1722
 8524SOL    HW137208   0.221   3.059  16.803 -0.1672 -0.8796  1.1254
 8524SOL    HW237209   0.355   3.068  16.851 -0.7275  0.5767  0.4388
 8525SOL     OW37210   2.676   1.846   5.360  0.1052 -0.1260  0.0995
 8525SOL    HW137211   2.722   1.901   5.423  2.3619 -0.4173 -1.2812
 8525SOL    HW237212   2.602   1.904   5.344 -0.7170 -1.5447 -1.2262
 8526SOL     OW37213   2.562   2.087   9.687  0.0030  0.5049  0.1495
 8526SOL    HW137214   2.554   2.038   9.605  1.5726  0.6495 -0.1037
 8526SOL    HW237215   2.651   2.066   9.717 -0.3751  0.7456  1.4298
 8527SOL     OW37216   3.321   1.535   8.809  0.0811  0.1248  0.0097
 8527SOL    HW137217   3.297   1.627   8.820  1.2190  0.1909  1.9757
 8527SOL    HW237218   3.232   1.500   8.795 -0.3397  0.4785  1.8037
 8528SOL     OW37219   1.731   0.927  14.315 -0.2383  0.4675 -0.0487
 8528SOL    HW137220   1.760   0.838  14.334 -0.0619  0.3885 -0.7048
 8528SOL    HW237221   1.744   0.948  14.222  0.5672 -1.2730 -0.3132
 8529SOL     OW37222   2.381   0.090   5.473  0.0288  0.4985 -0.5181
 8529SOL    HW137223   2.419   0.020   5.420 -0.7730  0.3927 -0.9551
 8529SOL    HW237224   2.358   0.044   5.553  0.1147  1.4073  0.0306
 8530SOL     OW37225   3.768   1.741  14.984 -0.1096  0.6530  0.1084
 8530SOL    HW137226   3.855   1.764  14.954 -0.3164  3.4500  1.6298
 8530SOL    HW237227   3.735   1.711  14.899 -2.0276 -0.7901  1.3658
 8531SOL     OW37228   3.745   0.543   7.227 -0.1634  0.5762  0.3988
 8531SOL    HW137229   3.769   0.552   7.135 -1.1287 -1.7003 -0.0719
 8531SOL    HW237230   3.827   0.567   7.270 -0.3463  0.8529  0.6023
 8532SOL     OW37231   0.707   3.173  15.654  0.3384  0.0096 -0.2053
 8532SOL    HW137232   0.704   3.164  15.750 -0.4110  1.8930 -0.0633
 8532SOL    HW237233   0.796   3.199  15.631  0.1999 -0.3237 -1.1345
 8533SOL     OW37234   1.133   0.103   7.689 -0.3175  0.2843 -0.0714
 8533SOL    HW137235   1.086   0.159   7.626  4.1723  3.1570 -0.8220
 8533SOL    HW237236   1.225   0.124   7.680  0.2189 -1.6226  1.0270
 8534SOL     OW37237   4.119   4.409  12.733  0.3347 -0.3211 -1.1022
 8534SOL    HW137238   4.073   4.493  12.728  1.1826  0.3586  2.1939
 8534SOL    HW237239   4.060   4.335  12.724  1.3382 -1.1369 -1.0258
 8535SOL     OW37240   1.538   2.591   5.273  0.1153 -0.1570  0.0206
 8535SOL    HW137241   1.487   2.639   5.338  1.8405  0.2703  1.0514
 8535SOL    HW237242   1.618   2.580   5.324 -0.4484 -1.5817  0.6105
 8536SOL     OW37243   0.065   1.171   5.154 -0.1469  0.0931  0.1365
 8536SOL    HW137244   0.147   1.164   5.106 -0.0877 -1.8940  0.5176
 8536SOL    HW237245   0.037   1.079   5.152  0.1326  0.0228 -0.5615
 8537SOL     OW37246   2.248   4.702   0.765  0.0306  0.0022  0.3217
 8537SOL    HW137247   2.269   4.610   0.755  0.5241 -0.2769  3.9197
 8537SOL    HW237248   2.210   4.719   0.679 -1.0511  1.6776  1.1174
 8538SOL     OW37249   3.626   3.717   1.773  0.1006 -0.0212  0.7801
 8538SOL    HW137250   3.592   3.678   1.692  0.2611 -0.7542  1.0690
 8538SOL    HW237251   3.573   3.678   1.842  2.2754 -1.5014  1.5908
 8539SOL     OW37252   2.299   4.142   1.887 -0.8506 -0.2914  0.2475
 8539SOL    HW137253   2.362   4.213   1.899  0.3525 -1.1008 -1.3788
 8539SOL    HW237254   2.224   4.184   1.845 -0.3725 -0.3276 -0.6214
 8540SOL     OW37255   3.624   1.098  16.133  0.2256 -0.0726 -0.1805
 8540SOL    HW137256   3.589   1.145  16.057  0.7347 -1.7275 -1.4372
 8540SOL    HW237257   3.547   1.114  16.187  0.0723  1.4732 -0.8610
 8541SOL     OW37258   0.737   3.438  15.379 -0.5298 -0.2082  0.1524
 8541SOL    HW137259   0.756   3.517  15.430  2.0392 -1.6957  1.5014
 8541SOL    HW237260   0.678   3.479  15.315  0.5272  0.4052 -0.4262
 8542SOL     OW37261   4.389   0.072   6.136 -0.2501  0.2701  0.6263
 8542SOL    HW137262   4.350   0.075   6.224  3.0054  1.4645  2.0294
 8542SOL    HW237263   4.312   0.104   6.089 -1.4054 -2.6647  0.5564
 8543SOL     OW37264   2.093   4.575   2.997 -0.1371 -0.1668  0.2743
 8543SOL    HW137265   2.095   4.480   3.008  0.1517 -0.2539 -0.5249
 8543SOL    HW237266   2.121   4.576   2.905  2.5198  1.8598  1.1343
 8544SOL     OW37267   4.133   2.164  12.454 -1.0441  0.2170  0.2106
 8544SOL    HW137268   4.123   2.255  12.482 -0.4337 -0.2322  1.8950
 8544SOL    HW237269   4.043   2.132  12.460 -0.4735 -1.0597  1.9649
 8545SOL     OW37270   0.847   3.067   7.658  0.2997  0.2634 -0.0343
 8545SOL    HW137271   0.877   2.976   7.655  1.7640  0.7547 -0.2802
 8545SOL    HW237272   0.756   3.051   7.633  0.7733 -0.0931 -1.5120
 8546SOL     OW37273   2.925   2.961   3.038  0.1208  0.0715 -0.6268
 8546SOL    HW137274   2.928   2.988   2.947 -0.9701 -0.3777 -0.8009
 8546SOL    HW237275   2.953   3.040   3.084  0.5696 -0.7716  0.5600
 8547SOL     OW37276   3.746   1.360   3.956 -0.3384 -0.2832  0.5101
 8547SOL    HW137277   3.710   1.339   4.042 -0.2597 -2.0685  0.1105
 8547SOL    HW237278   3.838   1.369   3.979  0.0678  1.1703 -1.6526
 8548SOL     OW37279   0.588   2.718   3.249  0.1937  0.7240  0.6350
 8548SOL    HW137280   0.533   2.796   3.249  1.1861  1.4158 -2.2972
 8548SOL    HW237281   0.680   2.745   3.256  0.6487 -0.8397  0.8145
 8549SOL     OW37282   3.252   0.728   7.359 -0.4078 -0.1981  0.2650
 8549SOL    HW137283   3.346   0.707   7.359 -0.4503 -0.3618  1.1972
 8549SOL    HW237284   3.241   0.782   7.437  1.8261 -1.9914  1.8200
 8550SOL     OW37285   0.217   1.051   7.555  0.2724 -0.5645  0.2871
 8550SOL    HW137286   0.250   1.075   7.468  0.2774 -1.9235 -0.0782
 8550SOL    HW237287   0.299   1.069   7.601 -0.2129 -0.3393  1.0602
 8551SOL     OW37288   1.312   0.477   7.838  0.1126  0.1493  0.4947
 8551SOL    HW137289   1.407   0.470   7.828  0.2092 -0.1994  1.6700
 8551SOL    HW237290   1.309   0.409   7.906 -0.5297  0.7230  1.0371
 8552SOL     OW37291   2.718   0.933   1.842 -0.1558 -0.3718 -0.5047
 8552SOL    HW137292   2.677   0.971   1.764  0.5497 -1.6134 -1.4757
 8552SOL    HW237293   2.707   0.839   1.830  1.9131 -0.6780  0.0448
 8553SOL     OW37294   3.566   4.074  15.837 -0.5780  0.2397 -0.6223
 8553SOL    HW137295   3.591   4.059  15.746  2.7711 -2.1061  0.6794
 8553SOL    HW237296   3.592   4.165  15.849  0.3601  0.0900 -1.5400
 8554SOL     OW37297   1.068   2.344   7.679  0.0341  0.3639 -0.3891
 8554SOL    HW137298   1.037   2.304   7.760  0.1500 -1.4491 -1.2437
 8554SOL    HW237299   1.153   2.300   7.684 -0.0055  0.4747  1.5027
 8555SOL     OW37300   0.930   4.064  16.457 -0.1179 -0.4676  0.6565
 8555SOL    HW137301   0.990   4.090  16.527 -0.5453 -1.1074  1.2559
 8555SOL    HW237302   0.857   4.047  16.516 -1.0771 -0.5622 -0.5605
 8556SOL     OW37303   4.655   3.255   5.177 -0.4755 -0.6023 -0.0034
 8556SOL    HW137304   4.684   3.184   5.234 -0.9051 -0.8246 -0.0644
 8556SOL    HW237305   4.561   3.242   5.183 -0.3893 -0.4717  1.5376
 8557SOL     OW37306   3.861   0.431  15.987  0.1972 -0.2268 -0.9145
 8557SOL    HW137307   3.954   0.408  15.988 -0.4181 -2.9197 -4.4447
 8557SOL    HW237308   3.846   0.417  16.080  1.3235  2.4888 -0.3327
 8558SOL     OW37309   4.479   0.122   4.379  0.4653  0.5550  0.5959
 8558SOL    HW137310   4.520   0.104   4.463 -0.4429 -0.0171  0.9156
 8558SOL    HW237311   4.412   0.054   4.375 -2.0114  3.0098  0.1608
 8559SOL     OW37312   4.273   4.497  13.373  0.2696 -0.2313  1.0142
 8559SOL    HW137313   4.344   4.509  13.310 -0.5418  0.3183  0.2037
 8559SOL    HW237314   4.251   4.583  13.408  1.4747 -0.2848  1.9230
 8560SOL     OW37315   3.270   1.426   5.716 -0.3208 -0.2160 -0.6741
 8560SOL    HW137316   3.236   1.515   5.725 -0.0428 -0.2205  0.5065
 8560SOL    HW237317   3.193   1.373   5.739 -0.6761  0.7970  0.5252
 8561SOL     OW37318   3.823   4.412   3.921 -0.0861 -0.4566 -0.2266
 8561SOL    HW137319   3.822   4.370   3.836 -0.9659 -1.8565  0.4730
 8561SOL    HW237320   3.797   4.342   3.981 -0.1511 -0.6665 -0.4995
 8562SOL     OW37321   3.637   1.622   7.252 -0.1393 -0.1313  0.1431
 8562SOL    HW137322   3.569   1.668   7.203 -0.1760  0.4646  0.7517
 8562SOL    HW237323   3.599   1.635   7.339 -3.4464  0.9147 -1.4509
 8563SOL     OW37324   1.264   4.261  16.282 -0.2578 -0.3170  0.1895
 8563SOL    HW137325   1.304   4.177  16.262 -1.5664 -1.2362  1.4323
 8563SOL    HW237326   1.287   4.273  16.375 -1.5271 -1.3499  0.6350
 8564SOL     OW37327   3.068   3.635   0.703 -0.1330 -0.8681 -0.2001
 8564SOL    HW137328   3.101   3.720   0.675 -0.4592 -1.3900 -2.1558
 8564SOL    HW237329   3.148   3.583   0.691 -0.1734 -0.8201 -0.6807
 8565SOL     OW37330   0.375   3.444  13.422 -0.6520  0.3169  0.4224
 8565SOL    HW137331   0.401   3.405  13.505 -1.4537 -0.2157  0.4300
 8565SOL    HW237332   0.294   3.395  13.404 -1.1781  1.3279  0.0668
 8566SOL     OW37333   2.288   2.363   1.323 -0.4493 -0.0056  0.0673
 8566SOL    HW137334   2.308   2.404   1.238  0.0365  1.7476  1.0210
 8566SOL    HW237335   2.229   2.422   1.370  2.7558 -0.0788  4.1414
 8567SOL     OW37336   3.118   1.196   4.784  0.3582 -0.5693 -0.4034
 8567SOL    HW137337   3.201   1.241   4.764  0.2813 -0.3949 -0.3299
 8567SOL    HW237338   3.051   1.222   4.721  0.5491 -0.3251 -0.5061
 8568SOL     OW37339   3.724   3.988   5.391 -0.0410  0.6857 -0.0077
 8568SOL    HW137340   3.754   4.037   5.467 -2.3181  1.7112  0.2482
 8568SOL    HW237341   3.663   3.930   5.437  1.5240 -1.3198 -0.5174
 8569SOL     OW37342   4.684   3.739   8.692  0.3947  0.4373 -0.0925
 8569SOL    HW137343   4.653   3.829   8.695 -0.6569  0.0716 -0.2198
 8569SOL    HW237344   4.601   3.697   8.671  1.3568 -0.7022 -1.6249
 8570SOL     OW37345   2.304   1.141   8.329 -0.2250  0.7438  0.0900
 8570SOL    HW137346   2.218   1.099   8.323  0.2810 -0.2781  0.0785
 8570SOL    HW237347   2.345   1.105   8.407  0.0145  0.6206 -0.0953
 8571SOL     OW37348   4.695   1.409   2.161  0.1949  0.0648  0.1648
 8571SOL    HW137349   4.682   1.502   2.140  0.1516 -0.4693 -2.1025
 8571SOL    HW237350   4.681   1.420   2.256  1.8640  1.7992  0.2239
 8572SOL     OW37351   1.145   1.985  13.089  0.4502 -0.0768 -0.0541
 8572SOL    HW137352   1.193   1.915  13.131 -0.3463  0.1736  1.2644
 8572SOL    HW237353   1.189   1.995  13.005 -1.4074  0.2680 -1.0069
 8573SOL     OW37354   2.431   3.974   1.063  0.1793  0.0713 -0.7822
 8573SOL    HW137355   2.512   4.024   1.066 -0.6221  1.3808 -1.2160
 8573SOL    HW237356   2.380   4.041   1.017  0.8475  1.1882  0.1085
 8574SOL     OW37357   4.216   0.969   6.689 -0.4872 -0.6331  0.0421
 8574SOL    HW137358   4.273   0.921   6.628 -1.0176 -0.5872 -0.4822
 8574SOL    HW237359   4.128   0.952   6.657 -0.0111 -0.7012 -1.2325
 8575SOL     OW37360   4.465   2.613   6.205  0.1804  0.0069 -0.3551
 8575SOL    HW137361   4.476   2.518   6.204  2.4204  0.2708 -1.3852
 8575SOL    HW237362   4.540   2.640   6.257 -1.4785  1.7763  1.1433
 8576SOL     OW37363   1.158   3.532   2.308  0.4032 -0.3123  0.0066
 8576SOL    HW137364   1.195   3.606   2.259  1.1486  0.2773  1.4402
 8576SOL    HW237365   1.065   3.537   2.287  0.5199  0.5115 -0.3257
 8577SOL     OW37366   0.141   2.760   7.664 -0.2259  0.2272 -0.3370
 8577SOL    HW137367   0.146   2.805   7.748  2.8359  0.8614 -0.8450
 8577SOL    HW237368   0.149   2.674   7.706  2.7761 -0.0146 -1.3860
 8578SOL     OW37369   0.752   1.902   4.895  0.1029 -0.1273  0.8077
 8578SOL    HW137370   0.819   1.883   4.960  2.1885  1.0389 -0.9927
 8578SOL    HW237371   0.694   1.825   4.891  0.1232 -0.0384 -1.5468
 8579SOL     OW37372   4.271   1.316  15.954 -0.3484  0.0360 -0.6625
 8579SOL    HW137373   4.209   1.355  16.016 -0.0508 -0.1326 -0.2587
 8579SOL    HW237374   4.345   1.371  15.979  0.9822 -1.9223 -0.3248
 8580SOL     OW37375   1.759   3.408   5.970  0.4356 -0.0995 -0.4843
 8580SOL    HW137376   1.815   3.366   5.906  2.0220  1.5080 -0.1519
 8580SOL    HW237377   1.822   3.453   6.027  1.4047 -2.2835  0.1758
 8581SOL     OW37378   4.183   3.930  12.900  1.2243 -0.0854  0.0693
 8581SOL    HW137379   4.101   3.900  12.940  0.5426 -0.7550 -1.8239
 8581SOL    HW237380   4.206   3.990  12.971  1.1075 -1.5815  1.3803
 8582SOL     OW37381   2.272   3.260   2.660 -0.2674  0.2117  0.1541
 8582SOL    HW137382   2.194   3.208   2.639  0.6397 -1.4766  0.9732
 8582SOL    HW237383   2.269   3.248   2.755  0.5642 -0.2822  0.1184
 8583SOL     OW37384   0.703   2.455   1.610 -0.2236  0.1750  0.3957
 8583SOL    HW137385   0.761   2.479   1.537  1.0208 -1.5328  0.8120
 8583SOL    HW237386   0.757   2.384   1.645 -0.4844  0.9423  2.3309
 8584SOL     OW37387   0.291   3.860  12.797 -0.2720  0.5010 -0.6976
 8584SOL    HW137388   0.296   3.848  12.892 -1.9645  3.8551 -0.1857
 8584SOL    HW237389   0.345   3.786  12.770 -0.3739  0.8092 -1.7445
 8585SOL     OW37390   1.551   1.222   2.819  0.3664  0.3020  0.2987
 8585SOL    HW137391   1.624   1.281   2.799  0.8287 -0.4928 -0.3764
 8585SOL    HW237392   1.519   1.205   2.730  1.4491 -2.6416  0.4843
 8586SOL     OW37393   0.017   2.449  11.412  0.2725 -0.0842  0.4371
 8586SOL    HW137394   0.026   2.404  11.496 -1.5925 -1.2730 -0.0092
 8586SOL    HW237395   0.086   2.515  11.417  1.3238 -1.3882  2.8474
 8587SOL     OW37396   0.095   0.735   2.205  0.0383  0.0394  0.4476
 8587SOL    HW137397   0.030   0.776   2.148  0.3020  1.4189  1.1394
 8587SOL    HW237398   0.116   0.651   2.164  0.7625  1.0380 -1.2421
 8588SOL     OW37399   2.246   2.666   1.180  0.5920  0.2971 -0.4275
 8588SOL    HW137400   2.328   2.701   1.216  1.2368 -1.4721 -0.1626
 8588SOL    HW237401   2.195   2.657   1.260  1.6082 -2.2972 -0.0638
 8589SOL     OW37402   4.210   0.313   9.058  0.8703  0.1906 -0.3457
 8589SOL    HW137403   4.225   0.265   8.976 -1.1892 -2.2754  0.7163
 8589SOL    HW237404   4.115   0.302   9.067  0.7744  2.4181  1.3834
 8590SOL     OW37405   0.701   3.136  16.644  0.3237 -0.0732 -0.0496
 8590SOL    HW137406   0.769   3.084  16.688 -0.7702 -1.8916 -0.5016
 8590SOL    HW237407   0.739   3.127  16.557  0.1455  1.3279 -0.2757
 8591SOL     OW37408   1.926   3.413   2.218 -0.1944  0.1709 -0.2875
 8591SOL    HW137409   1.880   3.417   2.135 -1.0000  0.3705  0.1711
 8591SOL    HW237410   1.877   3.468   2.279  1.7395  0.3161  1.1583
 8592SOL     OW37411   2.103   1.955  15.898  0.4667 -0.7877  0.2890
 8592SOL    HW137412   2.025   1.913  15.863 -0.1876  1.5799 -1.0820
 8592SOL    HW237413   2.068   2.018  15.961 -0.1377  1.2006 -2.0617
 8593SOL     OW37414   0.487   0.456   0.166 -0.2142 -0.2713  0.3745
 8593SOL    HW137415   0.482   0.550   0.152  0.5563 -0.6418 -2.4184
 8593SOL    HW237416   0.404   0.426   0.204  0.8022 -1.7886  1.4085
 8594SOL     OW37417   1.369   2.456   5.906  1.0110 -0.1104  0.3441
 8594SOL    HW137418   1.283   2.498   5.911  1.3093  0.4115  1.0796
 8594SOL    HW237419   1.361   2.413   5.821  0.9920 -0.8944  0.7435
 8595SOL     OW37420   1.824   4.440  13.791  0.1592 -0.0428 -0.3350
 8595SOL    HW137421   1.870   4.393  13.861 -1.5151 -1.5955 -0.2612
 8595SOL    HW237422   1.891   4.506  13.774 -2.0412  2.2167 -0.1165
 8596SOL     OW37423   4.213   1.539   6.617  0.2044  0.1282 -0.6315
 8596SOL    HW137424   4.172   1.538   6.530  1.1285 -0.6826 -1.0593
 8596SOL    HW237425   4.304   1.516   6.598  0.3058  0.5762 -0.6732
 8597SOL     OW37426   4.575   0.025   9.652 -0.1724 -0.4782  0.0190
 8597SOL    HW137427   4.521   0.013   9.730 -0.1717  1.3392  0.3130
 8597SOL    HW237428   4.504   0.016   9.587  1.3355  0.4124 -1.7580
 8598SOL     OW37429   3.407   3.444  13.406 -0.5928 -0.1229 -0.0976
 8598SOL    HW137430   3.475   3.399  13.456 -2.5741 -2.5919  0.3700
 8598SOL    HW237431   3.346   3.475  13.473 -0.6555 -0.5614  0.0464
 8599SOL     OW37432   1.270   1.597   7.699 -0.5902 -0.2583  0.3980
 8599SOL    HW137433   1.326   1.567   7.770 -0.9021 -1.0287  0.3152
 8599SOL    HW237434   1.236   1.518   7.656  2.2142 -1.3884  0.2537
 8600SOL     OW37435   0.398   0.231   6.262 -0.3217 -0.4067 -0.0194
 8600SOL    HW137436   0.352   0.251   6.180  0.6272 -1.6730 -0.8662
 8600SOL    HW237437   0.331   0.172   6.295 -0.6739  0.6655  1.2030
 8601SOL     OW37438   2.898   1.556   0.388 -0.5856  0.5597 -0.0489
 8601SOL    HW137439   2.984   1.577   0.425 -0.5745  2.0178 -0.8951
 8601SOL    HW237440   2.913   1.520   0.301  0.5575  1.9496 -0.4299
 8602SOL     OW37441   0.418   1.649   1.788  0.3236  0.3366  0.3356
 8602SOL    HW137442   0.366   1.609   1.718  1.7082  0.9358 -1.0321
 8602SOL    HW237443   0.390   1.592   1.860 -0.4513 -1.4155 -1.3341
 8603SOL     OW37444   1.138   0.960   4.531 -0.1788 -0.2652  0.0215
 8603SOL    HW137445   1.176   0.874   4.547  1.4773  0.4395 -0.1015
 8603SOL    HW237446   1.107   0.940   4.443  0.1107 -0.8739  0.0606
 8604SOL     OW37447   2.757   3.175  12.953  0.2994 -0.3806 -0.2876
 8604SOL    HW137448   2.736   3.150  12.863 -1.3917 -0.6281  0.1882
 8604SOL    HW237449   2.828   3.240  12.947  0.5190 -0.5114  0.8631
 8605SOL     OW37450   3.518   2.113   5.584  0.0264 -0.3553 -0.1292
 8605SOL    HW137451   3.558   2.130   5.498 -2.4446  0.5336 -1.1038
 8605SOL    HW237452   3.565   2.176   5.639  0.4625 -1.2288  0.5010
 8606SOL     OW37453   4.511   0.945  13.117 -0.1260 -0.4051  0.3822
 8606SOL    HW137454   4.529   1.025  13.166 -0.0194 -0.1443 -0.0780
 8606SOL    HW237455   4.596   0.902  13.118  0.1109  0.0370 -0.1129
 8607SOL     OW37456   1.319   1.266  15.767 -0.7288  0.3391 -1.0661
 8607SOL    HW137457   1.280   1.315  15.695 -0.6502 -0.2238 -1.4921
 8607SOL    HW237458   1.407   1.258  15.730  0.1145  0.5540  0.8392
 8608SOL     OW37459   1.612   1.142   9.104  0.4193  0.7052  0.1257
 8608SOL    HW137460   1.538   1.103   9.056  0.0444  0.3517  0.9942
 8608SOL    HW237461   1.630   1.071   9.165 -0.4394 -0.0864 -0.5382
 8609SOL     OW37462   3.151   1.060   8.463 -0.2689 -0.3982  0.0431
 8609SOL    HW137463   3.146   1.140   8.515  0.9702 -1.2796  1.5515
 8609SOL    HW237464   3.167   0.993   8.530  0.4788  0.9544  1.2241
 8610SOL     OW37465   1.109   3.125   6.111 -0.3652 -0.4895 -0.0078
 8610SOL    HW137466   1.055   3.192   6.153 -1.2197 -1.6455  0.7714
 8610SOL    HW237467   1.147   3.073   6.182  0.9624 -2.6519 -2.2943
 8611SOL     OW37468   2.614   3.563   4.519  0.0656  0.0624 -0.1709
 8611SOL    HW137469   2.685   3.583   4.458  1.7340  1.3796  2.2138
 8611SOL    HW237470   2.644   3.605   4.600  2.2888  0.1113 -1.0191
 8612SOL     OW37471   4.396   2.224   9.570  0.2836 -0.1841 -0.8258
 8612SOL    HW137472   4.412   2.189   9.482  3.2437  2.4091 -1.3222
 8612SOL    HW237473   4.470   2.183   9.614 -1.0008 -2.9272 -1.2037
 8613SOL     OW37474   1.872   3.639   3.105  0.9008 -0.2668 -0.2736
 8613SOL    HW137475   1.824   3.564   3.070 -0.1777 -0.2687  1.2182
 8613SOL    HW237476   1.891   3.609   3.194 -2.8001 -1.7778  0.0076
 8614SOL     OW37477   1.726   1.196   3.410  0.2444  0.3665 -0.6304
 8614SOL    HW137478   1.813   1.234   3.426 -0.5765  1.9742 -0.0110
 8614SOL    HW237479   1.751   1.121   3.356  1.4056 -0.2143  0.6902
 8615SOL     OW37480   2.470   0.841   2.419  0.0411  0.0403  0.6020
 8615SOL    HW137481   2.545   0.897   2.398 -0.3200  0.0456 -0.6798
 8615SOL    HW237482   2.415   0.853   2.341  0.8753  1.3536  0.2074
 8616SOL     OW37483   3.182   3.640   2.024 -0.0083 -0.1499 -0.1445
 8616SOL    HW137484   3.110   3.690   2.063  0.6292 -1.6860  2.9586
 8616SOL    HW237485   3.177   3.564   2.081  2.8390  0.3090  0.7529
 8617SOL     OW37486   3.974   1.604   2.953 -0.8464  0.4201 -0.0652
 8617SOL    HW137487   3.906   1.620   3.018 -0.0497 -0.1573  0.9090
 8617SOL    HW237488   3.930   1.543   2.894 -0.1320 -0.9492  0.8188
 8618SOL     OW37489   4.442   0.506   4.011 -0.2842  0.3484  0.2762
 8618SOL    HW137490   4.497   0.488   4.087  0.6851  2.7869  0.1435
 8618SOL    HW237491   4.462   0.599   3.996 -1.0722  0.3655 -0.6990
 8619SOL     OW37492   4.316   1.695  11.002  0.3471  0.1932 -0.4920
 8619SOL    HW137493   4.394   1.696  10.947 -0.2735  2.4913 -1.3368
 8619SOL    HW237494   4.347   1.680  11.091  0.1784  0.9540 -0.2965
 8620SOL     OW37495   0.864   1.927  16.713 -0.2452 -0.2336  0.0211
 8620SOL    HW137496   0.818   2.008  16.690 -3.0926 -2.0644 -0.7493
 8620SOL    HW237497   0.888   1.890  16.628  0.5000  0.6509 -0.1552
 8621SOL     OW37498   4.290   4.307  15.149 -0.0687 -0.2013  0.0586
 8621SOL    HW137499   4.289   4.226  15.199 -0.9214 -0.7962 -0.9290
 8621SOL    HW237500   4.195   4.322  15.145  0.3295  2.9551  2.1035
 8622SOL     OW37501   0.669   4.183   1.553  0.3568 -0.3540  0.6141
 8622SOL    HW137502   0.675   4.171   1.458  0.4405  2.1689  0.2888
 8622SOL    HW237503   0.580   4.216   1.562 -0.4132 -2.1594 -0.4204
 8623SOL     OW37504   3.936   3.997   9.893 -0.3663  0.3586  0.2412
 8623SOL    HW137505   4.016   4.048   9.883  1.6545 -2.6463  1.1056
 8623SOL    HW237506   3.963   3.922   9.840 -3.2919  0.0406 -0.7955
 8624SOL     OW37507   2.634   1.092   8.235  0.2033 -0.4117 -0.2577
 8624SOL    HW137508   2.542   1.101   8.211  0.5320  0.5391 -1.1156
 8624SOL    HW237509   2.626   1.096   8.331  2.2613 -1.5275 -0.0237
 8625SOL     OW37510   3.956   2.109  15.474  0.3840 -0.1986  0.0697
 8625SOL    HW137511   3.949   2.064  15.390  1.2717  0.3387 -0.2810
 8625SOL    HW237512   4.050   2.102  15.487  0.5655 -0.6897 -1.5639
 8626SOL     OW37513   2.123   2.195  12.359  0.0450  0.7254 -0.2416
 8626SOL    HW137514   2.035   2.159  12.373  0.7999 -2.1877 -2.8517
 8626SOL    HW237515   2.161   2.119  12.315 -0.4820  0.9910 -1.1629
 8627SOL     OW37516   3.494   2.748   7.985 -0.2780 -0.3189  0.1840
 8627SOL    HW137517   3.586   2.755   8.010  0.0598  0.3170 -1.2727
 8627SOL    HW237518   3.494   2.811   7.913  0.2830  2.0486  2.2461
 8628SOL     OW37519   0.139   4.429   4.125  0.0268  0.2172  0.2993
 8628SOL    HW137520   0.217   4.480   4.148 -0.9916  2.9875 -2.3233
 8628SOL    HW237521   0.116   4.381   4.205  0.4673 -1.1405 -0.3895
 8629SOL     OW37522   3.584   4.066   7.745 -0.1538 -0.1421 -0.0567
 8629SOL    HW137523   3.550   3.987   7.789 -1.2324 -0.2344 -1.0430
 8629SOL    HW237524   3.537   4.064   7.662  0.0313  0.3516 -0.1734
 8630SOL     OW37525   0.127   2.197   7.356  0.2522  0.4920  0.4231
 8630SOL    HW137526   0.074   2.258   7.407 -2.1530 -1.0702 -0.1936
 8630SOL    HW237527   0.060   2.133   7.332  0.0675  0.9997 -0.4339
 8631SOL     OW37528   3.440   0.294   5.997 -0.1951 -0.0116  0.0579
 8631SOL    HW137529   3.518   0.349   6.003 -1.8657  2.2076  1.1000
 8631SOL    HW237530   3.424   0.275   6.090  2.3615 -3.4448 -0.1757
 8632SOL     OW37531   2.422   2.454  13.738  0.2667  0.1078 -0.5035
 8632SOL    HW137532   2.369   2.401  13.678 -2.2797  0.1714  1.7063
 8632SOL    HW237533   2.505   2.458  13.690  0.0002 -0.4483 -1.0080
 8633SOL     OW37534   4.095   3.559   5.015  0.0077  0.2985 -0.0554
 8633SOL    HW137535   4.049   3.491   5.063 -0.5864  0.7786  0.0464
 8633SOL    HW237536   4.032   3.575   4.945 -0.5839  0.4067  0.5093
 8634SOL     OW37537   1.807   2.775   3.606  0.2769  0.1121 -0.1933
 8634SOL    HW137538   1.776   2.812   3.523  2.1407  0.7551 -0.5947
 8634SOL    HW237539   1.736   2.716   3.633 -0.3536  1.6826  1.6241
 8635SOL     OW37540   4.366   1.521   3.232  0.8453 -0.1597  0.5286
 8635SOL    HW137541   4.452   1.517   3.191 -0.0890 -0.9904 -1.3543
 8635SOL    HW237542   4.321   1.476   3.160 -2.2819  1.8949  1.1606
 8636SOL     OW37543   3.992   2.649   6.594  0.6337 -0.2134  0.1788
 8636SOL    HW137544   4.074   2.662   6.640  0.2945  0.8958  0.4661
 8636SOL    HW237545   3.941   2.583   6.642 -0.4621  1.4564  1.3216
 8637SOL     OW37546   2.547   1.912   3.005 -0.3649 -0.2254  0.4944
 8637SOL    HW137547   2.576   1.892   2.916 -2.3565  1.0661 -0.4334
 8637SOL    HW237548   2.593   1.996   3.011 -1.7446  0.5706 -0.2306
 8638SOL     OW37549   1.146   0.436  15.581  0.1017 -0.4379 -0.3865
 8638SOL    HW137550   1.209   0.394  15.640  0.1033  0.8176  0.5090
 8638SOL    HW237551   1.184   0.524  15.583  0.6725 -0.6839 -0.4043
 8639SOL     OW37552   3.255   0.959  12.429 -0.1845  0.2295 -0.1672
 8639SOL    HW137553   3.327   0.920  12.479 -0.7758 -1.4244 -0.6001
 8639SOL    HW237554   3.194   0.983  12.499 -0.1584 -2.9694  0.9391
 8640SOL     OW37555   0.193   0.776  11.456 -0.1231 -0.3721 -0.4042
 8640SOL    HW137556   0.260   0.789  11.524 -3.4948  0.8154  2.6473
 8640SOL    HW237557   0.176   0.682  11.457  2.7794 -0.9051 -0.1176
 8641SOL     OW37558   2.544   4.278   1.821  0.0985 -0.3474 -0.5454
 8641SOL    HW137559   2.475   4.338   1.793 -0.0780 -1.3330 -2.2170
 8641SOL    HW237560   2.582   4.257   1.736  1.0705  1.9495 -0.6822
 8642SOL     OW37561   1.228   1.968   7.786  0.3382 -0.0298 -0.3564
 8642SOL    HW137562   1.232   2.056   7.748  1.1481  0.1840  0.2098
 8642SOL    HW237563   1.142   1.969   7.829  0.1077 -0.7312 -0.8072
 8643SOL     OW37564   3.430   2.360   7.425  0.3214 -0.0016 -0.1076
 8643SOL    HW137565   3.521   2.350   7.400 -0.4436 -3.6385 -1.4782
 8643SOL    HW237566   3.434   2.439   7.478  1.9799 -0.8816  1.0620
 8644SOL     OW37567   2.199   1.224  11.632 -0.4183  0.3843 -0.5930
 8644SOL    HW137568   2.284   1.266  11.617 -0.1617  0.1426  0.2019
 8644SOL    HW237569   2.216   1.144  11.582 -1.2382 -0.5185  0.5824
 8645SOL     OW37570   2.244   3.846   9.470 -0.4645  0.0316  0.3737
 8645SOL    HW137571   2.248   3.756   9.437  1.1251 -0.4276  1.8191
 8645SOL    HW237572   2.150   3.855   9.489 -0.4129  0.5360  0.3971
 8646SOL     OW37573   1.918   3.763   2.806 -0.2867  0.6002  0.2179
 8646SOL    HW137574   1.905   3.856   2.789  0.7403  0.5007 -1.0507
 8646SOL    HW237575   2.002   3.752   2.762  0.5866 -2.3550  2.5586
 8647SOL     OW37576   1.725   2.219   2.244  0.2830  0.7458 -0.4766
 8647SOL    HW137577   1.636   2.208   2.211  0.7418 -1.5846 -0.9035
 8647SOL    HW237578   1.766   2.144   2.201  2.2484  1.2897  0.4566
 8648SOL     OW37579   0.233   0.560   8.807  0.0811  0.6356  0.0780
 8648SOL    HW137580   0.255   0.648   8.776 -0.6922  0.4724 -0.9342
 8648SOL    HW237581   0.222   0.517   8.722 -1.0435  2.8949 -0.9213
 8649SOL     OW37582   1.272   0.752   2.539 -0.1406  0.0248  0.3723
 8649SOL    HW137583   1.269   0.841   2.575 -1.0173 -0.0529  0.4841
 8649SOL    HW237584   1.196   0.752   2.481  1.5325  0.7353 -1.8224
 8650SOL     OW37585   3.553   1.342   3.545  0.4772  0.1705  0.6159
 8650SOL    HW137586   3.637   1.375   3.511  0.1982 -1.5929 -1.7962
 8650SOL    HW237587   3.574   1.301   3.628  0.3233  1.3619  1.2373
 8651SOL     OW37588   3.625   0.765  10.549 -0.4196 -0.0297 -0.2093
 8651SOL    HW137589   3.678   0.799  10.477  2.5523  0.2588  2.1116
 8651SOL    HW237590   3.613   0.844  10.601 -0.5164 -0.7847  0.9311
 8652SOL     OW37591   3.780   3.209  13.117 -0.1642 -0.1906  0.1048
 8652SOL    HW137592   3.693   3.174  13.099  0.2002 -2.0443  1.9789
 8652SOL    HW237593   3.771   3.253  13.202  0.4161 -1.5627  0.8763
 8653SOL     OW37594   2.677   1.184   6.035 -0.1734 -0.4596 -0.4770
 8653SOL    HW137595   2.687   1.089   6.027 -1.8625 -0.6129 -0.7014
 8653SOL    HW237596   2.728   1.189   6.116  1.1445 -0.0405 -1.3282
 8654SOL     OW37597   2.856   1.153   9.637 -0.1858  0.0656  0.1598
 8654SOL    HW137598   2.807   1.080   9.675  1.1909 -0.0549  1.6911
 8654SOL    HW237599   2.836   1.156   9.544 -0.0082  1.7349  0.1714
 8655SOL     OW37600   0.348   0.451   1.154 -0.6944 -0.2396  0.3845
 8655SOL    HW137601   0.343   0.516   1.224  2.9435  0.4229  0.0437
 8655SOL    HW237602   0.265   0.405   1.159 -0.4156 -0.6985  0.6952
 8656SOL     OW37603   3.354   1.519   6.447  0.0197 -0.4299  0.0573
 8656SOL    HW137604   3.408   1.539   6.524  1.3232 -1.6194 -0.5676
 8656SOL    HW237605   3.300   1.597   6.435  2.3756  1.1938  0.0224
 8657SOL     OW37606   4.032   1.563   3.232 -0.0801 -0.1028  0.4546
 8657SOL    HW137607   4.016   1.470   3.243  0.9723 -0.5337 -1.6390
 8657SOL    HW237608   4.046   1.561   3.137 -0.5724  1.3265  0.3473
 8658SOL     OW37609   4.141   1.904   1.829 -0.1362  0.2820 -0.6156
 8658SOL    HW137610   4.048   1.889   1.843  0.4050 -1.4817  1.0547
 8658SOL    HW237611   4.163   1.930   1.918  1.8155  0.1294 -1.0555
 8659SOL     OW37612   3.349   1.468   3.890 -0.2147 -0.5938 -0.1764
 8659SOL    HW137613   3.261   1.494   3.864  0.7080  2.1231 -0.4851
 8659SOL    HW237614   3.362   1.385   3.843 -1.1519 -1.2238  0.6734
 8660SOL     OW37615   3.344   3.758   5.284  0.3581 -0.3642  0.1767
 8660SOL    HW137616   3.385   3.671   5.282  1.9245  0.3676  0.2626
 8660SOL    HW237617   3.356   3.787   5.193 -2.6033  1.9100  0.5299
 8661SOL     OW37618   3.139   4.086   8.535  0.2122  0.3899  0.5192
 8661SOL    HW137619   3.195   4.090   8.612  2.5870 -1.8145 -1.0929
 8661SOL    HW237620   3.130   3.992   8.519  0.1308  0.4067  0.4606
 8662SOL     OW37621   1.923   4.152   0.109 -0.4898 -0.2571 -0.2005
 8662SOL    HW137622   1.897   4.128   0.020 -3.0095  0.3028  0.3774
 8662SOL    HW237623   1.869   4.229   0.131 -0.7119 -0.7864  1.0473
 8663SOL     OW37624   2.403   3.900   3.729 -0.0561  0.0462  0.7749
 8663SOL    HW137625   2.481   3.851   3.701  0.3989  1.2198 -0.0026
 8663SOL    HW237626   2.424   3.986   3.694 -1.6208 -1.4609 -3.8547
 8664SOL     OW37627   4.390   0.608   6.916  0.6378  0.1142 -0.3461
 8664SOL    HW137628   4.322   0.578   6.976  0.5408 -0.1558 -0.5921
 8664SOL    HW237629   4.337   0.640   6.844  0.8318  3.6201  1.0626
 8665SOL     OW37630   0.824   2.536  12.747 -0.0920 -0.5647  0.1549
 8665SOL    HW137631   0.845   2.541  12.654 -1.0251 -0.2621 -0.0467
 8665SOL    HW237632   0.844   2.450  12.784 -2.0245 -1.2754 -0.4215
 8666SOL     OW37633   0.719   4.395  14.921  0.1532  0.2594  0.8794
 8666SOL    HW137634   0.715   4.437  15.007  0.0881  1.0544  0.4832
 8666SOL    HW237635   0.794   4.444  14.890  1.4958 -0.1761  3.3735
 8667SOL     OW37636   1.462   2.067   3.409  0.0930  0.1695 -0.0582
 8667SOL    HW137637   1.369   2.064   3.385  0.1820 -3.0646 -0.0755
 8667SOL    HW237638   1.490   2.156   3.388 -1.1695  0.9044  1.3777
 8668SOL     OW37639   0.042   3.661  13.018  0.3662 -0.4800 -0.2574
 8668SOL    HW137640   4.694   3.701  13.024  2.0706  2.6308  3.6190
 8668SOL    HW237641   0.099   3.737  13.017  1.4153 -1.2519  0.3688
 8669SOL     OW37642   1.860   2.379   7.850 -0.4907 -0.4774  0.0806
 8669SOL    HW137643   1.924   2.421   7.907 -1.4878 -2.1509  2.4311
 8669SOL    HW237644   1.879   2.285   7.848  1.4579 -0.1010  1.5469
 8670SOL     OW37645   1.903   1.234   5.782  0.5002 -0.0839  0.0813
 8670SOL    HW137646   1.898   1.221   5.688  1.0485  1.8872 -0.2222
 8670SOL    HW237647   1.899   1.141   5.806 -1.1052 -0.6049 -2.2607
 8671SOL     OW37648   0.634   1.161   2.228 -0.4876  0.0910  0.4517
 8671SOL    HW137649   0.662   1.089   2.171  2.6312  0.1500  1.8986
 8671SOL    HW237650   0.715   1.211   2.231 -0.3492 -0.1200  0.2009
 8672SOL     OW37651   3.625   4.015  16.328  0.5269 -0.4220  0.0494
 8672SOL    HW137652   3.715   4.039  16.305 -0.2983  2.3667 -0.2644
 8672SOL    HW237653   3.569   4.034  16.253  1.2851 -2.1369 -0.9519
 8673SOL     OW37654   2.366   1.752   5.539  0.1415  0.4841  0.2920
 8673SOL    HW137655   2.370   1.660   5.567  0.3086  0.9430  1.7488
 8673SOL    HW237656   2.430   1.794   5.597 -1.0089  0.9883  1.1742
 8674SOL     OW37657   0.440   3.695  16.294  0.2150  0.2019 -0.1558
 8674SOL    HW137658   0.479   3.630  16.352  3.0998  0.8352 -1.3563
 8674SOL    HW237659   0.506   3.701  16.224 -0.6473 -2.8635 -1.2280
 8675SOL     OW37660   1.075   0.902   9.243 -0.4796  0.2129  0.3391
 8675SOL    HW137661   1.103   0.843   9.173 -0.7768  0.9408 -0.3909
 8675SOL    HW237662   1.135   0.889   9.317 -0.0100  1.2124  0.1264
 8676SOL     OW37663   3.066   3.690   6.917 -0.0661  0.3067  0.6159
 8676SOL    HW137664   2.974   3.664   6.921  0.0090 -0.0414  0.1527
 8676SOL    HW237665   3.054   3.784   6.902  1.6371  0.2421 -1.1651
 8677SOL     OW37666   3.133   1.533   7.746 -0.2952 -0.1953 -0.2488
 8677SOL    HW137667   3.167   1.622   7.740 -0.7229  0.0156  0.4457
 8677SOL    HW237668   3.189   1.513   7.821 -1.4160 -2.5250 -0.0303
 8678SOL     OW37669   0.330   2.171   2.652  0.0097  0.3737  0.2209
 8678SOL    HW137670   0.399   2.191   2.589  0.6888 -1.0307  0.5220
 8678SOL    HW237671   0.341   2.231   2.726 -0.0765  0.1969  0.3779
 8679SOL     OW37672   0.801   2.053   5.905 -0.4286  0.2075 -0.2305
 8679SOL    HW137673   0.714   2.059   5.945 -1.2052 -2.4543 -1.5162
 8679SOL    HW237674   0.783   2.008   5.822  1.3133  1.5938 -1.3671
 8680SOL     OW37675   0.540   0.680   6.419 -0.0175  0.0304 -0.3999
 8680SOL    HW137676   0.467   0.698   6.479 -0.6451 -0.8045 -0.9134
 8680SOL    HW237677   0.507   0.598   6.381  0.2340 -0.3024  0.1055
 8681SOL     OW37678   2.935   2.558   5.672  0.6526 -0.0023 -0.0460
 8681SOL    HW137679   2.971   2.548   5.584 -0.0384 -1.5734 -0.1521
 8681SOL    HW237680   2.851   2.519   5.646 -0.3730  2.9677 -1.1906
 8682SOL     OW37681   4.339   0.043   6.417  0.2983 -0.1713 -0.2500
 8682SOL    HW137682   4.380   0.075   6.497 -0.0322 -0.2365 -0.0527
 8682SOL    HW237683   4.395   4.707   6.394 -0.5503 -0.4074 -1.5521
 8683SOL     OW37684   2.595   1.654  16.143 -0.3078  0.0051 -0.0847
 8683SOL    HW137685   2.542   1.653  16.223  0.9420  0.5875  0.7701
 8683SOL    HW237686   2.632   1.567  16.156 -0.9911 -0.3038 -0.2652
 8684SOL     OW37687   2.816   1.761   3.058  0.1597 -0.5109  0.1174
 8684SOL    HW137688   2.730   1.720   3.054 -1.2928  2.3409  2.0809
 8684SOL    HW237689   2.848   1.729   3.143 -0.7111 -3.3681 -0.6239
 8685SOL     OW37690   0.987   1.833   0.371 -0.2405 -0.0869 -0.1944
 8685SOL    HW137691   1.067   1.798   0.333  1.1269  2.3916  0.4149
 8685SOL    HW237692   0.919   1.773   0.341  0.2847 -1.2815  0.9885
 8686SOL     OW37693   2.636   4.214   2.503  0.0992  0.6471  0.1994
 8686SOL    HW137694   2.605   4.197   2.414 -2.2365 -0.2549  1.2197
 8686SOL    HW237695   2.621   4.129   2.543  2.0211  0.7442  1.1411
 8687SOL     OW37696   1.473   3.767  13.672  0.2348  0.3841 -0.7318
 8687SOL    HW137697   1.403   3.824  13.641 -0.2875 -0.4309 -1.0353
 8687SOL    HW237698   1.435   3.740  13.755  1.1950 -0.4060 -0.5606
 8688SOL     OW37699   0.257   2.236   6.746  0.2178  0.6058  0.5714
 8688SOL    HW137700   0.281   2.324   6.715 -1.1211  0.7107 -0.1487
 8688SOL    HW237701   0.204   2.211   6.670  2.8714 -0.0887 -1.0319
 8689SOL     OW37702   4.438   3.237   6.904 -0.1655  0.1291 -0.1154
 8689SOL    HW137703   4.517   3.189   6.878 -1.1330 -1.2464 -0.4719
 8689SOL    HW237704   4.457   3.271   6.992  1.8372 -0.8424 -0.1756
 8690SOL     OW37705   0.990   0.996   3.538  0.1763 -0.8325 -0.4111
 8690SOL    HW137706   1.042   0.927   3.578  0.5276 -0.1813  0.2629
 8690SOL    HW237707   0.923   1.002   3.606 -0.4385  0.8095 -1.1666
 8691SOL     OW37708   1.818   2.648   6.669 -0.2797  0.1181  0.0170
 8691SOL    HW137709   1.796   2.659   6.762 -1.3015 -1.5870 -0.0282
 8691SOL    HW237710   1.822   2.553   6.683  0.8380  0.2661  0.7364
 8692SOL     OW37711   2.151   3.023  16.705  0.5000 -0.4402 -0.6468
 8692SOL    HW137712   2.188   2.974  16.777 -0.2729 -2.0023 -1.3161
 8692SOL    HW237713   2.074   3.066  16.743 -0.1365 -2.3942  0.2567
 8693SOL     OW37714   4.179   4.464  11.793 -0.1213 -0.1493 -0.0952
 8693SOL    HW137715   4.111   4.398  11.785  0.0226 -0.6391  2.6237
 8693SOL    HW237716   4.249   4.416  11.749  0.7584  0.5152  0.5821
 8694SOL     OW37717   4.186   0.794   8.215 -0.4423 -0.8309 -0.4906
 8694SOL    HW137718   4.106   0.742   8.219 -1.5166  0.8718  0.5728
 8694SOL    HW237719   4.262   0.738   8.231  0.5633  0.5001 -0.5472
 8695SOL     OW37720   1.210   2.037   1.510  0.2195 -0.2258 -0.5144
 8695SOL    HW137721   1.261   2.091   1.450 -0.7537 -0.3514 -1.4542
 8695SOL    HW237722   1.126   2.075   1.487 -0.2962 -1.0383  0.0412
 8696SOL     OW37723   4.624   0.852   0.740 -0.3069  0.3794  0.1310
 8696SOL    HW137724   4.653   0.784   0.801 -2.7103  2.0918  3.1944
 8696SOL    HW237725   4.535   0.867   0.772  0.0867 -2.6293  2.5332
 8697SOL     OW37726   1.867   4.554   1.463 -0.5988  0.5770  0.1906
 8697SOL    HW137727   1.834   4.470   1.432 -0.8139  0.6443  0.2389
 8697SOL    HW237728   1.934   4.586   1.403 -0.5244  1.0934  0.5445
 8698SOL     OW37729   2.786   1.662   3.849  0.2431 -0.1584 -0.5174
 8698SOL    HW137730   2.875   1.693   3.865 -0.0143  0.1032  0.4151
 8698SOL    HW237731   2.741   1.742   3.878  1.6339  1.2165 -2.0879
 8699SOL     OW37732   3.797   1.949  13.528 -0.2521 -0.4849 -0.4919
 8699SOL    HW137733   3.780   1.989  13.614 -1.4088  0.0087 -0.9456
 8699SOL    HW237734   3.797   2.022  13.466  0.2449  0.1003  0.1972
 8700SOL     OW37735   3.234   3.485   2.268 -0.0371 -0.6954 -0.1508
 8700SOL    HW137736   3.157   3.450   2.313  0.9710  0.5552  2.5144
 8700SOL    HW237737   3.263   3.547   2.335  0.2137 -0.2064 -0.7173
 8701SOL     OW37738   4.348   4.406   8.866 -0.3500  0.3680  0.1595
 8701SOL    HW137739   4.289   4.366   8.930 -0.2704  0.6446  0.4075
 8701SOL    HW237740   4.313   4.352   8.796 -1.2873  1.8923 -0.5518
 8702SOL     OW37741   3.512   1.437   5.843  0.4256 -0.3508 -0.0953
 8702SOL    HW137742   3.419   1.447   5.821  0.6620 -1.4940 -1.6059
 8702SOL    HW237743   3.542   1.373   5.779 -0.2657 -0.7306 -0.0439
 8703SOL     OW37744   0.329   2.621  14.011  0.5666  0.2005 -0.5108
 8703SOL    HW137745   0.343   2.700  14.063  1.0396 -0.5921  0.5495
 8703SOL    HW237746   0.275   2.579  14.078 -0.0814  1.9638  0.0750
 8704SOL     OW37747   1.974   2.394   6.409 -0.0684  0.5459 -0.2518
 8704SOL    HW137748   2.028   2.336   6.463 -0.3522  0.0643 -0.4954
 8704SOL    HW237749   2.017   2.387   6.324  0.2740  2.1749 -0.2216
 8705SOL     OW37750   2.229   1.927  12.312 -0.1301  0.2739  0.1962
 8705SOL    HW137751   2.218   1.860  12.245 -2.3099  0.6583  0.1962
 8705SOL    HW237752   2.220   1.872  12.390 -2.7022  2.6292  1.5886
 8706SOL     OW37753   3.290   4.326   3.179  0.1164  0.3883 -0.1116
 8706SOL    HW137754   3.385   4.316   3.181  0.0086 -0.0877  2.2586
 8706SOL    HW237755   3.291   4.420   3.200  3.3419  0.4685 -0.6171
 8707SOL     OW37756   1.827   3.367   5.559 -0.1252 -0.0378 -0.9860
 8707SOL    HW137757   1.886   3.434   5.524 -0.0606  0.3574 -0.0967
 8707SOL    HW237758   1.825   3.296   5.494 -1.1310 -1.5019  0.6342
 8708SOL     OW37759   1.609   2.683   1.437  0.8885  0.3317 -0.0051
 8708SOL    HW137760   1.522   2.708   1.404 -0.1698 -0.8917  1.9076
 8708SOL    HW237761   1.630   2.764   1.483  0.6500  0.4017 -0.0159
 8709SOL     OW37762   4.239   4.232  11.604  0.1440  0.4028 -0.0182
 8709SOL    HW137763   4.194   4.148  11.604  0.0899  0.4316 -0.1634
 8709SOL    HW237764   4.301   4.209  11.672  1.7308 -1.8555 -2.2428
 8710SOL     OW37765   0.112   0.674   6.512 -0.3396 -0.0192 -0.3126
 8710SOL    HW137766   0.133   0.692   6.420  0.4613 -1.4236 -0.3964
 8710SOL    HW237767   0.168   0.601   6.536 -0.9221  0.2175  1.7133
 8711SOL     OW37768   4.630   0.374   8.558  0.4523  0.4909 -0.2279
 8711SOL    HW137769   4.547   0.352   8.517  1.1234  1.0278 -1.8852
 8711SOL    HW237770   4.677   0.301   8.518 -1.1553 -1.1548  0.8748
 8712SOL     OW37771   2.291   3.824   4.744  0.1904 -0.0939 -0.6813
 8712SOL    HW137772   2.328   3.888   4.805 -1.6202  0.8989 -0.6107
 8712SOL    HW237773   2.202   3.852   4.722  0.9885  1.5331 -1.8468
 8713SOL     OW37774   4.399   3.164   5.264  0.2161  0.3165 -0.2235
 8713SOL    HW137775   4.446   3.141   5.344 -2.5847  2.1656  1.9175
 8713SOL    HW237776   4.390   3.074   5.234 -2.3242  0.5192 -0.0403
 8714SOL     OW37777   3.993   0.454  15.028  0.1390  0.3614  0.1552
 8714SOL    HW137778   3.948   0.405  15.096 -1.9729  1.0788 -0.7355
 8714SOL    HW237779   4.047   0.380  14.999  0.6236  1.0844 -0.7997
 8715SOL     OW37780   2.883   4.159   3.927 -0.3119 -0.1708  0.8822
 8715SOL    HW137781   2.959   4.160   3.869 -0.9491  0.3451  0.0484
 8715SOL    HW237782   2.820   4.129   3.862 -1.0747  1.4068  0.8671
 8716SOL     OW37783   1.810   0.038  14.709 -0.0802  0.4172  0.0852
 8716SOL    HW137784   1.758   4.707  14.748 -0.5381  0.9313  0.3887
 8716SOL    HW237785   1.792   0.032  14.616  3.5010  1.4290 -0.7079
 8717SOL     OW37786   1.049   0.006  15.745 -0.3344 -0.3560  0.2140
 8717SOL    HW137787   1.138   4.709  15.756 -1.5144 -2.5621  2.5873
 8717SOL    HW237788   0.996   4.670  15.773 -0.5413  0.2669  1.4808
 8718SOL     OW37789   0.481   0.743   8.942 -0.9194  0.1463  0.0990
 8718SOL    HW137790   0.469   0.837   8.928  2.3533  0.1995 -2.1893
 8718SOL    HW237791   0.441   0.702   8.866  1.0880  1.1470 -1.4872
 8719SOL     OW37792   3.384   0.683   6.298  0.0865  0.3786 -0.0896
 8719SOL    HW137793   3.340   0.765   6.323  0.4191  0.0294  1.6033
 8719SOL    HW237794   3.324   0.617   6.332  1.0639  0.2624  1.4063
 8720SOL     OW37795   3.207   0.800   2.078  0.7922 -0.1188 -0.2579
 8720SOL    HW137796   3.298   0.779   2.100  0.1870  0.2538  2.5526
 8720SOL    HW237797   3.158   0.722   2.102  0.5341  0.5095  1.2374
 8721SOL     OW37798   0.980   1.312   1.971 -0.0594  0.0497 -0.0827
 8721SOL    HW137799   1.037   1.240   1.943 -0.4329 -0.9512  1.7625
 8721SOL    HW237800   0.891   1.290   1.946 -0.0718  0.6090 -0.5303
 8722SOL     OW37801   2.034   3.787   3.580 -0.2252  0.0956  0.4234
 8722SOL    HW137802   2.109   3.803   3.523 -1.0212 -0.6236 -0.8237
 8722SOL    HW237803   2.070   3.812   3.665 -0.9466  1.8883  0.2205
 8723SOL     OW37804   0.916   3.453   2.975  0.3171 -0.2760  0.0045
 8723SOL    HW137805   0.952   3.366   2.954 -0.0163 -0.5057  0.4009
 8723SOL    HW237806   0.844   3.451   2.911  1.4905  0.7196 -1.3543
 8724SOL     OW37807   0.749   0.675   3.550  0.2450  0.1382 -0.0461
 8724SOL    HW137808   0.721   0.584   3.536  0.5474  0.0078  0.2133
 8724SOL    HW237809   0.841   0.673   3.525  0.5063 -0.7357  0.9757
 8725SOL     OW37810   0.658   3.463  11.797 -0.0844  0.5509  0.3740
 8725SOL    HW137811   0.738   3.427  11.836  0.2037 -1.4637 -2.0918
 8725SOL    HW237812   0.626   3.407  11.726  0.6676  0.4128  0.1406
 8726SOL     OW37813   1.479   3.280   4.856  0.4545  0.0312 -0.0762
 8726SOL    HW137814   1.514   3.366   4.879 -0.0067  0.1162  0.2901
 8726SOL    HW237815   1.564   3.238   4.840 -0.8092 -3.2402  1.9076
 8727SOL     OW37816   4.290   2.511   2.818  0.1253 -0.1829 -0.1211
 8727SOL    HW137817   4.300   2.437   2.877  0.8706  0.4943  0.5853
 8727SOL    HW237818   4.347   2.574   2.862  0.1958  0.1950 -0.7502
 8728SOL     OW37819   0.534   1.745   9.160  0.1568  0.6014  0.3426
 8728SOL    HW137820   0.523   1.713   9.071 -1.4631  0.3642  0.6322
 8728SOL    HW237821   0.609   1.698   9.196 -2.0085 -1.1146  2.5853
 8729SOL     OW37822   3.394   1.599   1.862  0.1864  0.1814  0.1550
 8729SOL    HW137823   3.454   1.562   1.927  0.0107 -1.1927 -0.4715
 8729SOL    HW237824   3.448   1.671   1.830  0.0289 -0.1346 -0.8451
 8730SOL     OW37825   3.734   2.807  16.739 -0.5563  0.2391  0.0769
 8730SOL    HW137826   3.675   2.882  16.729 -2.2051 -1.0513  0.1635
 8730SOL    HW237827   3.788   2.818  16.662  0.4305  0.4813  0.8041
 8731SOL     OW37828   2.062   2.656   8.656  0.4639 -0.4260  0.4474
 8731SOL    HW137829   2.038   2.739   8.615 -1.1002 -2.1853 -2.1705
 8731SOL    HW237830   2.024   2.663   8.744 -0.5210 -1.4280  0.1003
 8732SOL     OW37831   3.892   4.251   4.484 -0.1181 -0.7545  0.1049
 8732SOL    HW137832   3.945   4.323   4.517  2.0008 -0.3951 -4.0927
 8732SOL    HW237833   3.846   4.305   4.419  0.7296  1.4527  1.3493
 8733SOL     OW37834   2.424   0.922   5.358 -0.0814  0.1509 -0.2938
 8733SOL    HW137835   2.440   0.876   5.440 -0.8810 -0.6702 -0.6068
 8733SOL    HW237836   2.515   0.928   5.332  0.1078  0.4797  0.4383
 8734SOL     OW37837   3.775   4.032   9.531  0.1120  0.6141  0.2503
 8734SOL    HW137838   3.837   3.980   9.583  1.0872  1.7670  0.2460
 8734SOL    HW237839   3.826   4.096   9.483  0.2497 -1.0103 -1.7439
 8735SOL     OW37840   0.413   4.589  16.296 -0.4463  0.2007  0.4749
 8735SOL    HW137841   0.416   4.656  16.364  2.8439 -0.6016  1.1299
 8735SOL    HW237842   0.367   4.635  16.226 -0.6308 -2.3103 -1.0437
 8736SOL     OW37843   1.494   4.129   6.822  0.6770  0.1711  0.2978
 8736SOL    HW137844   1.544   4.113   6.742  0.3710 -0.6196  0.2654
 8736SOL    HW237845   1.432   4.191   6.783  0.5927 -0.0744  0.0502
 8737SOL     OW37846   2.692   4.248   9.388  0.0700  0.5568  0.0267
 8737SOL    HW137847   2.619   4.260   9.327  0.5259  0.7823 -0.4756
 8737SOL    HW237848   2.645   4.228   9.469  0.9473 -3.3984 -0.4325
 8738SOL     OW37849   3.672   1.675   8.240 -0.1855 -0.4147 -0.0892
 8738SOL    HW137850   3.756   1.642   8.210 -0.3461  0.1862 -1.2015
 8738SOL    HW237851   3.631   1.703   8.158  1.3099  1.4183 -0.1965
 8739SOL     OW37852   1.221   0.631  11.890 -0.0745  0.5447  0.0461
 8739SOL    HW137853   1.185   0.698  11.832 -0.8796  0.1572  0.0806
 8739SOL    HW237854   1.302   0.673  11.917 -0.4847  0.9160  0.6764
 8740SOL     OW37855   4.625   3.705   4.493 -0.5995 -0.3940  0.2150
 8740SOL    HW137856   4.683   3.746   4.558  0.4518 -0.3374 -0.7445
 8740SOL    HW237857   4.621   3.620   4.537 -2.5683 -0.0820  0.6117
 8741SOL     OW37858   2.130   0.021   6.447  0.1496 -0.1533  0.0218
 8741SOL    HW137859   2.046   0.050   6.410  0.5630  0.0912 -0.7303
 8741SOL    HW237860   2.092   4.678   6.479 -1.0752  1.0103  1.4835
 8742SOL     OW37861   1.227   2.317   7.381  0.0334  0.3856  0.0708
 8742SOL    HW137862   1.151   2.353   7.427  0.4546 -0.3636  1.3510
 8742SOL    HW237863   1.180   2.270   7.312 -0.4218  3.1417 -1.5016
 8743SOL     OW37864   0.049   4.142  10.590  0.1008 -0.5039  0.4003
 8743SOL    HW137865   0.086   4.136  10.678 -3.9049 -0.0806  2.1394
 8743SOL    HW237866   0.110   4.084  10.546 -1.1839 -3.5431  2.6454
 8744SOL     OW37867   2.032   1.144   6.373  0.7911  0.2256 -0.0826
 8744SOL    HW137868   1.976   1.070   6.396  3.2661 -1.1056  1.5915
 8744SOL    HW237869   2.047   1.172   6.463 -2.9454  1.8290  0.0605
 8745SOL     OW37870   0.171   3.949  11.908  0.1844  0.3792  0.1198
 8745SOL    HW137871   0.245   3.910  11.862 -1.5062  1.0763 -3.1579
 8745SOL    HW237872   0.232   4.003  11.959  1.8941 -0.8530 -0.6197
 8746SOL     OW37873   2.625   0.794   3.695 -0.4438  0.1851  0.7444
 8746SOL    HW137874   2.679   0.867   3.724  1.1252 -1.4933  2.0305
 8746SOL    HW237875   2.585   0.839   3.620  0.7112 -0.7100 -0.4208
 8747SOL     OW37876   2.111   0.551   7.495 -0.1182 -0.5179  0.5055
 8747SOL    HW137877   2.031   0.589   7.533  0.2814  1.0296 -0.2282
 8747SOL    HW237878   2.079   0.461   7.504 -1.3240 -0.0118  1.2435
 8748SOL     OW37879   0.802   4.617   4.467 -0.2983 -0.3812  0.2839
 8748SOL    HW137880   0.852   4.699   4.467 -0.8156 -0.0482  2.6401
 8748SOL    HW237881   0.863   4.549   4.495 -1.5913 -1.1824  1.1368
 8749SOL     OW37882   3.315   1.823  15.810 -0.1815  0.1010  0.2998
 8749SOL    HW137883   3.244   1.804  15.871 -1.1023  0.4035 -0.6811
 8749SOL    HW237884   3.307   1.917  15.796 -0.8044 -0.2737 -1.8799
 8750SOL     OW37885   2.425   2.194   3.919 -0.0830 -0.3037 -0.2817
 8750SOL    HW137886   2.339   2.228   3.896  0.2470 -0.5467 -1.8571
 8750SOL    HW237887   2.480   2.212   3.842  0.5234  2.2444  0.7402
 8751SOL     OW37888   3.731   2.274   7.701 -0.5767  0.1293 -0.1252
 8751SOL    HW137889   3.761   2.195   7.657 -0.6489  0.6246 -1.0710
 8751SOL    HW237890   3.804   2.295   7.759 -0.6655 -0.1323  0.0775
 8752SOL     OW37891   1.345   0.639   3.077 -1.1154 -0.2496 -0.0166
 8752SOL    HW137892   1.346   0.697   3.001 -0.1760  0.4048  0.5024
 8752SOL    HW237893   1.272   0.580   3.057 -2.1744 -0.1254  3.4312
 8753SOL     OW37894   4.173   2.432   8.497  0.3610  0.2685  0.4950
 8753SOL    HW137895   4.142   2.343   8.517  0.7330  0.2136  0.8288
 8753SOL    HW237896   4.178   2.425   8.401 -0.8595  3.4166  0.2246
 8754SOL     OW37897   4.213   3.309   2.199  0.2917 -0.2752 -0.3549
 8754SOL    HW137898   4.198   3.403   2.214 -0.4791 -0.6065  0.9695
 8754SOL    HW237899   4.262   3.314   2.118 -0.7911  1.5553 -0.9198
 8755SOL     OW37900   1.697   2.034  10.077 -0.1699 -0.4133  0.9112
 8755SOL    HW137901   1.720   2.074   9.993 -0.5667 -1.1566  0.4444
 8755SOL    HW237902   1.605   2.008  10.071  0.7172 -3.3687  0.2350
 8756SOL     OW37903   2.241   4.499   9.037  0.3925 -0.0923  0.3714
 8756SOL    HW137904   2.291   4.417   9.035  1.2890  0.4665  0.0744
 8756SOL    HW237905   2.155   4.469   9.068 -0.5818 -0.5068 -2.7504
 8757SOL     OW37906   2.631   0.478   8.895 -0.0328  0.0426 -1.1334
 8757SOL    HW137907   2.686   0.526   8.957 -4.4958  1.7741  1.4873
 8757SOL    HW237908   2.687   0.407   8.862  0.2248 -0.5258  0.5362
 8758SOL     OW37909   0.378   2.499   1.373 -0.1857 -0.2961 -0.4641
 8758SOL    HW137910   0.459   2.492   1.324  0.7244  1.4958  0.8299
 8758SOL    HW237911   0.359   2.592   1.361 -0.8480 -0.2262  1.0405
 8759SOL     OW37912   2.426   3.292   9.033 -0.7743 -0.0954  0.8017
 8759SOL    HW137913   2.470   3.254   9.110  1.3760  1.5144  0.3567
 8759SOL    HW237914   2.378   3.212   9.011  0.0191  0.0217 -1.3562
 8760SOL     OW37915   4.633   2.723   4.376  0.6025 -0.0542 -0.2998
 8760SOL    HW137916   4.631   2.753   4.467  1.9401  1.1852 -0.6924
 8760SOL    HW237917   4.711   2.668   4.381  2.2194  2.1457 -1.4116
 8761SOL     OW37918   4.701   2.633  16.747  0.0029  0.0917  0.5437
 8761SOL    HW137919   4.652   2.715  16.741 -0.5205 -0.1869  1.0972
 8761SOL    HW237920   0.049   2.662  16.717  0.1403 -1.3924 -0.5031
 8762SOL     OW37921   4.471   0.782  15.625  0.0473 -0.3768 -0.5583
 8762SOL    HW137922   4.422   0.700  15.625  0.3144 -0.5161  1.2955
 8762SOL    HW237923   4.513   0.775  15.539 -1.6104  0.5003 -1.4455
 8763SOL     OW37924   3.976   3.931   3.530 -0.1538 -0.2206  0.6001
 8763SOL    HW137925   4.053   3.936   3.586 -0.9210  1.1586  1.5185
 8763SOL    HW237926   3.921   3.993   3.577 -1.0477 -1.5932  1.3931
 8764SOL     OW37927   4.478   1.610   9.987  0.3468  0.2607  0.7034
 8764SOL    HW137928   4.474   1.576  10.077  0.8323  1.2251  1.0872
 8764SOL    HW237929   4.401   1.667   9.994 -0.7200 -1.1510  0.6009
 8765SOL     OW37930   2.631   0.046   9.824 -0.6507 -0.5899 -0.2357
 8765SOL    HW137931   2.709   0.068   9.773  0.7736 -1.5942  1.4541
 8765SOL    HW237932   2.648   4.698   9.863  0.8276 -0.5290 -0.7488
 8766SOL     OW37933   4.049   1.561  12.326 -0.1368  0.6951  0.3255
 8766SOL    HW137934   4.107   1.555  12.251 -0.9475  0.0577 -0.2415
 8766SOL    HW237935   4.120   1.570  12.389 -1.3721 -0.6481  1.9297
 8767SOL     OW37936   1.329   0.140   3.189  0.2883  0.0216 -0.1360
 8767SOL    HW137937   1.372   0.079   3.129 -0.9311  0.3808 -1.3861
 8767SOL    HW237938   1.266   0.081   3.230  0.3194  0.7453  0.9386
 8768SOL     OW37939   3.156   4.609  16.277 -0.1166  0.0032  0.2483
 8768SOL    HW137940   3.196   4.596  16.363 -1.0894  1.1416  0.8705
 8768SOL    HW237941   3.184   4.697  16.253 -0.2788 -0.3106 -1.0803
 8769SOL     OW37942   2.606   1.196  16.337 -0.2359 -0.2434  0.3216
 8769SOL    HW137943   2.683   1.152  16.300  0.3813  0.1750  1.1044
 8769SOL    HW237944   2.540   1.128  16.323 -2.2381  1.7150  0.3065
 8770SOL     OW37945   1.739   2.198   7.252  0.1044 -0.1770 -0.0392
 8770SOL    HW137946   1.729   2.106   7.227  1.4966 -0.3331  0.0086
 8770SOL    HW237947   1.656   2.217   7.296  0.9456  1.3771  0.8382
 8771SOL     OW37948   1.055   4.498  10.019 -1.0498 -0.0933 -0.7125
 8771SOL    HW137949   1.027   4.560   9.952  0.9257  1.7296  0.1386
 8771SOL    HW237950   1.137   4.535  10.052 -2.4281  1.1323  1.3057
 8772SOL     OW37951   1.298   4.669   4.325  0.0021 -0.1025  0.3802
 8772SOL    HW137952   1.377   4.623   4.352  0.2418  0.0833  0.0090
 8772SOL    HW237953   1.329   4.693   4.237 -0.1472 -1.9494 -0.1841
 8773SOL     OW37954   2.407   2.841   5.860  0.0830  0.4428 -0.2953
 8773SOL    HW137955   2.411   2.791   5.778  2.1896  2.0394 -1.1719
 8773SOL    HW237956   2.334   2.796   5.902 -0.8325  1.7500 -0.4995
 8774SOL     OW37957   2.636   4.487  15.076  0.0521  0.1942 -0.3883
 8774SOL    HW137958   2.698   4.467  15.006  0.4503  0.3806 -0.0857
 8774SOL    HW237959   2.589   4.559  15.034  3.3312  1.5703 -1.6706
 8775SOL     OW37960   3.808   0.157  15.440 -0.2936 -0.0383 -0.5035
 8775SOL    HW137961   3.812   0.186  15.349 -0.0549  2.7244  0.3947
 8775SOL    HW237962   3.809   0.248  15.470  1.6489 -0.3171  0.2899
 8776SOL     OW37963   2.437   3.387  13.938  0.3120 -0.6875  0.3600
 8776SOL    HW137964   2.407   3.300  13.964 -2.1754 -0.3572 -1.4410
 8776SOL    HW237965   2.476   3.418  14.020 -0.4191 -0.1937  0.5183
 8777SOL     OW37966   0.624   3.932  11.966 -0.3919  0.3439  0.2845
 8777SOL    HW137967   0.587   3.844  11.979  0.9632 -0.4075 -0.8854
 8777SOL    HW237968   0.718   3.915  11.974 -0.2492 -0.5579 -3.2207
 8778SOL     OW37969   1.553   3.577   6.028  0.1345  0.6705  0.1605
 8778SOL    HW137970   1.633   3.530   6.001 -1.9335 -3.0784  0.5696
 8778SOL    HW237971   1.486   3.510   6.012  1.4825 -0.9836  1.4240
 8779SOL     OW37972   1.256   2.745  10.654 -0.4271  0.3332 -0.2118
 8779SOL    HW137973   1.287   2.739  10.744  0.8652 -2.8993 -0.8493
 8779SOL    HW237974   1.170   2.703  10.659  0.3075 -1.2208 -0.4272
 8780SOL     OW37975   3.723   2.392   1.512 -0.4971 -0.0463  0.2814
 8780SOL    HW137976   3.717   2.314   1.567 -1.2599 -0.9589 -1.1145
 8780SOL    HW237977   3.648   2.372   1.456 -0.9688  1.2782  0.4212
 8781SOL     OW37978   2.711   4.373   8.239 -0.0846 -0.1449 -0.0453
 8781SOL    HW137979   2.792   4.378   8.289 -0.3863  0.0647  0.4256
 8781SOL    HW237980   2.696   4.464   8.212  0.9496  0.0969  0.2117
 8782SOL     OW37981   4.295   2.948   9.369  0.2377 -0.7842 -0.3801
 8782SOL    HW137982   4.301   2.895   9.448  1.9251 -1.6979 -1.1199
 8782SOL    HW237983   4.216   2.998   9.390  1.3281  0.5105  0.5963
 8783SOL     OW37984   0.018   4.486   3.021  0.4742  0.3758  0.3297
 8783SOL    HW137985   0.021   4.473   2.927  1.9318 -1.1633  0.5823
 8783SOL    HW237986   4.725   4.576   3.024  1.3705  0.6964  0.0228
 8784SOL     OW37987   3.783   3.190   5.891 -0.2559 -0.0665 -0.4930
 8784SOL    HW137988   3.701   3.189   5.940  0.0871 -2.8558  0.0589
 8784SOL    HW237989   3.849   3.214   5.957 -0.1204 -0.2448 -0.5622
 8785SOL     OW37990   2.477   0.768   4.503  0.2307 -0.2466  0.5190
 8785SOL    HW137991   2.385   0.765   4.528 -0.5601 -1.0277 -2.5100
 8785SOL    HW237992   2.516   0.766   4.590  1.8029  0.9407 -0.1547
 8786SOL     OW37993   0.400   1.866   6.924 -0.1594 -0.0590 -0.3113
 8786SOL    HW137994   0.458   1.933   6.960  1.0123 -1.3053  0.1308
 8786SOL    HW237995   0.465   1.807   6.884 -1.0930 -2.7518  2.1688
 8787SOL     OW37996   4.201   0.089   9.697  0.1607  0.4477  0.4202
 8787SOL    HW137997   4.265   0.074   9.765  1.6161  0.5902 -0.9243
 8787SOL    HW237998   4.197   0.185   9.695  0.3992  0.4447 -0.4025
 8788SOL     OW37999   1.887   2.003   8.678  0.2902 -0.3522  0.7277
 8788SOL    HW138000   1.856   1.924   8.722 -2.2195  2.8281  4.7022
 8788SOL    HW238001   1.916   1.978   8.590  4.1173  0.9159  1.6153
 8789SOL     OW38002   4.281   0.134   4.866  0.5110  0.2282 -0.2050
 8789SOL    HW138003   4.359   0.186   4.846  1.1440  0.2262  2.1555
 8789SOL    HW238004   4.218   0.205   4.852  0.9589  1.1200  2.1753
 8790SOL     OW38005   4.243   3.820   7.005  0.3579 -0.0882 -0.4034
 8790SOL    HW138006   4.322   3.777   7.039 -0.9714 -0.3747  2.2876
 8790SOL    HW238007   4.189   3.742   7.015 -2.3134  2.1856  2.7780
 8791SOL     OW38008   1.748   2.146   6.546  0.5131  0.3568 -0.4073
 8791SOL    HW138009   1.740   2.078   6.479 -1.5083  1.9005 -1.7520
 8791SOL    HW238010   1.782   2.103   6.624  0.3438  1.7100  0.4162
 8792SOL     OW38011   0.755   3.315   4.230 -0.4675 -0.2088 -0.7909
 8792SOL    HW138012   0.833   3.272   4.264 -2.0929 -1.4382  1.3102
 8792SOL    HW238013   0.807   3.379   4.180 -0.9950  1.2560  0.5471
 8793SOL     OW38014   1.117   2.763  13.403  0.2941 -0.3178  0.2745
 8793SOL    HW138015   1.109   2.857  13.418  1.2052 -0.1694 -0.1827
 8793SOL    HW238016   1.035   2.749  13.356  1.0224  1.4526 -1.4630
 8794SOL     OW38017   3.134   2.044   1.781  0.5335 -0.0407  0.4849
 8794SOL    HW138018   3.061   2.105   1.791 -0.1425 -0.6365 -0.8069
 8794SOL    HW238019   3.183   2.076   1.706  0.5623 -3.0309 -0.7641
 8795SOL     OW38020   1.302   2.087   3.087 -0.5040  0.6107  0.0479
 8795SOL    HW138021   1.375   2.147   3.072 -0.9551  0.6501 -1.9973
 8795SOL    HW238022   1.353   2.009   3.105 -0.2134  0.4791 -1.3620
 8796SOL     OW38023   0.129   3.232   5.555 -0.0880 -0.4903  0.4684
 8796SOL    HW138024   0.082   3.202   5.478  2.5601 -1.8883 -0.6090
 8796SOL    HW238025   0.104   3.324   5.558  0.8848 -0.1751 -1.4317
 8797SOL     OW38026   1.970   3.202  11.828  0.6754 -0.2962  0.0495
 8797SOL    HW138027   1.887   3.157  11.816  1.4480 -1.1126 -2.1864
 8797SOL    HW238028   1.938   3.288  11.857 -0.4384 -0.2565 -1.3028
 8798SOL     OW38029   0.457   3.046   7.935  0.1581  0.3067 -0.2355
 8798SOL    HW138030   0.527   3.076   7.994 -0.2336 -1.2271  1.0268
 8798SOL    HW238031   0.450   3.116   7.871 -0.1136 -0.2011 -0.7610
 8799SOL     OW38032   3.762   3.512   2.858 -0.5764 -0.1187  0.0679
 8799SOL    HW138033   3.834   3.495   2.918 -1.0856 -2.9688 -0.0934
 8799SOL    HW238034   3.695   3.488   2.923 -1.7744 -0.3760 -1.2491
 8800SOL     OW38035   1.239   1.630  12.631  0.1266 -0.0049  0.1080
 8800SOL    HW138036   1.317   1.577  12.619  2.3182  3.1078  0.5503
 8800SOL    HW238037   1.187   1.571  12.686  0.2183 -0.9275 -0.7965
 8801SOL     OW38038   2.155   1.119   5.578  0.0378  0.2324 -0.2144
 8801SOL    HW138039   2.067   1.141   5.549  0.6336  0.7645 -1.6255
 8801SOL    HW238040   2.156   1.027   5.603 -0.8260  0.3380  0.1948
 8802SOL     OW38041   4.386   0.041   7.454  0.0568  0.1417  0.0815
 8802SOL    HW138042   4.480   0.023   7.446 -0.1960 -0.9948 -0.3364
 8802SOL    HW238043   4.375   0.086   7.538  0.2771 -3.4733  2.0220
 8803SOL     OW38044   4.259   4.105  12.152 -0.4061 -1.0220 -0.1215
 8803SOL    HW138045   4.196   4.078  12.085 -0.7930  2.5391 -1.2213
 8803SOL    HW238046   4.332   4.087  12.093  1.4736  0.3173  1.8098
 8804SOL     OW38047   3.205   2.443   5.037 -0.2912  0.2416 -0.3583
 8804SOL    HW138048   3.277   2.446   4.974 -0.8711 -0.9233 -1.0633
 8804SOL    HW238049   3.195   2.535   5.061  3.7601  0.7856 -0.6497
 8805SOL     OW38050   4.177   0.246  13.106  0.2110  0.2721  0.1921
 8805SOL    HW138051   4.266   0.271  13.132 -0.0731  1.2936  0.1634
 8805SOL    HW238052   4.185   0.248  13.011  1.7826  1.2183  0.3355
 8806SOL     OW38053   2.804   3.632   6.467  0.2877 -0.1110 -0.8062
 8806SOL    HW138054   2.714   3.615   6.439 -1.2299  2.9381  2.3010
 8806SOL    HW238055   2.805   3.713   6.518 -0.8375  0.6181 -1.9708
 8807SOL     OW38056   2.850   3.360  17.200 -0.0183  0.2332  0.6535
 8807SOL    HW138057   2.792   3.436  17.202  0.9990  1.0180  0.3369
 8807SOL    HW238058   2.849   3.334  17.292 -0.2361  1.5889  1.0421
 8808SOL     OW38059   4.211   1.309   8.641  0.2113 -0.6964  0.3251
 8808SOL    HW138060   4.232   1.225   8.683 -3.4496 -2.7360 -1.8960
 8808SOL    HW238061   4.122   1.313   8.676 -0.2488 -0.4090 -0.8851
 8809SOL     OW38062   3.982   2.813  11.509 -0.5108 -0.2678 -0.1841
 8809SOL    HW138063   3.898   2.809  11.555  0.2457  0.3195  1.2616
 8809SOL    HW238064   3.950   2.786  11.423  0.6530  1.9306 -1.3079
 8810SOL     OW38065   3.809   4.056   4.289  0.0838 -0.3176 -0.0562
 8810SOL    HW138066   3.759   4.123   4.243  0.0470  0.3704  0.9750
 8810SOL    HW238067   3.854   4.113   4.352  2.3090 -1.1468 -0.8769
 8811SOL     OW38068   3.112   2.317   2.571  0.3532 -0.9708 -0.2023
 8811SOL    HW138069   3.036   2.288   2.519 -1.5562  0.7163  1.6081
 8811SOL    HW238070   3.069   2.328   2.656  1.9199 -2.3292  0.7478
 8812SOL     OW38071   4.109   4.367   8.414 -0.7089 -0.4878  0.3098
 8812SOL    HW138072   4.092   4.277   8.442  0.3500 -0.5380  0.8218
 8812SOL    HW238073   4.133   4.342   8.324  1.3850  0.2890  0.6429
 8813SOL     OW38074   2.591   4.600  15.581 -0.3620 -0.1926 -0.1784
 8813SOL    HW138075   2.632   4.685  15.563  1.1188 -0.9586 -0.4310
 8813SOL    HW238076   2.670   4.547  15.592 -1.7846 -2.1676  0.3127
 8814SOL     OW38077   2.828   4.515  13.744 -0.1545  0.0458 -0.1606
 8814SOL    HW138078   2.899   4.545  13.801 -0.0740  1.3065 -0.9312
 8814SOL    HW238079   2.831   4.421  13.761 -1.4972 -0.1529 -0.9959
 8815SOL     OW38080   2.138   2.837   0.444 -0.0645  0.2862 -1.3499
 8815SOL    HW138081   2.053   2.880   0.430 -0.5144  0.1574  1.0375
 8815SOL    HW238082   2.116   2.744   0.454  1.7429  0.0997  0.6985
 8816SOL     OW38083   3.038   2.811  16.507 -0.8938  0.3292 -0.1263
 8816SOL    HW138084   3.078   2.841  16.425 -1.3688 -1.2409 -0.9294
 8816SOL    HW238085   2.958   2.863  16.504  1.4683  4.0047  0.1660
 8817SOL     OW38086   0.584   1.099   8.187  0.0459 -0.8243  0.2670
 8817SOL    HW138087   0.508   1.041   8.189 -0.6656  0.1333  1.1559
 8817SOL    HW238088   0.590   1.129   8.278 -0.3781 -1.9726  0.6650
 8818SOL     OW38089   2.080   1.393   3.830 -0.0898  0.5955 -0.3351
 8818SOL    HW138090   2.140   1.399   3.905 -1.2673 -0.2275  0.6804
 8818SOL    HW238091   2.061   1.485   3.815  0.7195  1.0410  1.3381
 8819SOL     OW38092   3.334   2.544  11.847 -0.6846 -0.1421  0.1443
 8819SOL    HW138093   3.342   2.560  11.753 -1.9839  2.2773  0.4372
 8819SOL    HW238094   3.415   2.496  11.865  0.1501  1.7948  1.6283
 8820SOL     OW38095   2.023   2.566   7.184 -0.1767  0.5047  0.0320
 8820SOL    HW138096   1.927   2.563   7.184 -0.1380 -0.6344  1.0890
 8820SOL    HW238097   2.031   2.566   7.089  0.7482 -1.4184  0.1255
 8821SOL     OW38098   0.214   2.932   5.337 -0.2338 -0.0015 -0.6955
 8821SOL    HW138099   0.205   2.853   5.391  0.5441 -1.4650 -2.7015
 8821SOL    HW238100   0.307   2.929   5.312  0.9341 -2.2855  3.7665
 8822SOL     OW38101   4.286   3.187   9.604  0.1332  0.0008  0.0033
 8822SOL    HW138102   4.362   3.205   9.549  1.5806 -1.5657  1.5156
 8822SOL    HW238103   4.210   3.196   9.546  0.1663  0.7306  0.0772
 8823SOL     OW38104   3.038   4.142   6.673  0.0670  0.1181  0.2040
 8823SOL    HW138105   3.124   4.164   6.638 -0.0884  1.9302  1.0054
 8823SOL    HW238106   2.980   4.209   6.639 -4.1125 -3.5377  0.0663
 8824SOL     OW38107   2.528   3.796   3.119  0.3599 -0.2014  0.3289
 8824SOL    HW138108   2.486   3.870   3.076 -0.6349  0.0126  1.6593
 8824SOL    HW238109   2.491   3.728   3.063 -2.1726  0.7345  0.8888
 8825SOL     OW38110   2.062   2.949  15.806 -0.2295 -0.4685 -0.4214
 8825SOL    HW138111   2.038   3.042  15.807  2.5694  0.2494  1.8184
 8825SOL    HW238112   2.037   2.909  15.889 -0.1698  1.8561  0.7229
 8826SOL     OW38113   1.815   1.665   8.440 -0.1217  0.1972  0.4666
 8826SOL    HW138114   1.770   1.583   8.459  1.0337 -0.4856  0.2511
 8826SOL    HW238115   1.853   1.684   8.525 -0.9034  1.2205  0.5899
 8827SOL     OW38116   1.703   0.517   8.640  0.0136 -0.9298 -0.1504
 8827SOL    HW138117   1.778   0.463   8.664  0.0114 -0.1681  1.6001
 8827SOL    HW238118   1.636   0.458   8.606 -2.3361  1.1643  0.7917
 8828SOL     OW38119   0.458   4.476   5.334  0.2204 -0.3022  0.5031
 8828SOL    HW138120   0.392   4.413   5.306 -0.5017  0.8188 -0.3095
 8828SOL    HW238121   0.475   4.442   5.422  1.2570 -0.9859  0.0327
 8829SOL     OW38122   0.327   3.586   2.237  0.6390 -0.1849  0.2416
 8829SOL    HW138123   0.262   3.614   2.302 -1.1888 -3.1198 -0.2895
 8829SOL    HW238124   0.353   3.672   2.204 -0.9255  0.5794  1.0021
 8830SOL     OW38125   0.590   4.278   4.178  0.6155 -0.8266  0.2365
 8830SOL    HW138126   0.572   4.351   4.237 -0.7341 -0.3033 -0.8242
 8830SOL    HW238127   0.650   4.223   4.229  4.0532  0.3916 -2.5568
 8831SOL     OW38128   3.723   4.626   5.645 -0.5422 -0.1070  0.5339
 8831SOL    HW138129   3.644   4.604   5.595 -1.1455 -1.8473  2.2303
 8831SOL    HW238130   3.716   4.721   5.641 -2.4132 -0.2874 -0.7503
 8832SOL     OW38131   0.722   1.472   2.120  0.4744 -0.7060 -0.0774
 8832SOL    HW138132   0.689   1.555   2.156 -0.8744 -0.7594 -1.1853
 8832SOL    HW238133   0.679   1.476   2.034 -2.2564 -2.3291  1.2292
 8833SOL     OW38134   3.206   1.763   6.496  0.2261  0.4029 -0.5405
 8833SOL    HW138135   3.155   1.733   6.571 -0.7224 -1.3762 -1.8968
 8833SOL    HW238136   3.185   1.856   6.507  1.6236  0.4390  1.7188
 8834SOL     OW38137   3.016   0.320   6.912 -0.3128  0.5155  0.7077
 8834SOL    HW138138   3.078   0.388   6.938  1.5515 -0.3368 -1.5154
 8834SOL    HW238139   2.938   0.330   6.967 -0.9578  1.6392 -0.4217
 8835SOL     OW38140   3.583   3.924  15.234  0.3433 -0.3453  0.2536
 8835SOL    HW138141   3.533   3.897  15.157 -0.0994 -1.7787  1.0435
 8835SOL    HW238142   3.662   3.967  15.201 -0.0114  0.1541  0.0590
 8836SOL     OW38143   3.539   3.730  11.589 -0.3911  0.3662 -0.1140
 8836SOL    HW138144   3.606   3.663  11.587 -0.8456 -0.0085 -1.9302
 8836SOL    HW238145   3.557   3.761  11.501  0.7223 -0.1699 -0.0637
 8837SOL     OW38146   0.032   1.067   5.473 -0.0542  0.4094  0.3699
 8837SOL    HW138147   4.733   1.077   5.560  1.5024 -1.8066  1.2972
 8837SOL    HW238148   4.696   1.073   5.413  1.1426 -0.9345 -1.2404
 8838SOL     OW38149   3.169   2.495   7.548 -0.3468  0.2965  0.2869
 8838SOL    HW138150   3.157   2.400   7.547 -0.1793  0.2702  0.7278
 8838SOL    HW238151   3.126   2.523   7.467 -0.0478  2.8393  1.0034
 8839SOL     OW38152   2.312   0.963  12.677  0.1298  0.3677 -0.4088
 8839SOL    HW138153   2.322   0.918  12.761 -0.1129  0.5495 -0.2793
 8839SOL    HW238154   2.217   0.961  12.667  0.1433 -2.3693 -0.0792
 8840SOL     OW38155   2.109   0.308   6.948 -0.7121  0.9349 -0.0737
 8840SOL    HW138156   2.108   0.250   6.872 -2.1312 -0.5051  1.0168
 8840SOL    HW238157   2.099   0.390   6.902  0.1601  0.7298 -0.6285
 8841SOL     OW38158   1.226   2.765  11.630  0.1201 -0.0339  0.2968
 8841SOL    HW138159   1.219   2.683  11.680 -0.3401  0.2433  0.6876
 8841SOL    HW238160   1.162   2.822  11.672 -0.5746 -0.4440 -0.1947
 8842SOL     OW38161   0.507   0.634   9.466 -0.3538  0.3224 -0.1305
 8842SOL    HW138162   0.599   0.655   9.449  0.2071 -1.2659  0.8717
 8842SOL    HW238163   0.479   0.635   9.375 -1.5892  1.2025  0.2580
 8843SOL     OW38164   0.235   1.548  12.873  0.1928 -0.9505 -0.4090
 8843SOL    HW138165   0.149   1.575  12.840  0.3781  2.5161  1.9896
 8843SOL    HW238166   0.254   1.473  12.816  1.8496  0.1439 -1.2907
 8844SOL     OW38167   0.449   3.403   8.246  0.5178 -0.6814  0.0032
 8844SOL    HW138168   0.529   3.416   8.196  0.6328 -0.7669  0.1647
 8844SOL    HW238169   0.474   3.441   8.330 -0.4123 -0.0432 -0.0016
 8845SOL     OW38170   4.581   2.785   3.651 -0.5098 -0.0030  0.7936
 8845SOL    HW138171   4.565   2.746   3.737 -2.5552 -1.8240 -0.4319
 8845SOL    HW238172   4.621   2.716   3.598 -0.4261 -0.5741  1.5934
 8846SOL     OW38173   4.602   0.495   6.760 -0.0825  0.5101 -0.0560
 8846SOL    HW138174   4.537   0.558   6.790 -0.6652 -0.6575  1.1276
 8846SOL    HW238175   4.541   0.446   6.706  1.1520 -0.1991 -0.8154
 8847SOL     OW38176   0.026   2.504   0.589 -0.0954 -0.1940 -0.1246
 8847SOL    HW138177   0.012   2.492   0.683  0.9610  1.2450  0.2182
 8847SOL    HW238178   0.010   2.598   0.592 -0.2126 -0.1694 -1.5810
 8848SOL     OW38179   3.114   0.453   4.815 -0.2772 -0.0845  0.3014
 8848SOL    HW138180   3.206   0.435   4.835 -0.0694 -1.1834 -1.6691
 8848SOL    HW238181   3.116   0.537   4.769 -2.8321 -0.1200  0.1333
 8849SOL     OW38182   3.488   2.602   5.701  0.2798 -0.4054  0.3191
 8849SOL    HW138183   3.451   2.515   5.690 -0.9320  0.5500 -2.9655
 8849SOL    HW238184   3.481   2.629   5.610  0.9799 -1.1834  0.0276
 8850SOL     OW38185   3.892   0.273   6.702  0.5052  0.3434 -0.3320
 8850SOL    HW138186   3.809   0.227   6.687  0.7408 -0.1954  0.0371
 8850SOL    HW238187   3.898   0.273   6.798  0.6556 -2.0794 -0.3630
 8851SOL     OW38188   4.726   4.044   9.905  0.2705 -0.3556  0.1384
 8851SOL    HW138189   4.671   3.967   9.891  1.1080 -0.7862 -0.7804
 8851SOL    HW238190   4.682   4.105   9.845 -1.3411 -0.3298  1.3346
 8852SOL     OW38191   0.591   0.690  12.666 -0.1727 -0.1335 -0.1437
 8852SOL    HW138192   0.581   0.750  12.740 -0.0884 -1.0330  0.5848
 8852SOL    HW238193   0.656   0.627  12.695 -1.8328 -1.1760  1.2727
 8853SOL     OW38194   2.405   4.232   6.511  0.1056 -0.4818 -0.0557
 8853SOL    HW138195   2.369   4.298   6.571  1.2863  0.4851 -0.3997
 8853SOL    HW238196   2.354   4.270   6.439  0.6433  2.0848  0.8870
 8854SOL     OW38197   4.335   2.776   4.864 -0.0621 -0.3305  0.2449
 8854SOL    HW138198   4.290   2.707   4.913  0.5049 -0.4473  0.5972
 8854SOL    HW238199   4.359   2.729   4.785 -0.0642  1.3400 -0.7505
 8855SOL     OW38200   0.412   4.534   4.638 -0.1221  0.5015 -0.6930
 8855SOL    HW138201   0.330   4.541   4.688 -0.0051  0.6407 -0.5220
 8855SOL    HW238202   0.414   4.622   4.598 -0.2176  1.0084  0.4101
 8856SOL     OW38203   0.794   4.077   6.885 -0.4639  0.0099  0.2781
 8856SOL    HW138204   0.810   3.989   6.850  1.1230  1.1167 -1.8304
 8856SOL    HW238205   0.750   4.117   6.811 -1.3479  0.4849  1.0752
 8857SOL     OW38206   2.399   1.114   6.303  0.0133  0.5020 -0.3776
 8857SOL    HW138207   2.326   1.114   6.242 -1.8168  1.5783  1.8245
 8857SOL    HW238208   2.451   1.039   6.275  0.6391  0.9720 -0.5070
 8858SOL     OW38209   2.717   4.375   3.734  0.2135  0.2737 -0.6309
 8858SOL    HW138210   2.746   4.284   3.728 -0.3193 -0.1553  3.2429
 8858SOL    HW238211   2.626   4.363   3.760  0.6698 -0.5927  0.6004
 8859SOL     OW38212   4.647   0.267  11.442  0.0558 -0.2573  0.8307
 8859SOL    HW138213   4.554   0.249  11.458  0.0039 -0.4143  0.3434
 8859SOL    HW238214   4.640   0.357  11.474 -0.1419 -0.6106  1.7986
 8860SOL     OW38215   2.265   2.361  14.152  0.3727 -0.1454  0.1401
 8860SOL    HW138216   2.243   2.303  14.079  0.9079 -0.6423  0.3715
 8860SOL    HW238217   2.196   2.427  14.142 -0.8698 -1.4674  0.0104
 8861SOL     OW38218   1.651   3.887   4.182 -0.4712 -0.1596  0.2709
 8861SOL    HW138219   1.603   3.865   4.103 -1.5385  1.3585  0.4925
 8861SOL    HW238220   1.727   3.837   4.151 -1.8984 -1.8182 -0.4968
 8862SOL     OW38221   0.054   2.343  16.822  0.0143 -0.0080  0.3264
 8862SOL    HW138222   0.147   2.334  16.803  0.0528 -0.6844  0.8167
 8862SOL    HW238223   0.041   2.411  16.757 -0.9244 -1.3970 -0.9504
 8863SOL     OW38224   0.590   2.938   7.305 -0.1331 -0.3797  0.3127
 8863SOL    HW138225   0.561   3.029   7.304  2.0134  0.2642 -1.5204
 8863SOL    HW238226   0.515   2.897   7.262  0.0832  0.3250 -0.7122
 8864SOL     OW38227   2.272   3.185  11.806  0.0585 -0.2448 -0.5701
 8864SOL    HW138228   2.179   3.161  11.812 -0.5533  2.1040 -0.9765
 8864SOL    HW238229   2.262   3.266  11.756 -1.1791  0.4012  0.7185
 8865SOL     OW38230   2.190   1.039   6.624 -0.0681  0.2002  0.5774
 8865SOL    HW138231   2.264   0.987   6.654 -0.7908 -1.3886 -0.3843
 8865SOL    HW238232   2.159   0.975   6.560 -0.4369 -1.3393  2.3062
 8866SOL     OW38233   1.854   1.015   8.119  0.4736  0.1379  0.0487
 8866SOL    HW138234   1.763   1.019   8.149 -0.1586 -1.0998 -1.7653
 8866SOL    HW238235   1.883   1.102   8.147 -1.2948  0.5237  0.6902
 8867SOL     OW38236   1.946   4.690   4.914 -0.2721  0.4088  0.2507
 8867SOL    HW138237   1.926   0.041   4.940  0.4335  0.4205  0.7437
 8867SOL    HW238238   1.864   4.663   4.872  0.5859 -0.7501 -0.7008
 8868SOL     OW38239   1.206   1.599   7.189 -0.0892 -0.2221  0.1258
 8868SOL    HW138240   1.280   1.538   7.190  0.1468  0.1164  1.8346
 8868SOL    HW238241   1.224   1.655   7.264 -0.2137 -2.4451  1.8173
 8869SOL     OW38242   1.329   1.640   9.559 -0.1490  0.2460 -0.1108
 8869SOL    HW138243   1.334   1.681   9.645 -0.9142  0.4208 -0.1418
 8869SOL    HW238244   1.245   1.677   9.531  0.7199  1.0866 -1.5883
 8870SOL     OW38245   0.816   0.094  13.428  0.4127 -0.1045  0.2169
 8870SOL    HW138246   0.755   0.023  13.406  0.4170  0.3048 -1.0851
 8870SOL    HW238247   0.897   0.053  13.398  0.3298 -1.0952  1.3231
 8871SOL     OW38248   3.340   3.902   7.523  0.1536  0.5733 -0.0788
 8871SOL    HW138249   3.311   3.905   7.432 -0.5233  0.3260  0.1306
 8871SOL    HW238250   3.265   3.861   7.565 -0.7423  0.5407 -1.7009
 8872SOL     OW38251   1.235   1.594   2.878  0.0997 -0.0574 -0.5810
 8872SOL    HW138252   1.317   1.554   2.909 -0.1841  0.1360  0.4473
 8872SOL    HW238253   1.224   1.568   2.787  0.0119 -1.3114 -0.2091
 8873SOL     OW38254   3.063   3.976   0.077  0.2658 -0.1220 -0.0811
 8873SOL    HW138255   3.015   3.942   0.002  0.6000 -1.7819  0.4563
 8873SOL    HW238256   3.070   3.897   0.131  0.7325 -0.5727 -0.8004
 8874SOL     OW38257   0.567   0.129  11.403  0.5610 -0.7266  0.0041
 8874SOL    HW138258   0.473   0.131  11.420  0.4582 -0.9524 -0.5427
 8874SOL    HW238259   0.588   0.218  11.432  1.7960 -0.5551 -1.4409
 8875SOL     OW38260   2.835   2.662   7.730 -0.4832 -0.3543 -0.7766
 8875SOL    HW138261   2.787   2.586   7.698 -0.5328 -1.2465  1.4692
 8875SOL    HW238262   2.775   2.707   7.789 -0.4178  0.4368 -1.3037
 8876SOL     OW38263   1.988   1.273   3.582  0.2881 -0.1713  0.5827
 8876SOL    HW138264   2.023   1.330   3.650  0.7625 -0.8243  0.8883
 8876SOL    HW238265   1.967   1.201   3.641  1.8737 -0.1286  1.1970
 8877SOL     OW38266   2.917   1.150  12.085 -0.2332 -0.8180 -0.3514
 8877SOL    HW138267   2.881   1.062  12.092  0.2359 -0.7107  3.2441
 8877SOL    HW238268   2.885   1.176  11.998  0.7771  1.3048 -0.0942
 8878SOL     OW38269   3.765   2.268   4.835 -0.2369 -0.5906 -0.7535
 8878SOL    HW138270   3.676   2.301   4.828  0.2131  0.4969 -1.3272
 8878SOL    HW238271   3.748   2.182   4.796 -0.5803 -0.8851  0.0411
 8879SOL     OW38272   0.661   4.217  16.414  0.7103 -0.0295  0.0198
 8879SOL    HW138273   0.616   4.137  16.442  0.0872  0.5951  0.8286
 8879SOL    HW238274   0.745   4.220  16.459  0.4788 -1.0100  0.5070
 8880SOL     OW38275   1.505   1.226  12.034 -0.2424 -0.6311  0.1070
 8880SOL    HW138276   1.418   1.250  12.066  0.3855  1.9375 -0.1100
 8880SOL    HW238277   1.491   1.234  11.940  2.3619 -0.7763 -0.2883
 8881SOL     OW38278   0.668   1.022   1.938 -0.4992  0.5288 -0.0337
 8881SOL    HW138279   0.674   1.104   1.888 -3.3307  1.5782  1.3919
 8881SOL    HW238280   0.722   0.967   1.880  3.1474  1.5988  2.3077
 8882SOL     OW38281   0.116   4.641   4.516  0.2858  0.0484  0.3582
 8882SOL    HW138282   0.112   4.556   4.473  0.1606  0.5714 -0.6621
 8882SOL    HW238283   0.065   4.627   4.595 -1.3946  0.1852 -0.7030
 8883SOL     OW38284   2.968   2.472  10.231  0.1792 -0.1418  0.6783
 8883SOL    HW138285   2.977   2.426  10.315  0.0874  0.1025  0.8219
 8883SOL    HW238286   2.989   2.402  10.170 -1.6410  0.3710 -0.5513
 8884SOL     OW38287   4.483   1.596   4.851  0.7368 -0.5191 -0.4883
 8884SOL    HW138288   4.544   1.545   4.799 -2.1007 -3.3693 -1.0077
 8884SOL    HW238289   4.415   1.613   4.785  1.2851  0.4238 -0.8170
 8885SOL     OW38290   0.246   2.815   4.457 -0.5665  0.1507 -0.3646
 8885SOL    HW138291   0.159   2.775   4.469 -1.1925  2.1053  1.5995
 8885SOL    HW238292   0.241   2.874   4.532  0.8971 -1.0051  0.6407
 8886SOL     OW38293   2.721   2.289   2.179  0.2486 -0.2032  0.7769
 8886SOL    HW138294   2.657   2.309   2.111  2.3353  0.2587 -1.0425
 8886SOL    HW238295   2.763   2.375   2.185 -1.2477  0.7323 -1.9717
 8887SOL     OW38296   3.997   4.459   8.899  0.0798 -0.5005 -0.3280
 8887SOL    HW138297   3.925   4.481   8.958 -1.5046  0.5594 -2.6620
 8887SOL    HW238298   4.029   4.377   8.937 -1.1236 -2.3954 -3.4391
 8888SOL     OW38299   4.550   2.916   8.762  0.1382  0.1781  0.6757
 8888SOL    HW138300   4.575   2.845   8.820 -1.9444 -1.1806 -0.0702
 8888SOL    HW238301   4.635   2.942   8.726  0.2330  0.5907  1.1911
 8889SOL     OW38302   3.042   2.769   2.165 -0.0166  0.3557 -0.1670
 8889SOL    HW138303   2.993   2.846   2.195  1.7125  1.4014 -0.0555
 8889SOL    HW238304   3.033   2.781   2.071 -1.2439  0.4861 -0.0413
 8890SOL     OW38305   3.497   3.487   7.569 -0.0875  0.4809  0.0525
 8890SOL    HW138306   3.488   3.477   7.664  0.8323  0.4651  0.1346
 8890SOL    HW238307   3.453   3.406   7.543 -0.0136  1.1606 -2.1823
 8891SOL     OW38308   4.669   0.866   9.241  0.3280 -0.7153 -0.0809
 8891SOL    HW138309   4.637   0.926   9.308  0.6290 -0.2174 -0.3866
 8891SOL    HW238310   4.611   0.792   9.258  0.1942 -1.3597 -3.4941
 8892SOL     OW38311   3.546   3.186   6.030 -0.3038  0.1321 -0.3236
 8892SOL    HW138312   3.453   3.195   6.014 -0.6056  1.1928  2.0256
 8892SOL    HW238313   3.547   3.110   6.089 -3.5378  0.3535  0.0199
 8893SOL     OW38314   3.276   3.363  11.428  0.2719 -0.5290 -0.1256
 8893SOL    HW138315   3.205   3.309  11.463  0.1138 -0.1936  0.0737
 8893SOL    HW238316   3.351   3.310  11.453  0.0436 -1.2054 -0.9095
 8894SOL     OW38317   3.958   3.140   4.140 -0.3085  0.0069  0.2109
 8894SOL    HW138318   3.893   3.115   4.075  0.3325  1.3291 -0.9417
 8894SOL    HW238319   3.911   3.129   4.223 -1.7085 -3.2704 -1.0111
 8895SOL     OW38320   2.964   4.237   0.060  0.2170 -0.3171  0.3276
 8895SOL    HW138321   2.991   4.170   0.123  2.1084 -0.2335 -0.4216
 8895SOL    HW238322   2.976   4.210  17.722 -0.5563  1.2766 -0.2618
 8896SOL     OW38323   2.961   0.905   3.030 -0.3282 -0.1221 -0.1141
 8896SOL    HW138324   2.896   0.971   3.007 -1.4148 -0.8122  1.0143
 8896SOL    HW238325   2.929   0.882   3.117  1.1711  1.0342  0.7480
 8897SOL     OW38326   1.458   3.824   6.002  0.5003 -0.3490  0.2843
 8897SOL    HW138327   1.475   3.732   6.023 -0.5292 -0.7380 -0.6117
 8897SOL    HW238328   1.396   3.811   5.930 -0.6637  0.3012  1.1670
 8898SOL     OW38329   1.188   2.657   6.629 -0.2089  0.0337 -0.8039
 8898SOL    HW138330   1.257   2.624   6.571  1.8987  0.7014  1.3313
 8898SOL    HW238331   1.110   2.662   6.573 -0.1727  0.4267 -0.8181
 8899SOL     OW38332   4.668   0.710   1.583 -0.3790 -0.0983 -0.0125
 8899SOL    HW138333   4.714   0.794   1.579  0.3420 -0.6169 -2.6339
 8899SOL    HW238334   0.005   0.653   1.571 -0.5600 -0.2532 -0.4313
 8900SOL     OW38335   0.402   2.367   2.383 -0.4496  0.0458  0.5127
 8900SOL    HW138336   0.308   2.364   2.397 -0.5234 -0.3490 -0.0835
 8900SOL    HW238337   0.417   2.273   2.371  1.1641  0.3584  0.0026
 8901SOL     OW38338   3.542   3.597   9.105 -0.2819 -0.1777  0.3771
 8901SOL    HW138339   3.533   3.548   9.187 -1.0383 -0.1632  0.3028
 8901SOL    HW238340   3.492   3.547   9.039 -2.7953 -0.6040  2.6035
 8902SOL     OW38341   4.173   1.670  15.822  0.3864  0.0843 -0.8123
 8902SOL    HW138342   4.253   1.624  15.843  0.3997  0.6751  0.4291
 8902SOL    HW238343   4.148   1.638  15.735 -0.5161  0.1809 -0.5954
 8903SOL     OW38344   4.111   4.082   8.435 -0.0852 -0.0705  0.3392
 8903SOL    HW138345   4.140   4.041   8.354  0.7757  1.4074 -0.0950
 8903SOL    HW238346   4.032   4.032   8.455 -0.3367  0.2710  0.2154
 8904SOL     OW38347   2.377   3.287   4.170 -0.4119  0.3080 -1.0210
 8904SOL    HW138348   2.420   3.260   4.251 -1.0347  1.2256 -0.3851
 8904SOL    HW238349   2.301   3.325   4.214  0.1774 -0.1641  0.4218
 8905SOL     OW38350   4.690   0.888   2.048 -0.1539 -0.1851 -0.0063
 8905SOL    HW138351   4.622   0.914   1.986 -1.7244  0.2775  1.8886
 8905SOL    HW238352   4.689   0.968   2.100 -0.4357 -0.9543  1.1895
 8906SOL     OW38353   1.664   2.621   8.230  0.3473 -0.8152 -0.1969
 8906SOL    HW138354   1.665   2.541   8.178 -0.0427 -0.2208 -1.1092
 8906SOL    HW238355   1.608   2.681   8.182  0.2786 -2.0078 -1.6228
 8907SOL     OW38356   0.022   3.172   3.398 -0.3963 -0.0264 -0.4551
 8907SOL    HW138357   0.021   3.109   3.326 -1.2480  0.3193 -0.7361
 8907SOL    HW238358   0.113   3.167   3.427 -0.3669  0.0496 -0.5362
 8908SOL     OW38359   1.188   1.837   4.807 -0.5887  0.5896  0.8321
 8908SOL    HW138360   1.244   1.774   4.852 -0.0607 -0.3028 -1.0485
 8908SOL    HW238361   1.165   1.780   4.733 -0.0179 -0.6814  1.6361
 8909SOL     OW38362   1.933   0.662   5.808  0.3297  0.1049  0.2309
 8909SOL    HW138363   1.847   0.627   5.786  1.1311 -1.1184 -0.9604
 8909SOL    HW238364   1.911   0.755   5.814 -0.1603 -0.1224  2.1105
 8910SOL     OW38365   0.466   1.767   2.974 -0.1922  0.4620  0.5044
 8910SOL    HW138366   0.558   1.787   2.994 -0.3677  1.0870  0.6631
 8910SOL    HW238367   0.421   1.830   3.030 -0.8614  0.3987  0.0293
 8911SOL     OW38368   3.413   1.131   9.195 -0.4820  0.3064 -0.2050
 8911SOL    HW138369   3.362   1.210   9.214  0.2289  1.2673 -2.2974
 8911SOL    HW238370   3.422   1.151   9.102 -0.1140  0.6442 -0.0954
 8912SOL     OW38371   3.485   1.719   5.753  0.3434  0.3016 -0.2666
 8912SOL    HW138372   3.445   1.771   5.823 -2.4332 -0.2968 -1.3728
 8912SOL    HW238373   3.526   1.642   5.792 -0.0412 -0.3071 -1.0605
 8913SOL     OW38374   2.627   3.999   9.124 -0.0279 -0.0872 -0.5893
 8913SOL    HW138375   2.542   3.975   9.161  1.0609 -1.4951  1.0309
 8913SOL    HW238376   2.680   3.933   9.169  1.6182  2.5786  1.3266
 8914SOL     OW38377   1.158   2.446   3.692 -0.0878 -0.3362 -0.2065
 8914SOL    HW138378   1.248   2.446   3.658  0.0391 -0.2899  0.1246
 8914SOL    HW238379   1.159   2.521   3.752 -3.9979 -0.4318 -0.0234
 8915SOL     OW38380   0.329   2.342   2.874 -0.4284  0.1964 -0.2776
 8915SOL    HW138381   0.377   2.309   2.950  0.1848  0.4497 -0.5557
 8915SOL    HW238382   0.239   2.350   2.907 -1.0096  2.9135 -2.5593
 8916SOL     OW38383   0.450   0.891   6.917  0.0801  0.0005 -0.1658
 8916SOL    HW138384   0.492   0.863   6.999 -2.2519 -0.8700  0.7302
 8916SOL    HW238385   0.450   0.987   6.926  0.0024 -0.0447  0.3559
 8917SOL     OW38386   1.479   3.117   8.151 -0.0604 -0.6410  0.1733
 8917SOL    HW138387   1.474   3.133   8.245 -2.8076  0.4863 -0.1858
 8917SOL    HW238388   1.568   3.083   8.141  0.6889  1.1190  0.7690
 8918SOL     OW38389   3.532   3.538   0.388 -0.2191  0.0713 -0.1998
 8918SOL    HW138390   3.509   3.516   0.478 -1.8594  0.2696 -0.5690
 8918SOL    HW238391   3.522   3.633   0.388 -0.5255  0.0380  0.8663
 8919SOL     OW38392   0.370   0.121   3.858 -0.2055  0.3053  0.3774
 8919SOL    HW138393   0.409   0.060   3.921  0.3566 -0.8857 -1.1451
 8919SOL    HW238394   0.300   0.161   3.910  0.0974  0.1694  0.8958
 8920SOL     OW38395   2.931   3.784   2.089  0.8176 -0.4374  0.3748
 8920SOL    HW138396   2.896   3.873   2.081  1.3862 -0.1122  1.5027
 8920SOL    HW238397   2.893   3.758   2.173 -0.7107  0.1862 -0.1267
 8921SOL     OW38398   0.296   3.910  16.347 -0.0402  0.1180  0.6563
 8921SOL    HW138399   0.361   3.953  16.404 -0.9685 -1.4139  2.8478
 8921SOL    HW238400   0.342   3.828  16.328 -1.5419 -1.0059  1.9005
 8922SOL     OW38401   0.856   1.475   6.887  0.1772  0.1934  0.4215
 8922SOL    HW138402   0.771   1.516   6.872 -0.8232 -3.1914 -3.1846
 8922SOL    HW238403   0.893   1.526   6.960  1.2247 -0.5672  0.4131
 8923SOL     OW38404   0.080   4.287   5.953  0.0935 -0.1322  0.5618
 8923SOL    HW138405   0.067   4.376   5.920 -1.5878 -0.4278  0.3847
 8923SOL    HW238406   0.169   4.267   5.927  0.2756  1.8599 -0.3308
 8924SOL     OW38407   0.395   2.463  11.363  0.5977 -0.7514 -0.0842
 8924SOL    HW138408   0.473   2.431  11.408  2.2939  2.1717 -0.9735
 8924SOL    HW238409   0.431   2.478  11.276 -1.2838  1.7675 -0.4433
 8925SOL     OW38410   3.448   1.437   9.099  0.0858  0.7121 -0.6198
 8925SOL    HW138411   3.408   1.372   9.042  3.0207 -0.4625 -1.3311
 8925SOL    HW238412   3.524   1.462   9.047  1.4885  0.2031  1.1682
 8926SOL     OW38413   3.593   0.223   8.259 -0.1213 -0.1131 -0.0033
 8926SOL    HW138414   3.506   0.232   8.296 -0.3111  1.0716 -0.7454
 8926SOL    HW238415   3.639   0.180   8.331 -1.2913 -2.9228 -0.9419
 8927SOL     OW38416   0.898   1.273   5.436  0.5431  0.0530 -0.3187
 8927SOL    HW138417   0.856   1.207   5.491  0.1892  0.8622  0.4003
 8927SOL    HW238418   0.827   1.291   5.374  2.0635  0.9187 -1.8081
 8928SOL     OW38419   1.326   2.743   9.171  0.7089  0.4807  0.4305
 8928SOL    HW138420   1.290   2.802   9.105  3.5090 -0.4820 -1.9676
 8928SOL    HW238421   1.251   2.684   9.168  0.3592  1.0146 -1.2551
 8929SOL     OW38422   1.640   1.835   3.221 -0.4595  0.0613 -0.8426
 8929SOL    HW138423   1.546   1.850   3.216 -0.6224 -0.7817 -0.1965
 8929SOL    HW238424   1.642   1.744   3.192 -1.0284  0.9293 -3.6288
 8930SOL     OW38425   4.212   3.905   8.644 -0.3500 -0.1639  0.8092
 8930SOL    HW138426   4.151   3.832   8.661  0.6607 -1.6901 -2.0782
 8930SOL    HW238427   4.201   3.947   8.729  0.8185  2.3089 -0.2536
 8931SOL     OW38428   1.493   1.074   0.302  0.4119  0.4374 -0.4045
 8931SOL    HW138429   1.546   1.115   0.233  2.8570 -2.6498 -0.3247
 8931SOL    HW238430   1.424   1.141   0.310  0.3164 -0.1730  3.8101
 8932SOL     OW38431   3.230   2.972   4.166 -0.3926  0.4426 -0.2092
 8932SOL    HW138432   3.239   2.877   4.174 -1.6122  0.4702  1.3244
 8932SOL    HW238433   3.161   2.983   4.100  1.2064 -2.2917 -2.3723
 8933SOL     OW38434   3.433   2.290  11.518  0.4623 -0.2447  0.2305
 8933SOL    HW138435   3.428   2.206  11.563 -1.0264 -0.3018 -0.0206
 8933SOL    HW238436   3.441   2.259  11.428 -1.2402 -1.9322  0.6452
 8934SOL     OW38437   1.526   1.795   8.387  0.2151  0.0672 -0.1753
 8934SOL    HW138438   1.555   1.766   8.473  0.1943 -0.7848 -0.4545
 8934SOL    HW238439   1.434   1.771   8.384  0.6608 -1.5314 -1.1004
 8935SOL     OW38440   3.767   2.504   5.049 -0.6105  0.3909  0.5068
 8935SOL    HW138441   3.723   2.480   4.968 -2.3015  2.2478  0.8876
 8935SOL    HW238442   3.712   2.460   5.114 -0.3684 -1.1360 -0.3194
 8936SOL     OW38443   3.084   4.424   2.228 -0.4581  0.2957  0.3471
 8936SOL    HW138444   3.108   4.506   2.272 -0.5120 -0.0401  1.0079
 8936SOL    HW238445   3.152   4.402   2.164 -0.7897 -2.2049  0.8735
 8937SOL     OW38446   2.974   1.025  16.570  0.2006  0.0569 -0.5487
 8937SOL    HW138447   2.999   1.089  16.504 -0.5059  2.4300  1.4777
 8937SOL    HW238448   2.932   1.091  16.625 -1.7879  0.4559 -2.5379
 8938SOL     OW38449   1.948   0.526   6.877 -0.0259  0.0465  0.0978
 8938SOL    HW138450   1.855   0.544   6.869  0.0560  0.7797  0.7876
 8938SOL    HW238451   1.959   0.566   6.964  4.4589  0.1489 -0.5228
 8939SOL     OW38452   0.758   0.298  10.705  0.4763 -0.0755 -0.0104
 8939SOL    HW138453   0.694   0.353  10.659 -0.4591  0.2768  1.7153
 8939SOL    HW238454   0.712   0.264  10.782 -1.5007  2.2302 -0.1616
 8940SOL     OW38455   0.924   2.503  12.496 -0.1706 -0.5462 -0.3663
 8940SOL    HW138456   0.890   2.439  12.434  0.0016 -1.2207  0.2338
 8940SOL    HW238457   1.004   2.536  12.455 -1.0637  0.8406 -0.9885
 8941SOL     OW38458   3.488   2.354  16.785  0.8694  0.2045  0.2910
 8941SOL    HW138459   3.529   2.306  16.857  0.1662 -0.5898  0.1510
 8941SOL    HW238460   3.542   2.430  16.763  1.5616 -0.5972 -0.7739
 8942SOL     OW38461   0.602   1.621  13.941 -0.0023 -0.1564  0.4273
 8942SOL    HW138462   0.648   1.695  13.980  1.6951 -0.5349 -0.8817
 8942SOL    HW238463   0.514   1.651  13.919  0.9515 -0.0985 -3.4409
 8943SOL     OW38464   2.870   1.032   8.108 -0.6466 -0.3729  0.5521
 8943SOL    HW138465   2.778   1.035   8.135 -0.0901  3.2053  1.9383
 8943SOL    HW238466   2.878   0.945   8.068 -1.5815 -1.4413  2.6801
 8944SOL     OW38467   1.409   4.127   0.417 -0.4241 -0.6108  0.0628
 8944SOL    HW138468   1.327   4.126   0.466 -0.0197 -2.0440  0.7154
 8944SOL    HW238469   1.469   4.073   0.468 -0.8428 -0.1751  1.0215
 8945SOL     OW38470   2.467   2.083   2.538  0.4662  0.1586 -0.7731
 8945SOL    HW138471   2.433   2.173   2.534  1.4536  0.6314  1.3103
 8945SOL    HW238472   2.515   2.076   2.456  2.0414  1.1893  0.0654
 8946SOL     OW38473   4.013   0.826   6.411  0.1012 -0.2908  0.3733
 8946SOL    HW138474   3.970   0.859   6.490 -2.0389 -0.1736 -0.8379
 8946SOL    HW238475   4.041   0.915   6.389 -0.3100  0.2405  1.9892
 8947SOL     OW38476   0.890   4.402   6.641 -0.3553  0.0641  0.3126
 8947SOL    HW138477   0.951   4.392   6.567 -2.0582  1.3674 -1.2771
 8947SOL    HW238478   0.936   4.367   6.717 -2.2230  0.7946  1.7685
 8948SOL     OW38479   0.365   3.340   1.434 -0.1430 -0.3621  0.0799
 8948SOL    HW138480   0.274   3.372   1.434  0.8493  2.4792  1.5367
 8948SOL    HW238481   0.397   3.379   1.352  0.7018 -2.5767 -0.6137
 8949SOL     OW38482   1.822   1.126  11.215 -0.0978 -0.3954  0.1346
 8949SOL    HW138483   1.854   1.164  11.297  0.5097 -2.3239  0.7838
 8949SOL    HW238484   1.908   1.100  11.182  0.2540  0.5600  0.2859
 8950SOL     OW38485   1.957   3.226   3.527  0.0752  0.5411 -0.0997
 8950SOL    HW138486   1.946   3.238   3.433 -0.1235  2.5572  0.1953
 8950SOL    HW238487   1.902   3.298   3.558  1.9218  2.1581 -0.5591
 8951SOL     OW38488   2.717   3.301   7.051  0.1836 -0.0004  0.5541
 8951SOL    HW138489   2.759   3.215   7.047  1.0521  0.3492  2.2469
 8951SOL    HW238490   2.639   3.297   6.996  0.2424  0.4144  0.4398
 8952SOL     OW38491   0.843   0.708   4.307 -0.8684  0.3092  0.3370
 8952SOL    HW138492   0.790   0.628   4.301  2.3947 -2.0464  2.3106
 8952SOL    HW238493   0.819   0.736   4.396  0.6060  0.0170  0.8277
 8953SOL     OW38494   3.321   3.938   2.504  0.5398  0.0041 -0.1034
 8953SOL    HW138495   3.413   3.966   2.511  1.0462 -1.8965  0.8115
 8953SOL    HW238496   3.282   3.983   2.430 -1.7141  1.3767  1.9157
 8954SOL     OW38497   3.997   2.187   9.954  0.4035  0.0254  0.3643
 8954SOL    HW138498   4.034   2.159   9.871 -0.3599 -0.8421  0.3065
 8954SOL    HW238499   3.903   2.169   9.953  0.7647 -1.8821  0.9582
 8955SOL     OW38500   3.166   3.589   8.645 -0.2366  0.2653 -0.4168
 8955SOL    HW138501   3.197   3.498   8.647 -0.5943  0.1564  0.1231
 8955SOL    HW238502   3.103   3.587   8.716  0.0789 -0.6210 -0.1693
 8956SOL     OW38503   1.364   0.863   6.735 -0.3737 -0.5739  0.1868
 8956SOL    HW138504   1.326   0.876   6.649 -1.4273 -2.7490  0.3399
 8956SOL    HW238505   1.410   0.947   6.738  0.6967 -1.1698  0.5759
 8957SOL     OW38506   1.645   0.974   7.095  0.2913  0.1887  0.2041
 8957SOL    HW138507   1.707   1.033   7.051 -0.1623 -0.3509 -1.1501
 8957SOL    HW238508   1.645   1.015   7.182  1.3437  0.3038  0.1514
 8958SOL     OW38509   4.174   1.286   8.382 -0.1906  0.4981 -0.1268
 8958SOL    HW138510   4.154   1.193   8.388  1.5071  0.1061 -0.4603
 8958SOL    HW238511   4.214   1.296   8.469 -0.4148  1.3173 -0.1159
 8959SOL     OW38512   0.979   2.781   6.825 -0.0291 -0.3848  0.0954
 8959SOL    HW138513   0.940   2.830   6.752  0.0183  0.5822  0.7224
 8959SOL    HW238514   0.904   2.726   6.846  0.1303 -0.4696  0.4412
 8960SOL     OW38515   3.422   1.149  11.044 -0.6950  0.1688 -0.6006
 8960SOL    HW138516   3.503   1.129  11.091 -0.7836  0.2906 -0.3922
 8960SOL    HW238517   3.391   1.062  11.021 -0.7872 -0.0411  0.3265
 8961SOL     OW38518   0.365   1.477   6.744  0.3476 -0.7483  0.2379
 8961SOL    HW138519   0.282   1.488   6.790  1.3244  1.2028  1.5188
 8961SOL    HW238520   0.338   1.506   6.656  2.2775  0.2787 -0.0309
 8962SOL     OW38521   1.630   1.385   0.547 -0.6819 -0.0805  0.2868
 8962SOL    HW138522   1.640   1.290   0.555 -3.2967 -0.4037 -0.1144
 8962SOL    HW238523   1.719   1.418   0.534 -1.1725  0.5375 -1.6017
 8963SOL     OW38524   2.191   4.310   0.198 -0.4362  0.5979 -0.1711
 8963SOL    HW138525   2.215   4.263   0.118 -0.1938  0.8412 -0.2417
 8963SOL    HW238526   2.100   4.282   0.211 -0.2833  0.1528 -0.0822
 8964SOL     OW38527   1.966   1.408   7.832  0.3569  0.1314  0.7506
 8964SOL    HW138528   2.012   1.442   7.909 -1.8570 -1.1955  2.6352
 8964SOL    HW238529   1.893   1.469   7.824  0.7090  0.5895  1.0146
 8965SOL     OW38530   3.888   0.073   5.942 -0.4074 -0.6910 -0.1843
 8965SOL    HW138531   3.854   0.034   6.023  0.1029  0.2650  0.4837
 8965SOL    HW238532   3.969   0.115   5.968 -0.5310 -1.7002  1.8676
 8966SOL     OW38533   1.495   0.237   4.754 -0.2019 -0.7861 -0.2118
 8966SOL    HW138534   1.522   0.309   4.696 -0.3816  0.5918  1.4265
 8966SOL    HW238535   1.486   0.284   4.837  1.3897 -0.0641 -0.4294
 8967SOL     OW38536   3.287   3.778  13.508  0.2289  0.3238 -0.0004
 8967SOL    HW138537   3.281   3.745  13.419 -3.5177  1.6732 -0.2573
 8967SOL    HW238538   3.220   3.845  13.522 -1.5276 -1.5259  0.4749
 8968SOL     OW38539   1.280   3.968   9.161 -0.1768  0.1800  0.1304
 8968SOL    HW138540   1.201   4.008   9.196  0.1865 -0.6643  1.9313
 8968SOL    HW238541   1.320   3.934   9.241 -2.2288 -0.9838  0.6657
 8969SOL     OW38542   3.608   2.958  15.441  0.5057 -0.0460  0.3889
 8969SOL    HW138543   3.556   3.019  15.389 -1.3195 -1.5394  0.4693
 8969SOL    HW238544   3.658   2.910  15.375 -1.6799 -2.0211  0.1626
 8970SOL     OW38545   3.133   0.334   8.495 -0.6704  0.3720  0.2691
 8970SOL    HW138546   3.064   0.359   8.556 -0.5590 -1.5286  1.1598
 8970SOL    HW238547   3.163   0.422   8.469 -2.6535  1.3459  1.2806
 8971SOL     OW38548   0.564   3.247   3.930  0.1155 -0.2836 -0.2922
 8971SOL    HW138549   0.636   3.192   3.898 -0.7676 -2.2798  1.1017
 8971SOL    HW238550   0.542   3.192   4.006  0.9752  0.8271  0.7588
 8972SOL     OW38551   1.501   1.070   3.575 -0.0249 -0.3442 -0.1734
 8972SOL    HW138552   1.441   1.126   3.624  1.2488  1.7702 -1.0344
 8972SOL    HW238553   1.560   1.136   3.538  0.8121 -0.5400  0.7849
 8973SOL     OW38554   1.009   4.641  14.458  0.1605  0.1568 -0.5755
 8973SOL    HW138555   1.009   4.611  14.549  1.6988  1.5058 -0.1256
 8973SOL    HW238556   0.957   4.569  14.424  1.5552 -1.4463  0.6922
 8974SOL     OW38557   4.595   3.977   8.747  0.1714  0.1044 -0.5264
 8974SOL    HW138558   4.591   4.065   8.708 -2.5078  0.2083  0.0318
 8974SOL    HW238559   4.508   3.985   8.786  0.3838  0.2595 -0.0767
 8975SOL     OW38560   0.742   3.262   2.193 -0.4741  0.0584  0.6426
 8975SOL    HW138561   0.678   3.333   2.193 -1.4475 -0.8285  1.5411
 8975SOL    HW238562   0.732   3.212   2.112 -2.0817 -0.3364  1.0928
 8976SOL     OW38563   1.407   0.948   3.913 -0.8572 -0.2975  0.6215
 8976SOL    HW138564   1.400   0.901   3.996 -2.2600 -1.6630 -0.2767
 8976SOL    HW238565   1.498   0.977   3.914 -0.8939 -0.1154 -2.1340
 8977SOL     OW38566   4.716   0.619  13.314  0.2256  0.1487 -0.9303
 8977SOL    HW138567   0.072   0.615  13.328  0.3089  0.4183 -1.4019
 8977SOL    HW238568   4.695   0.527  13.305  0.6511 -0.2216  2.0065
 8978SOL     OW38569   2.514   1.516   6.440 -0.0990 -0.2656  0.1254
 8978SOL    HW138570   2.530   1.432   6.484 -2.8256 -0.7467  0.1938
 8978SOL    HW238571   2.468   1.561   6.510 -0.8927 -1.7333  0.5379
 8979SOL     OW38572   4.415   2.560   4.525  0.0238 -0.6572  0.4471
 8979SOL    HW138573   4.424   2.492   4.457  0.0188 -0.3520  0.1410
 8979SOL    HW238574   4.504   2.579   4.554  0.4085  0.1667 -1.2863
 8980SOL     OW38575   2.335   4.104   8.179  0.2208 -0.3005  0.0915
 8980SOL    HW138576   2.426   4.121   8.151 -0.1906 -0.1188 -1.1438
 8980SOL    HW238577   2.303   4.122   8.091 -3.1663  0.2956  1.4630
 8981SOL     OW38578   4.693   1.960  15.471  0.7231 -0.0754 -0.1241
 8981SOL    HW138579   4.659   1.893  15.412 -0.9497 -0.7137  1.5647
 8981SOL    HW238580   4.686   2.039  15.418 -1.0304 -1.2841 -1.6802
 8982SOL     OW38581   1.917   4.323  15.654  0.2701  0.1839  0.5549
 8982SOL    HW138582   1.841   4.373  15.626 -0.0301 -1.2279 -1.1457
 8982SOL    HW238583   1.988   4.354  15.597 -0.3711 -1.7927 -1.3372
 8983SOL     OW38584   4.587   3.282   5.703  0.2349 -0.4140 -0.2471
 8983SOL    HW138585   4.621   3.241   5.782  1.0407  0.2662 -0.2343
 8983SOL    HW238586   4.653   3.351   5.691 -0.6477  0.0726 -2.3410
 8984SOL     OW38587   0.724   3.690   4.147 -0.0192  0.1513  0.1662
 8984SOL    HW138588   0.687   3.760   4.200  2.0190 -0.8216  2.9303
 8984SOL    HW238589   0.648   3.640   4.118  0.2435 -0.0846 -0.1145
 8985SOL     OW38590   2.265   2.554   5.069  0.4469 -0.4795 -0.4819
 8985SOL    HW138591   2.320   2.515   5.000  2.7206  1.4286  0.2503
 8985SOL    HW238592   2.286   2.646   5.056 -0.2521 -0.5672 -2.2219
 8986SOL     OW38593   4.621   4.661   5.271  0.7666  0.5248  0.2943
 8986SOL    HW138594   4.630   0.018   5.265  1.4563  0.3415 -1.5841
 8986SOL    HW238595   4.527   4.646   5.272  1.1967 -1.9617  2.2706
 8987SOL     OW38596   2.581   2.956   1.485  0.1842  0.4693 -0.3048
 8987SOL    HW138597   2.519   3.000   1.543 -0.8525 -1.8903  0.3643
 8987SOL    HW238598   2.618   3.036   1.447  0.7187  0.4179  0.0987
 8988SOL     OW38599   1.393   0.038  14.456  0.1058  0.0427  0.2851
 8988SOL    HW138600   1.405   0.047  14.550  1.7005  1.4700 -0.0478
 8988SOL    HW238601   1.348   4.693  14.459  0.3650 -0.1316 -0.5671
 8989SOL     OW38602   4.262   1.500  10.811 -0.2342  0.1733 -0.3184
 8989SOL    HW138603   4.257   1.562  10.884  0.0127 -1.0973  0.7770
 8989SOL    HW238604   4.331   1.436  10.826  0.3423  0.6448 -0.9866
 8990SOL     OW38605   1.123   1.441  14.737 -0.2860  0.5423 -0.1529
 8990SOL    HW138606   1.041   1.416  14.780 -0.7071 -0.1506 -1.3695
 8990SOL    HW238607   1.183   1.367  14.730  0.1940  0.9297 -0.1821
 8991SOL     OW38608   1.820   3.610   7.653  0.7090  0.5004  0.2512
 8991SOL    HW138609   1.911   3.605   7.681  0.2752  0.1589  1.6165
 8991SOL    HW238610   1.795   3.518   7.662 -1.0164  0.9035 -0.3343
 8992SOL     OW38611   4.379   3.975   8.420 -0.6016  0.3731 -0.4285
 8992SOL    HW138612   4.452   3.951   8.477 -1.0633 -1.2683 -0.5498
 8992SOL    HW238613   4.301   3.970   8.476 -0.2052  0.2480  0.1138
 8993SOL     OW38614   3.392   2.445  14.550  0.2447  0.0588  0.5114
 8993SOL    HW138615   3.347   2.462  14.633 -0.3118  0.8384  0.0469
 8993SOL    HW238616   3.322   2.448  14.485  0.4241  0.9863  0.3631
 8994SOL     OW38617   2.381   3.962   6.508  0.0335 -0.0920  0.2364
 8994SOL    HW138618   2.400   4.051   6.477  0.2744  0.6026  2.3827
 8994SOL    HW238619   2.296   3.950   6.465  1.6100 -0.5192 -2.7740
 8995SOL     OW38620   0.733   3.059   5.125 -0.2153  0.6734  0.7672
 8995SOL    HW138621   0.699   3.005   5.054  0.7003 -1.4279  1.9331
 8995SOL    HW238622   0.828   3.056   5.117 -0.3156 -1.4166  0.2636
 8996SOL     OW38623   2.552   0.682   4.756 -0.3302 -0.3576  1.0907
 8996SOL    HW138624   2.567   0.587   4.752 -0.5260 -0.3382 -0.3209
 8996SOL    HW238625   2.584   0.712   4.841 -0.9528  0.6427  0.9730
 8997SOL     OW38626   2.603   1.735   6.320 -0.1358 -0.0608 -0.0776
 8997SOL    HW138627   2.676   1.697   6.271 -0.9442 -0.4826 -0.9513
 8997SOL    HW238628   2.590   1.654   6.370 -1.5445  0.1112 -0.1481
 8998SOL     OW38629   0.679   3.806  12.993  0.2558 -0.4161  0.1403
 8998SOL    HW138630   0.689   3.727  13.046 -0.3589 -1.2798 -1.0232
 8998SOL    HW238631   0.639   3.864  13.057  0.5285  0.2927 -0.3231
 8999SOL     OW38632   4.573   4.302   2.156  0.7680  0.7166 -0.2497
 8999SOL    HW138633   4.501   4.240   2.144  0.6780  0.4408  1.7676
 8999SOL    HW238634   4.625   4.284   2.077 -0.7681 -1.1653 -0.8381
 9000SOL     OW38635   0.610   3.118   8.418  0.3923  0.3983  0.1961
 9000SOL    HW138636   0.548   3.165   8.473  0.8128  2.3308 -0.9930
 9000SOL    HW238637   0.586   3.027   8.436 -1.0872  1.1438  1.9401
 9001SOL     OW38638   1.907   0.340   2.250  0.0280 -0.4395  0.0997
 9001SOL    HW138639   1.973   0.285   2.208  0.0937  0.7901 -1.4099
 9001SOL    HW238640   1.963   0.384   2.314 -1.6740  1.4014  0.3299
 9002SOL     OW38641   4.357   4.499   9.138  0.2577 -0.5069 -0.6427
 9002SOL    HW138642   4.317   4.586   9.140 -1.1630 -1.1280 -1.6849
 9002SOL    HW238643   4.398   4.498   9.051  0.2769  2.0641 -0.6703
 9003SOL     OW38644   2.772   0.998  16.242 -0.1664  0.8725 -0.3803
 9003SOL    HW138645   2.791   1.060  16.172 -1.1017  1.0392 -0.4938
 9003SOL    HW238646   2.820   0.923  16.208 -0.1698  0.7013 -0.0072
 9004SOL     OW38647   3.120   1.563   0.583 -0.0391  0.5526 -0.0391
 9004SOL    HW138648   3.178   1.618   0.635 -0.2037  1.0046 -0.3271
 9004SOL    HW238649   3.145   1.481   0.625  0.3484  1.3244  1.2361
 9005SOL     OW38650   2.896   2.885   9.356  0.5411  0.4918  0.2030
 9005SOL    HW138651   2.978   2.934   9.363  0.9674 -0.0471 -0.9917
 9005SOL    HW238652   2.834   2.948   9.394  0.4982  2.5138 -3.2078
 9006SOL     OW38653   3.169   3.841  14.387  0.5436  0.1453  0.7922
 9006SOL    HW138654   3.111   3.915  14.367  1.4168  1.0662  1.6880
 9006SOL    HW238655   3.157   3.826  14.481 -0.4360 -2.0986  0.3197
 9007SOL     OW38656   3.536   4.540  11.006 -0.3695  0.1044 -0.0839
 9007SOL    HW138657   3.542   4.469  11.070 -2.1209  0.5742  0.5958
 9007SOL    HW238658   3.501   4.506  10.924 -0.2504  1.9283 -0.8892
 9008SOL     OW38659   3.885   0.829   1.895 -0.2095  0.4265 -0.7743
 9008SOL    HW138660   3.793   0.853   1.910  0.7088  2.1473  2.0158
 9008SOL    HW238661   3.928   0.896   1.948  1.8071 -1.5657  0.1039
 9009SOL     OW38662   1.038   1.753   8.837  0.2404 -0.3167  0.1695
 9009SOL    HW138663   0.961   1.793   8.797 -0.6457 -3.6738 -1.4118
 9009SOL    HW238664   1.065   1.698   8.763  3.1773  0.6810  0.4763
 9010SOL     OW38665   0.142   3.387   5.221  0.4327  0.1546  0.5881
 9010SOL    HW138666   0.190   3.335   5.156 -0.2831  2.0090 -1.4054
 9010SOL    HW238667   0.059   3.338   5.223  0.2123  0.5515  1.3258
 9011SOL     OW38668   2.024   0.108  16.177 -0.0804 -0.0889  0.3128
 9011SOL    HW138669   2.034   0.170  16.104 -1.7071 -1.0424 -0.7138
 9011SOL    HW238670   2.113   0.082  16.199  0.3139 -0.4815 -1.7244
 9012SOL     OW38671   1.567   0.318   6.014  0.0404  0.3438  0.2013
 9012SOL    HW138672   1.511   0.357   6.081 -0.9095 -1.8930  0.6999
 9012SOL    HW238673   1.520   0.335   5.933 -0.2555  2.5181  0.8181
 9013SOL     OW38674   2.465   4.000   2.528  0.2685 -0.0603  0.3567
 9013SOL    HW138675   2.468   4.010   2.433 -5.0197  0.6321  0.2622
 9013SOL    HW238676   2.505   3.913   2.523 -1.4470 -0.8567  0.7723
 9014SOL     OW38677   3.754   4.247   9.156 -1.0502  0.3233  0.1183
 9014SOL    HW138678   3.767   4.323   9.099 -0.0501  1.6564  2.0937
 9014SOL    HW238679   3.661   4.226   9.144 -1.2427  1.1533  0.1622
 9015SOL     OW38680   3.396   2.002  11.644  0.7170 -0.3210  0.1123
 9015SOL    HW138681   3.366   1.979  11.556 -0.5127 -0.1864  0.4877
 9015SOL    HW238682   3.490   2.016  11.635  0.6920  1.2910  2.3647
 9016SOL     OW38683   2.928   0.765   5.739  0.5299  0.2997 -0.5056
 9016SOL    HW138684   3.022   0.780   5.741  0.6535 -1.0690  3.1060
 9016SOL    HW238685   2.905   0.782   5.647  0.0557 -1.5898 -0.7422
 9017SOL     OW38686   3.130   4.333   6.924 -0.0060  0.3222 -0.0231
 9017SOL    HW138687   3.069   4.298   6.989  1.1398  0.1259  0.9511
 9017SOL    HW238688   3.220   4.310   6.948 -0.6410  0.4495  2.4749
 9018SOL     OW38689   0.092   3.164  15.506 -0.1803  0.3160 -0.4108
 9018SOL    HW138690   0.158   3.211  15.557 -1.2648 -0.6463  1.8779
 9018SOL    HW238691   0.137   3.082  15.487 -0.4605 -0.1355  0.8769
 9019SOL     OW38692   4.139   4.023   4.433  0.1607  0.7171  0.9036
 9019SOL    HW138693   4.056   4.019   4.386 -1.3110 -2.3705  3.7375
 9019SOL    HW238694   4.199   4.038   4.360  2.0854 -2.6079  1.8178
 9020SOL     OW38695   1.334   1.807   0.726 -0.4168  0.5214 -0.2370
 9020SOL    HW138696   1.335   1.730   0.669 -0.2757 -1.2409  2.1659
 9020SOL    HW238697   1.397   1.784   0.794  0.5415  2.4620 -0.4658
 9021SOL     OW38698   1.612   0.200   4.007  0.7295 -0.2511  0.2429
 9021SOL    HW138699   1.607   0.293   4.027 -0.0866 -0.0716 -0.7667
 9021SOL    HW238700   1.663   0.202   3.926 -0.3398 -0.6707 -0.4599
 9022SOL     OW38701   2.315   3.357  15.212  0.3356  0.1396 -0.4544
 9022SOL    HW138702   2.310   3.448  15.241  1.2930  0.1406 -0.2912
 9022SOL    HW238703   2.404   3.347  15.177  0.3334  1.0052 -0.6997
 9023SOL     OW38704   1.827   3.216  17.616 -0.7574  0.3828 -0.1565
 9023SOL    HW138705   1.816   3.243  17.707  0.3575  1.2357 -0.2817
 9023SOL    HW238706   1.733   3.205  17.597 -1.1471  0.0229  1.9154
 9024SOL     OW38707   1.193   1.479   4.742  0.1235  0.0313 -0.6410
 9024SOL    HW138708   1.264   1.542   4.739 -0.3211  0.4499 -2.2092
 9024SOL    HW238709   1.183   1.458   4.649  0.2450  1.2539 -0.9308
 9025SOL     OW38710   2.760   1.493  15.720  0.0569 -0.4856  0.2395
 9025SOL    HW138711   2.696   1.542  15.670  2.3402  0.1555 -2.0773
 9025SOL    HW238712   2.815   1.567  15.746 -1.8329  0.5553  1.2498
 9026SOL     OW38713   0.305   1.157   9.585  0.5745  0.2591  0.1629
 9026SOL    HW138714   0.323   1.073   9.542  1.5438  1.3839 -1.5940
 9026SOL    HW238715   0.267   1.125   9.667 -0.7486 -2.0710 -1.3739
 9027SOL     OW38716   2.548   4.340  10.605 -0.0285 -0.1884 -0.1163
 9027SOL    HW138717   2.574   4.410  10.546 -0.7319 -0.2375 -0.4805
 9027SOL    HW238718   2.619   4.276  10.593 -0.6468 -0.9196  0.1321
 9028SOL     OW38719   3.656   3.310   7.268  0.0785  0.0169 -0.4720
 9028SOL    HW138720   3.697   3.367   7.333 -4.1917  1.4510  0.9889
 9028SOL    HW238721   3.565   3.331   7.289  0.2101 -0.4887  0.6263
 9029SOL     OW38722   3.413   4.173   3.635 -0.6242 -0.4904  0.0999
 9029SOL    HW138723   3.356   4.134   3.702 -1.1666  0.2311  0.0580
 9029SOL    HW238724   3.410   4.107   3.565  0.5368 -1.7531  1.2439
 9030SOL     OW38725   0.712   1.374  10.716  0.1333  0.1571 -0.2612
 9030SOL    HW138726   0.624   1.375  10.680 -0.0807 -1.4537  0.1798
 9030SOL    HW238727   0.701   1.315  10.791  0.1892  1.7674  0.9956
 9031SOL     OW38728   1.525   0.812  17.468 -0.3224  0.2679 -0.3748
 9031SOL    HW138729   1.462   0.865  17.420 -0.4074 -1.0345 -1.6967
 9031SOL    HW238730   1.502   0.720  17.456 -1.1528  0.5570 -0.9848
 9032SOL     OW38731   2.718   3.930   8.337  0.5901  0.3659  0.2846
 9032SOL    HW138732   2.667   3.986   8.278  1.5300 -1.0339 -1.8487
 9032SOL    HW238733   2.761   4.001   8.384 -1.2657  0.7932  1.3225
 9033SOL     OW38734   0.194   3.179   2.722 -0.2868  0.2816 -0.0871
 9033SOL    HW138735   0.158   3.227   2.648  1.5787 -2.3395 -2.6833
 9033SOL    HW238736   0.222   3.104   2.671  0.2950 -0.7342  1.7262
 9034SOL     OW38737   1.854   4.709   4.617  0.5098  0.4887  0.4259
 9034SOL    HW138738   1.909   4.630   4.621  0.2816  0.2064 -1.8947
 9034SOL    HW238739   1.911   0.045   4.633  1.8777 -0.4483 -0.1053
 9035SOL     OW38740   4.655   4.684   7.484 -0.0318  0.0296  0.3108
 9035SOL    HW138741   0.007   4.708   7.467  0.5876  0.2783  3.8344
 9035SOL    HW238742   4.671   4.674   7.578  3.2804 -1.2240 -0.4039
 9036SOL     OW38743   3.860   0.453   5.888  0.2340 -0.4576 -0.1664
 9036SOL    HW138744   3.908   0.420   5.812 -1.3429 -0.5459 -1.1192
 9036SOL    HW238745   3.910   0.429   5.965 -0.1625  2.2074  0.9410
 9037SOL     OW38746   1.159   3.094   4.541  0.2019  0.0893  0.3696
 9037SOL    HW138747   1.244   3.138   4.546  0.3539 -0.2570  0.9069
 9037SOL    HW238748   1.195   3.007   4.524 -1.6974 -0.2480 -1.9331
 9038SOL     OW38749   1.140   2.641   3.887  0.1527  0.0976 -0.0518
 9038SOL    HW138750   1.048   2.621   3.908  0.4919 -0.3792  0.9610
 9038SOL    HW238751   1.148   2.736   3.896  1.3686 -0.1401  1.4476
 9039SOL     OW38752   3.603   4.558   2.791  0.1145 -0.1997  0.2749
 9039SOL    HW138753   3.570   4.565   2.701  1.6945  0.2768 -0.2730
 9039SOL    HW238754   3.516   4.537   2.825  0.5403 -1.2053  0.7220
 9040SOL     OW38755   3.497   3.609   6.973  0.0324 -0.7564 -0.1919
 9040SOL    HW138756   3.573   3.619   7.031 -1.3315 -1.6001  1.7595
 9040SOL    HW238757   3.485   3.700   6.945 -0.9317 -0.2726  1.7642
 9041SOL     OW38758   1.855   1.472   5.067  0.2331 -0.4497  0.1043
 9041SOL    HW138759   1.859   1.516   5.152 -1.6202 -1.5062  0.7392
 9041SOL    HW238760   1.813   1.393   5.103  0.0763 -0.5627 -0.3262
 9042SOL     OW38761   4.302   2.087   8.080  0.0410 -0.2903  0.5031
 9042SOL    HW138762   4.218   2.082   8.034  0.1390 -0.5439  0.3585
 9042SOL    HW238763   4.340   2.162   8.034  0.0590 -0.7080 -0.1587
 9043SOL     OW38764   0.108   4.647   8.753  0.0711 -0.2018 -0.0040
 9043SOL    HW138765   0.025   4.601   8.765  1.2047 -1.9203  1.3052
 9043SOL    HW238766   0.132   4.620   8.664  1.1170 -0.3096  0.3001
 9044SOL     OW38767   4.409   0.796  10.382 -0.5508  0.1306  0.4891
 9044SOL    HW138768   4.357   0.808  10.461 -2.2892  1.7183 -0.9120
 9044SOL    HW238769   4.344   0.787  10.312  2.3518 -0.2812 -2.2059
 9045SOL     OW38770   2.361   1.662   5.284  0.4402 -0.4604 -0.0985
 9045SOL    HW138771   2.351   1.717   5.361  1.2455  1.6892 -1.5236
 9045SOL    HW238772   2.307   1.586   5.306  0.2877  0.7618  3.7079
 9046SOL     OW38773   0.829   2.905   8.574 -0.5487 -0.4034  0.3923
 9046SOL    HW138774   0.747   2.922   8.527  0.1174 -4.2628 -2.1352
 9046SOL    HW238775   0.893   2.895   8.504 -1.5378 -3.2048 -0.0961
 9047SOL     OW38776   4.718   0.794   2.952  0.0148 -0.4938  0.3430
 9047SOL    HW138777   4.710   0.705   2.984  0.2124 -0.7031 -0.1969
 9047SOL    HW238778   4.652   0.787   2.883  0.9201 -0.4259 -0.5182
 9048SOL     OW38779   3.936   4.066   6.443  0.3593  0.6336 -0.7873
 9048SOL    HW138780   3.958   4.096   6.355 -2.1502 -0.2704 -1.7377
 9048SOL    HW238781   3.953   3.973   6.433 -0.0784  0.6407 -1.6703
 9049SOL     OW38782   4.514   2.228   3.983 -0.3828 -0.2190  0.1969
 9049SOL    HW138783   4.456   2.187   4.047 -1.2332 -0.7564 -0.9291
 9049SOL    HW238784   4.491   2.186   3.900  0.8242 -0.1319 -0.1876
 9050SOL     OW38785   1.321   0.996   2.682  0.4479 -0.1204  0.2735
 9050SOL    HW138786   1.374   1.048   2.622 -0.2077 -0.1687 -0.3484
 9050SOL    HW238787   1.249   1.057   2.700  0.9512  1.2018 -2.3122
 9051SOL     OW38788   4.704   2.112   3.051  0.3990  0.1557  0.5327
 9051SOL    HW138789   0.020   2.042   3.016 -1.2091 -0.9423  0.1762
 9051SOL    HW238790   0.013   2.121   3.133 -1.9043  0.0152  1.8932
 9052SOL     OW38791   1.271   0.687   8.137 -0.2774 -0.0504  0.3387
 9052SOL    HW138792   1.278   0.748   8.064  1.1046 -1.1015 -0.3956
 9052SOL    HW238793   1.352   0.637   8.133 -1.0112 -1.2389 -0.0027
 9053SOL     OW38794   1.013   4.298   3.391  0.8163 -0.2980  0.3084
 9053SOL    HW138795   0.962   4.280   3.470 -0.2192  0.1555 -0.2574
 9053SOL    HW238796   1.085   4.235   3.403  1.2884  0.1096 -0.3892
 9054SOL     OW38797   1.457   4.386   0.641 -0.6828  0.4534 -0.1374
 9054SOL    HW138798   1.537   4.414   0.596  0.5992 -0.0416  1.7858
 9054SOL    HW238799   1.474   4.293   0.632 -2.7474  0.0599  0.1142
 9055SOL     OW38800   4.161   3.633  10.098  0.1515  0.0777 -0.2508
 9055SOL    HW138801   4.087   3.679  10.058 -1.3171 -1.6016  0.5549
 9055SOL    HW238802   4.190   3.566  10.036 -0.7450 -2.1193  1.7153
 9056SOL     OW38803   4.253   4.681   1.643  0.1398 -0.1359 -0.0651
 9056SOL    HW138804   4.329   4.632   1.674 -1.5830 -2.3741  0.6184
 9056SOL    HW238805   4.292   4.709   1.561 -2.4174  2.8974 -0.2741
 9057SOL     OW38806   2.611   2.767   7.484  0.6108 -1.1083 -0.2903
 9057SOL    HW138807   2.689   2.818   7.463 -1.0153  0.9551 -1.2895
 9057SOL    HW238808   2.632   2.688   7.435 -0.2177 -1.0310 -0.7753
 9058SOL     OW38809   4.225   0.067   3.953  0.5048  0.1625 -0.3630
 9058SOL    HW138810   4.222   0.162   3.941 -2.8314 -0.1355 -1.8196
 9058SOL    HW238811   4.154   0.053   4.016  1.4954 -0.3118  0.6656
 9059SOL     OW38812   1.310   3.949   3.194 -0.0051  0.4008  0.1341
 9059SOL    HW138813   1.353   3.936   3.110  0.7084 -0.6834  0.6614
 9059SOL    HW238814   1.384   3.986   3.242  1.4986 -0.1756 -1.7563
 9060SOL     OW38815   3.704   0.934   9.245 -0.0613 -0.4361 -0.1042
 9060SOL    HW138816   3.740   0.994   9.310 -1.1035  1.5339 -1.3386
 9060SOL    HW238817   3.664   0.867   9.300 -0.6415  1.1123  1.3302
 9061SOL     OW38818   2.623   0.715   3.327 -0.6649  0.3563 -0.2798
 9061SOL    HW138819   2.548   0.759   3.367 -1.4898 -1.7048  0.4389
 9061SOL    HW238820   2.606   0.710   3.233 -0.8406  0.2929 -0.2450
 9062SOL     OW38821   2.703   4.640   1.445  0.2931 -0.1796  0.1215
 9062SOL    HW138822   2.791   4.673   1.430 -0.2902  2.5530  2.5978
 9062SOL    HW238823   2.725   4.608   1.532 -0.4105 -1.0051  0.0001
 9063SOL     OW38824   3.786   2.452   8.029 -0.0205  0.3564 -0.0310
 9063SOL    HW138825   3.781   2.361   8.057  4.3306  0.5371  1.2675
 9063SOL    HW238826   3.800   2.499   8.112  0.8747 -0.7825  0.4626
 9064SOL     OW38827   4.705   3.581   9.407  0.6893 -0.0098 -0.1650
 9064SOL    HW138828   4.691   3.581   9.312 -0.9720 -1.1153  0.0902
 9064SOL    HW238829   0.045   3.634   9.421 -0.0971  1.1395 -0.0306
 9065SOL     OW38830   2.824   4.269   1.384 -0.3746  0.0137  1.0129
 9065SOL    HW138831   2.824   4.176   1.361  1.3745  0.3734 -0.4228
 9065SOL    HW238832   2.889   4.279   1.454 -0.0043 -0.0488  0.6731
 9066SOL     OW38833   0.105   4.052   4.119  0.9273 -0.3440 -0.3031
 9066SOL    HW138834   0.036   4.034   4.182  0.4948  0.5096 -0.5314
 9066SOL    HW238835   0.174   4.083   4.178 -0.6864  1.9391  0.3812
 9067SOL     OW38836   1.158   0.847   2.301  0.1687  0.5599  0.2868
 9067SOL    HW138837   1.190   0.879   2.217  0.7038 -0.0012  0.2759
 9067SOL    HW238838   1.090   0.914   2.308 -0.4405 -0.2047  1.5521
 9068SOL     OW38839   4.320   4.223   2.485 -0.0162 -0.4048  0.2547
 9068SOL    HW138840   4.410   4.243   2.459 -0.1553 -1.0446 -0.7233
 9068SOL    HW238841   4.333   4.164   2.560  1.6055  0.6285  0.8050
 9069SOL     OW38842   0.693   3.120   1.635 -0.4988  0.2166 -0.6811
 9069SOL    HW138843   0.598   3.111   1.645 -0.5071 -0.9082 -1.8096
 9069SOL    HW238844   0.701   3.139   1.541 -3.4359  0.8441 -0.8094
 9070SOL     OW38845   2.355   3.937   4.231  0.0530 -0.5991  0.7982
 9070SOL    HW138846   2.381   3.864   4.287  2.0157 -0.3676  0.1931
 9070SOL    HW238847   2.299   3.990   4.289  0.2550 -0.0553  0.4987
 9071SOL     OW38848   3.563   1.789   9.985  0.6215 -0.1629 -0.3223
 9071SOL    HW138849   3.538   1.881   9.975  1.0924  0.2601  2.3860
 9071SOL    HW238850   3.620   1.789  10.062 -0.8911 -1.3639  0.7985
 9072SOL     OW38851   3.205   2.706  10.849  0.0293  0.3472 -0.3009
 9072SOL    HW138852   3.125   2.731  10.802  0.4325  0.4627 -0.9258
 9072SOL    HW238853   3.172   2.641  10.911  0.3348  0.6914  0.2211
 9073SOL     OW38854   0.376   0.949   9.396  0.7015 -1.3248 -0.3372
 9073SOL    HW138855   0.297   0.904   9.366 -0.8690  0.8708  0.5099
 9073SOL    HW238856   0.444   0.926   9.332  0.5820 -0.7764 -0.6648
 9074SOL     OW38857   3.116   1.788  16.329  0.0470 -0.1012 -0.6296
 9074SOL    HW138858   3.037   1.735  16.340 -0.2311  0.7492  1.5362
 9074SOL    HW238859   3.089   1.864  16.276  0.6038 -1.4881 -2.8966
 9075SOL     OW38860   3.831   4.060  16.915 -0.6533  0.4289  0.0020
 9075SOL    HW138861   3.838   3.978  16.867 -3.0797 -1.5952  3.0485
 9075SOL    HW238862   3.816   4.134  16.857 -1.3842 -1.5227 -2.2788
 9076SOL     OW38863   2.850   1.215  16.108 -0.0219  1.0460 -0.7070
 9076SOL    HW138864   2.900   1.276  16.053  0.9536  0.8095 -0.0828
 9076SOL    HW238865   2.806   1.160  16.044  1.8412 -0.4551 -0.7100
 9077SOL     OW38866   0.989   2.135   0.446  0.6857  0.5593  0.5140
 9077SOL    HW138867   0.992   2.039   0.445  1.0768  0.6144 -2.1280
 9077SOL    HW238868   1.055   2.146   0.514  1.6030 -0.7168 -0.1829
 9078SOL     OW38869   3.461   1.137   6.919 -0.3311 -0.3941 -0.0309
 9078SOL    HW138870   3.375   1.098   6.934 -1.4069  1.9108 -0.2718
 9078SOL    HW238871   3.524   1.067   6.903 -1.4322 -1.3305 -0.2580
 9079SOL     OW38872   1.631   3.182   0.431 -0.2190  0.0178 -0.2112
 9079SOL    HW138873   1.619   3.166   0.338 -1.2298  1.9365 -0.4058
 9079SOL    HW238874   1.609   3.274   0.424  1.4983  0.1150 -4.3644
 9080SOL     OW38875   1.510   2.163   4.568 -0.0382  0.8261  0.3586
 9080SOL    HW138876   1.464   2.211   4.500  1.4050  1.6975 -0.0035
 9080SOL    HW238877   1.436   2.112   4.603  1.2041 -0.9208  0.4332
 9081SOL     OW38878   2.506   4.383  17.618 -0.0601 -0.3903 -0.7780
 9081SOL    HW138879   2.510   4.419  17.707 -2.6332 -1.4747 -0.2215
 9081SOL    HW238880   2.418   4.345  17.612 -1.1371  1.7790  1.2191
 9082SOL     OW38881   2.307   1.216   5.279 -0.5003  0.0006 -0.5036
 9082SOL    HW138882   2.373   1.195   5.214  0.5879  1.2167  0.2046
 9082SOL    HW238883   2.296   1.134   5.328  0.2129 -0.9124 -1.8978
 9083SOL     OW38884   4.315   3.009   1.825 -0.0349 -0.3628 -0.2217
 9083SOL    HW138885   4.399   3.048   1.803 -0.3780  0.0169 -0.8489
 9083SOL    HW238886   4.332   2.923   1.863  0.6376  0.3754  1.1433
 9084SOL     OW38887   1.419   1.599   6.120 -0.2041 -0.0904 -0.2919
 9084SOL    HW138888   1.498   1.652   6.123  1.2811 -2.3209  0.6913
 9084SOL    HW238889   1.441   1.531   6.184  1.1918  0.2078 -0.4738
 9085SOL     OW38890   1.300   2.149  10.947  0.6031 -0.6472  0.1067
 9085SOL    HW138891   1.386   2.132  10.985  1.2733  1.9142 -0.3387
 9085SOL    HW238892   1.280   2.068  10.899 -1.5052  0.1010 -0.2654
 9086SOL     OW38893   0.742   2.233   6.741  0.0162 -0.2514  0.5639
 9086SOL    HW138894   0.685   2.309   6.739 -1.0766 -1.0619  0.9889
 9086SOL    HW238895   0.700   2.181   6.672  1.0411 -2.4987  1.6108
 9087SOL     OW38896   0.905   4.263   2.063  0.1079  0.1280 -0.5626
 9087SOL    HW138897   0.948   4.271   1.978 -2.9890  1.3052 -2.0088
 9087SOL    HW238898   0.877   4.172   2.054 -0.0553  0.0759  0.4432
 9088SOL     OW38899   1.274   0.215   6.373  0.4170  0.1403 -0.1174
 9088SOL    HW138900   1.285   0.120   6.380 -2.6830 -0.1417  0.6992
 9088SOL    HW238901   1.194   0.225   6.425  0.7211 -1.7155  0.7140
 9089SOL     OW38902   4.204   4.523   0.322  0.4285  0.3258  0.2164
 9089SOL    HW138903   4.184   4.533   0.229 -1.5533  4.9091  1.1437
 9089SOL    HW238904   4.269   4.453   0.325  2.0423  1.7344 -0.8354
 9090SOL     OW38905   3.794   1.643   5.737  0.5036  0.2083  0.3081
 9090SOL    HW138906   3.771   1.699   5.811  2.0988  0.1828  0.8142
 9090SOL    HW238907   3.745   1.563   5.759 -0.7756  0.5896 -1.1306
 9091SOL     OW38908   0.484   0.417   5.064  0.4820  0.8567  0.3067
 9091SOL    HW138909   0.463   0.340   5.116  0.2853  0.4556 -0.3740
 9091SOL    HW238910   0.437   0.489   5.105 -1.8788 -1.1429  1.0496
 9092SOL     OW38911   3.383   2.860   6.114  0.4113  0.6218  0.6433
 9092SOL    HW138912   3.453   2.851   6.049  1.4026  0.0663  1.7775
 9092SOL    HW238913   3.309   2.889   6.061 -0.7508 -1.4879  1.1068
 9093SOL     OW38914   0.031   2.472   1.141 -0.1438  0.3598 -0.2213
 9093SOL    HW138915   0.090   2.541   1.174  1.7804 -0.7850 -1.2246
 9093SOL    HW238916   4.690   2.522   1.124 -0.2542  0.0688 -0.5347
 9094SOL     OW38917   1.827   2.711  12.742  0.4376 -0.1367  0.1504
 9094SOL    HW138918   1.789   2.756  12.818 -1.6604 -2.3278  0.3886
 9094SOL    HW238919   1.914   2.751  12.746  0.0450  0.3631  4.2885
 9095SOL     OW38920   3.574   3.215   8.389 -0.3038  0.2560  0.4471
 9095SOL    HW138921   3.536   3.280   8.329  0.0510  1.4699  1.5232
 9095SOL    HW238922   3.585   3.138   8.334  0.0486  0.5946  0.0374
 9096SOL     OW38923   0.399   1.327  12.872  0.4995  0.5713  0.0741
 9096SOL    HW138924   0.439   1.403  12.830 -0.4686  1.8142  1.3933
 9096SOL    HW238925   0.375   1.359  12.959  2.0836  2.3990 -0.1565
 9097SOL     OW38926   3.625   2.805   9.745 -0.4003 -0.3524  0.1272
 9097SOL    HW138927   3.617   2.717   9.709  0.2115  0.1534 -1.2421
 9097SOL    HW238928   3.593   2.856   9.671  2.5843  1.4404  0.0775
 9098SOL     OW38929   4.053   1.109   3.831  0.8699  0.4169  0.3095
 9098SOL    HW138930   3.966   1.130   3.796  0.9425 -0.0222 -0.1264
 9098SOL    HW238931   4.124   1.140   3.773  1.8530  0.5294  1.5780
 9099SOL     OW38932   2.781   0.465   3.200  0.0660 -0.1740  0.0039
 9099SOL    HW138933   2.730   0.515   3.136  0.5638  1.1136  0.6082
 9099SOL    HW238934   2.723   0.454   3.275 -0.9348 -1.3792 -0.9436
 9100SOL     OW38935   4.528   2.853  11.566  0.2849 -0.1134 -0.1282
 9100SOL    HW138936   4.539   2.944  11.593 -1.0501  0.1430 -0.4243
 9100SOL    HW238937   4.610   2.807  11.586 -0.9245 -1.6958  1.2185
 9101SOL     OW38938   1.408   2.702  10.457  0.0106  0.4607 -0.2673
 9101SOL    HW138939   1.450   2.786  10.472 -0.2195  0.3109  1.1469
 9101SOL    HW238940   1.353   2.708  10.535 -0.4148 -1.5177 -0.4043
 9102SOL     OW38941   3.598   4.732  15.558  0.1634  0.3788  0.2299
 9102SOL    HW138942   3.530   0.059  15.545 -0.3568  0.1523  1.6969
 9102SOL    HW238943   3.663   0.040  15.506 -0.2590  1.8640  1.0197
 9103SOL     OW38944   2.911   2.097  10.451 -0.3844 -0.7177  0.2559
 9103SOL    HW138945   2.879   2.016  10.412  0.4933 -1.6072  1.3944
 9103SOL    HW238946   2.829   2.145  10.440 -0.4547 -0.6951  0.8706
 9104SOL     OW38947   1.568   3.869   3.914 -0.3432  0.3112  0.4210
 9104SOL    HW138948   1.648   3.823   3.887  0.5071  2.5040 -0.8008
 9104SOL    HW238949   1.566   3.942   3.852 -2.0248  0.0718  0.1936
 9105SOL     OW38950   4.066   0.276   4.455  0.5164  0.3184  0.0957
 9105SOL    HW138951   3.977   0.310   4.451 -0.0930 -1.1364  1.2409
 9105SOL    HW238952   4.103   0.306   4.373  0.3800  2.5139  0.8454
 9106SOL     OW38953   2.927   3.916   2.932 -0.5673 -0.1531  0.2067
 9106SOL    HW138954   2.908   3.957   3.016 -0.0019 -1.5002  0.9865
 9106SOL    HW238955   2.872   3.837   2.934  0.4868 -0.9318 -1.8190
 9107SOL     OW38956   3.643   4.190  16.681  0.4310 -0.2261 -0.3175
 9107SOL    HW138957   3.668   4.268  16.731  0.4737  0.6355 -1.6693
 9107SOL    HW238958   3.722   4.183  16.627  0.8932 -3.0592  0.7566
 9108SOL     OW38959   4.129   4.500   7.011  0.0950 -0.3504 -0.1942
 9108SOL    HW138960   4.081   4.442   6.952  1.7495  1.0284 -2.9127
 9108SOL    HW238961   4.073   4.511   7.088  0.9353 -1.4032  0.5785
 9109SOL     OW38962   1.921   1.896   1.881  0.1750  0.0416  0.5926
 9109SOL    HW138963   1.958   1.909   1.794 -2.2270  2.2959 -0.0818
 9109SOL    HW238964   1.857   1.967   1.876 -0.8444 -0.8878  0.4604
 9110SOL     OW38965   0.298   2.431   3.487  0.2425 -0.2831 -0.3542
 9110SOL    HW138966   0.373   2.491   3.483  0.3687 -0.4479 -0.4689
 9110SOL    HW238967   0.254   2.456   3.406  0.4497 -0.2245 -0.4486
 9111SOL     OW38968   3.645   4.653  11.276  0.9321  0.4014  0.3022
 9111SOL    HW138969   3.638   4.641  11.181 -1.7695  0.5727  0.4637
 9111SOL    HW238970   3.687   4.569  11.295  0.9085  0.6711  1.5101
 9112SOL     OW38971   2.312   1.990   5.127 -0.8347  0.0328  0.1997
 9112SOL    HW138972   2.320   2.082   5.154 -2.2850  1.0246 -2.6560
 9112SOL    HW238973   2.229   1.961   5.165 -0.1158 -0.0104  1.7208
 9113SOL     OW38974   0.771   4.677  11.481  0.4762 -0.0586  0.1136
 9113SOL    HW138975   0.730   4.655  11.398  2.0885 -0.2433 -0.6316
 9113SOL    HW238976   0.702   0.003  11.498 -0.6488 -0.9169 -1.1646
 9114SOL     OW38977   3.647   2.790   2.245  0.6074  0.3351  0.1806
 9114SOL    HW138978   3.570   2.819   2.195  1.2613  0.7308 -0.5993
 9114SOL    HW238979   3.674   2.873   2.286 -0.7108  1.3951 -1.0950
 9115SOL     OW38980   3.116   1.244  15.646 -0.0971  0.4254 -0.4135
 9115SOL    HW138981   3.145   1.169  15.594  0.1032  1.0482 -1.2168
 9115SOL    HW238982   3.036   1.272  15.602  0.0274 -0.0894 -0.9621
 9116SOL     OW38983   3.528   0.247   3.796 -0.5711 -0.4469  0.0334
 9116SOL    HW138984   3.532   0.233   3.890  3.4113  2.9236  0.3267
 9116SOL    HW238985   3.527   0.155   3.769  0.9634 -0.2220 -0.7952
 9117SOL     OW38986   3.373   0.800  12.625  0.0171  0.1671 -0.9341
 9117SOL    HW138987   3.306   0.759  12.679  1.0861 -0.0710  0.1916
 9117SOL    HW238988   3.458   0.791  12.667 -0.9812  0.3463  1.0925
 9118SOL     OW38989   0.223   0.370  16.230 -0.0530  0.3814  0.4253
 9118SOL    HW138990   0.222   0.360  16.134  1.6913 -0.4452  0.5068
 9118SOL    HW238991   0.175   0.453  16.236 -4.7607 -2.0867 -2.8065
 9119SOL     OW38992   1.104   1.821   9.919  0.2787 -0.3748 -0.4437
 9119SOL    HW138993   1.029   1.788   9.968 -0.0891 -0.4622 -1.0602
 9119SOL    HW238994   1.062   1.863   9.843 -1.8849 -2.0638 -0.1781
 9120SOL     OW38995   2.469   1.140   5.057  0.3688 -0.1534  1.0470
 9120SOL    HW138996   2.506   1.224   5.082  0.8288 -0.0290 -0.0716
 9120SOL    HW238997   2.485   1.140   4.963 -3.3618  0.2822  0.4114
 9121SOL     OW38998   4.676   2.160   9.667  0.4187 -0.2379 -0.2318
 9121SOL    HW138999   0.011   2.144   9.726  0.9724 -0.7470 -1.0517
 9121SOL    HW239000   4.721   2.143   9.584  2.4765 -0.6703  0.9713
 9122SOL     OW39001   0.806   3.647   0.375 -0.6073 -0.1991  0.2555
 9122SOL    HW139002   0.852   3.709   0.318 -2.6411 -0.7733 -1.9824
 9122SOL    HW239003   0.763   3.703   0.440  0.5107  0.8228  0.1287
 9123SOL     OW39004   1.004   0.489  11.965  0.0275 -0.7137 -0.3808
 9123SOL    HW139005   0.949   0.488  11.887 -0.1703  0.3137 -0.2546
 9123SOL    HW239006   1.067   0.556  11.936 -0.2910 -0.8513 -1.3825
 9124SOL     OW39007   0.033   0.949  15.296 -0.0299 -0.1586  0.3543
 9124SOL    HW139008   0.111   1.003  15.310 -1.2208  1.6892 -0.1302
 9124SOL    HW239009   0.069   0.874  15.248 -1.7042 -1.1847  0.7340
 9125SOL     OW39010   1.116   4.638   0.756 -0.2446  0.6328 -0.1806
 9125SOL    HW139011   1.104   4.733   0.751 -1.0987  0.5346  0.1554
 9125SOL    HW239012   1.209   4.638   0.779 -0.5048  0.1211  0.8302
 9126SOL     OW39013   0.608   2.470   7.964  0.0909  0.5479 -0.1116
 9126SOL    HW139014   0.657   2.409   7.908 -0.2930  0.1001  0.0406
 9126SOL    HW239015   0.654   2.546   7.928  2.2347 -0.2590  0.9360
 9127SOL     OW39016   0.054   0.165   4.485  0.1635 -0.0070  0.1802
 9127SOL    HW139017   0.124   0.138   4.425  0.8642  0.3022  0.8552
 9127SOL    HW239018   0.032   0.073   4.502 -2.0656  0.3881 -0.6183
 9128SOL     OW39019   4.635   3.168   0.473  0.0226  0.1646  0.0708
 9128SOL    HW139020   4.556   3.188   0.423 -2.3727 -0.0983  3.7060
 9128SOL    HW239021   4.638   3.074   0.454 -0.3271  0.2302 -0.3120
 9129SOL     OW39022   2.153   0.503   1.395 -0.7409 -0.1757 -0.5663
 9129SOL    HW139023   2.156   0.511   1.490  1.9286 -2.8060 -0.4384
 9129SOL    HW239024   2.065   0.469   1.379  0.3170 -3.3913  0.4105
 9130SOL     OW39025   2.381   4.715  11.839  0.2638 -0.0813 -0.3218
 9130SOL    HW139026   2.442   4.725  11.766 -0.8809 -2.7010 -1.6291
 9130SOL    HW239027   2.308   0.028  11.805 -0.0755  0.2183  0.8621
 9131SOL     OW39028   1.241   4.443   3.575 -0.2647  0.3145 -0.1137
 9131SOL    HW139029   1.175   4.435   3.645 -2.2346  1.5693 -1.8202
 9131SOL    HW239030   1.258   4.350   3.559 -0.3789  0.3321 -0.3426
 9132SOL     OW39031   4.242   4.393   5.025  0.2738 -0.4363 -0.5550
 9132SOL    HW139032   4.182   4.321   5.005 -0.6401 -0.1878  1.2526
 9132SOL    HW239033   4.194   4.474   5.010 -0.9264 -0.9818  0.3406
 9133SOL     OW39034   3.654   4.088   9.938 -0.1853 -0.2806  0.2464
 9133SOL    HW139035   3.666   4.038  10.019  0.8356  1.3164  1.0755
 9133SOL    HW239036   3.736   4.078   9.891 -0.2991  1.2990 -0.3123
 9134SOL     OW39037   1.810   1.123   4.459  0.0016  0.2163  0.0593
 9134SOL    HW139038   1.838   1.099   4.547 -0.4632  1.3726  0.5310
 9134SOL    HW239039   1.784   1.213   4.478  0.2640  0.4743 -0.8137
 9135SOL     OW39040   1.554   3.495   9.206 -0.2225  0.3914  0.3603
 9135SOL    HW139041   1.461   3.514   9.204  0.1427  2.5002  3.3886
 9135SOL    HW239042   1.546   3.400   9.215 -1.3706  0.8411  3.7938
 9136SOL     OW39043   3.192   2.881   4.891 -0.2973 -0.5499  0.6280
 9136SOL    HW139044   3.152   2.947   4.947 -1.0569  0.5490 -1.2310
 9136SOL    HW239045   3.152   2.894   4.805 -0.7050 -1.4552  0.6788
 9137SOL     OW39046   4.662   2.506   9.395  0.3201 -0.2315  0.2634
 9137SOL    HW139047   4.706   2.584   9.429 -1.2151  0.4388  0.7109
 9137SOL    HW239048   4.735   2.446   9.384 -0.5377 -1.0007 -1.2872
 9138SOL     OW39049   3.515   4.011   2.140 -0.5144 -0.5681 -0.1103
 9138SOL    HW139050   3.535   3.918   2.150 -2.4105 -1.0329 -0.6182
 9138SOL    HW239051   3.432   3.994   2.096 -1.7621  1.9382  1.3197
 9139SOL     OW39052   3.610   0.806   3.481  0.6465  0.5837 -0.0772
 9139SOL    HW139053   3.518   0.779   3.480  0.6867  0.4122  0.9889
 9139SOL    HW239054   3.606   0.896   3.448 -2.0447  1.0452  1.4958
 9140SOL     OW39055   2.668   0.178   2.592 -0.6184  0.0430 -0.3402
 9140SOL    HW139056   2.578   0.149   2.605 -1.3791  2.1442 -0.9375
 9140SOL    HW239057   2.715   0.096   2.576 -0.8648 -0.1778  0.0769
 9141SOL     OW39058   1.459   3.690   2.935  0.0994 -0.1646  0.1844
 9141SOL    HW139059   1.471   3.783   2.953  3.0131 -0.3184 -0.8878
 9141SOL    HW239060   1.383   3.686   2.877 -0.8804  0.1256  1.4459
 9142SOL     OW39061   2.966   3.817   4.967  0.4607  0.3497 -0.1342
 9142SOL    HW139062   2.954   3.911   4.959  2.4197  0.5197 -1.2569
 9142SOL    HW239063   2.989   3.802   4.876  0.7854 -0.5457  0.0917
 9143SOL     OW39064   1.150   3.992   0.931 -0.0658 -0.8825 -0.4882
 9143SOL    HW139065   1.246   4.001   0.935 -0.3426  0.6114  2.1441
 9143SOL    HW239066   1.122   4.067   0.879 -0.7078 -0.3313  0.6647
 9144SOL     OW39067   1.261   3.923   4.373  0.1606 -0.4986 -0.0811
 9144SOL    HW139068   1.294   4.008   4.345  2.8480 -1.7107 -0.6381
 9144SOL    HW239069   1.338   3.866   4.371  0.5208 -0.0585  1.2664
 9145SOL     OW39070   2.813   3.334   9.482 -0.5503 -1.3655 -0.1316
 9145SOL    HW139071   2.796   3.404   9.546  0.0701  0.6379 -2.1693
 9145SOL    HW239072   2.803   3.381   9.399 -1.7325  0.4038  1.0131
 9146SOL     OW39073   0.228   1.633   4.668  0.0902  0.0752  0.5243
 9146SOL    HW139074   0.193   1.711   4.712  1.0758  1.0040 -0.3384
 9146SOL    HW239075   0.278   1.672   4.597  0.5862 -1.6458 -0.0615
 9147SOL     OW39076   1.153   1.455  16.232 -0.0603  0.7642  0.3297
 9147SOL    HW139077   1.091   1.417  16.293 -0.8779 -1.2373 -1.7516
 9147SOL    HW239078   1.191   1.524  16.287 -2.5650  0.9280  1.8173
 9148SOL     OW39079   0.823   3.692   3.531 -0.0707  0.1593  0.1050
 9148SOL    HW139080   0.821   3.647   3.447 -0.4534  3.0864 -1.4612
 9148SOL    HW239081   0.907   3.739   3.530 -0.7713  1.5795  4.6457
 9149SOL     OW39082   2.378   2.280   7.249  0.0582 -0.6933  0.6336
 9149SOL    HW139083   2.471   2.274   7.270 -0.5658 -2.9681  2.6144
 9149SOL    HW239084   2.354   2.192   7.220  0.6156 -0.0778 -1.6943
 9150SOL     OW39085   4.332   4.103   0.957  0.1960  0.1592  0.0376
 9150SOL    HW139086   4.304   4.194   0.950 -0.5504 -0.2262 -2.0544
 9150SOL    HW239087   4.268   4.066   0.896  2.0158  0.2722 -1.9475
 9151SOL     OW39088   0.621   1.799   6.693  0.3776  0.3588 -0.0425
 9151SOL    HW139089   0.583   1.881   6.662  0.2504  0.4075  0.2347
 9151SOL    HW239090   0.685   1.838   6.753 -0.0683  3.2437 -1.4328
 9152SOL     OW39091   3.086   1.078   5.473 -0.1869  0.0399  0.4080
 9152SOL    HW139092   3.055   1.037   5.392  0.0468 -1.7831  1.2583
 9152SOL    HW239093   3.018   1.140   5.498 -1.3594 -2.2390  2.7540
 9153SOL     OW39094   0.766   2.622   6.831  0.0695 -0.1967 -0.0436
 9153SOL    HW139095   0.758   2.560   6.759  2.3535  0.0810 -0.5209
 9153SOL    HW239096   0.677   2.659   6.828  0.1360 -0.1272 -1.0503
 9154SOL     OW39097   0.241   2.411   5.891 -0.5659  0.1484 -0.3137
 9154SOL    HW139098   0.239   2.419   5.986  0.7038  1.5637 -0.4066
 9154SOL    HW239099   0.331   2.386   5.870  0.1964  2.4003  0.2319
 9155SOL     OW39100   2.496   3.792   9.678 -0.6305  0.2402  0.2487
 9155SOL    HW139101   2.536   3.809   9.763 -1.5796 -2.5380  1.2684
 9155SOL    HW239102   2.440   3.868   9.661 -0.4227  0.4227  0.3809
 9156SOL     OW39103   3.994   0.550   4.587  0.7706 -0.0766 -0.5668
 9156SOL    HW139104   4.031   0.602   4.658 -0.2603 -1.2399  0.8407
 9156SOL    HW239105   4.042   0.468   4.602 -1.0856 -1.2895 -1.2046
 9157SOL     OW39106   2.862   4.269   0.485  0.5037 -0.0732  0.5273
 9157SOL    HW139107   2.925   4.322   0.435 -0.7221 -0.3650 -1.3254
 9157SOL    HW239108   2.919   4.257   0.561 -0.0753  0.5522  1.0602
 9158SOL     OW39109   0.039   1.110  12.202 -0.4991  0.3892  0.0872
 9158SOL    HW139110   4.689   1.082  12.180 -0.1311 -0.2517 -0.5792
 9158SOL    HW239111   0.081   1.024  12.200 -2.8584 -0.7211 -1.5295
 9159SOL     OW39112   4.543   2.329   2.101  0.1043 -0.1289  0.2614
 9159SOL    HW139113   4.449   2.315   2.110 -0.1015  0.7262 -0.5241
 9159SOL    HW239114   4.547   2.409   2.154  1.1474  1.5579 -2.3476
 9160SOL     OW39115   1.692   1.477   5.830  0.1979  0.6467  0.3016
 9160SOL    HW139116   1.623   1.544   5.836 -0.1300  0.2366  1.1497
 9160SOL    HW239117   1.648   1.393   5.841 -1.6125  1.6360  0.6435
 9161SOL     OW39118   1.258   0.954  11.212  1.0309  0.3026  0.5549
 9161SOL    HW139119   1.300   0.971  11.128  0.6129  2.0619  0.7035
 9161SOL    HW239120   1.273   0.860  11.219  1.6611  0.3448 -0.2025
 9162SOL     OW39121   2.890   1.515   8.095 -0.0091 -0.5452 -0.3740
 9162SOL    HW139122   2.961   1.473   8.144  1.1546  2.1826  0.2813
 9162SOL    HW239123   2.835   1.443   8.063  2.1424 -1.6852 -1.5770
 9163SOL     OW39124   1.358   2.201   7.041  0.3912 -0.2690  0.1186
 9163SOL    HW139125   1.361   2.228   6.949 -0.8936  2.5808  0.9250
 9163SOL    HW239126   1.402   2.277   7.079 -0.4639 -0.4237  1.4022
 9164SOL     OW39127   4.723   0.724   0.298  0.1708 -0.1883  0.3339
 9164SOL    HW139128   4.725   0.809   0.342  3.9871 -0.9141  1.5629
 9164SOL    HW239129   0.078   0.720   0.279  0.5266  2.3161  1.5489
 9165SOL     OW39130   3.612   2.510   1.810  0.4891  0.0452 -0.0435
 9165SOL    HW139131   3.606   2.494   1.905  0.7149  1.8767  0.2750
 9165SOL    HW239132   3.592   2.603   1.816  0.6998  0.1325 -0.7820
 9166SOL     OW39133   0.350   1.255  16.610 -0.2074  0.2230  0.1342
 9166SOL    HW139134   0.266   1.293  16.585 -0.4882 -2.1917 -2.5687
 9166SOL    HW239135   0.376   1.303  16.689 -0.3363 -0.8436  0.8309
 9167SOL     OW39136   4.300   2.091  16.127  0.8016 -0.1464 -0.3581
 9167SOL    HW139137   4.228   2.153  16.139  0.6716 -0.5298  0.9034
 9167SOL    HW239138   4.264   2.029  16.191 -0.4825 -0.8922 -1.8222
 9168SOL     OW39139   0.864   1.038  11.427  0.0821  0.2889  0.0445
 9168SOL    HW139140   0.951   1.014  11.396  0.0128  1.1245 -0.8084
 9168SOL    HW239141   0.805   0.972  11.392  0.1714 -0.1226  0.6710
 9169SOL     OW39142   0.616   1.182   4.968  0.0220 -0.5694 -0.1010
 9169SOL    HW139143   0.593   1.177   4.875  0.9013  0.8569 -0.3916
 9169SOL    HW239144   0.634   1.276   4.975 -1.6344 -0.3574  1.2820
 9170SOL     OW39145   1.834   1.778  10.968 -0.0509 -0.9037  0.0189
 9170SOL    HW139146   1.798   1.789  11.055  1.8944  2.1268  0.4680
 9170SOL    HW239147   1.825   1.869  10.941 -1.7365 -1.2613 -0.6089
 9171SOL     OW39148   3.061   0.727   3.716  0.5194  0.2683 -0.2615
 9171SOL    HW139149   3.001   0.802   3.714 -0.5854 -0.6386 -0.5550
 9171SOL    HW239150   3.147   0.767   3.702  0.1143  1.4221  0.4825
 9172SOL     OW39151   0.024   4.383   9.726 -0.1786  0.6736  0.0215
 9172SOL    HW139152   0.072   4.307   9.759 -1.2190 -0.2364 -0.5484
 9172SOL    HW239153   0.100   4.440   9.717  1.2148 -1.4818 -1.8049
 9173SOL     OW39154   0.737   2.328  10.534 -0.0035  0.1571  0.0372
 9173SOL    HW139155   0.788   2.392  10.485 -0.5566 -0.5146 -1.4000
 9173SOL    HW239156   0.801   2.258  10.528  0.1291  0.3807 -1.0897
 9174SOL     OW39157   2.247   1.974   7.186 -0.4431 -0.5544  0.2700
 9174SOL    HW139158   2.261   2.031   7.111 -0.3676 -2.8128 -1.4118
 9174SOL    HW239159   2.174   1.920   7.156  0.5036 -1.3889 -0.5423
 9175SOL     OW39160   4.040   4.283   3.008  0.2085 -0.1341  0.2146
 9175SOL    HW139161   4.002   4.234   2.936  1.2327 -0.5301 -0.0530
 9175SOL    HW239162   4.130   4.294   2.978  0.1547 -0.5155 -0.0953
 9176SOL     OW39163   0.268   2.128   6.253 -0.2210  0.2937  0.0014
 9176SOL    HW139164   0.358   2.150   6.228  0.1391  0.4000  1.3769
 9176SOL    HW239165   0.280   2.034   6.264  3.2805  0.3291 -3.4775
 9177SOL     OW39166   3.375   2.479   7.927  0.3209 -0.2230  0.8077
 9177SOL    HW139167   3.414   2.567   7.927 -1.1053  0.4224 -1.7407
 9177SOL    HW239168   3.289   2.499   7.889  0.5419 -1.7603 -0.4927
 9178SOL     OW39169   0.337   1.813   2.163 -0.2458  1.0845  0.3807
 9178SOL    HW139170   0.250   1.837   2.195 -0.3531  0.9725  0.1715
 9178SOL    HW239171   0.325   1.845   2.073  0.1279 -1.5405 -0.6018
 9179SOL     OW39172   4.616   2.776  17.701 -0.3827  0.4354 -0.2037
 9179SOL    HW139173   4.576   2.731  17.626 -0.4307  1.2565 -0.6611
 9179SOL    HW239174   4.695   2.819  17.667 -0.0417 -0.4059 -0.4949
 9180SOL     OW39175   1.399   2.777  13.447 -0.5150  0.1904 -0.0768
 9180SOL    HW139176   1.426   2.712  13.381 -1.6705 -0.3994  0.0304
 9180SOL    HW239177   1.306   2.755  13.448 -0.5686  0.3868 -0.7871
 9181SOL     OW39178   4.362   0.676   2.451 -0.5266  0.2302  0.0271
 9181SOL    HW139179   4.408   0.639   2.526 -0.5216  1.2050  0.5036
 9181SOL    HW239180   4.433   0.703   2.392  0.2415 -0.1821  0.7730
 9182SOL     OW39181   1.377   4.654   6.405 -0.5158  0.0114 -0.1167
 9182SOL    HW139182   1.320   4.599   6.351  0.4004 -0.0388 -1.0376
 9182SOL    HW239183   1.316   4.700   6.461 -2.7237  0.9740 -3.3134
 9183SOL     OW39184   2.104   3.851   4.975 -0.4028  0.5806  0.3437
 9183SOL    HW139185   2.045   3.831   5.048 -1.6007 -0.3053 -0.8884
 9183SOL    HW239186   2.052   3.827   4.899  1.7331 -0.3637 -0.7988
 9184SOL     OW39187   1.792   2.906   6.569 -0.5045 -0.3879  0.2647
 9184SOL    HW139188   1.720   2.927   6.509  0.1962 -0.5604 -0.6296
 9184SOL    HW239189   1.743   2.896   6.651  0.0155  1.5207  0.7878
 9185SOL     OW39190   1.110   1.390   7.628 -0.0538 -1.1203  0.2481
 9185SOL    HW139191   1.023   1.398   7.667 -0.4983  0.1957 -1.0211
 9185SOL    HW239192   1.081   1.356   7.543 -0.5366  0.6524 -0.2979
 9186SOL     OW39193   4.472   0.389   3.211  0.6945 -0.6278  0.8066
 9186SOL    HW139194   4.386   0.393   3.254  0.4111 -2.3151  0.4129
 9186SOL    HW239195   4.522   0.389   3.293  0.1217  0.7735  1.1489
 9187SOL     OW39196   3.589   4.721   5.905  0.2087 -0.2184  0.2867
 9187SOL    HW139197   3.630   0.033   5.834 -2.2269  0.5206 -0.5948
 9187SOL    HW239198   3.641   0.008   5.981  0.2160 -0.6982  0.4428
 9188SOL     OW39199   3.045   3.517   9.571  0.1955  0.4437 -0.0253
 9188SOL    HW139200   2.999   3.556   9.646 -0.0644 -1.6711  0.9210
 9188SOL    HW239201   3.085   3.435   9.600 -2.1493 -0.4610  0.6244
 9189SOL     OW39202   0.526   2.192   8.821  0.5736  0.0475  0.1248
 9189SOL    HW139203   0.536   2.106   8.861 -0.4226 -0.3274 -0.4245
 9189SOL    HW239204   0.618   2.211   8.801  0.0422  0.0339 -2.4184
 9190SOL     OW39205   1.496   0.807   6.294 -0.2540 -0.4209  0.2091
 9190SOL    HW139206   1.529   0.759   6.370  2.4036  1.8637  0.4810
 9190SOL    HW239207   1.437   0.870   6.335  0.3850 -0.9107  1.8803
 9191SOL     OW39208   0.994   1.784  17.127  0.6003  0.2377 -0.3452
 9191SOL    HW139209   0.901   1.799  17.140  0.6525  0.9076 -0.7462
 9191SOL    HW239210   1.021   1.868  17.091 -0.8875 -0.8542 -4.0064
 9192SOL     OW39211   4.412   0.072   9.897 -0.2447  0.3195  0.4547
 9192SOL    HW139212   4.390   0.156   9.938 -1.1488  0.5432 -0.5020
 9192SOL    HW239213   4.445   0.016   9.968  3.2521  0.3072 -1.1784
 9193SOL     OW39214   1.225   4.597   6.015  0.2981 -0.7095 -0.2015
 9193SOL    HW139215   1.288   4.667   6.031  0.7295 -0.7288 -1.8477
 9193SOL    HW239216   1.245   4.568   5.926 -0.5435  2.3814 -1.3857
 9194SOL     OW39217   2.435   2.417   8.759 -0.4151  0.0626 -0.2755
 9194SOL    HW139218   2.512   2.466   8.787 -0.3349  1.7295 -3.3543
 9194SOL    HW239219   2.397   2.479   8.696  1.8726  2.8642  1.1175
 9195SOL     OW39220   2.031   3.109   2.584 -0.2201 -0.4676 -0.3429
 9195SOL    HW139221   1.952   3.093   2.533 -0.0165  1.0743 -1.1067
 9195SOL    HW239222   2.093   3.048   2.543  0.0543 -0.6731  0.3643
 9196SOL     OW39223   1.061   3.047   7.228 -0.4765 -0.3330  0.1799
 9196SOL    HW139224   1.043   2.954   7.238  0.9226 -0.6491 -0.2883
 9196SOL    HW239225   0.994   3.070   7.164  0.7350  0.0770 -0.9252
 9197SOL     OW39226   4.667   3.347   9.540 -0.1705  0.4706  0.0408
 9197SOL    HW139227   4.649   3.378   9.629  0.5906  0.4392  0.2061
 9197SOL    HW239228   4.693   3.428   9.496 -0.1038 -0.5218 -1.7369
 9198SOL     OW39229   2.346   4.318   7.344  0.0204 -0.0296 -0.6309
 9198SOL    HW139230   2.270   4.261   7.357 -1.0778  1.1837 -1.5845
 9198SOL    HW239231   2.297   4.391   7.305 -0.8102  0.3791  1.1897
 9199SOL     OW39232   3.093   3.701   5.961 -0.3418 -0.0640 -0.3379
 9199SOL    HW139233   3.160   3.668   5.902  0.7950  3.1559 -0.8273
 9199SOL    HW239234   3.013   3.708   5.910 -0.1957 -0.5197 -0.6328
 9200SOL     OW39235   2.423   2.298  11.914 -0.4926  0.3380 -0.3627
 9200SOL    HW139236   2.397   2.239  11.843 -1.0736  1.9745 -1.5154
 9200SOL    HW239237   2.354   2.272  11.975  0.4683  1.7385  1.3376
 9201SOL     OW39238   4.617   0.476   0.379 -0.3565  0.0339 -0.0122
 9201SOL    HW139239   4.655   0.563   0.369 -0.1913 -0.2571 -1.8147
 9201SOL    HW239240   4.524   0.499   0.377 -0.4051 -0.1415  0.1569
 9202SOL     OW39241   3.919   1.988   9.425  0.2637 -0.4503  0.0034
 9202SOL    HW139242   3.960   2.061   9.472 -0.0299 -0.7326  0.6928
 9202SOL    HW239243   3.873   2.036   9.357  0.4260 -1.9384 -1.1548
 9203SOL     OW39244   2.131   3.706  15.087 -0.1373  0.2205  0.2175
 9203SOL    HW139245   2.082   3.765  15.028  0.3016  1.7168  1.3377
 9203SOL    HW239246   2.068   3.634  15.089 -0.8608  0.8626  0.9514
 9204SOL     OW39247   1.239   2.959   1.936 -0.6766  0.3785 -0.2729
 9204SOL    HW139248   1.299   3.012   1.989 -1.4547 -0.1998  1.1766
 9204SOL    HW239249   1.194   2.915   2.008 -0.3439  2.6037  1.2972
 9205SOL     OW39250   0.235   3.846   1.255  0.2625  0.2244  0.1618
 9205SOL    HW139251   0.140   3.855   1.248  0.1365  0.1587  1.9055
 9205SOL    HW239252   0.266   3.868   1.342 -2.5044  1.4348  0.8453
 9206SOL     OW39253   0.490   2.302   5.830  0.4774  0.4273  0.0079
 9206SOL    HW139254   0.576   2.267   5.854  0.9066  0.5185 -1.3940
 9206SOL    HW239255   0.505   2.328   5.739 -0.3490 -1.3922 -0.6274
 9207SOL     OW39256   4.276   1.039   0.733  0.3194  0.8693 -0.0652
 9207SOL    HW139257   4.201   1.063   0.679 -0.1397 -0.1185  0.1245
 9207SOL    HW239258   4.342   1.106   0.716  0.4587  0.6033 -0.5849
 9208SOL     OW39259   3.238   3.264   8.410 -0.0144 -0.6573 -0.2696
 9208SOL    HW139260   3.257   3.349   8.371 -1.2908 -1.3025 -2.3343
 9208SOL    HW239261   3.234   3.297   8.499  1.8516 -0.6838 -0.1821
 9209SOL     OW39262   1.028   0.190   1.114  0.2310  0.1198 -0.5314
 9209SOL    HW139263   1.109   0.228   1.147 -0.1575  0.5041 -0.0375
 9209SOL    HW239264   0.975   0.260   1.075 -0.3680 -0.1163 -0.1406
 9210SOL     OW39265   4.633   3.991   3.223 -0.9499 -0.4051 -0.3441
 9210SOL    HW139266   4.670   4.044   3.293  1.6354 -3.1863  0.3594
 9210SOL    HW239267   4.705   3.934   3.198 -0.3736  1.4423 -2.8867
 9211SOL     OW39268   0.310   4.093   8.319 -0.6775  0.4022 -0.1896
 9211SOL    HW139269   0.298   4.017   8.263 -1.6611 -0.8898  1.7873
 9211SOL    HW239270   0.287   4.061   8.406 -0.6301  0.3890 -0.1821
 9212SOL     OW39271   3.954   0.590   5.531  0.4306 -0.1369 -0.1109
 9212SOL    HW139272   4.022   0.647   5.566  1.5362 -1.6353  0.1750
 9212SOL    HW239273   3.961   0.623   5.442  1.4630 -0.1186 -0.0267
 9213SOL     OW39274   4.184   0.739   4.746 -0.4263 -0.0128 -0.1667
 9213SOL    HW139275   4.206   0.684   4.821 -0.5748  1.8275  1.2250
 9213SOL    HW239276   4.266   0.788   4.743 -0.5301  0.2605  1.4426
 9214SOL     OW39277   0.683   1.345   5.267 -0.4782  0.3235  0.2169
 9214SOL    HW139278   0.670   1.420   5.324 -0.8294  0.4172  0.0128
 9214SOL    HW239279   0.699   1.383   5.181 -0.5174  0.6970  0.3749
 9215SOL     OW39280   0.034   3.756   9.644 -0.1102  0.3800  0.1185
 9215SOL    HW139281   0.028   3.791   9.555 -2.3923 -1.3550 -0.4135
 9215SOL    HW239282   0.076   3.670   9.642 -0.5110  0.2150 -2.1746
 9216SOL     OW39283   1.062   1.602   6.401 -0.7380 -0.6160 -0.1124
 9216SOL    HW139284   1.051   1.509   6.380  1.6812 -0.9907  0.2417
 9216SOL    HW239285   1.042   1.599   6.495  1.7036 -0.6890  0.3999
 9217SOL     OW39286   3.070   0.895  14.386 -0.5877 -0.3724 -0.2925
 9217SOL    HW139287   3.057   0.810  14.343 -0.0201 -0.1923 -0.8172
 9217SOL    HW239288   3.046   0.957  14.318  1.5057 -0.5452 -1.1897
 9218SOL     OW39289   2.170   3.595   6.656  0.1076 -0.4605  0.2352
 9218SOL    HW139290   2.265   3.582   6.662  0.0835 -0.3136  0.9670
 9218SOL    HW239291   2.138   3.550   6.734 -0.3903  0.2194  0.4262
 9219SOL     OW39292   1.677   4.673  11.048 -0.3756  0.7576  0.4654
 9219SOL    HW139293   1.617   4.710  11.113 -3.2352 -0.5895 -1.3961
 9219SOL    HW239294   1.746   0.001  11.042  3.1649 -2.7772  1.8475
 9220SOL     OW39295   3.185   3.896   0.680  0.2571 -0.6302  0.2755
 9220SOL    HW139296   3.223   3.964   0.735 -0.9122 -0.2863  0.6583
 9220SOL    HW239297   3.218   3.926   0.596 -0.7460 -0.2854 -0.0017
 9221SOL     OW39298   0.308   3.133  12.206 -0.2173  0.1386 -0.0339
 9221SOL    HW139299   0.385   3.136  12.148  0.3993  0.9321  0.8312
 9221SOL    HW239300   0.291   3.042  12.229 -1.9670  0.2173 -1.0246
 9222SOL     OW39301   0.381   0.894   4.613  0.6478 -0.1215 -0.8490
 9222SOL    HW139302   0.431   0.817   4.638  0.7500  0.3137  0.2700
 9222SOL    HW239303   0.446   0.961   4.637 -0.3130  0.8790 -1.0165
 9223SOL     OW39304   0.013   3.469   5.586 -0.0481  0.2791 -0.6268
 9223SOL    HW139305   0.034   3.523   5.509  0.1666  2.0684  0.6792
 9223SOL    HW239306   0.028   3.533   5.655 -0.3218 -0.3599  0.0188
 9224SOL     OW39307   0.010   4.176  14.959 -0.3006 -0.6692 -0.4007
 9224SOL    HW139308   0.091   4.215  14.992  1.2331 -3.6758 -0.6335
 9224SOL    HW239309   0.020   4.084  14.982  0.8361 -0.5293 -0.3497
 9225SOL     OW39310   1.804   0.721   6.564  0.5637  0.2339  0.0395
 9225SOL    HW139311   1.854   0.751   6.641  2.2652  3.4477 -2.3485
 9225SOL    HW239312   1.824   0.797   6.510 -1.0889  1.2004  0.7851
 9226SOL     OW39313   2.911   3.497   2.728  0.3780 -0.4225 -0.1292
 9226SOL    HW139314   3.004   3.504   2.748 -0.0202  0.0448  1.5180
 9226SOL    HW239315   2.867   3.577   2.755 -0.7593 -0.2805 -2.4288
 9227SOL     OW39316   3.301   2.014   5.224 -0.0871 -0.5805  0.4390
 9227SOL    HW139317   3.394   2.035   5.238  0.0780  0.3364 -2.1102
 9227SOL    HW239318   3.314   1.919   5.221  3.2443 -0.0553 -1.4756
 9228SOL     OW39319   1.539   2.566   4.373  0.0694  0.2461 -0.3125
 9228SOL    HW139320   1.543   2.656   4.341  1.1660  0.5338  0.6429
 9228SOL    HW239321   1.562   2.585   4.464 -1.1421 -0.9866  0.2626
 9229SOL     OW39322   4.534   2.989   4.239  0.0846 -0.0963  0.0399
 9229SOL    HW139323   4.470   2.922   4.215  0.9864 -0.2715 -1.8454
 9229SOL    HW239324   4.518   3.012   4.330 -0.1083 -0.1010  0.0086
 9230SOL     OW39325   1.831   0.032  14.267  0.1285  0.0140  0.2499
 9230SOL    HW139326   1.900   0.069  14.212 -0.8825 -0.1158 -1.0903
 9230SOL    HW239327   1.758   0.069  14.218 -1.0196 -0.2053  1.7892
 9231SOL     OW39328   3.514   1.093   4.193 -0.1550  0.4674  0.2290
 9231SOL    HW139329   3.504   1.046   4.276 -0.1940 -1.6653 -1.0087
 9231SOL    HW239330   3.431   1.070   4.150 -0.4670  0.4228  0.8514
 9232SOL     OW39331   2.064   4.689   3.239 -0.2412  0.3291  0.0198
 9232SOL    HW139332   2.069   4.651   3.151  2.6253 -0.1995  0.4090
 9232SOL    HW239333   2.004   0.019   3.209 -0.1510  0.6468  0.5621
 9233SOL     OW39334   3.761   1.316   2.207 -0.4780 -0.2138 -0.0345
 9233SOL    HW139335   3.841   1.367   2.208 -1.0156  0.6616 -1.8569
 9233SOL    HW239336   3.785   1.248   2.270 -2.6833 -1.1574 -0.2169
 9234SOL     OW39337   1.941   3.125   2.220 -0.0601  0.1923 -0.9838
 9234SOL    HW139338   1.879   3.077   2.276  1.3044  0.6336  0.9079
 9234SOL    HW239339   1.939   3.210   2.263  2.5382 -1.1387  1.7614
 9235SOL     OW39340   0.112   4.081   5.520  0.0940 -0.0220  0.2861
 9235SOL    HW139341   0.044   4.144   5.498  0.6403 -0.1474 -1.7744
 9235SOL    HW239342   0.073   3.995   5.507 -0.8669  0.5071 -0.2707
 9236SOL     OW39343   3.118   2.626   6.130 -0.2336  0.4579  0.5880
 9236SOL    HW139344   3.139   2.598   6.040 -1.5610 -0.7842  0.6542
 9236SOL    HW239345   3.171   2.702   6.149  0.9410 -0.6620  1.7589
 9237SOL     OW39346   0.722   1.774   7.783  0.2677 -0.2260  0.4102
 9237SOL    HW139347   0.735   1.790   7.690  2.4408 -1.0011  0.5743
 9237SOL    HW239348   0.772   1.692   7.785  1.2552  0.4019  0.9654
 9238SOL     OW39349   1.801   2.837   9.621  0.3842  0.4687 -0.3658
 9238SOL    HW139350   1.735   2.819   9.689  2.1257 -0.6897  1.0404
 9238SOL    HW239351   1.764   2.918   9.587  3.1915  1.9807  0.2332
 9239SOL     OW39352   1.997   2.787   4.940 -0.1969  0.1683  0.0718
 9239SOL    HW139353   1.963   2.803   5.028 -1.3952 -2.4293  0.0760
 9239SOL    HW239354   2.093   2.778   4.945 -0.2291 -0.2924 -0.1417
 9240SOL     OW39355   4.592   2.177  15.315 -0.1310  0.0885  0.4138
 9240SOL    HW139356   4.502   2.209  15.313  0.6290  2.1057 -1.5256
 9240SOL    HW239357   4.608   2.148  15.225  0.7397  0.0963  0.5640
 9241SOL     OW39358   1.376   2.474   8.165  0.7857 -0.0586 -0.4202
 9241SOL    HW139359   1.316   2.420   8.114 -0.1873  1.4326 -0.8516
 9241SOL    HW239360   1.385   2.441   8.254  2.4635  0.7258 -0.2939
 9242SOL     OW39361   1.236   1.014  15.051  0.1445 -0.6109  0.6047
 9242SOL    HW139362   1.274   1.100  15.067  1.6929 -0.8871 -1.6309
 9242SOL    HW239363   1.143   1.027  15.071 -0.1073 -1.3551 -0.0916
 9243SOL     OW39364   0.892   1.029   5.954 -0.2694  0.4449 -0.9013
 9243SOL    HW139365   0.856   1.000   6.038  2.3844 -2.3274 -0.7311
 9243SOL    HW239366   0.882   1.122   5.974  1.2088  1.0521 -2.9946
 9244SOL     OW39367   4.062   4.723   8.000 -0.0401 -0.3534  0.4169
 9244SOL    HW139368   3.977   0.014   7.968  0.4673 -1.6820 -2.1618
 9244SOL    HW239369   4.079   4.668   7.923 -0.1297 -0.3097  0.3660
 9245SOL     OW39370   1.911   0.221   7.746 -0.7392  0.5546 -0.4713
 9245SOL    HW139371   1.937   0.269   7.825  0.7629 -0.9441 -0.0611
 9245SOL    HW239372   1.920   0.140   7.795  2.4983  0.8822 -0.5445
 9246SOL     OW39373   1.627   0.070   0.402 -0.1971  0.0746 -0.0982
 9246SOL    HW139374   1.547   0.054   0.351  1.6836 -1.5078 -2.5277
 9246SOL    HW239375   1.628   0.166   0.401  2.2580  0.0288 -0.7257
 9247SOL     OW39376   3.912   2.877   8.746 -0.9143  0.6328 -0.6853
 9247SOL    HW139377   3.870   2.959   8.722 -2.1031  0.2734  0.2051
 9247SOL    HW239378   3.934   2.838   8.661  1.7827 -2.8199  1.6118
 9248SOL     OW39379   0.475   3.122   1.902 -0.1066 -0.3311 -0.0477
 9248SOL    HW139380   0.437   3.205   1.930  0.0529  0.1283 -1.1766
 9248SOL    HW239381   0.461   3.118   1.807  0.0853  1.2761 -0.1513
 9249SOL     OW39382   3.337   2.094   2.624  0.6723 -0.4771  0.7833
 9249SOL    HW139383   3.365   2.164   2.565 -2.4884  1.0687  1.1354
 9249SOL    HW239384   3.265   2.052   2.578 -0.1742  1.2604  0.5320
 9250SOL     OW39385   2.878   3.783  13.542  0.0212 -0.1861  0.2057
 9250SOL    HW139386   2.835   3.819  13.464  3.4969  0.6920 -1.2997
 9250SOL    HW239387   2.920   3.866  13.568  0.2186  0.4484 -2.1646
 9251SOL     OW39388   0.296   3.996   6.220  0.4285  0.4589 -0.1171
 9251SOL    HW139389   0.352   3.932   6.264  1.6330  0.0027 -2.3468
 9251SOL    HW239390   0.219   3.950   6.187  0.7120  1.0298 -1.5652
 9252SOL     OW39391   3.346   3.583   3.514 -0.2139 -0.1084  0.4508
 9252SOL    HW139392   3.441   3.595   3.509 -0.3523  0.5297 -0.7482
 9252SOL    HW239393   3.333   3.543   3.600  2.3220  0.7899  1.2601
 9253SOL     OW39394   0.670   0.519   7.071 -0.2848 -0.1054 -0.4237
 9253SOL    HW139395   0.620   0.553   7.145 -0.0071 -1.9571  0.6064
 9253SOL    HW239396   0.759   0.539   7.099 -1.0432  2.2675  0.3043
 9254SOL     OW39397   1.807   0.986   3.262  0.1300  0.0390 -0.0066
 9254SOL    HW139398   1.872   0.921   3.239  0.8481  0.4794  0.7806
 9254SOL    HW239399   1.740   0.938   3.311  0.9568  1.4912  2.5723
 9255SOL     OW39400   2.211   4.674   8.291 -1.1123 -0.5977  0.0682
 9255SOL    HW139401   2.190   4.585   8.319 -1.6550  0.1047  1.8739
 9255SOL    HW239402   2.299   4.687   8.327 -0.7049  1.0803 -1.5469
 9256SOL     OW39403   1.146   1.712   5.636 -0.5707 -0.1298 -0.2498
 9256SOL    HW139404   1.112   1.648   5.699  1.1618  0.3026  1.1102
 9256SOL    HW239405   1.219   1.741   5.691 -0.6052  0.6622 -0.6181
 9257SOL     OW39406   4.266   0.389   6.415  0.1973  0.3942 -0.1932
 9257SOL    HW139407   4.181   0.424   6.387 -0.1088  0.5758  0.9538
 9257SOL    HW239408   4.250   0.295   6.424  1.9123  0.0993 -0.3076
 9258SOL     OW39409   0.646   2.256   3.439 -0.0928  0.2153 -0.0223
 9258SOL    HW139410   0.671   2.174   3.399  3.2881  1.3186 -0.1239
 9258SOL    HW239411   0.703   2.320   3.398 -0.3650 -0.9374 -2.1777
 9259SOL     OW39412   4.085   2.577   6.349  0.2721  0.7142  0.4604
 9259SOL    HW139413   4.073   2.581   6.444 -1.5045 -2.5938  0.3953
 9259SOL    HW239414   4.067   2.666   6.321  0.6661  0.7010  0.1646
 9260SOL     OW39415   4.717   3.220   4.366 -0.3110  0.2298  0.1861
 9260SOL    HW139416   4.665   3.234   4.287  0.4431  0.1936 -0.3122
 9260SOL    HW239417   0.062   3.226   4.321 -1.1259  1.3069 -1.1678
 9261SOL     OW39418   1.340   4.588   3.380  0.4513  0.0938 -0.1806
 9261SOL    HW139419   1.303   4.544   3.456 -2.2249 -2.0985 -2.7818
 9261SOL    HW239420   1.423   4.618   3.418  0.6525 -1.0207  0.2433
 9262SOL     OW39421   0.544   2.256  10.736 -0.0979 -0.2339  0.2239
 9262SOL    HW139422   0.608   2.279  10.668 -0.4851  1.8695  0.5653
 9262SOL    HW239423   0.589   2.187  10.785  2.1243  1.9577  1.2426
 9263SOL     OW39424   4.453   2.229   2.439 -0.1035  0.0278 -0.2765
 9263SOL    HW139425   4.522   2.288   2.408 -0.3278  0.2662 -0.3224
 9263SOL    HW239426   4.402   2.298   2.481  0.5253 -0.0523  0.6224
 9264SOL     OW39427   3.026   4.185  12.845  0.6977 -0.0449  0.2217
 9264SOL    HW139428   3.040   4.238  12.766 -0.6369 -0.8577 -0.5582
 9264SOL    HW239429   2.930   4.188  12.852  0.8531 -1.3450  2.7562
 9265SOL     OW39430   2.140   2.364  11.594  0.0035 -0.2654 -0.1027
 9265SOL    HW139431   2.159   2.446  11.639  0.4419 -0.9111  0.8917
 9265SOL    HW239432   2.133   2.301  11.665 -1.2120  0.6331  0.5688
 9266SOL     OW39433   0.894   3.123   9.206 -0.2596 -0.0201  0.0464
 9266SOL    HW139434   0.973   3.121   9.153 -0.5072 -1.0419 -0.2787
 9266SOL    HW239435   0.886   3.037   9.247 -1.7383  0.5556  0.9876
 9267SOL     OW39436   1.257   0.158   9.541  0.1242  0.1380 -0.1976
 9267SOL    HW139437   1.310   0.123   9.613 -1.0063  0.1134  0.6176
 9267SOL    HW239438   1.263   0.250   9.567 -1.4138  0.0793  0.3726
 9268SOL     OW39439   1.819   2.837  13.753  0.4427  0.3677 -0.3177
 9268SOL    HW139440   1.759   2.791  13.813 -1.3464  0.2794 -2.1617
 9268SOL    HW239441   1.870   2.760  13.729 -1.6476 -0.3904 -2.4026
 9269SOL     OW39442   4.011   0.585   6.297  0.3892 -0.0186 -0.9179
 9269SOL    HW139443   3.974   0.540   6.373 -0.5740 -0.3502 -1.5774
 9269SOL    HW239444   4.005   0.677   6.324  3.9315 -0.3566  0.9629
 9270SOL     OW39445   2.284   3.559   6.941 -0.0390 -0.6608 -0.1526
 9270SOL    HW139446   2.242   3.579   7.025 -1.8080  1.0953 -1.4650
 9270SOL    HW239447   2.311   3.644   6.909  1.4628  0.4197  3.9302
 9271SOL     OW39448   3.540   2.525   6.749 -0.1453  0.1329 -0.0089
 9271SOL    HW139449   3.572   2.592   6.689 -3.8306  0.1969 -1.9011
 9271SOL    HW239450   3.476   2.475   6.699  2.8040 -3.9065  0.2785
 9272SOL     OW39451   2.649   4.305   4.741 -0.3464  0.2147 -0.3209
 9272SOL    HW139452   2.712   4.280   4.674  0.1044 -1.0687  0.5748
 9272SOL    HW239453   2.593   4.234   4.773  0.7786 -1.9664 -3.1621
 9273SOL     OW39454   1.922   3.290   5.795 -0.2351 -0.1313 -1.0225
 9273SOL    HW139455   1.893   3.291   5.704 -2.5765  1.5569 -0.2779
 9273SOL    HW239456   1.872   3.220   5.838 -0.0478  0.2243 -0.2264
 9274SOL     OW39457   3.405   3.964   9.836 -0.0200 -0.1518  0.5086
 9274SOL    HW139458   3.491   4.004   9.837  0.7206 -1.6990 -1.0232
 9274SOL    HW239459   3.359   4.003   9.762  1.2379  1.4730  0.6100
 9275SOL     OW39460   0.011   3.842   5.546  0.7768 -0.5089  0.4864
 9275SOL    HW139461   0.041   3.753   5.527 -0.8979 -0.6556 -1.4676
 9275SOL    HW239462   4.679   3.843   5.610  0.4370 -1.7095  0.1389
 9276SOL     OW39463   2.272   3.573   9.828 -0.4891 -0.0584 -0.1872
 9276SOL    HW139464   2.230   3.620   9.900  0.1457  2.5007 -1.4667
 9276SOL    HW239465   2.332   3.633   9.783  0.8494 -0.9538  0.4053
 9277SOL     OW39466   2.639   0.640   7.214 -0.1961 -0.1295 -0.3693
 9277SOL    HW139467   2.597   0.712   7.261  3.8792  1.9920  0.0144
 9277SOL    HW239468   2.583   0.563   7.226  1.4033 -1.3276 -0.5784
 9278SOL     OW39469   0.517   4.552   2.295 -0.3555  0.6189  0.2273
 9278SOL    HW139470   0.553   4.597   2.372 -1.5869 -0.8819  1.6688
 9278SOL    HW239471   0.580   4.567   2.224  0.7163 -2.8240  0.4655
 9279SOL     OW39472   3.155   0.576   7.748  0.2527  0.0249  0.4788
 9279SOL    HW139473   3.088   0.533   7.695 -0.8860 -0.0925  1.9910
 9279SOL    HW239474   3.112   0.556   7.831  0.5859 -1.1766  0.3552
 9280SOL     OW39475   4.405   2.261   7.830 -0.2222  0.1745  0.0635
 9280SOL    HW139476   4.490   2.266   7.787 -0.7377  1.2995 -0.8152
 9280SOL    HW239477   4.357   2.219   7.759  0.1639  0.1191 -0.1590
 9281SOL     OW39478   1.216   2.301   9.634  0.0281  1.0158  0.4226
 9281SOL    HW139479   1.218   2.292   9.729 -1.3530  0.0357  0.3559
 9281SOL    HW239480   1.308   2.320   9.613 -0.0607  0.5025 -0.4107
 9282SOL     OW39481   0.210   1.478  11.328 -0.0285 -0.1756 -0.8539
 9282SOL    HW139482   0.153   1.553  11.346 -0.9138 -0.7217 -1.3617
 9282SOL    HW239483   0.292   1.502  11.371  0.5490 -0.2208 -1.9309
 9283SOL     OW39484   2.884   1.341  15.528 -0.4940 -0.0476 -0.1964
 9283SOL    HW139485   2.844   1.395  15.596 -2.2145 -1.1011 -0.3703
 9283SOL    HW239486   2.808   1.353  15.471 -0.3238 -1.2353 -0.6877
 9284SOL     OW39487   4.679   2.456  12.217  0.0415 -0.5250  0.3964
 9284SOL    HW139488   4.724   2.377  12.247 -2.0919 -1.0518  2.1431
 9284SOL    HW239489   4.714   2.458  12.128  2.5758  1.7708  1.4319
 9285SOL     OW39490   2.041   3.681   4.322 -0.3242  0.2491 -0.0593
 9285SOL    HW139491   1.969   3.737   4.352  0.0679  1.2617 -0.9810
 9285SOL    HW239492   2.069   3.642   4.405 -0.6083  0.9286  0.3634
 9286SOL     OW39493   3.432   1.518   6.973 -0.7881 -0.6596 -0.4424
 9286SOL    HW139494   3.409   1.596   7.023  0.5916 -1.5181  1.5079
 9286SOL    HW239495   3.406   1.535   6.882  1.8147  2.4003 -0.6269
 9287SOL     OW39496   0.910   2.875   2.001  0.3553  0.0418 -0.5166
 9287SOL    HW139497   0.992   2.857   2.046  0.1410 -0.1070 -0.1776
 9287SOL    HW239498   0.870   2.789   1.986  0.6057 -0.4143  1.4339
 9288SOL     OW39499   4.363   3.118  12.141 -0.1179 -1.0059 -0.0936
 9288SOL    HW139500   4.313   3.054  12.090  0.9312 -1.2847 -0.7523
 9288SOL    HW239501   4.440   3.110  12.085 -0.6380  0.0288 -0.9530
 9289SOL     OW39502   3.262   4.497   5.640 -0.5794  0.0354 -0.3131
 9289SOL    HW139503   3.299   4.575   5.681  2.3933 -0.4640 -2.0568
 9289SOL    HW239504   3.279   4.430   5.706  0.3376  1.2743  0.7208
 9290SOL     OW39505   4.615   4.661   8.463  0.5006  0.3171 -0.2684
 9290SOL    HW139506   4.681   4.637   8.528 -2.2363 -2.9264  1.2902
 9290SOL    HW239507   4.569   4.578   8.463  1.4950 -0.2333  0.4017
 9291SOL     OW39508   1.159   4.328   3.148 -0.5061  0.8602 -0.1891
 9291SOL    HW139509   1.104   4.343   3.225 -0.5210 -1.5215  0.2696
 9291SOL    HW239510   1.152   4.235   3.129  4.1108  0.6381 -0.9916
 9292SOL     OW39511   0.032   3.517   1.284  0.0167  0.3507 -0.4567
 9292SOL    HW139512   0.065   3.548   1.369 -0.8826  2.7354 -0.9973
 9292SOL    HW239513   0.037   3.421   1.291 -0.4686  0.1456 -2.8638
 9293SOL     OW39514   2.025   2.354   8.643  0.7169  0.1449  0.2408
 9293SOL    HW139515   2.001   2.438   8.682  0.1919  0.1460 -0.0920
 9293SOL    HW239516   1.964   2.358   8.569  0.1284 -0.6104  0.6898
 9294SOL     OW39517   4.222   3.509   7.844 -0.2121  0.7166  0.7750
 9294SOL    HW139518   4.273   3.475   7.918 -0.3986  1.1626  1.0997
 9294SOL    HW239519   4.233   3.443   7.775  1.0043  0.0149  1.6350
 9295SOL     OW39520   0.369   2.968   4.857 -0.2431 -0.5477 -0.2364
 9295SOL    HW139521   0.456   2.936   4.880 -1.3584 -0.9889  3.3371
 9295SOL    HW239522   0.308   2.919   4.911 -0.4376  0.2641  0.2858
 9296SOL     OW39523   2.035   1.154  15.521 -0.6020  0.5676 -0.2367
 9296SOL    HW139524   2.109   1.206  15.551 -0.1006 -0.1279 -0.2703
 9296SOL    HW239525   2.010   1.203  15.443 -0.3269  0.2400 -0.5263
 9297SOL     OW39526   4.063   2.822   5.707 -0.2204  0.2460  0.0560
 9297SOL    HW139527   4.072   2.813   5.612  0.5350  0.7044  0.0835
 9297SOL    HW239528   4.124   2.889   5.737 -1.8109  2.3446 -1.3446
 9298SOL     OW39529   4.540   1.716   7.987 -0.2654 -0.1234 -0.4941
 9298SOL    HW139530   4.522   1.624   8.003  0.5205 -0.1390  0.2788
 9298SOL    HW239531   4.566   1.713   7.895  2.9877  0.9264  0.3722
 9299SOL     OW39532   1.852   0.863   5.181 -0.3128 -0.2344 -0.0343
 9299SOL    HW139533   1.932   0.835   5.225 -0.1301  1.5339  0.7592
 9299SOL    HW239534   1.794   0.787   5.170 -0.2282 -0.2992 -0.0322
 9300SOL     OW39535   3.549   2.937  12.695 -0.4167  0.5045  0.5697
 9300SOL    HW139536   3.499   2.997  12.641 -1.6559 -0.8283  0.2389
 9300SOL    HW239537   3.633   2.982  12.707 -1.4719  2.6948 -0.3400
 9301SOL     OW39538   0.608   4.633   9.906  0.0798  0.0320 -0.1204
 9301SOL    HW139539   0.679   4.605   9.848 -1.2201 -2.0213 -0.7427
 9301SOL    HW239540   0.531   4.601   9.858 -0.2224  0.2864  0.1980
 9302SOL     OW39541   3.197   4.416   0.135  0.3764  0.1505 -0.3648
 9302SOL    HW139542   3.199   4.326   0.168  1.3768 -0.2816 -1.5983
 9302SOL    HW239543   3.189   4.406   0.040  1.8695 -1.2223 -0.3386
 9303SOL     OW39544   0.250   3.019   4.616  0.0014  0.0861 -0.1554
 9303SOL    HW139545   0.166   3.051   4.650  0.2395 -1.1684  1.6299
 9303SOL    HW239546   0.305   3.016   4.694  2.5608  2.6446 -1.8804
 9304SOL     OW39547   1.832   1.257   8.253  0.0358 -0.3678  1.1944
 9304SOL    HW139548   1.912   1.268   8.304  1.7044 -1.9405 -1.1245
 9304SOL    HW239549   1.822   1.344   8.213  3.9535 -1.3437 -1.9680
 9305SOL     OW39550   0.368   2.850   1.898  0.1979  0.1560 -0.1905
 9305SOL    HW139551   0.409   2.936   1.892 -0.8938  0.7331  0.5350
 9305SOL    HW239552   0.311   2.849   1.821 -0.9316 -0.7213  0.6450
 9306SOL     OW39553   3.651   3.733   9.987  0.2776  0.4215  0.3195
 9306SOL    HW139554   3.677   3.812  10.034  0.2420  0.6284 -0.0064
 9306SOL    HW239555   3.609   3.691  10.061 -1.0626 -1.2689 -1.3930
 9307SOL     OW39556   1.712   4.680   8.685 -0.5765  0.0690 -0.2202
 9307SOL    HW139557   1.753   4.593   8.689  0.8095  0.7284 -0.1762
 9307SOL    HW239558   1.737   4.715   8.770  0.3834 -2.0486  0.3606
 9308SOL     OW39559   0.839   2.586   4.576 -0.6721  0.0846 -0.7055
 9308SOL    HW139560   0.838   2.523   4.503 -0.4403  2.0398 -2.3968
 9308SOL    HW239561   0.747   2.609   4.588 -1.5476 -1.9621 -3.3466
 9309SOL     OW39562   3.155   2.916   5.933 -0.5631  0.6705 -0.2575
 9309SOL    HW139563   3.178   2.902   5.841  0.0363  2.1543 -0.3313
 9309SOL    HW239564   3.074   2.864   5.936  2.3278 -3.9601 -2.3966
 9310SOL     OW39565   1.459   1.122   6.754  0.0009  0.5964  0.5670
 9310SOL    HW139566   1.530   1.120   6.689  1.3509 -0.3306  2.0643
 9310SOL    HW239567   1.405   1.200   6.741 -0.4161 -0.3518 -3.5443
 9311SOL     OW39568   3.727   0.705   8.821  0.2353 -0.0273  0.1912
 9311SOL    HW139569   3.762   0.681   8.906  1.9729 -1.8818 -1.0479
 9311SOL    HW239570   3.645   0.742   8.854  0.1676  0.7361 -0.8071
 9312SOL     OW39571   2.753   2.055   3.652  0.0885  0.0526  0.4858
 9312SOL    HW139572   2.720   1.969   3.627  0.7727  0.5352 -2.0727
 9312SOL    HW239573   2.672   2.096   3.624 -0.0220  0.0435  0.7911
 9313SOL     OW39574   0.165   3.109   7.077 -0.5840  0.1972 -0.3021
 9313SOL    HW139575   0.083   3.145   7.112  0.8533  0.2991  2.9571
 9313SOL    HW239576   0.156   3.134   6.985 -0.4277 -1.1888 -0.6902
 9314SOL     OW39577   2.418   4.066  12.004 -0.4626  0.3553  0.0311
 9314SOL    HW139578   2.351   4.032  11.945  0.9122  0.0818 -1.3437
 9314SOL    HW239579   2.461   4.134  11.952 -1.5963  0.5918 -0.5916
 9315SOL     OW39580   0.603   1.378   7.083  0.1291  0.0994 -0.0159
 9315SOL    HW139581   0.617   1.440   7.011 -1.7162 -0.2444 -0.6893
 9315SOL    HW239582   0.535   1.418   7.138 -1.9637 -3.3988 -0.0348
 9316SOL     OW39583   4.249   0.980   3.999  0.5489  0.9160  0.0544
 9316SOL    HW139584   4.298   0.941   3.926  3.0127 -1.2384  2.8087
 9316SOL    HW239585   4.192   1.036   3.947  0.4551 -0.3304 -1.1969
 9317SOL     OW39586   3.861   3.139   8.994  0.1305 -0.0224 -0.3253
 9317SOL    HW139587   3.788   3.124   8.935  0.4190  1.5034 -1.0673
 9317SOL    HW239588   3.806   3.139   9.073 -1.9285  3.9001 -1.7857
 9318SOL     OW39589   0.752   2.706   7.896  0.0831  0.4751 -0.5563
 9318SOL    HW139590   0.789   2.781   7.944  1.9041 -0.9648  0.2764
 9318SOL    HW239591   0.784   2.738   7.812  2.1061 -1.2850 -0.4572
 9319SOL     OW39592   4.147   1.582   1.859 -0.6276  0.6209 -0.0378
 9319SOL    HW139593   4.125   1.641   1.787 -1.9668  1.2717  0.8982
 9319SOL    HW239594   4.233   1.612   1.886  0.0601 -0.1808 -1.2941
 9320SOL     OW39595   3.348   0.502   3.579  0.3742 -0.4295 -0.2236
 9320SOL    HW139596   3.283   0.432   3.582  0.1224 -0.2591 -1.7582
 9320SOL    HW239597   3.294   0.581   3.589  0.6708 -0.0922 -1.2826
 9321SOL     OW39598   3.074   4.273  11.004  0.1808  0.2414 -0.2879
 9321SOL    HW139599   3.060   4.182  10.977  0.4815 -0.2900  1.3417
 9321SOL    HW239600   2.986   4.293  11.035  0.2524 -2.1724  1.5031
 9322SOL     OW39601   0.947   0.145   6.312  0.1154  0.0202 -0.1838
 9322SOL    HW139602   0.860   0.149   6.273  1.0613  0.0524 -2.2994
 9322SOL    HW239603   0.970   0.052   6.305  0.5459 -0.0413  2.1526
 9323SOL     OW39604   0.746   0.213   6.562 -0.1603  0.0351  0.4670
 9323SOL    HW139605   0.698   0.157   6.623  2.0511 -2.5400 -0.1187
 9323SOL    HW239606   0.770   0.273   6.633 -0.2102 -0.0766  0.5795
 9324SOL     OW39607   1.045   2.093  14.403 -0.2950  0.0947 -0.0335
 9324SOL    HW139608   1.119   2.033  14.412 -0.0089  0.4282 -0.1489
 9324SOL    HW239609   1.086   2.169  14.362  0.7029 -0.8960 -0.8567
 9325SOL     OW39610   0.784   4.076   8.823  0.4154  0.0166 -0.2379
 9325SOL    HW139611   0.764   4.064   8.916  0.5033  1.0345 -0.0880
 9325SOL    HW239612   0.759   4.167   8.807  0.3118  0.0351  0.0156
 9326SOL     OW39613   0.387   2.327  17.569  0.2166 -0.6859 -0.3920
 9326SOL    HW139614   0.454   2.376  17.616  2.7694 -1.6079 -3.0703
 9326SOL    HW239615   0.304   2.370  17.591 -0.4922 -2.7426  0.9007
 9327SOL     OW39616   3.342   3.327  15.139  0.1651  0.1394  0.4699
 9327SOL    HW139617   3.256   3.300  15.171  0.9430  1.1142  3.3303
 9327SOL    HW239618   3.314   3.413  15.109  1.9143  1.4820  2.6931
 9328SOL     OW39619   0.959   0.711   8.863 -0.0759 -0.5215 -0.1539
 9328SOL    HW139620   0.935   0.803   8.856 -1.3460 -0.9449 -1.3592
 9328SOL    HW239621   0.874   0.671   8.881 -0.5865  1.5200  2.0770
 9329SOL     OW39622   1.596   0.593  12.876  0.2793  0.1672  0.4392
 9329SOL    HW139623   1.559   0.508  12.850 -0.2845  0.5023  0.1590
 9329SOL    HW239624   1.635   0.563  12.959  2.3473 -0.5280 -0.7838
 9330SOL     OW39625   4.562   1.490   9.404  0.4401  0.6842  0.1897
 9330SOL    HW139626   4.500   1.557   9.434 -1.1804 -0.5735 -0.3546
 9330SOL    HW239627   4.646   1.527   9.430  0.4443  0.9641 -0.2200
 9331SOL     OW39628   3.722   3.758  16.989  0.1213 -0.0700 -0.5365
 9331SOL    HW139629   3.752   3.796  17.071  1.5907 -0.2486 -0.9936
 9331SOL    HW239630   3.760   3.817  16.925  0.8890  0.5334  0.4852
 9332SOL     OW39631   2.386   2.658   2.412 -0.6429 -0.2833 -0.4263
 9332SOL    HW139632   2.476   2.670   2.443 -0.4340 -2.5053 -0.2398
 9332SOL    HW239633   2.351   2.651   2.500  0.9030 -0.5975  0.1656
 9333SOL     OW39634   2.805   4.652   8.145  0.4133  0.3096 -0.2762
 9333SOL    HW139635   2.727   4.642   8.091  0.2211  0.4090 -0.0159
 9333SOL    HW239636   2.827   0.006   8.134  2.7631 -0.1766  0.2724
 9334SOL     OW39637   3.531   2.532   8.210 -0.5633 -0.4957  0.0886
 9334SOL    HW139638   3.535   2.560   8.119 -0.9533 -1.3241 -0.1808
 9334SOL    HW239639   3.456   2.472   8.213 -1.1827  0.3015  0.8593
 9335SOL     OW39640   3.642   4.207   7.474 -0.0699 -0.4249  0.3400
 9335SOL    HW139641   3.729   4.223   7.509  0.3983 -1.0445 -0.5331
 9335SOL    HW239642   3.610   4.297   7.476  1.6383  0.3343 -5.0835
 9336SOL     OW39643   0.309   3.994   1.733 -0.0701 -0.0468  0.0618
 9336SOL    HW139644   0.339   4.075   1.693 -2.1217  0.3470 -0.6798
 9336SOL    HW239645   0.335   3.994   1.825  1.2505 -1.0745 -0.3142
 9337SOL     OW39646   0.358   3.540   2.962 -0.0334 -0.3143  0.1713
 9337SOL    HW139647   0.394   3.462   2.920  2.1618  0.6198  0.3166
 9337SOL    HW239648   0.289   3.495   3.011 -1.0324  1.0737  0.0491
 9338SOL     OW39649   3.535   3.269   3.053  0.5124  0.3358  0.8347
 9338SOL    HW139650   3.566   3.341   3.107  1.1893  0.6169  0.0649
 9338SOL    HW239651   3.480   3.325   2.998  0.8789 -1.1384 -1.0495
 9339SOL     OW39652   0.598   2.611   9.279  1.0514  0.9414 -0.1972
 9339SOL    HW139653   0.548   2.675   9.230 -1.7520 -1.1993 -0.1758
 9339SOL    HW239654   0.565   2.532   9.235  0.3139  0.8968  0.4490
 9340SOL     OW39655   3.082   1.707   8.041  0.1728 -0.0022 -0.1933
 9340SOL    HW139656   3.012   1.649   8.010 -2.2955  3.1415 -0.6191
 9340SOL    HW239657   3.052   1.711   8.132  2.9453 -2.8478  0.7994
 9341SOL     OW39658   0.279   2.947  15.421  0.5308 -0.5104  0.5529
 9341SOL    HW139659   0.277   3.014  15.353 -0.4449  0.5543  1.6345
 9341SOL    HW239660   0.374   2.942  15.430  0.5749 -0.3710  0.1572
 9342SOL     OW39661   2.785   0.729   8.325 -0.4914 -0.2201 -0.6809
 9342SOL    HW139662   2.745   0.699   8.407 -0.7509  1.7543 -0.0628
 9342SOL    HW239663   2.710   0.735   8.266 -0.4375  1.9024 -0.5487
 9343SOL     OW39664   3.287   3.633  11.473  0.2864  0.5458  0.6623
 9343SOL    HW139665   3.281   3.539  11.454  2.6869  0.2078  1.6082
 9343SOL    HW239666   3.376   3.631  11.508 -0.2717 -1.5767  1.9876
 9344SOL     OW39667   3.973   0.749   9.045 -0.3392 -0.0909  0.2772
 9344SOL    HW139668   3.977   0.845   9.044 -1.8347 -0.0117  1.3668
 9344SOL    HW239669   4.048   0.722   8.993 -0.7013 -0.4894 -0.0364
 9345SOL     OW39670   3.865   1.856  14.387  0.5112 -0.7146 -0.5907
 9345SOL    HW139671   3.857   1.782  14.447  0.3298 -0.7410 -0.6499
 9345SOL    HW239672   3.942   1.902  14.422 -1.0159  1.9481 -0.7106
 9346SOL     OW39673   4.381   0.403   8.081 -0.0680 -0.0419  0.2242
 9346SOL    HW139674   4.457   0.363   8.123  1.2329 -0.5743 -2.5875
 9346SOL    HW239675   4.313   0.336   8.087 -0.6905  0.6969  1.2647
 9347SOL     OW39676   0.575   1.620   8.174 -0.0944 -0.0656  0.3634
 9347SOL    HW139677   0.664   1.583   8.173 -0.9117 -2.0393  1.2877
 9347SOL    HW239678   0.559   1.604   8.267 -1.1159 -0.4318  0.1168
 9348SOL     OW39679   3.689   1.280   2.935  0.0761  0.1818  0.1135
 9348SOL    HW139680   3.599   1.268   2.965  0.3618 -1.4949  0.2673
 9348SOL    HW239681   3.673   1.327   2.853  1.8160 -0.7887 -0.7757
 9349SOL     OW39682   3.438   3.858   7.825 -0.0838 -0.2962  0.0083
 9349SOL    HW139683   3.362   3.803   7.806  1.6090 -1.9603 -1.8785
 9349SOL    HW239684   3.460   3.829   7.913  2.2453  0.8289 -0.1856
 9350SOL     OW39685   2.895   3.687  13.220  0.0061  0.4239  0.1210
 9350SOL    HW139686   2.973   3.714  13.172  0.4484 -2.0320 -0.5658
 9350SOL    HW239687   2.921   3.701  13.311 -0.5803  0.8545  0.2272
 9351SOL     OW39688   1.801   4.317   8.039 -0.2660  0.2832 -0.1183
 9351SOL    HW139689   1.732   4.275   7.987 -0.3295  0.9351 -0.5526
 9351SOL    HW239690   1.858   4.243   8.063 -1.9982 -1.2156 -0.6245
 9352SOL     OW39691   0.392   3.751   8.436  0.6055 -0.4646  0.4195
 9352SOL    HW139692   0.306   3.732   8.474  1.6217 -1.7314  2.0807
 9352SOL    HW239693   0.360   3.771   8.348 -0.0153  1.3016  1.0621
 9353SOL     OW39694   0.030   2.698   1.439 -0.4776 -0.6843  0.6152
 9353SOL    HW139695   0.057   2.727   1.352 -1.1304 -1.7539  0.0457
 9353SOL    HW239696   0.027   2.602   1.433  2.4615 -0.6873 -0.5524
 9354SOL     OW39697   1.143   4.502   7.040 -0.0822  0.6261  0.6118
 9354SOL    HW139698   1.111   4.454   6.963 -0.4826  0.6616  0.7590
 9354SOL    HW239699   1.198   4.436   7.082 -1.9024  1.2554  3.9664
 9355SOL     OW39700   3.726   2.178  13.333 -0.3342 -0.4438  0.5794
 9355SOL    HW139701   3.642   2.220  13.348 -1.7873 -2.6499 -1.3803
 9355SOL    HW239702   3.781   2.252  13.308 -0.0607  0.0720  2.6839
 9356SOL     OW39703   2.195   3.717   6.129 -0.0054  0.0507  0.1798
 9356SOL    HW139704   2.185   3.692   6.220 -1.1131 -0.7786 -0.1707
 9356SOL    HW239705   2.271   3.775   6.129 -1.0868  1.4714 -3.6333
 9357SOL     OW39706   1.551   4.122   7.760 -0.3858  0.2121  0.0840
 9357SOL    HW139707   1.614   4.161   7.820  1.0907 -0.4395 -1.0453
 9357SOL    HW239708   1.558   4.193   7.695  1.5499 -0.2007 -0.1591
 9358SOL     OW39709   4.492   0.700   3.711  0.1472  0.6146  0.2364
 9358SOL    HW139710   4.417   0.711   3.770  1.0399  1.3946  1.2411
 9358SOL    HW239711   4.455   0.648   3.640 -2.5685  2.3966  0.3306
 9359SOL     OW39712   2.295   1.777  15.885  0.6092 -0.0106 -0.4669
 9359SOL    HW139713   2.366   1.825  15.927 -0.9185 -0.3377  2.4579
 9359SOL    HW239714   2.229   1.845  15.891 -0.0705 -0.8805  1.8656
 9360SOL     OW39715   4.160   0.192   5.965 -0.0787  0.5095  0.1697
 9360SOL    HW139716   4.171   0.278   5.923  0.1822  0.5861  0.3968
 9360SOL    HW239717   4.187   0.134   5.894 -2.7072  1.3292 -1.4891
 9361SOL     OW39718   4.319   0.603  13.415  0.1209 -0.2342  0.0501
 9361SOL    HW139719   4.356   0.518  13.439 -0.5596 -0.4068  0.4947
 9361SOL    HW239720   4.305   0.638  13.503 -1.1231 -1.6719  0.4328
 9362SOL     OW39721   2.762   1.031   4.828 -0.4018  0.2448  0.0836
 9362SOL    HW139722   2.716   1.115   4.834 -1.2348 -0.0862 -1.4587
 9362SOL    HW239723   2.733   0.986   4.748 -1.1971  0.0851  0.4660
 9363SOL     OW39724   1.413   0.796   7.181 -0.6373  0.0881 -0.1383
 9363SOL    HW139725   1.336   0.770   7.131  1.3625 -1.6985 -2.3442
 9363SOL    HW239726   1.469   0.827   7.109  0.7295  1.4388  1.5085
 9364SOL     OW39727   2.886   1.745   5.165  0.0325 -0.0948 -0.3049
 9364SOL    HW139728   2.800   1.768   5.199 -0.1451 -1.1364 -0.0280
 9364SOL    HW239729   2.868   1.756   5.071  1.6719  1.5133 -0.4326
 9365SOL     OW39730   3.749   4.054   6.078 -0.4888  0.6221 -0.1206
 9365SOL    HW139731   3.760   4.022   5.989  1.0201  0.7678  0.0136
 9365SOL    HW239732   3.759   3.974   6.130  2.3892  1.4128  0.5419
 9366SOL     OW39733   0.390   2.054  16.138 -0.3202 -0.2162 -0.1631
 9366SOL    HW139734   0.395   2.072  16.232  1.3674 -0.8484 -0.1201
 9366SOL    HW239735   0.303   2.085  16.115 -0.3333 -0.0293  0.1362
 9367SOL     OW39736   1.043   2.351  16.930  0.1663 -0.2377  0.0365
 9367SOL    HW139737   1.070   2.289  16.998  2.2331  1.5315  0.7870
 9367SOL    HW239738   0.961   2.314  16.898 -1.1374  3.0600 -0.3921
 9368SOL     OW39739   1.259   0.191   6.785 -0.2777 -0.4811 -0.4810
 9368SOL    HW139740   1.210   0.140   6.850 -1.5874 -0.8610 -1.7576
 9368SOL    HW239741   1.201   0.208   6.710 -0.4975  1.0576  0.0507
 9369SOL     OW39742   1.048   1.102   2.840  0.2802 -0.0461  0.6721
 9369SOL    HW139743   1.017   1.075   2.926  0.0547 -1.0676  0.2635
 9369SOL    HW239744   1.097   1.182   2.858  1.4339 -0.9147  1.3652
 9370SOL     OW39745   4.384   0.897   5.741 -0.1651 -0.7180  0.2155
 9370SOL    HW139746   4.332   0.916   5.819 -1.0753  0.1877 -0.6164
 9370SOL    HW239747   4.340   0.954   5.678  0.7427 -0.0591  0.1809
 9371SOL     OW39748   1.800   3.641   8.261  0.2120  0.2160  0.0389
 9371SOL    HW139749   1.824   3.639   8.168 -0.8270  1.7974 -0.2761
 9371SOL    HW239750   1.718   3.591   8.260 -0.0060  0.5996 -1.1993
 9372SOL     OW39751   1.677   2.136   8.076  0.0298  0.0722  0.0972
 9372SOL    HW139752   1.652   2.057   8.124  0.5343  0.6351  1.2781
 9372SOL    HW239753   1.768   2.118   8.053 -0.0157 -1.4202  1.1055
 9373SOL     OW39754   2.952   2.867  11.514  0.2998 -0.0180 -0.2150
 9373SOL    HW139755   3.043   2.836  11.517  0.5747  1.0335  2.9477
 9373SOL    HW239756   2.914   2.814  11.445 -0.0265  0.0317 -0.0741
 9374SOL     OW39757   3.495   1.833   1.824  0.2503  0.2590 -0.3992
 9374SOL    HW139758   3.516   1.890   1.749 -3.5787  1.5005 -0.5389
 9374SOL    HW239759   3.440   1.888   1.880  3.2117  2.4401  0.4246
 9375SOL     OW39760   0.366   3.769   2.693 -0.0437 -0.2587 -0.0017
 9375SOL    HW139761   0.375   3.674   2.695  0.1389 -0.2253  1.3012
 9375SOL    HW239762   0.346   3.793   2.784  0.4012  0.3075 -0.0566
 9376SOL     OW39763   0.363   3.440   6.053 -0.6188 -0.0413  0.7994
 9376SOL    HW139764   0.356   3.522   6.102 -0.3287  0.5569 -0.1426
 9376SOL    HW239765   0.449   3.456   6.014 -0.6873  0.5884  0.9150
 9377SOL     OW39766   4.225   3.156   6.532  0.1453  0.0645  0.4679
 9377SOL    HW139767   4.130   3.147   6.524  0.3462 -1.1032 -0.7601
 9377SOL    HW239768   4.254   3.114   6.613  0.8636 -1.5259 -0.5939
 9378SOL     OW39769   2.090   1.830   0.940  0.1981 -0.6628 -0.1166
 9378SOL    HW139770   2.111   1.804   1.029  1.7825  0.3003 -0.2112
 9378SOL    HW239771   2.155   1.900   0.931  0.1530 -0.4930  0.9595
 9379SOL     OW39772   2.059   2.315  12.075  0.0755 -0.1869 -0.1914
 9379SOL    HW139773   1.980   2.337  12.124 -0.4958  3.0114 -2.5967
 9379SOL    HW239774   2.117   2.273  12.139  3.2054  0.2142 -2.7395
 9380SOL     OW39775   2.853   1.864   2.050 -0.7223 -0.1544  0.1616
 9380SOL    HW139776   2.876   1.887   1.960  3.0116 -1.2890  0.8243
 9380SOL    HW239777   2.878   1.772   2.049 -0.4272 -0.0745 -0.0058
 9381SOL     OW39778   0.814   4.693   8.263  0.2012  0.4522  0.0955
 9381SOL    HW139779   0.873   4.716   8.334 -0.6434 -0.3781  1.0628
 9381SOL    HW239780   0.792   0.034   8.213  0.2534 -0.7482 -1.8495
 9382SOL     OW39781   1.259   1.784   8.288  0.0760  0.3416  0.3123
 9382SOL    HW139782   1.235   1.773   8.196 -0.5441  3.4692  0.0863
 9382SOL    HW239783   1.193   1.848   8.314 -1.9563 -1.4116 -0.5659
 9383SOL     OW39784   3.631   1.119   5.465 -0.2016 -0.0541  0.3069
 9383SOL    HW139785   3.596   1.141   5.551 -1.2550  0.2928 -0.2042
 9383SOL    HW239786   3.573   1.176   5.415  0.2394  0.8355  0.8160
 9384SOL     OW39787   1.908   1.011   4.674  0.3710 -0.0351 -0.0695
 9384SOL    HW139788   1.845   0.978   4.738 -1.1007 -0.1872 -1.6135
 9384SOL    HW239789   1.976   1.046   4.732 -0.2611  1.5840 -0.3260
 9385SOL     OW39790   2.759   1.179   0.007 -0.3654  0.1209  0.1760
 9385SOL    HW139791   2.852   1.190  17.742  0.4434 -1.4923  3.3584
 9385SOL    HW239792   2.767   1.088   0.035 -1.6478 -0.2086 -0.5473
 9386SOL     OW39793   1.529   2.246   8.476  0.5531  0.0078 -0.3528
 9386SOL    HW139794   1.536   2.341   8.488 -3.6233  0.1789  0.8816
 9386SOL    HW239795   1.435   2.231   8.466  0.7948 -1.8092  0.1570
 9387SOL     OW39796   0.335   2.683   7.454 -0.2428 -0.9407  0.4374
 9387SOL    HW139797   0.273   2.725   7.514 -0.8884  0.6333 -1.3179
 9387SOL    HW239798   0.343   2.741   7.378  0.4744 -0.4454  0.9016
 9388SOL     OW39799   0.709   0.835   4.817 -0.2734 -0.2724 -0.4504
 9388SOL    HW139800   0.635   0.775   4.831 -1.8409  1.1759 -2.5712
 9388SOL    HW239801   0.728   0.853   4.909 -1.3312  0.1164 -0.3081
 9389SOL     OW39802   4.650   4.695   9.285  0.3274  0.0664  1.1115
 9389SOL    HW139803   4.602   0.029   9.246  1.4307 -0.4028 -1.1366
 9389SOL    HW239804   4.684   4.738   9.363 -0.9045 -1.4615  2.4801
 9390SOL     OW39805   0.084   2.075   8.173  0.0695  0.1329  0.1497
 9390SOL    HW139806   4.734   2.047   8.149  0.1466 -0.4059  0.4905
 9390SOL    HW239807   0.136   2.027   8.109  2.1367  0.7200  1.3994
 9391SOL     OW39808   3.749   3.259   5.065  0.4473 -0.5600  0.0017
 9391SOL    HW139809   3.810   3.239   4.994  0.3249  1.9564 -0.8166
 9391SOL    HW239810   3.801   3.246   5.144  0.3705  2.2355  0.4981
 9392SOL     OW39811   3.166   4.317  11.820 -0.3983  0.1136  0.5649
 9392SOL    HW139812   3.169   4.271  11.904  0.1119  0.5762  0.8004
 9392SOL    HW239813   3.257   4.295  11.800 -0.4950  1.0363 -0.8773
 9393SOL     OW39814   2.991   4.539   3.902  0.2196  0.7702  0.0000
 9393SOL    HW139815   2.954   4.550   3.990 -0.4445 -1.1354 -0.0307
 9393SOL    HW239816   2.985   4.444   3.896  0.3798  0.9511 -2.6186
 9394SOL     OW39817   3.076   0.925  12.215 -0.7966  0.3626  0.4413
 9394SOL    HW139818   3.152   0.952  12.266 -2.0695 -2.2687  3.7347
 9394SOL    HW239819   3.110   0.940  12.127 -0.8304 -0.8783  0.2240
 9395SOL     OW39820   3.552   4.236   9.648  0.2445  0.0234  0.3214
 9395SOL    HW139821   3.607   4.172   9.602 -1.2612 -1.9937  1.3271
 9395SOL    HW239822   3.581   4.322   9.615 -2.2055  0.3598 -0.9400
 9396SOL     OW39823   1.601   4.588  12.143 -0.0206 -0.0699 -0.0642
 9396SOL    HW139824   1.600   4.515  12.081  0.1954  2.5692 -3.1805
 9396SOL    HW239825   1.669   4.642  12.103  0.7806 -0.5808  0.6051
 9397SOL     OW39826   0.345   3.857   2.219  0.0797 -0.0086  0.6587
 9397SOL    HW139827   0.383   3.891   2.300  0.9612  1.5191 -0.3880
 9397SOL    HW239828   0.402   3.877   2.144 -0.4185  1.1479  0.5843
 9398SOL     OW39829   2.378   0.258   9.157  0.1429 -0.0158  0.2923
 9398SOL    HW139830   2.325   0.232   9.082 -1.8217  1.2629  1.2387
 9398SOL    HW239831   2.462   0.217   9.135 -1.3271 -2.7028 -0.2460
 9399SOL     OW39832   1.645   1.717   5.239 -0.1834 -0.1770 -0.3639
 9399SOL    HW139833   1.721   1.671   5.275 -1.1150 -0.9924  0.5987
 9399SOL    HW239834   1.576   1.651   5.242 -1.4423  1.1370 -0.0125
 9400SOL     OW39835   4.166   2.342   0.757 -0.4129  0.3998 -0.4223
 9400SOL    HW139836   4.075   2.371   0.762 -0.6397 -0.1500 -1.2791
 9400SOL    HW239837   4.208   2.426   0.774 -0.7225  0.5901 -0.6035
 9401SOL     OW39838   3.450   4.737  10.572  0.3204  0.0751 -0.2877
 9401SOL    HW139839   3.369   0.012  10.622 -0.0740 -1.6565 -0.4547
 9401SOL    HW239840   3.477   0.080  10.531  1.0475  1.1184  2.2633
 9402SOL     OW39841   3.815   2.355   4.120  0.2472 -0.1578 -0.1006
 9402SOL    HW139842   3.795   2.388   4.032  2.6645 -2.9259 -1.6552
 9402SOL    HW239843   3.910   2.365   4.130 -0.0308  1.5936  0.8108
 9403SOL     OW39844   0.022   4.310   9.457 -0.4399 -0.1722  0.3026
 9403SOL    HW139845   4.686   4.344   9.409 -0.8274 -1.7598 -0.2052
 9403SOL    HW239846   0.001   4.336   9.547 -1.3655  0.3473 -0.0674
 9404SOL     OW39847   1.446   1.163   7.024  0.7943  0.1009  0.3746
 9404SOL    HW139848   1.449   1.164   6.928 -0.8408  1.5136  0.3422
 9404SOL    HW239849   1.522   1.109   7.045  1.5543  0.0514 -2.5538
 9405SOL     OW39850   3.304   3.043   8.267  0.1277  0.0855 -0.1497
 9405SOL    HW139851   3.264   3.122   8.305  1.4394  0.6756 -0.0028
 9405SOL    HW239852   3.330   2.997   8.347  0.7711  0.7629  0.0289
 9406SOL     OW39853   4.391   1.207   2.192 -0.5322 -0.0103  0.2130
 9406SOL    HW139854   4.468   1.174   2.145  0.0568  1.2116  0.3064
 9406SOL    HW239855   4.421   1.207   2.283  0.7610  0.6643 -0.2092
 9407SOL     OW39856   1.401   3.425  15.153 -0.6258 -0.6621 -0.1814
 9407SOL    HW139857   1.496   3.424  15.159 -0.7229 -1.3900  1.2479
 9407SOL    HW239858   1.392   3.434  15.058  0.4476 -2.7421 -0.4803
 9408SOL     OW39859   0.321   1.251   8.423  0.1528 -0.0154 -0.2198
 9408SOL    HW139860   0.252   1.195   8.387 -0.5277  0.5872  0.1429
 9408SOL    HW239861   0.383   1.184   8.452 -0.7197 -0.7129  0.0347
 9409SOL     OW39862   1.035   2.638   0.616  0.3242 -0.2662  0.0154
 9409SOL    HW139863   0.940   2.645   0.629  0.2815  1.6500 -1.3588
 9409SOL    HW239864   1.064   2.717   0.661 -2.6765  0.3573  0.8694
 9410SOL     OW39865   0.265   3.184   6.052 -0.3349 -0.2404  0.3981
 9410SOL    HW139866   0.290   3.275   6.068  2.5105 -0.7120 -1.4221
 9410SOL    HW239867   0.308   3.160   5.970  0.6572  0.3492  0.7520
 9411SOL     OW39868   3.773   3.229   5.350 -0.1379  0.1075  0.0180
 9411SOL    HW139869   3.707   3.267   5.408 -0.1291  1.0766 -0.6131
 9411SOL    HW239870   3.850   3.209   5.404  1.5912 -0.1319 -2.5361
 9412SOL     OW39871   0.469   4.604   4.002 -0.3373 -0.3241  0.3584
 9412SOL    HW139872   0.548   4.557   3.977  1.0454  2.8657 -1.2973
 9412SOL    HW239873   0.400   4.564   3.949 -0.8715 -0.7003  1.3338
 9413SOL     OW39874   4.673   4.598   6.665  0.1426 -0.2293  0.0506
 9413SOL    HW139875   0.008   4.589   6.605 -0.1567  0.9275 -0.4865
 9413SOL    HW239876   4.600   4.549   6.626  0.3570  1.4413 -2.3834
 9414SOL     OW39877   3.067   0.950   4.129 -0.0447  0.1497  0.7295
 9414SOL    HW139878   3.122   1.024   4.155  1.0292  0.3992 -2.1562
 9414SOL    HW239879   2.978   0.983   4.118 -0.0078 -0.1807 -0.5682
 9415SOL     OW39880   1.368   2.339   4.390 -0.3862 -0.6066 -0.4907
 9415SOL    HW139881   1.302   2.402   4.361  3.7243  3.0713 -1.8166
 9415SOL    HW239882   1.448   2.391   4.391 -0.8605  0.1212 -1.1531
 9416SOL     OW39883   3.922   1.044   2.310 -0.0594  1.0488 -1.1964
 9416SOL    HW139884   3.997   1.079   2.357 -1.7224  0.6595  1.7529
 9416SOL    HW239885   3.952   1.039   2.219  1.7248 -0.1956 -0.5455
 9417SOL     OW39886   2.829   1.870  10.353  0.4229  0.3526  0.1382
 9417SOL    HW139887   2.793   1.812  10.421 -1.4982  1.2807 -0.0996
 9417SOL    HW239888   2.869   1.811  10.289 -0.8091 -0.1435 -0.1536
 9418SOL     OW39889   1.451   1.695   2.198  0.2274 -0.3362 -0.1152
 9418SOL    HW139890   1.410   1.767   2.247  0.6758 -0.7525  0.8708
 9418SOL    HW239891   1.461   1.634   2.271 -1.9003 -2.2392 -1.4692
 9419SOL     OW39892   2.176   4.636   0.272 -0.4124 -0.5312  0.1576
 9419SOL    HW139893   2.220   4.577   0.211  0.4572  0.5775 -0.3004
 9419SOL    HW239894   2.250   4.697   0.282 -1.9148  1.4118 -0.5176
 9420SOL     OW39895   0.724   1.636   9.826  0.2286 -0.1389 -0.1659
 9420SOL    HW139896   0.744   1.543   9.819  0.4569 -0.1899  1.1227
 9420SOL    HW239897   0.689   1.643   9.737  1.4486 -0.4997 -0.6787
 9421SOL     OW39898   1.974   0.416   7.934  0.4365 -0.3288  0.2627
 9421SOL    HW139899   1.974   0.492   7.876 -0.2535 -1.3024 -1.0168
 9421SOL    HW239900   2.058   0.433   7.976  1.6338  0.0936 -2.3174
 9422SOL     OW39901   4.007   1.194   7.803  0.3644 -0.2971  0.1429
 9422SOL    HW139902   4.079   1.149   7.759 -0.4900 -0.4566 -1.0844
 9422SOL    HW239903   4.010   1.152   7.889 -2.1612  1.0652  0.8955
 9423SOL     OW39904   3.648   4.296   3.714  0.1133  0.3599 -0.6651
 9423SOL    HW139905   3.718   4.239   3.681 -0.4540 -0.7279  0.0299
 9423SOL    HW239906   3.572   4.240   3.701  1.9053 -2.3002  0.2849
 9424SOL     OW39907   0.525   0.685   4.681  0.3299 -0.3219 -0.2930
 9424SOL    HW139908   0.602   0.651   4.636  2.2442 -1.4434  3.7900
 9424SOL    HW239909   0.472   0.606   4.691  0.0020 -0.0541  0.1004
 9425SOL     OW39910   1.796   1.135  15.658  0.4458 -0.0483  0.6920
 9425SOL    HW139911   1.760   1.046  15.668 -1.1088  0.4895 -0.0705
 9425SOL    HW239912   1.885   1.120  15.625 -0.9911 -1.8952 -2.4030
 9426SOL     OW39913   3.816   0.559   6.975  0.4292  0.8299 -0.0780
 9426SOL    HW139914   3.905   0.538   6.946  0.6322  1.4634  0.1055
 9426SOL    HW239915   3.796   0.640   6.928  0.1608  0.7810 -0.0481
 9427SOL     OW39916   0.371   1.188   2.127 -0.0927 -0.3126 -0.6802
 9427SOL    HW139917   0.449   1.225   2.168 -1.6815 -1.5913  3.5811
 9427SOL    HW239918   0.302   1.251   2.143 -0.1488 -0.0009 -2.1802
 9428SOL     OW39919   0.651   2.520   2.129 -0.3213  0.1747  0.2826
 9428SOL    HW139920   0.621   2.597   2.177  0.1193 -0.0625  0.9377
 9428SOL    HW239921   0.692   2.576   2.064  1.1287 -1.3856 -0.1430
 9429SOL     OW39922   1.680   2.846   5.325  0.3241 -0.4677  0.1798
 9429SOL    HW139923   1.668   2.783   5.396  0.6337  0.5452  1.1482
 9429SOL    HW239924   1.651   2.919   5.380  0.4782 -0.4086  0.1852
 9430SOL     OW39925   2.782   1.413   7.470 -0.4624 -0.2093  0.2994
 9430SOL    HW139926   2.700   1.387   7.429 -1.2365 -1.2600  2.5091
 9430SOL    HW239927   2.849   1.379   7.411  1.5855 -1.5444  3.3576
 9431SOL     OW39928   0.548   3.713   6.883  0.4241 -0.3314  0.0762
 9431SOL    HW139929   0.515   3.799   6.909  1.3564 -0.0615  0.3664
 9431SOL    HW239930   0.621   3.704   6.944  0.9665 -0.5010 -0.5955
 9432SOL     OW39931   3.884   1.284   2.653  0.6579  0.3485 -0.2311
 9432SOL    HW139932   3.941   1.287   2.576  2.7811 -0.0315  1.3241
 9432SOL    HW239933   3.852   1.194   2.648  1.1134  0.2203 -0.9341
 9433SOL     OW39934   3.113   1.750   2.250 -0.3694  0.5453 -0.4802
 9433SOL    HW139935   3.209   1.758   2.251 -0.1879 -1.7039 -1.3612
 9433SOL    HW239936   3.090   1.776   2.161 -3.0057  1.4592  0.4671
 9434SOL     OW39937   4.438   2.018   2.257  0.0732  0.2388 -0.3009
 9434SOL    HW139938   4.435   2.100   2.306  1.0455 -0.5866  1.1479
 9434SOL    HW239939   4.516   2.029   2.203  0.1667 -1.2560 -0.4625
 9435SOL     OW39940   1.185   0.919   0.272  0.3789  0.1412 -0.4337
 9435SOL    HW139941   1.116   0.878   0.220 -0.2585 -0.3333  0.7811
 9435SOL    HW239942   1.178   1.012   0.251  3.5205  0.6916  0.9138
 9436SOL     OW39943   3.236   4.138   0.186  0.2264 -0.5627 -0.0258
 9436SOL    HW139944   3.169   4.090   0.138 -0.5814  0.9902 -0.4500
 9436SOL    HW239945   3.300   4.073   0.217  1.8185  1.3758  0.7874
 9437SOL     OW39946   2.867   0.241  14.560 -0.3184 -0.1562 -0.7242
 9437SOL    HW139947   2.898   0.312  14.617  0.4435 -0.9508 -0.1551
 9437SOL    HW239948   2.792   0.287  14.522 -0.9119 -2.0567 -1.8337
 9438SOL     OW39949   3.358   4.711   8.288 -0.0753 -0.4066 -0.2326
 9438SOL    HW139950   3.335   4.631   8.240  0.9086 -0.2679 -0.9458
 9438SOL    HW239951   3.449   4.688   8.307  0.4500  1.6314 -0.3601
 9439SOL     OW39952   2.545   3.268   6.627  0.1023 -0.3676  0.7600
 9439SOL    HW139953   2.453   3.291   6.614  0.4184 -0.1535 -1.0207
 9439SOL    HW239954   2.550   3.267   6.723 -1.1284 -0.1908  0.8323
 9440SOL     OW39955   1.649   0.890  10.729 -0.3195  0.1590  0.1437
 9440SOL    HW139956   1.624   0.964  10.674  1.1377 -0.7959 -1.7944
 9440SOL    HW239957   1.699   0.840  10.664 -0.9233 -0.1429 -0.0918
 9441SOL     OW39958   1.780   3.911   4.893 -0.3573 -0.6685  0.5811
 9441SOL    HW139959   1.801   3.873   4.808  1.0555  0.6416  0.3547
 9441SOL    HW239960   1.721   3.981   4.865  2.5572  1.6160  0.2365
 9442SOL     OW39961   2.943   4.603   3.172 -0.4521 -0.3290 -0.4088
 9442SOL    HW139962   2.876   4.668   3.194 -2.1619 -2.4129  0.5296
 9442SOL    HW239963   2.990   4.600   3.255  1.6181  1.4484 -1.5079
 9443SOL     OW39964   1.036   0.448   2.404  0.0936 -0.3768  0.2029
 9443SOL    HW139965   1.000   0.406   2.483  1.5635  0.4907  1.3383
 9443SOL    HW239966   0.972   0.519   2.398  1.0396  0.5417  0.9199
 9444SOL     OW39967   0.231   3.566  10.195 -0.0074  0.1338  0.2068
 9444SOL    HW139968   0.142   3.590  10.222  0.4059  1.1454  0.7047
 9444SOL    HW239969   0.272   3.653  10.195  0.5512 -0.1297  1.1959
 9445SOL     OW39970   0.132   1.269  17.449 -0.4108 -0.1496 -0.2299
 9445SOL    HW139971   0.103   1.220  17.372 -0.3734 -2.4227  1.1872
 9445SOL    HW239972   0.158   1.192  17.500  1.8592  0.0115 -1.1666
 9446SOL     OW39973   3.624   4.510  10.688  0.2709  0.0316 -0.9075
 9446SOL    HW139974   3.545   4.456  10.691  1.4621 -1.7504 -1.5630
 9446SOL    HW239975   3.603   4.568  10.615 -0.2924 -0.5481 -1.2146
 9447SOL     OW39976   4.159   3.754  11.454 -0.2273  0.7497 -0.2661
 9447SOL    HW139977   4.095   3.724  11.390 -0.1644  2.5516 -1.1612
 9447SOL    HW239978   4.210   3.674  11.460 -1.8970 -0.2957 -0.0373
 9448SOL     OW39979   2.080   1.890   2.453 -0.0935 -0.0878 -0.3509
 9448SOL    HW139980   2.097   1.812   2.400 -0.7268 -0.7034  0.3573
 9448SOL    HW239981   2.170   1.914   2.475 -0.2894 -0.1113  0.4630
 9449SOL     OW39982   2.302   2.178  13.690  0.4226 -0.1926 -0.4232
 9449SOL    HW139983   2.223   2.166  13.637 -0.1713 -0.0314  0.4232
 9449SOL    HW239984   2.265   2.170  13.778  0.7103 -0.3266 -0.3122
 9450SOL     OW39985   1.166   0.418   3.068 -0.0189 -0.3029  0.0833
 9450SOL    HW139986   1.221   0.377   3.000 -0.3348 -1.6632  0.6434
 9450SOL    HW239987   1.109   0.349   3.102 -1.1171 -1.1458 -3.4580
 9451SOL     OW39988   2.588   4.161   8.106 -0.3204 -0.4631  0.2498
 9451SOL    HW139989   2.645   4.232   8.135  0.4296 -1.4940  1.2447
 9451SOL    HW239990   2.635   4.099   8.050  2.4558  1.1619  0.7907
 9452SOL     OW39991   1.668   2.777   2.359  0.2861 -0.2376  0.3103
 9452SOL    HW139992   1.710   2.700   2.398  1.0006  0.1084  0.2333
 9452SOL    HW239993   1.625   2.737   2.283 -0.9771  0.9666  0.3999
 9453SOL     OW39994   4.072   4.640   4.950 -0.0407 -0.0328 -0.3383
 9453SOL    HW139995   3.978   4.647   4.967 -0.1491 -1.3752 -0.3611
 9453SOL    HW239996   4.076   4.662   4.857 -1.3412  1.1597 -0.1186
 9454SOL     OW39997   1.215   3.453   6.657 -0.3043  0.2229 -0.3609
 9454SOL    HW139998   1.252   3.535   6.690 -2.5355  0.6323  1.0977
 9454SOL    HW239999   1.222   3.398   6.735 -1.9050  1.8568  0.9153
 9455SOL     OW40000   3.110   3.837   1.049 -0.1934  0.1268 -0.0929
 9455SOL    HW140001   3.144   3.790   0.972 -1.0966 -0.4002 -0.1724
 9455SOL    HW240002   3.130   3.786   1.127 -1.5814  0.9757  0.8039
 9456SOL     OW40003   4.099   2.015  13.093  0.4092 -0.0355 -0.1985
 9456SOL    HW140004   4.004   2.007  13.105  0.4344  0.1325  0.0927
 9456SOL    HW240005   4.106   2.109  13.109  2.5027  0.0985 -1.8318
 9457SOL     OW40006   2.520   3.255  11.884  0.7338 -0.0804  0.0347
 9457SOL    HW140007   2.431   3.219  11.875  0.3837  0.9439 -0.5803
 9457SOL    HW240008   2.552   3.247  11.795  0.4973 -1.2471  0.0590
 9458SOL     OW40009   3.989   3.377   5.194 -0.1771 -0.6286 -0.3336
 9458SOL    HW140010   3.995   3.293   5.240  1.8329 -0.3380 -0.0857
 9458SOL    HW240011   4.045   3.428   5.253  1.1684 -0.7299 -1.5165
 9459SOL     OW40012   1.111   2.464  10.583  0.4339 -0.0696 -0.0872
 9459SOL    HW140013   1.124   2.381  10.629  2.5189  2.0039  3.0353
 9459SOL    HW240014   1.032   2.497  10.627 -0.7724 -0.8074 -1.6999
 9460SOL     OW40015   0.585   3.006   5.633  0.3392 -0.0077  0.3711
 9460SOL    HW140016   0.539   3.045   5.559 -0.1060  0.4728  0.9006
 9460SOL    HW240017   0.677   3.022   5.614  0.3243 -1.3335 -0.8293
 9461SOL     OW40018   1.788   4.597   4.358 -0.1805 -0.2932  0.4459
 9461SOL    HW140019   1.791   4.614   4.452  0.4481 -0.8394  0.5250
 9461SOL    HW240020   1.742   4.674   4.324  1.3995  0.1870 -0.5857
 9462SOL     OW40021   2.905   2.434   2.919 -0.3344 -0.7580  0.4359
 9462SOL    HW140022   2.962   2.477   2.855 -1.9193 -0.4942 -0.7826
 9462SOL    HW240023   2.933   2.484   2.996  0.2733 -0.4274  0.0051
 9463SOL     OW40024   3.098   1.374   2.358  0.1299  0.2262  0.1947
 9463SOL    HW140025   3.133   1.432   2.291  1.4605 -2.0608 -1.0766
 9463SOL    HW240026   3.007   1.403   2.351  0.3841  1.4788  2.2304
 9464SOL     OW40027   0.905   1.688  10.034  0.1124 -0.0398 -0.0998
 9464SOL    HW140028   0.830   1.692   9.975  0.4223 -0.8926 -0.5472
 9464SOL    HW240029   0.891   1.626  10.106  1.4960 -0.5112 -0.2240
 9465SOL     OW40030   4.347   0.512   5.545 -0.0920 -0.3198  0.7250
 9465SOL    HW140031   4.426   0.526   5.598 -0.2996 -3.4106  1.8640
 9465SOL    HW240032   4.367   0.579   5.479  0.4409 -0.7660  0.4353
 9466SOL     OW40033   0.477   3.953   5.394 -0.5799  0.3017 -0.0566
 9466SOL    HW140034   0.433   3.887   5.447  1.1295 -0.4804  0.4211
 9466SOL    HW240035   0.423   3.966   5.316 -1.1491  0.1421  0.3126
 9467SOL     OW40036   3.819   2.623   4.634  0.1070  0.1054  0.6445
 9467SOL    HW140037   3.754   2.553   4.638  0.3175 -0.2764 -2.9115
 9467SOL    HW240038   3.766   2.692   4.594 -0.8360 -1.5345 -0.9074
 9468SOL     OW40039   2.086   0.287   2.622 -0.0403 -0.1384 -0.1489
 9468SOL    HW140040   2.134   0.342   2.684  2.4462 -0.8003 -1.4609
 9468SOL    HW240041   2.096   0.338   2.541  0.2382 -0.4422 -0.3080
 9469SOL     OW40042   1.926   1.384   8.888  0.0590  0.1848 -0.1924
 9469SOL    HW140043   1.896   1.306   8.934 -0.6177 -1.1108 -2.7852
 9469SOL    HW240044   1.950   1.338   8.807 -1.9919 -1.6693  0.2444
 9470SOL     OW40045   2.486   4.734  15.865  0.0477  0.8136 -0.0020
 9470SOL    HW140046   2.581   4.731  15.863 -0.0305 -0.5076 -1.8208
 9470SOL    HW240047   2.468   4.641  15.853  1.6075  0.6004 -0.6204
 9471SOL     OW40048   2.612   4.676   3.834  0.3878  0.0321 -0.8673
 9471SOL    HW140049   2.644   4.701   3.921 -2.2197  0.9772 -0.1880
 9471SOL    HW240050   2.624   4.581   3.826 -2.9712 -0.5283  0.7926
 9472SOL     OW40051   1.022   1.126   7.766 -0.8056  0.5191 -0.2318
 9472SOL    HW140052   1.073   1.172   7.699 -0.5831  2.4201  1.2391
 9472SOL    HW240053   0.935   1.165   7.755 -0.6366  0.9543 -0.0307
 9473SOL     OW40054   3.130   1.253  11.839 -0.6703  0.5516 -0.4574
 9473SOL    HW140055   3.138   1.284  11.749 -0.2954  1.9478  0.0443
 9473SOL    HW240056   3.034   1.248  11.843 -0.6874  2.2479  1.6235
 9474SOL     OW40057   4.501   1.459   2.639  0.0498  0.3833 -0.7565
 9474SOL    HW140058   4.480   1.527   2.703  0.0624 -1.1218  0.8691
 9474SOL    HW240059   4.425   1.461   2.581 -2.0109 -0.9929  1.8411
 9475SOL     OW40060   2.462   0.514   4.359  0.2986 -0.1153  0.1613
 9475SOL    HW140061   2.374   0.494   4.328  0.7716 -0.2438 -1.1283
 9475SOL    HW240062   2.462   0.610   4.362  1.8463 -0.0773 -0.7873
 9476SOL     OW40063   2.848   0.935   3.297  0.3848  0.2612 -0.3187
 9476SOL    HW140064   2.890   1.013   3.333  2.5481 -0.8394 -0.4818
 9476SOL    HW240065   2.865   0.868   3.362  1.1853 -0.4168 -1.2361
 9477SOL     OW40066   2.291   4.141   8.446  0.5790 -0.3927 -0.1155
 9477SOL    HW140067   2.361   4.196   8.481 -0.8914  1.2617  0.2558
 9477SOL    HW240068   2.308   4.127   8.354 -1.0687 -2.2340 -0.1414
 9478SOL     OW40069   3.945   3.793   8.965  0.4994  0.7264 -0.6877
 9478SOL    HW140070   3.958   3.877   9.007 -2.5507  1.8475 -1.9828
 9478SOL    HW240071   3.853   3.799   8.941  0.2603  0.4927  0.1731
 9479SOL     OW40072   0.465   1.014   8.903 -0.1945  0.4102  0.4641
 9479SOL    HW140073   0.498   1.099   8.933 -0.3108  0.3836  0.6672
 9479SOL    HW240074   0.422   1.039   8.822  0.3208 -2.4157 -0.6544
 9480SOL     OW40075   3.160   3.982   4.333 -0.2214  0.4946  0.6253
 9480SOL    HW140076   3.080   3.991   4.282  0.5609 -0.8656 -0.8198
 9480SOL    HW240077   3.161   4.063   4.384  2.5469  2.7648 -3.0151
 9481SOL     OW40078   3.151   2.359   1.781 -0.2459  0.2960 -0.5602
 9481SOL    HW140079   3.177   2.437   1.830  1.2539 -1.7603  1.9322
 9481SOL    HW240080   3.164   2.391   1.692 -1.0258  2.4649  0.1160
 9482SOL     OW40081   4.109   2.044  14.486 -0.0163 -0.0041 -0.5210
 9482SOL    HW140082   4.151   2.081  14.408  1.4326 -0.1680  0.1747
 9482SOL    HW240083   4.059   2.121  14.513 -0.8680  0.2929 -2.9649
 9483SOL     OW40084   3.207   1.020   6.936  0.4573  0.6874  0.7553
 9483SOL    HW140085   3.166   1.056   7.015 -3.2231 -1.2276 -0.2947
 9483SOL    HW240086   3.150   0.947   6.914  2.3559 -1.3350  2.5416
 9484SOL     OW40087   3.463   2.215   1.437 -0.0567 -0.2456 -0.1164
 9484SOL    HW140088   3.426   2.210   1.525  0.7569 -1.6914  0.1507
 9484SOL    HW240089   3.493   2.126   1.417 -2.0911 -1.5530  2.5983
 9485SOL     OW40090   2.475   2.229   1.457  0.2449  0.1092  1.2100
 9485SOL    HW140091   2.431   2.224   1.542  0.9122 -0.0320  1.5455
 9485SOL    HW240092   2.411   2.290   1.421 -0.1000  0.9160  3.1790
 9486SOL     OW40093   3.924   2.788   2.599  0.6676  0.6105  0.4122
 9486SOL    HW140094   3.943   2.723   2.532 -2.1615  0.2826 -0.0574
 9486SOL    HW240095   4.012   2.795   2.634  0.4957 -1.5276  1.2906
 9487SOL     OW40096   2.344   3.264   3.491  0.0240 -0.1200  0.1453
 9487SOL    HW140097   2.372   3.309   3.411 -0.5532 -2.1792 -1.2044
 9487SOL    HW240098   2.402   3.188   3.494  2.4419  1.6906 -0.3406
 9488SOL     OW40099   0.139   3.591   5.074  0.8174  0.5605 -0.4445
 9488SOL    HW140100   0.132   3.523   5.141 -0.4455 -1.3908 -2.5681
 9488SOL    HW240101   0.118   3.672   5.122  0.0984 -0.0677  0.3045
 9489SOL     OW40102   3.590   3.453   4.654 -0.3008 -0.1590  0.2325
 9489SOL    HW140103   3.593   3.460   4.750  3.2211  0.5364  0.0999
 9489SOL    HW240104   3.681   3.446   4.623 -0.2557  2.1002 -0.1564
 9490SOL     OW40105   0.155   4.674  17.058 -0.5470  0.0947 -0.5183
 9490SOL    HW140106   0.069   4.716  17.055 -1.4147 -1.5400  1.5358
 9490SOL    HW240107   0.207   4.707  16.984 -1.6454 -1.5121 -2.0240
 9491SOL     OW40108   1.213   1.879  12.539 -0.6045 -0.5049 -0.4180
 9491SOL    HW140109   1.229   1.790  12.570 -1.9486 -0.8555 -0.7133
 9491SOL    HW240110   1.306   1.900  12.541 -0.4922 -1.0746  0.3936
 9492SOL     OW40111   2.158   0.574   5.704 -0.2842  0.3788  0.4325
 9492SOL    HW140112   2.121   0.505   5.648 -2.2682  1.8071  0.0034
 9492SOL    HW240113   2.091   0.598   5.768  0.0122 -0.8923  1.2414
 9493SOL     OW40114   0.654   3.859   7.473 -1.0111  0.4756  0.6472
 9493SOL    HW140115   0.700   3.820   7.547  2.1941 -1.5588 -2.4108
 9493SOL    HW240116   0.606   3.934   7.508 -1.0113  0.0660  1.5283
 9494SOL     OW40117   3.697   3.109   2.868  0.0247  0.5252  0.4273
 9494SOL    HW140118   3.611   3.094   2.829 -0.2828  0.8864  0.9774
 9494SOL    HW240119   3.681   3.183   2.927 -0.2540  0.6107  0.2469
 9495SOL     OW40120   3.028   1.953   4.631 -0.4246 -0.2218  0.1838
 9495SOL    HW140121   3.041   1.981   4.540 -0.2162 -0.7195  0.0576
 9495SOL    HW240122   3.055   2.029   4.681 -1.4208  0.3160 -0.0953
 9496SOL     OW40123   3.525   2.983   3.092  0.3990  0.2160 -0.3367
 9496SOL    HW140124   3.620   2.995   3.101 -0.0415  1.5075  2.8747
 9496SOL    HW240125   3.499   3.075   3.080 -1.5942 -0.1995  0.7949
 9497SOL     OW40126   2.547   4.267   1.530 -0.4636  0.2866  0.4354
 9497SOL    HW140127   2.472   4.317   1.497  0.9275  0.4219 -2.4624
 9497SOL    HW240128   2.611   4.263   1.459 -1.9295  0.0685 -0.8661
 9498SOL     OW40129   3.941   4.591   3.054 -0.5140 -0.4622  0.1021
 9498SOL    HW140130   3.912   4.504   3.082 -1.1084  0.4980  2.4756
 9498SOL    HW240131   4.014   4.607   3.114 -0.5348  1.0840 -0.2875
 9499SOL     OW40132   1.272   3.375   2.128  0.0475 -0.1555  0.4478
 9499SOL    HW140133   1.242   3.439   2.193  1.5902  0.6431  0.3902
 9499SOL    HW240134   1.192   3.333   2.097 -0.6775  0.7548  1.0916
 9500SOL     OW40135   3.034   2.663   8.049 -0.3020 -0.0809 -0.3338
 9500SOL    HW140136   3.035   2.642   7.955 -1.4068 -2.0650  0.0807
 9500SOL    HW240137   3.116   2.711   8.063 -0.7803  0.1599  1.6729
 9501SOL     OW40138   2.100   2.429   5.974 -0.4387  0.0346 -0.0215
 9501SOL    HW140139   2.045   2.375   5.918 -1.9759 -1.2835  2.7303
 9501SOL    HW240140   2.033   2.475   6.025 -1.9374 -2.6940  0.4872
 9502SOL     OW40141   4.568   1.844   3.600 -0.1079  0.1163  0.4880
 9502SOL    HW140142   4.633   1.814   3.536 -0.1512 -0.4568  0.7092
 9502SOL    HW240143   4.620   1.886   3.668  0.2494 -1.9108  1.4475
 9503SOL     OW40144   2.016   1.185   1.353 -0.1144  0.3150 -1.1288
 9503SOL    HW140145   2.066   1.195   1.434  0.1632 -3.3653 -0.8445
 9503SOL    HW240146   2.055   1.106   1.317  0.5742 -0.6871  1.7913
 9504SOL     OW40147   0.650   3.349   5.603  0.3482  0.1022 -0.1752
 9504SOL    HW140148   0.589   3.295   5.553 -0.6608  0.7339  0.3805
 9504SOL    HW240149   0.614   3.328   5.689 -1.3816  0.4067 -0.8360
 9505SOL     OW40150   4.257   2.787  13.710  0.6744 -0.1306  0.4033
 9505SOL    HW140151   4.347   2.801  13.741  0.0943 -0.9492  2.4333
 9505SOL    HW240152   4.267   2.791  13.614  0.4231  2.3744  0.4927
 9506SOL     OW40153   3.316   3.852   7.248  0.4236  0.2224  0.1762
 9506SOL    HW140154   3.371   3.878   7.174 -0.4938 -0.3901 -0.7085
 9506SOL    HW240155   3.313   3.759   7.226  1.0464 -0.1128  1.5255
 9507SOL     OW40156   1.426   3.881   9.396 -0.3872  0.0604 -0.5966
 9507SOL    HW140157   1.447   3.802   9.446 -0.6520  1.2847  1.4622
 9507SOL    HW240158   1.383   3.929   9.466 -1.0249  1.8174 -2.1835
 9508SOL     OW40159   2.457   1.754   6.849  0.2091  0.0712 -0.1698
 9508SOL    HW140160   2.534   1.756   6.906 -0.0980 -2.3475  0.3329
 9508SOL    HW240161   2.442   1.848   6.849 -2.0015 -0.2875 -2.6217
 9509SOL     OW40162   3.215   3.379   1.817 -0.0776  0.0557  0.1194
 9509SOL    HW140163   3.210   3.284   1.807  0.0331  0.3403 -2.8234
 9509SOL    HW240164   3.291   3.386   1.759  0.2107 -0.4931  0.4333
 9510SOL     OW40165   3.842   2.328  12.977  0.0129  0.0150 -0.0510
 9510SOL    HW140166   3.767   2.355  13.031  0.4867 -0.3864  0.8069
 9510SOL    HW240167   3.828   2.377  12.896  0.9826  0.4392  0.0413
 9511SOL     OW40168   0.005   2.601   3.562 -0.3837 -0.5653 -0.0420
 9511SOL    HW140169   0.003   2.607   3.466  0.9343  0.4366  0.0007
 9511SOL    HW240170   4.706   2.513   3.566 -0.8562 -0.4665 -2.1939
 9512SOL     OW40171   2.690   3.497   1.185 -0.0769  0.0063  0.1148
 9512SOL    HW140172   2.736   3.516   1.267  0.3784 -1.4996  0.2088
 9512SOL    HW240173   2.638   3.577   1.179  0.0422  0.2459  2.2889
 9513SOL     OW40174   2.643   4.128  17.688 -0.2507 -0.2665  0.1137
 9513SOL    HW140175   2.650   4.217  17.653  2.5346 -1.4065 -2.1687
 9513SOL    HW240176   2.580   4.079  17.635 -2.1847  2.8227 -0.5100
 9514SOL     OW40177   0.415   3.374   6.944 -0.2757 -0.4488  0.1413
 9514SOL    HW140178   0.362   3.343   6.871 -1.1870 -0.5858  0.8580
 9514SOL    HW240179   0.353   3.397   7.013 -1.1505  0.9604 -1.1050
 9515SOL     OW40180   3.210   4.135   7.295  0.4563  0.2562  0.1993
 9515SOL    HW140181   3.183   4.053   7.254 -1.6399  0.2940  1.5023
 9515SOL    HW240182   3.285   4.099   7.342  0.8206  0.9748  0.1637
 9516SOL     OW40183   0.826   0.096   1.932  0.5002 -0.1289  0.1242
 9516SOL    HW140184   0.764   0.090   2.005  1.3192  2.0986  0.9805
 9516SOL    HW240185   0.831   0.004   1.907 -0.4380 -0.7841  2.3707
 9517SOL     OW40186   2.109   3.991   3.167 -0.1659 -0.3850 -0.0818
 9517SOL    HW140187   2.061   4.027   3.242 -0.6244 -0.5418 -0.2944
 9517SOL    HW240188   2.135   3.904   3.195  1.3825  0.1713  0.1982
 9518SOL     OW40189   1.212   0.228   6.088 -0.2799  0.5934  0.0056
 9518SOL    HW140190   1.218   0.246   6.182  0.3820  0.3558  0.0025
 9518SOL    HW240191   1.203   0.315   6.049 -0.0760 -0.7756 -3.1026
 9519SOL     OW40192   2.932   1.353   7.752  0.1156 -0.1626 -0.1530
 9519SOL    HW140193   2.960   1.314   7.835  2.1708  0.3071 -0.6135
 9519SOL    HW240194   3.003   1.415   7.736 -1.6796  1.9085 -0.1230
 9520SOL     OW40195   2.424   3.706   0.291  0.0648  0.2797 -0.5884
 9520SOL    HW140196   2.483   3.750   0.231 -0.2028  1.3392 -0.0790
 9520SOL    HW240197   2.490   3.656   0.340 -0.5327  2.0171  1.9649
 9521SOL     OW40198   0.694   4.578  13.396  0.4126  0.3617 -0.0314
 9521SOL    HW140199   0.612   4.529  13.395  0.5990  0.0089  1.8739
 9521SOL    HW240200   0.751   4.503  13.413  0.7961  0.5471 -0.5151
 9522SOL     OW40201   1.911   3.453   6.576  0.0440  0.2481 -0.0243
 9522SOL    HW140202   1.995   3.497   6.566  0.2008 -0.3726 -1.4185
 9522SOL    HW240203   1.922   3.418   6.665 -0.6384 -1.7280 -0.7151
 9523SOL     OW40204   0.187   0.963   9.791  0.0363  0.0759 -0.0147
 9523SOL    HW140205   0.237   0.887   9.760 -1.2281 -0.8430  0.1987
 9523SOL    HW240206   0.141   0.922   9.864 -3.2800 -0.0329 -2.2101
 9524SOL     OW40207   3.639   0.784   2.708  0.3482  0.2298 -0.1585
 9524SOL    HW140208   3.671   0.714   2.765 -2.1240 -1.1127 -0.3814
 9524SOL    HW240209   3.553   0.754   2.677  0.7982 -0.2420 -0.9569
 9525SOL     OW40210   3.067   1.123  10.626  0.2131 -0.6111  0.3650
 9525SOL    HW140211   3.092   1.210  10.592 -1.7131  0.3243  1.3330
 9525SOL    HW240212   2.982   1.150  10.662  1.7127  1.7121  2.1573
 9526SOL     OW40213   4.597   1.687   7.719  0.5479  0.1175  0.0564
 9526SOL    HW140214   4.504   1.706   7.714  1.1935  2.6979 -2.6884
 9526SOL    HW240215   4.616   1.706   7.626  1.6409 -2.5503 -0.2744
 9527SOL     OW40216   3.877   3.492   1.497  0.3203 -0.7614  0.1004
 9527SOL    HW140217   3.801   3.483   1.554  0.4839  1.2082  0.6394
 9527SOL    HW240218   3.893   3.400   1.475 -1.1432 -1.4296  1.8356
 9528SOL     OW40219   3.729   2.102   9.273  0.0184  0.7245 -0.1364
 9528SOL    HW140220   3.753   2.185   9.231 -0.6754  0.0383 -1.8685
 9528SOL    HW240221   3.663   2.131   9.336  1.9264  0.5270  1.9873
 9529SOL     OW40222   3.386   3.933   5.479  0.4139 -0.2403 -0.2449
 9529SOL    HW140223   3.352   3.860   5.427  0.6419  0.6769 -1.6777
 9529SOL    HW240224   3.444   3.891   5.543  0.2967 -0.3017 -0.1780
 9530SOL     OW40225   1.879   3.629  10.508 -0.0318 -0.4221 -0.7296
 9530SOL    HW140226   1.866   3.672  10.423 -3.2073 -1.3672 -0.7359
 9530SOL    HW240227   1.819   3.675  10.566 -0.0868 -0.9100 -0.3983
 9531SOL     OW40228   0.571   2.832   8.410 -0.1216 -0.2318 -0.7036
 9531SOL    HW140229   0.487   2.795   8.435 -0.9442  1.3239 -1.1474
 9531SOL    HW240230   0.557   2.831   8.315 -2.8532  0.4199 -0.3030
 9532SOL     OW40231   1.236   0.435  11.693 -0.2061 -0.3897 -0.1479
 9532SOL    HW140232   1.274   0.512  11.651  2.5465 -1.6692 -0.0064
 9532SOL    HW240233   1.199   0.481  11.768 -0.5337  2.4973 -2.0684
 9533SOL     OW40234   3.332   2.228   1.961 -0.5345  0.5374  0.5856
 9533SOL    HW140235   3.393   2.250   1.891 -0.0977  0.1743  0.8470
 9533SOL    HW240236   3.248   2.238   1.918  0.3275  1.4633 -0.8738
 9534SOL     OW40237   3.690   3.122  10.675 -0.8914 -0.0394 -0.3078
 9534SOL    HW140238   3.760   3.114  10.610  0.0068  2.7199  0.3241
 9534SOL    HW240239   3.681   3.217  10.671 -0.8207 -0.0273 -0.1488
 9535SOL     OW40240   1.316   0.613   5.465  0.1549  0.3516 -0.5982
 9535SOL    HW140241   1.292   0.521   5.450  2.5299 -0.5752  1.2402
 9535SOL    HW240242   1.237   0.640   5.512  0.8492  1.1004  0.1247
 9536SOL     OW40243   0.588   1.690   2.209  0.5665 -0.3702  0.5241
 9536SOL    HW140244   0.503   1.729   2.189  0.9203 -1.2697 -2.6918
 9536SOL    HW240245   0.579   1.660   2.300 -2.0458 -2.6415 -0.5118
 9537SOL     OW40246   2.062   0.382   8.618 -0.1234 -0.2255  0.6093
 9537SOL    HW140247   2.018   0.348   8.696  0.9374 -1.3020  0.7487
 9537SOL    HW240248   2.097   0.300   8.582  0.1374 -0.4517  1.3720
 9538SOL     OW40249   0.658   4.494  14.226 -0.0005  0.5079 -0.1240
 9538SOL    HW140250   0.675   4.566  14.288 -0.9706 -0.9622  1.8422
 9538SOL    HW240251   0.649   4.421  14.287  0.0341  1.6358  1.2449
 9539SOL     OW40252   3.070   4.718  17.619 -0.6518  0.4665 -0.6883
 9539SOL    HW140253   3.123   4.730  17.540  0.1169  0.3192 -0.1990
 9539SOL    HW240254   3.005   0.049  17.612 -1.7824 -0.5168 -0.0931
 9540SOL     OW40255   1.207   3.001   8.147  0.1071 -0.0055  0.0731
 9540SOL    HW140256   1.194   2.949   8.068  3.4574 -1.5551  0.5506
 9540SOL    HW240257   1.297   3.029   8.134 -0.5416  1.6950 -0.8062
 9541SOL     OW40258   2.089   3.084   5.128 -0.1940 -0.1032 -0.7902
 9541SOL    HW140259   2.111   3.176   5.141 -0.1919 -0.2824  0.5237
 9541SOL    HW240260   2.050   3.055   5.211 -2.0410  4.5652 -0.0171
 9542SOL     OW40261   2.949   4.330   2.759  0.3658  0.4590  0.1161
 9542SOL    HW140262   2.996   4.284   2.828  2.3026  0.4967 -1.1729
 9542SOL    HW240263   2.916   4.407   2.806 -2.5260 -0.9387  0.3568
 9543SOL     OW40264   1.259   2.125  14.686  1.3340 -0.4900 -0.3611
 9543SOL    HW140265   1.302   2.069  14.621 -0.8519 -2.5354 -0.0050
 9543SOL    HW240266   1.322   2.195  14.701  0.4854  0.3332 -0.6114
 9544SOL     OW40267   2.313   0.949   1.693  0.4674 -0.1666 -0.5061
 9544SOL    HW140268   2.327   1.017   1.627 -0.0279  0.6176  0.1834
 9544SOL    HW240269   2.355   0.872   1.655  0.9109 -0.3243  0.3003
 9545SOL     OW40270   0.036   4.222   4.841 -0.4612  0.0062 -0.2897
 9545SOL    HW140271   4.734   4.196   4.923  0.2498 -1.3537 -0.3704
 9545SOL    HW240272   4.731   4.165   4.778  1.1693 -1.4587 -0.1022
 9546SOL     OW40273   2.368   3.117   1.642 -0.3003 -0.2436 -0.7481
 9546SOL    HW140274   2.312   3.164   1.704 -0.4469 -0.2432 -0.8817
 9546SOL    HW240275   2.346   3.162   1.561 -0.3598  1.6508  0.3363
 9547SOL     OW40276   4.428   0.931   8.936  0.1082 -0.2453 -0.2679
 9547SOL    HW140277   4.462   0.842   8.929 -0.4859 -0.5062  0.2483
 9547SOL    HW240278   4.418   0.927   9.031 -0.2296  0.9864 -0.2461
 9548SOL     OW40279   0.197   3.499   4.414  0.2137  0.4416  0.3073
 9548SOL    HW140280   0.236   3.435   4.474  0.3159  2.0351  1.9306
 9548SOL    HW240281   0.106   3.472   4.430  0.3889  0.8626  1.9736
 9549SOL     OW40282   0.929   4.484   2.808  0.3651  0.5056 -0.3801
 9549SOL    HW140283   0.946   4.396   2.774 -1.8006 -0.0736  0.0554
 9549SOL    HW240284   0.911   4.521   2.721  0.7685  1.0602 -0.2261
 9550SOL     OW40285   3.030   1.605  15.872 -0.1940  0.5323  0.4618
 9550SOL    HW140286   3.041   1.544  15.945  0.4687 -1.0934 -1.0201
 9550SOL    HW240287   3.070   1.689  15.895  1.3937 -0.5076  1.5153
 9551SOL     OW40288   1.368   2.036   3.912  0.0217 -0.2191 -0.2450
 9551SOL    HW140289   1.332   2.103   3.855  2.5059  0.3998 -1.0980
 9551SOL    HW240290   1.373   2.076   3.998  0.5642  1.5273 -1.1040
 9552SOL     OW40291   2.537   3.651  16.982 -0.2877  0.4081  0.7303
 9552SOL    HW140292   2.609   3.633  17.043  0.1934 -2.6610 -0.7067
 9552SOL    HW240293   2.530   3.571  16.929 -1.6258  0.9429  0.1100
 9553SOL     OW40294   4.194   0.008  17.663 -0.6906  0.8213  0.0152
 9553SOL    HW140295   4.126   4.718  17.724 -0.1352 -0.2605  0.1200
 9553SOL    HW240296   4.262   0.025  17.729 -0.0260 -0.9604 -0.2069
 9554SOL     OW40297   1.348   2.640  14.009 -0.3018 -0.2921 -0.1773
 9554SOL    HW140298   1.292   2.690  13.950 -1.0238 -0.4784  0.3547
 9554SOL    HW240299   1.290   2.625  14.083 -1.9810  2.7654 -0.8730
 9555SOL     OW40300   1.568   0.003   4.586  0.1617  0.3053  0.1925
 9555SOL    HW140301   1.662   0.016   4.571 -0.1241 -0.2785 -2.1347
 9555SOL    HW240302   1.548   0.092   4.612  0.5585  0.2709  0.6227
 9556SOL     OW40303   4.529   3.992   7.731  0.5687  0.1691 -0.5527
 9556SOL    HW140304   4.467   3.919   7.725  0.7385  0.2169 -2.6112
 9556SOL    HW240305   4.549   4.017   7.641 -3.6272  0.7869 -1.3080
 9557SOL     OW40306   0.447   2.821   9.150  0.0824 -0.0722 -0.2048
 9557SOL    HW140307   0.479   2.875   9.078 -0.4597  0.7034  0.1397
 9557SOL    HW240308   0.402   2.760   9.091  0.3315 -0.8130  0.3656
 9558SOL     OW40309   0.397   0.592   7.680 -0.0491 -0.2427 -0.2117
 9558SOL    HW140310   0.477   0.572   7.632 -0.6910  1.2690 -1.9448
 9558SOL    HW240311   0.339   0.612   7.606  1.2905  4.7268  0.0442
 9559SOL     OW40312   2.860   4.552   3.580  0.5061 -0.2310  1.0997
 9559SOL    HW140313   2.950   4.523   3.594  0.3802 -0.7457  0.8517
 9559SOL    HW240314   2.801   4.497   3.632 -0.1249 -1.0503 -0.4721
 9560SOL     OW40315   4.237   3.282   3.557 -0.6297 -0.8490  0.3134
 9560SOL    HW140316   4.319   3.328   3.537 -0.4406 -2.0736 -1.7270
 9560SOL    HW240317   4.255   3.251   3.646 -0.6638  0.7720  0.8884
 9561SOL     OW40318   1.660   0.525   6.758 -0.4347 -0.2507 -0.2122
 9561SOL    HW140319   1.646   0.435   6.729 -1.1015  0.0346 -0.7594
 9561SOL    HW240320   1.686   0.580   6.684  0.2817  1.5438  1.3438
 9562SOL     OW40321   4.441   4.222   3.298  0.0133 -0.0780 -0.1183
 9562SOL    HW140322   4.464   4.188   3.211 -1.4746 -0.3083 -0.4190
 9562SOL    HW240323   4.447   4.143   3.351  0.7505  0.5111  0.6855
 9563SOL     OW40324   2.850   2.039  17.618  0.5238  0.0667  0.1690
 9563SOL    HW140325   2.839   2.082  17.703  1.4632 -1.0732  0.8624
 9563SOL    HW240326   2.766   2.054  17.574 -0.8815  0.7555  3.0629
 9564SOL     OW40327   1.058   0.443   2.701  0.2949 -0.1779  0.3940
 9564SOL    HW140328   1.032   0.535   2.711 -1.0950 -0.6728  1.3690
 9564SOL    HW240329   0.988   0.394   2.745 -1.3147  2.6078  0.9498
 9565SOL     OW40330   3.530   3.956   1.001  0.5920 -0.2183  0.2477
 9565SOL    HW140331   3.564   3.990   0.919  1.1394 -0.1229  0.5142
 9565SOL    HW240332   3.530   4.032   1.059  0.3505  1.3458 -1.8071
 9566SOL     OW40333   0.206   2.284   3.690  0.0812  0.7299  0.3672
 9566SOL    HW140334   0.131   2.238   3.652  1.3765 -0.0875 -1.1847
 9566SOL    HW240335   0.260   2.323   3.621 -0.0654 -0.9376 -0.6881
 9567SOL     OW40336   1.881   4.605   3.606 -0.0617  0.1384 -0.1128
 9567SOL    HW140337   1.944   4.557   3.552  0.3592 -0.5343  0.9822
 9567SOL    HW240338   1.896   4.698   3.589 -0.2484  0.1489 -0.2192
 9568SOL     OW40339   1.844   1.203  10.331 -0.2572  0.0940  0.0509
 9568SOL    HW140340   1.918   1.212  10.391  0.8027  1.4844 -1.4501
 9568SOL    HW240341   1.835   1.298  10.322  1.1334  0.4518  2.4413
 9569SOL     OW40342   4.123   0.818   5.095 -0.7338 -0.1726  0.0555
 9569SOL    HW140343   4.150   0.870   5.171 -2.3930  0.5598  0.1367
 9569SOL    HW240344   4.044   0.870   5.079  0.1487  1.1833  0.1473
   4.73869   4.73869  17.75269
