Membrane in water
40344
    1TMC1    C1    1   3.039   1.051  11.567  0.0052 -0.0824 -0.4684
    1TMC1    C2    2   3.140   1.123  11.505 -0.0774 -0.0764  0.6811
    1TMC1    C3    3   3.104   1.245  11.460 -0.2089  0.1162  0.4714
    1TMC1    C4    4   2.913   1.094  11.571 -0.1730 -0.8888  0.0270
    1TMC1    C5    5   2.885   1.217  11.523  0.9777  0.9367  0.6046
    1TMC1    C6    6   2.982   1.296  11.471  0.0489  0.5843 -0.1084
    1TMC1     C    7   3.067   0.933  11.634  0.4786 -0.1389 -0.0513
    1TMC1     O    8   2.982   0.869  11.688  0.0473 -0.4103  0.0397
    1TMC1     H    9   3.241   1.088  11.487 -0.6590 -0.9848 -0.8474
    1TMC1    H1   10   2.845   1.040  11.635  0.7531 -1.0348  0.8798
    1TMC1    H2   11   2.955   1.397  11.442 -2.8921 -0.5784 -1.4081
    1TMC1    C7   12   2.738   1.245  11.510  1.0213  0.8097  0.7614
    1TMC1    C8   13   3.206   1.330  11.412 -0.4598 -0.3539 -0.2323
    1TMC1    O1   14   2.655   1.159  11.511  0.0530 -0.4344  0.7283
    1TMC1    O2   15   3.305   1.290  11.352  0.3339  0.0056 -0.3164
    1TMC1    O3   16   2.724   1.360  11.449 -0.2554  0.0894  0.1154
    1TMC1    H3   17   2.782   1.427  11.491 -0.7609  0.3623  0.3772
    1TMC1    O5   18   3.207   1.425  11.507  0.2739 -0.0032  0.3528
    1TMC1    H5   19   3.133   1.418  11.572  0.1072 -2.7878 -0.1432
    2MPD2     C   20   3.385   0.563  11.791 -0.0254 -0.8401  0.5037
    2MPD2    C1   21   3.257   0.594  11.828 -0.0235 -0.0691 -1.2877
    2MPD2    C2   22   3.188   0.697  11.763 -0.3060  0.7721 -0.0322
    2MPD2    C3   23   3.250   0.773  11.668 -0.2250 -0.6120 -0.3596
    2MPD2    C4   24   3.384   0.748  11.639  0.2533  0.1959  0.5193
    2MPD2    C5   25   3.443   0.640  11.696 -0.2919  0.4701 -0.0945
    2MPD2     H   26   3.096   0.722  11.815 -0.8073  2.1518 -1.5608
    2MPD2    H1   27   3.433   0.804  11.560  1.7289 -1.0983  0.5110
    2MPD2    H2   28   3.447   0.485  11.833  0.0504 -0.0670  1.8084
    2MPD2    H3   29   3.546   0.614  11.675  0.5005  2.8677  0.7499
    2MPD2     N   30   3.194   0.889  11.611  0.1638 -0.7490 -0.6834
    2MPD2    H5   31   3.265   0.941  11.560 -0.3033  0.8762  0.3346
    2MPD2    N1   32   3.186   0.528  11.934 -0.0719  0.1580 -0.2952
    2MPD2    H7   33   3.093   0.558  11.960  1.5144  2.1453  3.1464
    3TMC1    C1   34   2.926   0.988  10.743  0.7663  0.2658 -0.2252
    3TMC1    C2   35   3.025   1.017  10.648  0.3165  1.0857 -0.1752
    3TMC1    C3   36   3.129   0.932  10.641  0.1948 -0.0532 -0.0131
    3TMC1    C4   37   2.927   0.874  10.814  0.2470  0.2488 -0.0170
    3TMC1    C5   38   3.034   0.796  10.802 -0.1721 -0.9352  0.1082
    3TMC1    C6   39   3.137   0.822  10.719 -0.3008  0.4927 -1.0412
    3TMC1     C   40   2.820   1.086  10.752  0.1612 -0.4957 -0.3771
    3TMC1     O   41   2.845   1.199  10.719 -0.3950  0.1621  0.3411
    3TMC1     H   42   3.021   1.104  10.582 -0.2005  2.5446  1.7879
    3TMC1    H1   43   2.841   0.848  10.875 -2.4005  1.4481 -3.1892
    3TMC1    H2   44   3.230   0.766  10.715 -1.0736 -0.8954  1.0071
    3TMC1    C7   45   3.060   0.692  10.905  0.2060 -0.9076 -0.2613
    3TMC1    C8   46   3.238   0.992  10.558  0.0547  0.1516  0.3662
    3TMC1    O1   47   2.970   0.652  10.979  0.0897 -0.3947  0.1961
    3TMC1    O2   48   3.231   1.052  10.450  0.3395 -0.0249  0.5929
    3TMC1    O3   49   3.193   0.699  10.943  0.2251 -0.3415 -0.7582
    3TMC1    H3   50   3.246   0.759  10.887  0.8105  0.4305  0.6048
    3TMC1    O5   51   3.350   0.991  10.636 -0.5377  0.1916 -0.4450
    3TMC1    H5   52   3.340   0.957  10.727  0.6861  2.6366  0.6017
    4MPD2     C   53   2.335   1.197  10.907  0.1684  0.6421  0.0727
    4MPD2    C1   54   2.349   1.056  10.893  0.1656 -0.0044 -0.2886
    4MPD2    C2   55   2.467   1.001  10.844 -0.8250  0.8621 -0.0923
    4MPD2    C3   56   2.572   1.083  10.804  0.2149 -0.7082  0.1182
    4MPD2    C4   57   2.555   1.221  10.817  0.7902  0.3589  0.5496
    4MPD2    C5   58   2.440   1.276  10.863  0.2217  0.2710 -0.1968
    4MPD2     H   59   2.477   0.894  10.833  0.2419  1.0702 -1.0617
    4MPD2    H1   60   2.627   1.297  10.789  1.2821 -0.8582 -1.4898
    4MPD2    H2   61   2.245   1.239  10.951 -0.9364 -1.4612 -0.2264
    4MPD2    H3   62   2.430   1.382  10.884  0.0664 -0.0850  1.5400
    4MPD2     N   63   2.698   1.025  10.770  0.3602 -0.7478 -0.1675
    4MPD2    H5   64   2.696   0.923  10.775 -0.7118 -0.6811  0.8784
    4MPD2    N1   65   2.243   0.970  10.943 -0.0178 -0.3299  0.6529
    4MPD2    H7   66   2.263   0.871  10.944  0.1087 -0.2995  1.3636
    5TCq1    O1   67   3.232   2.859  12.054 -0.2553  0.1865 -0.6003
    5TCq1    C1   68   3.217   2.727  12.023 -0.2563  0.4164 -0.2500
    5TCq1    O2   69   3.295   2.670  11.947  0.1537 -0.3501  0.7277
    5TCq1    C2   70   3.077   2.696  12.029 -0.2008 -0.3895  0.3397
    5TCq1    C3   71   3.007   2.741  12.141  0.5357 -0.0134 -0.4520
    5TCq1    C4   72   2.876   2.711  12.153  0.9931 -0.1582 -0.2685
    5TCq1    C5   73   2.807   2.632  12.069  0.5581 -0.3662 -0.0832
    5TCq1    C6   74   2.881   2.577  11.967 -0.4103 -0.9251 -0.1918
    5TCq1    C7   75   3.012   2.611  11.939  0.1879  0.2269 -0.2597
    5TCq1    C8   76   2.822   2.485  11.867  0.4848  1.2247  0.2438
    5TCq1    O4   77   2.907   2.428  11.798 -0.2419 -0.0238  0.0673
    5TCq1    C9   78   2.804   2.788  12.253  0.4262 -0.3903  0.2356
    5TCq1    O5   79   2.848   2.903  12.285  0.7588  0.3513 -0.5680
    5TCq1    O6   80   2.689   2.743  12.281  0.0198  0.5161  0.0085
    5TCq1    H1   81   3.157   2.891  12.109 -1.0688 -1.0141 -0.9935
    5TCq1    H2   82   3.053   2.791  12.225  2.4669 -0.5296 -1.2077
    5TCq1    H3   83   2.700   2.621  12.086  0.6829  0.2034  1.0927
    5TCq1    H4   84   3.070   2.582  11.852  2.6130 -1.8557  2.0478
    6MPD2     C   85   2.483   2.512  11.724  0.5638  0.3564 -0.4120
    6MPD2    C1   86   2.618   2.484  11.729  0.0592  0.0599  0.0353
    6MPD2    C2   87   2.675   2.427  11.615  0.9182 -1.2592  0.1323
    6MPD2    C3   88   2.608   2.409  11.492 -0.0535  0.4168  0.2042
    6MPD2    C4   89   2.477   2.445  11.487  0.1615 -0.2379 -0.0426
    6MPD2    C5   90   2.413   2.487  11.604  0.5838  0.4259  0.6693
    6MPD2     H   91   2.780   2.399  11.613  1.6352  1.4771 -0.2029
    6MPD2    H1   92   2.405   2.434  11.406 -0.2751 -1.6213  0.5354
    6MPD2    H2   93   2.427   2.557  11.804  0.7834  0.4060 -0.2850
    6MPD2    H3   94   2.314   2.530  11.594  0.2436 -0.0337  2.0856
    6MPD2     N   95   2.683   2.356  11.383 -0.4611  0.3646 -0.8180
    6MPD2    H5   96   2.780   2.331  11.394 -1.1731 -0.8620  2.5424
    6MPD2    N1   97   2.687   2.507  11.850  0.4213  0.5800 -0.2453
    6MPD2    H7   98   2.633   2.558  11.919 -3.1058 -2.4307 -0.7747
    7TCq1    O1   99   1.425   2.173  12.238 -0.0868  0.1334 -0.4383
    7TCq1    C1  100   1.376   2.218  12.356  0.4303  0.4299 -0.8771
    7TCq1    O2  101   1.429   2.303  12.423  0.3283 -0.0251 -0.3494
    7TCq1    C2  102   1.260   2.142  12.398 -0.1753  0.6184 -0.1833
    7TCq1    C3  103   1.168   2.114  12.298 -0.4300  0.3128 -0.3732
    7TCq1    C4  104   1.043   2.074  12.349 -0.0724  0.0764  0.8027
    7TCq1    C5  105   1.013   2.050  12.479 -0.2523  0.6604 -0.3209
    7TCq1    C6  106   1.106   2.084  12.574 -0.0904  0.2623 -0.3207
    7TCq1    C7  107   1.234   2.131  12.529  0.1181  0.4609 -0.0447
    7TCq1    C8  108   1.091   2.026  12.711  0.5717  0.0656  0.1705
    7TCq1    O4  109   1.004   1.938  12.730  0.4460  0.4147 -0.1356
    7TCq1    C9  110   0.935   2.055  12.255  0.6528 -0.1355  0.5372
    7TCq1    O5  111   0.960   2.097  12.140  0.3986  0.1254 -0.0348
    7TCq1    O6  112   0.819   2.053  12.302  0.3933 -0.3560 -0.0296
    7TCq1    H1  113   1.390   2.082  12.239 -2.1066  0.8963  0.2592
    7TCq1    H2  114   1.191   2.132  12.194  0.9432  0.7249 -0.0008
    7TCq1    H3  115   0.913   2.014  12.503  0.8507 -1.4959  1.0454
    7TCq1    H4  116   1.310   2.153  12.604  2.2148  1.0354 -2.3611
    8MPD2     C  117   1.221   2.003  13.208 -0.0195 -0.6807  0.0188
    8MPD2    C1  118   1.159   1.910  13.125 -0.3743 -0.2340  0.5429
    8MPD2    C2  119   1.148   1.932  12.985 -0.3158 -0.2726  0.1508
    8MPD2    C3  120   1.194   2.050  12.935 -1.2010  0.2709  0.7928
    8MPD2    C4  121   1.256   2.143  13.016  0.6502 -0.0658 -0.6237
    8MPD2    C5  122   1.264   2.122  13.151 -0.2655 -0.8621 -0.2493
    8MPD2     H  123   1.109   1.856  12.917 -2.7880  0.0492  1.2315
    8MPD2    H1  124   1.305   2.229  12.972 -0.4896  1.0457  0.3033
    8MPD2    H2  125   1.226   1.991  13.316 -1.5836  1.0717  0.3021
    8MPD2    H3  126   1.294   2.195  13.225  0.7496 -0.1127 -1.4187
    8MPD2     N  127   1.175   2.085  12.802  0.1653  0.5003 -0.4339
    8MPD2    H5  128   1.208   2.177  12.775 -1.4940  1.7271  1.6734
    8MPD2    N1  129   1.115   1.790  13.188 -0.1390 -0.2691  0.2336
    8MPD2    H7  130   1.138   1.786  13.287  0.1219 -1.5136  0.1166
    9TMC1    C1  131   2.022   1.316  11.270 -0.0572 -1.0659  0.2088
    9TMC1    C2  132   1.977   1.232  11.368 -0.3253  0.6105 -0.4860
    9TMC1    C3  133   1.864   1.163  11.346  0.6594  0.2330  0.0737
    9TMC1    C4  134   1.949   1.331  11.154  0.5564 -0.3735 -0.5103
    9TMC1    C5  135   1.823   1.269  11.153  0.0683 -0.1010  0.2536
    9TMC1    C6  136   1.779   1.183  11.246 -0.1337 -0.1756  0.4008
    9TMC1     C  137   2.137   1.401  11.288  0.4447  0.8341 -0.3643
    9TMC1     O  138   2.187   1.454  11.186  0.1842 -0.4937  0.4754
    9TMC1     H  139   2.034   1.222  11.459  0.1851  0.2913 -0.8377
    9TMC1    H1  140   1.989   1.401  11.081  0.9935 -0.4540 -0.3491
    9TMC1    H2  141   1.686   1.128  11.237 -1.3096  1.6194  1.6619
    9TMC1    C7  142   1.758   1.249  11.027  0.9309 -0.2926  0.6911
    9TMC1    C8  143   1.817   1.059  11.438 -0.5031 -0.6494 -0.4571
    9TMC1    O1  144   1.642   1.211  11.014  0.0370 -0.6539 -0.1157
    9TMC1    O2  145   1.702   1.018  11.446 -0.0763  0.0816 -0.0846
    9TMC1    O3  146   1.855   1.268  10.928 -0.0412 -0.1602  0.3372
    9TMC1    H3  147   1.945   1.294  10.958  0.0327  0.3685 -0.3554
    9TMC1    O5  148   1.916   1.030  11.516  0.0461  0.4336 -0.2162
    9TMC1    H5  149   2.010   1.045  11.490  1.0689 -3.9014  1.0440
   10MPD2     C  150   2.334   1.597  11.403  0.2375  0.5731 -0.4189
   10MPD2    C1  151   2.286   1.490  11.473  0.6751 -0.7608  0.1275
   10MPD2    C2  152   2.342   1.444  11.588 -0.6280 -0.0488  0.4537
   10MPD2    C3  153   2.448   1.515  11.640 -0.3949  0.8034  0.4314
   10MPD2    C4  154   2.503   1.622  11.576  0.6136 -0.1998  0.0667
   10MPD2    C5  155   2.449   1.658  11.454  0.2181 -0.1538  0.1130
   10MPD2     H  156   2.296   1.361  11.641  0.2572  0.2811  1.7575
   10MPD2    H1  157   2.595   1.671  11.608 -0.4388  2.3421 -0.8319
   10MPD2    H2  158   2.286   1.636  11.314 -0.8788  0.8357  0.2904
   10MPD2    H3  159   2.485   1.743  11.397 -1.6516 -0.7703 -2.0051
   10MPD2     N  160   2.514   1.479  11.764  0.1198 -0.0817  0.6256
   10MPD2    H5  161   2.576   1.550  11.802  0.5176 -0.2094  0.2296
   10MPD2    N1  162   2.176   1.415  11.420 -0.4489  0.5976  0.0282
   10MPD2    H7  163   2.126   1.359  11.489 -1.6205  1.0461 -0.4500
   11TCq1    O1  164   4.022   0.963  14.518 -0.4650 -0.0255  0.4823
   11TCq1    C1  165   3.977   0.837  14.503 -0.2311  0.2786  0.2774
   11TCq1    O2  166   3.908   0.770  14.578  0.4498 -0.3965  0.2616
   11TCq1    C2  167   3.999   0.797  14.363  0.0233 -0.4582  0.1128
   11TCq1    C3  168   4.108   0.846  14.295  0.3946  0.1833  0.4068
   11TCq1    C4  169   4.140   0.785  14.170 -0.4375  0.3625 -0.2668
   11TCq1    C5  170   4.063   0.692  14.115 -0.7030 -0.1190  0.0361
   11TCq1    C6  171   3.956   0.648  14.192 -0.2922  0.3048 -0.0203
   11TCq1    C7  172   3.921   0.694  14.317 -0.0843  0.5971 -0.0556
   11TCq1    C8  173   3.863   0.549  14.142 -0.1588 -0.2357  0.2641
   11TCq1    O4  174   3.757   0.537  14.205 -0.2011  0.0652 -0.0813
   11TCq1    C9  175   4.261   0.806  14.094 -0.2656 -0.6337 -0.3903
   11TCq1    O5  176   4.293   0.725  14.006 -0.0928 -0.1486 -0.2145
   11TCq1    O6  177   4.347   0.869  14.156 -0.0462 -0.0135  0.3409
   11TCq1    H1  178   4.078   1.007  14.450 -0.3868 -0.2150  0.4224
   11TCq1    H2  179   4.179   0.920  14.329 -3.1023  3.0697  1.3866
   11TCq1    H3  180   4.081   0.676  14.010  1.3557 -0.2003  0.4138
   11TCq1    H4  181   3.827   0.680  14.369 -0.6576  1.5215 -0.8536
   12MPD2     C  182   3.720   0.336  13.994 -0.0532  0.0490  0.4244
   12MPD2    C1  183   3.844   0.382  13.957  0.5651 -0.3688 -0.0020
   12MPD2    C2  184   3.900   0.351  13.833  0.7115  0.2436  0.1078
   12MPD2    C3  185   3.827   0.267  13.750  0.4998  0.6313  0.0928
   12MPD2    C4  186   3.701   0.226  13.780  0.0427 -0.0460  0.6683
   12MPD2    C5  187   3.647   0.268  13.899  0.5548 -0.6018  0.5958
   12MPD2     H  188   3.992   0.396  13.798  0.2567  1.2883  0.2778
   12MPD2    H1  189   3.649   0.165  13.708 -0.4468 -0.1088  1.0739
   12MPD2    H2  190   3.670   0.346  14.089  1.6885 -2.8514  1.6362
   12MPD2    H3  191   3.545   0.233  13.901  0.0817  0.6332 -1.9823
   12MPD2     N  192   3.875   0.219  13.625  0.4876  0.3721  0.5300
   12MPD2    H5  193   3.822   0.142  13.585  1.5670  0.1458 -0.4633
   12MPD2    N1  194   3.915   0.482  14.034 -0.2551 -0.4670  0.0227
   12MPD2    H7  195   4.008   0.501  13.997 -0.0858  2.7184  1.9800
   13TCq1    O1  196   3.374   0.599  10.135 -0.0593 -0.4709  0.3420
   13TCq1    C1  197   3.306   0.618  10.249  0.3907  0.0191 -0.1015
   13TCq1    O2  198   3.189   0.613  10.254 -0.1652 -0.0062 -0.1078
   13TCq1    C2  199   3.390   0.672  10.351 -0.1089  0.2706  0.3833
   13TCq1    C3  200   3.491   0.756  10.316 -0.1214  0.3070 -0.0060
   13TCq1    C4  201   3.590   0.794  10.402 -0.5988 -0.1025 -0.5094
   13TCq1    C5  202   3.597   0.735  10.527  0.7365  0.0635  0.0505
   13TCq1    C6  203   3.502   0.639  10.556  0.3096  0.1371  0.5074
   13TCq1    C7  204   3.395   0.606  10.468 -0.4466  0.2363  0.2515
   13TCq1    C8  205   3.478   0.596  10.693  0.1694 -0.4123  1.1167
   13TCq1    O4  206   3.362   0.581  10.735 -0.2221 -0.1775 -0.3845
   13TCq1    C9  207   3.680   0.895  10.360 -0.8905  0.1814 -1.0350
   13TCq1    O5  208   3.768   0.938  10.437  0.1054  0.4815 -0.0680
   13TCq1    O6  209   3.685   0.917  10.234 -0.1396  0.2259  0.0942
   13TCq1    H1  210   3.470   0.586  10.148  0.0858  0.1830 -0.0640
   13TCq1    H2  211   3.480   0.802  10.218  0.7483  0.6340  0.0577
   13TCq1    H3  212   3.677   0.762  10.595  1.5404  2.6908 -1.9320
   13TCq1    H4  213   3.315   0.539  10.497 -0.6981  0.0964 -0.7336
   14MPD2     C  214   3.732   0.543  10.960 -0.4492  0.7207 -0.4893
   14MPD2    C1  215   3.610   0.567  10.910  0.3187 -0.3454  0.0031
   14MPD2    C2  216   3.499   0.554  10.992  0.5251 -0.0371  0.6694
   14MPD2    C3  217   3.510   0.512  11.119 -0.6768  0.6357 -0.2743
   14MPD2    C4  218   3.632   0.493  11.173  0.3216  0.6501  0.1286
   14MPD2    C5  219   3.738   0.500  11.088  0.0453  0.3447  0.0900
   14MPD2     H  220   3.404   0.587  10.951  0.6320 -1.4365 -0.6895
   14MPD2    H1  221   3.648   0.470  11.278 -1.8655  2.7577  0.9137
   14MPD2    H2  222   3.823   0.543  10.901 -0.4562 -1.6509 -0.5044
   14MPD2    H3  223   3.831   0.468  11.133  0.0064  0.7923  0.4875
   14MPD2     N  224   3.387   0.500  11.185 -0.3578 -0.3850 -1.1157
   14MPD2    H5  225   3.304   0.520  11.129  0.0191 -1.3806 -2.0481
   14MPD2    N1  226   3.595   0.598  10.772 -0.9120  0.6598 -0.5844
   14MPD2    H7  227   3.678   0.603  10.714  0.2693  0.8935  1.0964
   15TCq1    O1  228   1.422   4.014   1.837 -0.0495  0.0326 -0.1247
   15TCq1    C1  229   1.557   4.004   1.855  0.3675  0.1570  0.2158
   15TCq1    O2  230   1.618   4.071   1.937  0.2022  0.1694 -0.2488
   15TCq1    C2  231   1.624   3.924   1.754 -0.0197  0.2046 -0.6284
   15TCq1    C3  232   1.729   3.846   1.804  0.6004 -0.3244 -0.4728
   15TCq1    C4  233   1.762   3.729   1.740 -0.3172  0.4045  0.2103
   15TCq1    C5  234   1.681   3.683   1.638  0.1711  0.0878  0.7008
   15TCq1    C6  235   1.584   3.771   1.584  0.6744 -0.4563 -0.4789
   15TCq1    C7  236   1.549   3.890   1.639  0.1784 -0.1907 -0.2736
   15TCq1    C8  237   1.499   3.711   1.477 -0.7922 -0.0718  0.2047
   15TCq1    O4  238   1.533   3.606   1.431 -0.5103 -0.3250 -0.3242
   15TCq1    C9  239   1.860   3.639   1.793  0.5729  0.1537 -0.6022
   15TCq1    O5  240   1.870   3.528   1.737 -0.1219  0.1571  0.0202
   15TCq1    O6  241   1.936   3.683   1.883  0.2843 -0.7911 -0.6801
   15TCq1    H1  242   1.396   3.944   1.774  0.1873  0.9605 -1.2455
   15TCq1    H2  243   1.787   3.863   1.894 -1.2582 -0.1322  0.6929
   15TCq1    H3  244   1.692   3.581   1.602 -0.6865  0.6232 -1.0912
   15TCq1    H4  245   1.472   3.954   1.598  1.4866  0.5109 -1.6116
   16MPD2     C  246   1.167   3.782   1.344  0.9743 -0.4341  0.2646
   16MPD2    C1  247   1.299   3.745   1.337  0.0571 -0.5185  0.5434
   16MPD2    C2  248   1.339   3.665   1.226  0.1259  0.3351 -0.1555
   16MPD2    C3  249   1.248   3.640   1.121  0.5641 -0.4018  0.2876
   16MPD2    C4  250   1.116   3.677   1.129  0.8646 -0.3442  0.7383
   16MPD2    C5  251   1.079   3.750   1.243 -0.0216 -0.1519 -0.2610
   16MPD2     H  252   1.442   3.633   1.216  0.5068  1.4422  0.1702
   16MPD2    H1  253   1.049   3.655   1.047  2.7379 -3.1273 -0.0413
   16MPD2    H2  254   1.132   3.850   1.421  1.0063  0.6574 -0.6863
   16MPD2    H3  255   0.976   3.782   1.255  1.0097  2.9928  0.3548
   16MPD2     N  256   1.307   3.565   1.016 -0.2117  0.1492  0.4082
   16MPD2    H5  257   1.395   3.515   1.029  0.1233  0.8669  0.9471
   16MPD2    N1  258   1.384   3.772   1.451  0.3224  0.0888  0.3934
   16MPD2    H7  259   1.342   3.826   1.526 -0.5657  0.2072 -0.1878
   17TMC1    C1  260   3.044   3.987  10.574  0.0713 -0.7660 -0.2427
   17TMC1    C2  261   3.028   3.938  10.701  0.3069  0.4712 -0.5372
   17TMC1    C3  262   3.080   4.021  10.801  0.0699  0.6075 -0.8676
   17TMC1    C4  263   3.095   4.116  10.544 -0.2347 -0.0170 -0.1443
   17TMC1    C5  264   3.146   4.188  10.651  0.4946 -0.3160 -0.3221
   17TMC1    C6  265   3.130   4.145  10.776  0.4257 -0.1885 -0.0531
   17TMC1     C  266   3.033   3.882  10.473  0.2893  0.2404  0.9903
   17TMC1     O  267   3.001   3.771  10.516  0.1459  0.0946 -0.0909
   17TMC1     H  268   2.994   3.842  10.737 -0.5582 -0.1413 -3.0477
   17TMC1    H1  269   3.081   4.158  10.445 -1.1762  0.5327  0.2179
   17TMC1    H2  270   3.166   4.193  10.867  0.2996 -0.1497 -0.0239
   17TMC1    C7  271   3.171   4.322  10.639  0.0579  0.0696 -1.1345
   17TMC1    C8  272   3.073   3.975  10.938  0.2673 -0.0433 -0.5812
   17TMC1    O1  273   3.171   4.402  10.734  0.4190 -0.0935  0.0404
   17TMC1    O2  274   3.080   3.863  10.974  0.1129  0.5981  0.3347
   17TMC1    O3  275   3.208   4.355  10.515 -0.5007 -0.2055 -0.0138
   17TMC1    H3  276   3.229   4.275  10.463 -0.4375 -0.4701  0.4239
   17TMC1    O5  277   3.032   4.075  11.021 -0.5143  0.3224  0.0237
   17TMC1    H5  278   3.034   4.167  10.985  2.3335 -0.5784 -2.1359
   18MPD2     C  279   3.118   3.695  10.257 -1.3012 -0.0442 -0.2333
   18MPD2    C1  280   3.134   3.828  10.249 -0.2671 -0.8214  0.0190
   18MPD2    C2  281   3.210   3.881  10.153  0.9833  0.1042 -0.1248
   18MPD2    C3  282   3.273   3.806  10.054 -0.1581  0.1605 -0.2409
   18MPD2    C4  283   3.251   3.670  10.058  0.3774 -0.2579  0.1706
   18MPD2    C5  284   3.185   3.613  10.164 -0.6482 -0.1933 -0.0081
   18MPD2     H  285   3.219   3.988  10.140 -0.7985  0.3070  0.2935
   18MPD2    H1  286   3.291   3.603   9.983  2.9233 -0.4938  1.7353
   18MPD2    H2  287   3.084   3.646  10.348  1.3556 -0.0241  0.7537
   18MPD2    H3  288   3.195   3.505  10.170  0.6549 -0.0169  1.0177
   18MPD2     N  289   3.363   3.855   9.958  0.3178  0.1717  0.5830
   18MPD2    H5  290   3.404   3.790   9.891 -0.5543 -0.4333  0.6344
   18MPD2    N1  291   3.090   3.918  10.351 -0.1593 -0.1419  0.4081
   18MPD2    H7  292   3.117   4.016  10.342  1.4171 -0.5217  1.0618
   19TMC2    C1  293   0.318   0.688  14.031  0.2947 -0.6507 -0.3293
   19TMC2    C2  294   0.266   0.799  13.966  0.3357 -0.7199  0.1530
   19TMC2    C3  295   0.140   0.797  13.926 -0.3151  0.2731  0.2882
   19TMC2    C4  296   0.251   0.576  14.017  0.5149 -0.3439 -0.2602
   19TMC2    C5  297   0.123   0.572  13.973 -0.1438 -0.1795 -0.1304
   19TMC2    C6  298   0.062   0.685  13.928  0.7415 -0.0684  0.3275
   19TMC2     C  299   0.461   0.687  14.060  0.4811 -0.5885  0.3494
   19TMC2     O  300   0.520   0.794  14.051  0.3060  0.3513  0.1244
   19TMC2     H  301   0.308   0.896  13.990  0.5016 -0.4271 -1.3572
   19TMC2    H1  302   0.286   0.487  14.067 -1.6742  0.5992  2.9872
   19TMC2    H2  303   4.696   0.685  13.891  1.3623  2.4041 -1.3458
   19TMC2    C7  304   0.069   0.437  13.963  0.5950  0.7300  0.2679
   19TMC2    C8  305   0.082   0.925  13.878 -0.4484  0.1006  0.0924
   19TMC2    O1  306   0.146   0.348  13.990  0.4039  0.0148  0.2110
   19TMC2    O2  307   0.153   1.005  13.816 -0.3475 -0.3550 -0.4913
   19TMC2    O5  308   4.685   0.923  13.882  0.5432  0.5217 -0.3196
   19TMC2    H5  309   4.644   0.875  13.956  1.5518  2.0642  1.2423
   20MPD2     C  310   0.746   0.613  14.086  0.0411 -1.0268  0.3306
   20MPD2    C1  311   0.646   0.531  14.109  0.6193 -0.5084 -0.8972
   20MPD2    C2  312   0.684   0.405  14.157  0.4310 -0.2089  0.5162
   20MPD2    C3  313   0.808   0.373  14.195 -0.3169 -0.8460  0.1220
   20MPD2    C4  314   0.907   0.466  14.181  0.1249  0.3886 -0.0882
   20MPD2    C5  315   0.876   0.583  14.116  0.6168  0.4345  0.2190
   20MPD2     H  316   0.598   0.339  14.155 -2.0964  3.1332 -0.8623
   20MPD2    H1  317   1.007   0.449  14.217  0.4306 -0.5039 -1.3619
   20MPD2    H2  318   0.734   0.717  14.060  1.2450 -0.8502  0.5260
   20MPD2    H3  319   0.961   0.650  14.109  0.9463 -0.2548 -2.2789
   20MPD2     N  320   0.851   0.241  14.234 -0.5856 -0.9724 -0.0774
   20MPD2    H5  321   0.949   0.226  14.257 -0.5097 -1.0502 -0.4628
   20MPD2    N1  322   0.507   0.562  14.086 -0.3670 -0.0825 -0.4831
   20MPD2    H7  323   0.437   0.488  14.089  1.2151 -1.5425  0.6768
   21TMC2    C1  324   2.006   0.980  14.889 -0.1396  0.4579 -0.6005
   21TMC2    C2  325   1.995   0.928  15.012  0.4503 -0.4873  0.0628
   21TMC2    C3  326   1.895   0.838  15.035 -0.3710  0.2050  0.5262
   21TMC2    C4  327   1.941   0.916  14.787  0.3036 -0.1803  0.2505
   21TMC2    C5  328   1.841   0.822  14.810 -0.5554  0.4063  0.7049
   21TMC2    C6  329   1.820   0.778  14.940 -0.2109  0.2936  0.1329
   21TMC2     C  330   2.125   1.037  14.843 -0.0874  0.3284  0.6088
   21TMC2     O  331   2.131   1.077  14.726  0.8395 -0.3743  0.4833
   21TMC2     H  332   2.041   0.969  15.102  1.5849 -2.0293  0.1902
   21TMC2    H1  333   1.951   0.953  14.685 -2.2498  1.9185  0.7413
   21TMC2    H2  334   1.736   0.715  14.969  0.3774 -0.8304 -0.6220
   21TMC2    C7  335   1.745   0.787  14.706  0.1010 -0.5050  0.4538
   21TMC2    C8  336   1.873   0.771  15.163  0.1752 -0.6694 -0.2897
   21TMC2    O1  337   1.672   0.689  14.720  0.2631 -0.0823 -0.3331
   21TMC2    O2  338   1.855   0.648  15.174  0.3449  0.2645 -0.2313
   21TMC2    O5  339   1.831   0.870  15.250 -0.3018  0.2416 -0.4277
   21TMC2    H5  340   1.855   0.963  15.233  1.1628  0.0510  0.6161
   22MPD2     C  341   2.624   1.105  14.868 -0.2527  0.1634 -0.0573
   22MPD2    C1  342   2.550   1.050  14.763 -0.3040  0.2546 -0.4829
   22MPD2    C2  343   2.415   1.037  14.778 -1.0267 -0.6397  0.3639
   22MPD2    C3  344   2.357   1.075  14.899  0.0750 -0.6197 -0.2412
   22MPD2    C4  345   2.435   1.138  14.992 -0.3516  0.4693  0.2116
   22MPD2    C5  346   2.572   1.157  14.978 -0.2142  0.1400 -0.1951
   22MPD2     H  347   2.353   0.965  14.726  2.0028 -1.8605 -1.5522
   22MPD2    H1  348   2.391   1.175  15.084  0.9803 -0.2663  1.1484
   22MPD2    H2  349   2.732   1.096  14.868 -0.3043 -0.4486  2.8058
   22MPD2    H3  350   2.629   1.213  15.051 -1.1385 -0.1842  0.7875
   22MPD2     N  351   2.225   1.052  14.934  1.0894 -0.1001  0.9053
   22MPD2    H5  352   2.203   1.051  15.033  2.1694 -0.8097  1.1463
   22MPD2    N1  353   2.615   0.981  14.660 -0.2154  0.7419  0.1594
   22MPD2    H7  354   2.550   0.930  14.601  1.9686 -0.2802 -1.3717
   23TMC2    C1  355   4.307   1.924  14.246  0.7209 -0.5320 -0.0505
   23TMC2    C2  356   4.333   2.031  14.172  0.2428  0.4080  0.2994
   23TMC2    C3  357   4.230   2.083  14.100 -0.2032 -0.8801  0.4336
   23TMC2    C4  358   4.184   1.867  14.247  0.5691 -0.2723 -0.0591
   23TMC2    C5  359   4.083   1.927  14.179 -0.4453 -0.6090 -0.0061
   23TMC2    C6  360   4.101   2.043  14.112 -0.7495  0.3457 -0.5092
   23TMC2     C  361   4.388   1.890  14.360 -0.3712 -0.2821 -0.3880
   23TMC2     O  362   4.319   1.846  14.453  0.0842  0.1355 -0.3839
   23TMC2     H  363   4.434   2.070  14.160  0.2301 -0.3701 -2.3475
   23TMC2    H1  364   4.154   1.783  14.309  2.0893  0.4451  1.6332
   23TMC2    H2  365   4.020   2.066  14.044 -1.5974 -0.4511  0.2414
   23TMC2    C7  366   3.953   1.861  14.191 -0.1361  0.2763  0.3628
   23TMC2    C8  367   4.265   2.178  14.000  0.0514  0.7523  0.8968
   23TMC2    O1  368   3.942   1.742  14.207 -0.3558  0.4650 -0.0288
   23TMC2    O2  369   4.226   2.174  13.887  0.4985  0.3613  0.6482
   23TMC2    O5  370   4.340   2.273  14.060  0.3518 -0.5616  0.0226
   23TMC2    H5  371   4.339   2.274  14.158  0.1759 -1.7518  0.0238
   24MPD2     C  372   4.735   2.021  14.704  0.4660 -0.2684 -0.6718
   24MPD2    C1  373   4.618   1.946  14.715 -0.2467 -0.1053 -0.8183
   24MPD2    C2  374   4.545   1.918  14.604  0.9880 -0.8637 -1.3529
   24MPD2    C3  375   4.581   1.974  14.484  0.8859 -0.7789  0.5217
   24MPD2    C4  376   4.691   2.058  14.474  0.2052  0.9576  0.3374
   24MPD2    C5  377   0.031   2.081  14.587  0.3360 -1.3853 -0.3784
   24MPD2     H  378   4.451   1.865  14.618 -0.0765  0.3727 -3.7532
   24MPD2    H1  379   4.717   2.113  14.384  0.0435  1.2870  0.4899
   24MPD2    H2  380   0.042   2.065  14.794 -2.0632 -0.3979  0.6117
   24MPD2    H3  381   0.115   2.149  14.596  0.3113 -1.0250 -3.0654
   24MPD2     N  382   4.501   1.964  14.368  0.0368  0.1892 -0.2020
   24MPD2    H5  383   4.525   2.016  14.284  0.8203  2.6999  1.5741
   24MPD2    N1  384   4.562   1.908  14.839  0.6873  0.2004 -0.2456
   24MPD2    H7  385   4.470   1.865  14.840  0.2702  1.1718  2.2221
   25TMC2    C1  386   2.797   3.796  11.373  0.0100  0.1149  0.3895
   25TMC2    C2  387   2.816   3.910  11.311  0.0541 -0.9703 -0.4249
   25TMC2    C3  388   2.829   4.022  11.390 -0.3578  1.0488 -0.4110
   25TMC2    C4  389   2.798   3.778  11.507  0.2842  0.0065 -0.1239
   25TMC2    C5  390   2.809   3.891  11.585 -0.4444  0.2103  0.1958
   25TMC2    C6  391   2.830   4.016  11.522  0.0648  0.3575  0.5245
   25TMC2     C  392   2.791   3.680  11.281  0.1468 -0.0630  1.4570
   25TMC2     O  393   2.825   3.697  11.172 -0.5722 -0.1500 -0.7168
   25TMC2     H  394   2.830   3.912  11.204  0.7651  1.7770 -0.2767
   25TMC2    H1  395   2.771   3.685  11.556 -0.7018 -0.2082 -1.0927
   25TMC2    H2  396   2.846   4.112  11.571 -1.0780  0.8345 -0.0141
   25TMC2    C7  397   2.832   3.875  11.727  0.3448 -0.1635 -0.0879
   25TMC2    C8  398   2.837   4.151  11.321  0.1635  0.0026  0.7023
   25TMC2    O1  399   2.838   3.764  11.776 -0.2248 -0.7203  0.5294
   25TMC2    O2  400   2.861   4.256  11.382 -0.1809  0.4547  0.1539
   25TMC2    O5  401   2.754   4.144  11.212  0.3491  0.1090 -0.4326
   25TMC2    H5  402   2.762   4.059  11.165 -1.9447 -0.0644 -0.5014
   26MPD2     C  403   2.777   3.170  11.198 -0.4581 -0.0346  0.2095
   26MPD2    C1  404   2.714   3.197  11.321 -0.6858 -0.3600 -0.1535
   26MPD2    C2  405   2.711   3.323  11.366  0.7926  0.3700  0.0007
   26MPD2    C3  406   2.757   3.426  11.294  0.2057  0.0652  0.4543
   26MPD2    C4  407   2.817   3.403  11.173 -0.1854 -0.5348 -0.4754
   26MPD2    C5  408   2.824   3.274  11.124  0.5202 -0.1957 -0.3598
   26MPD2     H  409   2.668   3.331  11.465  2.6056 -0.9827  0.8851
   26MPD2    H1  410   2.863   3.479  11.109  0.5265 -0.6273 -0.0702
   26MPD2    H2  411   2.784   3.071  11.155  3.2609 -0.1140  1.0123
   26MPD2    H3  412   2.873   3.257  11.029  1.9520 -1.8637  0.6801
   26MPD2     N  413   2.742   3.564  11.340 -0.6282 -0.0510 -1.0588
   26MPD2    H5  414   2.701   3.580  11.432  1.3846 -2.7438  0.3135
   26MPD2    N1  415   2.653   3.087  11.395  0.3480 -0.1771  0.0311
   26MPD2    H7  416   2.654   2.997  11.347  0.8666 -1.5636  2.6153
   27TMC2    C1  417   1.209   1.551  11.703 -0.1747  0.0456 -0.9389
   27TMC2    C2  418   1.231   1.581  11.569 -0.0300  0.2974 -0.6238
   27TMC2    C3  419   1.360   1.612  11.530  0.8680  0.2338  0.1848
   27TMC2    C4  420   1.315   1.540  11.795 -0.7685  0.2851 -0.2182
   27TMC2    C5  421   1.442   1.570  11.750 -0.8057 -0.1223  0.2737
   27TMC2    C6  422   1.463   1.613  11.615 -0.3558  0.1525 -0.3733
   27TMC2     C  423   1.081   1.550  11.766 -0.2680 -0.0918 -0.1032
   27TMC2     O  424   0.993   1.486  11.709  0.2548 -0.1583 -0.1408
   27TMC2     H  425   1.155   1.572  11.493  1.0663 -3.0267 -1.3124
   27TMC2    H1  426   1.300   1.494  11.893  0.7970  1.2299  0.4633
   27TMC2    H2  427   1.563   1.636  11.582 -1.0380 -1.1115 -3.3132
   27TMC2    C7  428   1.554   1.540  11.840 -0.3162 -0.4129  0.1319
   27TMC2    C8  429   1.390   1.647  11.392 -0.9621  0.3611  0.1515
   27TMC2    O1  430   1.524   1.466  11.936  0.6064 -0.1111 -0.1438
   27TMC2    O2  431   1.498   1.633  11.343 -0.4288 -0.1634  0.1049
   27TMC2    O5  432   1.288   1.727  11.349  0.5664 -0.0541  0.5581
   27TMC2    H5  433   1.217   1.709  11.415  1.3297 -2.1040  0.8349
   28MPD2     C  434   0.799   1.580  12.182  0.2709 -0.0160  0.2711
   28MPD2    C1  435   0.928   1.604  12.214 -0.2022 -0.4559  0.4314
   28MPD2    C2  436   1.025   1.615  12.120 -0.1446  0.3986  0.7652
   28MPD2    C3  437   0.984   1.599  11.988 -0.1302 -0.7252 -0.4390
   28MPD2    C4  438   0.860   1.540  11.959 -0.0901 -0.3748 -0.6065
   28MPD2    C5  439   0.762   1.546  12.054  1.1427  0.3380 -0.1205
   28MPD2     H  440   1.130   1.638  12.135 -0.5058  1.1748  2.2012
   28MPD2    H1  441   0.822   1.517  11.859  1.6169 -0.4492 -1.2283
   28MPD2    H2  442   0.723   1.573  12.259 -1.3759 -0.2212 -1.3921
   28MPD2    H3  443   0.658   1.533  12.024  0.5322 -0.3516  2.2611
   28MPD2     N  444   1.088   1.600  11.891  0.0132 -0.0751  0.3220
   28MPD2    H5  445   1.166   1.660  11.914 -1.6389  1.7564  1.1680
   28MPD2    N1  446   0.961   1.623  12.354 -0.0072  0.1806  0.2457
   28MPD2    H7  447   0.892   1.606  12.426 -1.7166 -0.2878 -1.4694
   29TMC2    C1  448   1.763   4.139  13.804 -0.5649  0.3946  0.1119
   29TMC2    C2  449   1.889   4.169  13.764 -1.0250  1.2988 -0.1249
   29TMC2    C3  450   1.930   4.293  13.793  0.2100  0.2850 -0.4422
   29TMC2    C4  451   1.672   4.227  13.860 -0.3604  0.3936  0.2030
   29TMC2    C5  452   1.728   4.349  13.889 -0.4634 -0.5519 -0.7763
   29TMC2    C6  453   1.852   4.389  13.853 -0.0865  0.6296  0.1573
   29TMC2     C  454   1.722   3.999  13.778  0.4668  0.0133  0.2785
   29TMC2     O  455   1.814   3.917  13.782 -0.4552  0.0947 -0.1452
   29TMC2     H  456   1.951   4.095  13.714 -1.4124 -0.5155  2.0914
   29TMC2    H1  457   1.576   4.196  13.900 -0.8359  1.3322 -0.2028
   29TMC2    H2  458   1.886   4.491  13.861 -0.7530  1.0532 -2.6303
   29TMC2    C7  459   1.637   4.457  13.922 -0.1302  0.5854 -0.0763
   29TMC2    C8  460   2.049   4.344  13.727 -0.3080  0.5060  0.4654
   29TMC2    O1  461   1.522   4.464  13.872 -0.2608 -0.4587 -0.1933
   29TMC2    O2  462   2.055   4.461  13.685 -0.1443  0.3358  0.4583
   29TMC2    O5  463   2.122   4.239  13.694  0.1714 -0.3914 -0.3916
   29TMC2    H5  464   2.102   4.163  13.754  1.9448 -0.8705 -0.3975
   30MPD2     C  465   1.407   3.607  13.730 -0.1722 -0.1297  0.4192
   30MPD2    C1  466   1.540   3.607  13.721 -0.0262  0.6090 -1.2389
   30MPD2    C2  467   1.600   3.731  13.729  0.2427  0.3868  0.4716
   30MPD2    C3  468   1.527   3.854  13.737 -0.2095 -0.2539 -0.1820
   30MPD2    C4  469   1.388   3.842  13.732 -0.4968 -0.4274  0.1299
   30MPD2    C5  470   1.332   3.722  13.727 -0.5490 -0.0974 -0.1768
   30MPD2     H  471   1.708   3.724  13.736  0.1446 -1.1097  0.4743
   30MPD2    H1  472   1.320   3.926  13.737  1.2839  1.0343 -0.2738
   30MPD2    H2  473   1.366   3.508  13.743 -0.0606 -0.1365  0.7237
   30MPD2    H3  474   1.224   3.729  13.725 -0.6563 -1.0080  1.9328
   30MPD2     N  475   1.588   3.985  13.755 -0.6211  0.1917  0.2073
   30MPD2    H5  476   1.527   4.065  13.744  0.4088  0.8251 -1.0179
   30MPD2    N1  477   1.613   3.488  13.732 -0.2355  0.2932  0.1465
   30MPD2    H7  478   1.560   3.412  13.772  0.2898 -1.3164 -2.1768
   31TMC2    C1  479   4.014   2.577  15.032  0.1596 -0.0960 -0.3192
   31TMC2    C2  480   3.949   2.478  14.961 -0.4312 -0.2156  1.0174
   31TMC2    C3  481   3.906   2.366  15.025  0.2932  0.1859  0.6251
   31TMC2    C4  482   4.025   2.574  15.169 -0.7375 -0.3435 -0.1937
   31TMC2    C5  483   3.979   2.459  15.231 -0.3787  0.6189  0.0566
   31TMC2    C6  484   3.926   2.354  15.163 -0.2480 -0.4855 -0.0561
   31TMC2     C  485   4.095   2.666  14.949 -0.0047  0.0516  0.5766
   31TMC2     O  486   4.111   2.784  14.975 -0.2455 -0.5572  0.0189
   31TMC2     H  487   3.933   2.483  14.854 -1.4474  3.4501  1.3361
   31TMC2    H1  488   4.094   2.643  15.216 -0.4919 -3.1614  3.5418
   31TMC2    H2  489   3.880   2.268  15.211  0.0763 -0.7523 -0.2194
   31TMC2    C7  490   3.958   2.448  15.377  0.2344  0.1117 -0.5791
   31TMC2    C8  491   3.805   2.280  14.969  0.3839  0.5531 -0.3228
   31TMC2    O1  492   3.918   2.342  15.421  0.0803 -0.2629  0.0826
   31TMC2    O2  493   3.716   2.222  15.030 -0.3029 -0.5729  0.0047
   31TMC2    O5  494   3.830   2.274  14.837  0.3244 -0.0986 -0.5851
   31TMC2    H5  495   3.924   2.288  14.812  0.6424 -0.7992  0.2047
   32MPD2     C  496   4.432   2.718  14.576 -0.1451  0.0066  0.2702
   32MPD2    C1  497   4.344   2.815  14.629  0.4277  0.0729 -0.1331
   32MPD2    C2  498   4.250   2.775  14.721 -0.0556  0.1889 -1.0584
   32MPD2    C3  499   4.250   2.638  14.761  0.3207 -0.5309 -0.2973
   32MPD2    C4  500   4.333   2.548  14.700  0.0804 -0.4099  0.5561
   32MPD2    C5  501   4.424   2.589  14.611 -0.2907 -0.1479  0.7036
   32MPD2     H  502   4.193   2.856  14.765 -1.1011  0.9797 -3.8708
   32MPD2    H1  503   4.348   2.450  14.745 -2.9110 -1.4559 -0.7613
   32MPD2    H2  504   4.511   2.741  14.506  1.1824  0.7909  2.0495
   32MPD2    H3  505   4.492   2.519  14.564 -0.0206 -0.5140  1.6260
   32MPD2     N  506   4.163   2.585  14.855  0.2219 -0.0172 -0.3576
   32MPD2    H5  507   4.160   2.485  14.867 -2.2842  0.0711 -0.1881
   32MPD2    N1  508   4.344   2.950  14.593  0.0943  0.2633 -0.2019
   32MPD2    H7  509   4.269   3.007  14.631  1.0682  1.7951 -0.5933
   33TMC2    C1  510   3.888   0.164  10.359 -0.6294  0.2328  0.1441
   33TMC2    C2  511   3.895   0.209  10.485  0.0838  0.3669 -0.0768
   33TMC2    C3  512   3.803   0.310  10.506  0.4731 -0.1261  0.6967
   33TMC2    C4  513   3.820   0.218  10.255 -0.8626 -0.8878 -0.4857
   33TMC2    C5  514   3.740   0.323  10.275  0.2520 -0.4477 -0.3700
   33TMC2    C6  515   3.729   0.368  10.405 -0.0040 -0.1737  0.6365
   33TMC2     C  516   3.972   0.053  10.316 -0.4532 -0.1669  0.0068
   33TMC2     O  517   4.072   0.035  10.381 -0.0778 -0.0570 -0.1665
   33TMC2     H  518   3.953   0.166  10.566 -1.1018 -0.9512  0.0702
   33TMC2    H1  519   3.836   0.184  10.153  0.9067  1.9688 -1.1650
   33TMC2    H2  520   3.653   0.441  10.430  0.2877  0.5712 -0.6556
   33TMC2    C7  521   3.686   0.414  10.165 -0.4896  0.2184  0.3001
   33TMC2    C8  522   3.821   0.395  10.619  0.5468  0.3140  0.3558
   33TMC2    O1  523   3.610   0.503  10.190  0.0688  0.1338 -0.2725
   33TMC2    O2  524   3.817   0.518  10.604  0.2823 -0.2884  0.3936
   33TMC2    O5  525   3.881   0.332  10.723 -0.2345  0.1194  0.2438
   33TMC2    H5  526   3.857   0.237  10.730  0.0884 -0.0862 -1.5027
   34MPD2     C  527   4.069   4.371  10.017 -0.6099  0.1138  0.1936
   34MPD2    C1  528   3.932   4.397  10.006  0.5323 -1.2449  1.1007
   34MPD2    C2  529   3.885   4.506  10.081  0.1578  0.5302  0.3543
   34MPD2    C3  530   3.970   4.590  10.150  0.0959  0.2804 -0.2216
   34MPD2    C4  531   4.106   4.574  10.138  0.6858  0.4430 -0.7236
   34MPD2    C5  532   4.152   4.459  10.081 -0.0875 -0.4107  0.0681
   34MPD2     H  533   3.777   4.519  10.086 -0.0222  0.8300 -4.0531
   34MPD2    H1  534   4.171   4.647  10.185  2.9775 -0.4333 -2.5435
   34MPD2    H2  535   4.119   4.285   9.974  2.0448  1.4774  0.5275
   34MPD2    H3  536   4.259   4.441  10.090  0.2888  0.9981 -1.4243
   34MPD2     N  537   3.913   4.700  10.221  0.2119  0.3243 -0.0647
   34MPD2    H5  538   3.814   4.718  10.208  0.7183  3.7129  0.7248
   34MPD2    N1  539   3.855   4.298   9.950 -0.6590  0.1306  0.5079
   34MPD2    H7  540   3.903   4.213   9.923 -0.9693  0.3954 -0.8951
   35TMC2    C1  541   0.583   0.658  10.967  0.1212  0.3133  0.2319
   35TMC2    C2  542   0.692   0.686  10.887 -0.1457 -1.2192  0.3393
   35TMC2    C3  543   0.666   0.762  10.784 -0.7858  0.3461  0.5248
   35TMC2    C4  544   0.460   0.710  10.942  0.5631  0.5103 -0.3187
   35TMC2    C5  545   0.444   0.794  10.836 -0.9888  0.3247 -0.9350
   35TMC2    C6  546   0.544   0.808  10.744 -0.3843 -0.2149 -0.1833
   35TMC2     C  547   0.604   0.598  11.092  0.1508  0.0004  0.3890
   35TMC2     O  548   0.696   0.519  11.101 -0.2127 -0.6775  0.1421
   35TMC2     H  549   0.790   0.643  10.905  0.0586 -0.7978  0.2296
   35TMC2    H1  550   0.377   0.674  11.002  0.6514  2.0083  0.7167
   35TMC2    H2  551   0.538   0.866  10.653  0.5469  0.6217  0.2821
   35TMC2    C7  552   0.310   0.779  10.778 -0.2074  0.2016 -0.9248
   35TMC2    C8  553   0.775   0.792  10.693  0.4572 -0.3194  0.2572
   35TMC2    O1  554   0.273   0.661  10.774  0.2758 -0.1309  0.1609
   35TMC2    O2  555   0.752   0.841  10.585  0.3137  0.1108  0.1076
   35TMC2    O5  556   0.871   0.845  10.773  0.2939 -0.0941  0.3608
   35TMC2    H5  557   0.865   0.807  10.863  0.4542  0.7502  0.7303
   36MPD2     C  558   0.526   0.548  11.593 -0.4262 -0.0198  0.3446
   36MPD2    C1  559   0.469   0.671  11.560 -0.1098 -0.7358 -0.4968
   36MPD2    C2  560   0.460   0.700  11.423 -0.1458 -0.0718  0.2199
   36MPD2    C3  561   0.507   0.613  11.324  0.3942  0.6772  0.5349
   36MPD2    C4  562   0.559   0.491  11.364  0.2364  0.1894 -0.6399
   36MPD2    C5  563   0.575   0.464  11.495 -0.8763  0.1763  0.0404
   36MPD2     H  564   0.436   0.803  11.399  0.0676  0.5180  2.4998
   36MPD2    H1  565   0.620   0.432  11.296  0.8540 -0.3517  0.3641
   36MPD2    H2  566   0.532   0.519  11.697  0.5125 -3.5977 -0.6955
   36MPD2    H3  567   0.640   0.382  11.524  0.0022  0.4454 -1.1859
   36MPD2     N  568   0.519   0.653  11.189  0.2261 -0.5815 -0.4478
   36MPD2    H5  569   0.468   0.736  11.160 -0.6347 -0.5932  1.0579
   36MPD2    N1  570   0.430   0.759  11.667 -0.1240  0.0903 -0.5625
   36MPD2    H7  571   0.432   0.717  11.759 -0.9670 -3.3171 -2.1067
   37TMC2    C1  572   2.781   2.122  12.606  0.1109 -0.0947  0.1685
   37TMC2    C2  573   2.646   2.114  12.590  0.3009  0.1998 -0.5424
   37TMC2    C3  574   2.598   2.064  12.472 -0.2933  0.1034 -0.0743
   37TMC2    C4  575   2.873   2.089  12.509  0.3494 -0.4086 -0.0995
   37TMC2    C5  576   2.822   2.035  12.395 -0.4303 -0.7279  0.6445
   37TMC2    C6  577   2.686   2.030  12.375  0.2510 -0.0187 -0.0576
   37TMC2     C  578   2.822   2.200  12.717 -0.7569  0.4093 -0.2635
   37TMC2     O  579   2.745   2.287  12.752  0.8608 -0.1127  0.9921
   37TMC2     H  580   2.576   2.161  12.658  1.4844 -0.6344  1.2668
   37TMC2    H1  581   2.974   2.128  12.509  1.0182 -2.1431  2.6556
   37TMC2    H2  582   2.645   1.995  12.281  1.6250  1.1205 -1.0925
   37TMC2    C7  583   2.905   1.994  12.288 -0.1438 -0.0797 -0.2961
   37TMC2    C8  584   2.476   2.120  12.419 -0.9126 -0.2965 -0.5206
   37TMC2    O1  585   2.863   1.981  12.172  0.1628 -0.2933 -0.2866
   37TMC2    O2  586   2.459   2.167  12.308 -0.9507  0.1860  0.2577
   37TMC2    O5  587   2.386   2.091  12.516  0.1503 -0.0022  0.4677
   37TMC2    H5  588   2.428   2.039  12.589 -0.6205  1.0517  1.6700
   38MPD2     C  589   3.006   2.129  13.188  0.0424 -0.1736 -0.2746
   38MPD2    C1  590   3.074   2.049  13.098 -0.0833 -0.6963 -0.1960
   38MPD2    C2  591   3.055   2.066  12.963 -0.1599  0.6469 -0.2272
   38MPD2    C3  592   2.959   2.150  12.913 -0.5013  0.0279  0.1270
   38MPD2    C4  593   2.898   2.230  13.002  0.8055 -0.2559 -0.0089
   38MPD2    C5  594   2.917   2.220  13.135  0.1917  0.1942 -0.0599
   38MPD2     H  595   3.105   2.003  12.890 -0.7833 -0.7227  0.5209
   38MPD2    H1  596   2.825   2.302  12.965  2.3262  0.7699 -0.9950
   38MPD2    H2  597   3.024   2.124  13.295 -0.0792 -1.1610 -0.2981
   38MPD2    H3  598   2.858   2.288  13.195 -1.0754 -1.5722  0.7144
   38MPD2     N  599   2.928   2.139  12.775 -0.3747 -0.2402 -0.0237
   38MPD2    H5  600   2.982   2.070  12.724  1.0246  0.6634  0.2352
   38MPD2    N1  601   3.169   1.954  13.136  0.0279  0.0235  0.0400
   38MPD2    H7  602   3.224   1.912  13.062 -1.4587  0.0574 -1.0759
   39TMC2    C1  603   1.742   3.364   1.260  0.1867 -0.0213 -0.4487
   39TMC2    C2  604   1.768   3.284   1.364 -0.0896 -0.0489 -0.3243
   39TMC2    C3  605   1.850   3.334   1.455 -0.7539 -0.0652 -0.2128
   39TMC2    C4  606   1.784   3.496   1.246  0.1140 -0.4388  0.4378
   39TMC2    C5  607   1.871   3.542   1.344  0.1312  0.4074 -0.9947
   39TMC2    C6  608   1.900   3.460   1.454 -0.4067 -0.1671  0.0761
   39TMC2     C  609   1.638   3.327   1.173 -0.1060  0.2367  0.0603
   39TMC2     O  610   1.560   3.415   1.128 -0.2308 -0.1955 -0.1584
   39TMC2     H  611   1.746   3.178   1.370 -1.0705  0.3432  2.9691
   39TMC2    H1  612   1.759   3.536   1.149  4.0142  0.7723 -0.0532
   39TMC2    H2  613   1.970   3.494   1.529  0.3257 -2.2024  0.3096
   39TMC2    C7  614   1.936   3.668   1.331 -0.1196  0.1820 -0.2392
   39TMC2    C8  615   1.888   3.246   1.560 -0.7330  0.1310 -0.3612
   39TMC2    O1  616   2.015   3.701   1.414  0.7022 -0.2450 -0.7693
   39TMC2    O2  617   1.893   3.129   1.537 -0.5621 -0.1125  0.1139
   39TMC2    O5  618   1.957   3.310   1.660 -0.3647  0.3358 -0.2753
   39TMC2    H5  619   1.921   3.395   1.693  2.0012  0.8261  1.0149
   40MPD2     C  620   1.528   3.010   1.045 -0.2219 -0.1349 -0.4333
   40MPD2    C1  621   1.511   3.132   1.104 -0.3390 -0.4623 -0.2333
   40MPD2    C2  622   1.383   3.186   1.115 -0.0402 -0.0000  0.7366
   40MPD2    C3  623   1.276   3.117   1.067 -0.5533 -0.4208 -0.5572
   40MPD2    C4  624   1.295   2.990   1.024  0.4653  0.8071 -0.6204
   40MPD2    C5  625   1.417   2.940   0.999  0.7019  0.2907  0.0359
   40MPD2     H  626   1.376   3.280   1.169 -0.6450  1.2892 -1.5759
   40MPD2    H1  627   1.206   2.942   0.984 -0.8296  0.3890  2.8224
   40MPD2    H2  628   1.627   2.966   1.036  1.0034  2.4893  0.3425
   40MPD2    H3  629   1.429   2.839   0.962  0.9454  0.4243 -0.2417
   40MPD2     N  630   1.148   3.172   1.070 -0.0693 -0.1025  0.5091
   40MPD2    H5  631   1.073   3.116   1.030 -2.2586  0.9731  3.1412
   40MPD2    N1  632   1.628   3.188   1.160  0.2292  0.1632 -0.3583
   40MPD2    H7  633   1.702   3.120   1.171  1.8269  2.2640  1.7991
   41TMC2    C1  634   4.557   2.029  13.212 -0.4381  0.0532 -0.4100
   41TMC2    C2  635   4.577   2.154  13.262 -0.5179  0.3870  0.4495
   41TMC2    C3  636   4.529   2.263  13.200  0.7149 -0.3519 -0.4190
   41TMC2    C4  637   4.497   2.006  13.091  0.0720 -0.2982  0.1988
   41TMC2    C5  638   4.470   2.120  13.020 -0.2933  0.4926  0.6754
   41TMC2    C6  639   4.486   2.253  13.069  0.3322  0.2195  0.3623
   41TMC2     C  640   4.565   1.913  13.295 -0.0778  0.1655 -0.8323
   41TMC2     O  641   4.496   1.815  13.282  0.0595  0.0818  0.1000
   41TMC2     H  642   4.602   2.185  13.363 -0.4904 -1.7511  1.0840
   41TMC2    H1  643   4.482   1.907  13.051  1.9370 -0.2833 -0.5552
   41TMC2    H2  644   4.462   2.339  13.007 -1.0124  0.4301  1.1492
   41TMC2    C7  645   4.427   2.102  12.883 -0.5139 -0.2685  0.4371
   41TMC2    C8  646   4.575   2.387  13.260 -0.0412 -0.4700  0.3345
   41TMC2    O1  647   4.353   2.190  12.851  0.0947  0.5169  0.0294
   41TMC2    O2  648   4.683   2.407  13.320  0.5885  0.1140  0.2877
   41TMC2    O5  649   4.471   2.476  13.245  0.4457 -0.0102 -0.2767
   41TMC2    H5  650   4.386   2.434  13.221 -0.0972  1.6741 -1.2884
   42MPD2     C  651   4.701   1.706  13.484 -0.1241  0.0872  0.5923
   42MPD2    C1  652   4.724   1.844  13.496 -0.1686  0.6127 -0.5026
   42MPD2    C2  653   0.074   1.888  13.597  0.4810  0.3772 -0.4894
   42MPD2    C3  654   0.121   1.812  13.697  0.3043 -0.1658 -0.2697
   42MPD2    C4  655   0.097   1.681  13.683 -0.1209 -0.2226 -0.0978
   42MPD2    C5  656   0.030   1.625  13.579 -0.1391  0.3647 -0.7585
   42MPD2     H  657   0.096   1.993  13.608  0.1684  0.4505 -0.5468
   42MPD2    H1  658   0.129   1.608  13.756  1.6361 -0.0281 -0.6682
   42MPD2    H2  659   4.643   1.659  13.406 -0.1398  0.3456  0.4461
   42MPD2    H3  660   0.005   1.520  13.582  1.0976  0.1201  0.7692
   42MPD2     N  661   0.201   1.858  13.800 -0.4275  0.2777 -0.7528
   42MPD2    H5  662   0.242   1.788  13.862  0.6289 -0.2993 -2.1046
   42MPD2    N1  663   4.667   1.936  13.396  0.5845  0.3339  1.4744
   42MPD2    H7  664   4.720   2.021  13.376 -0.1653  0.7492  1.2179
   43TMC2    C1  665   0.869   4.436   0.375 -0.5779  0.8897 -0.0001
   43TMC2    C2  666   0.785   4.436   0.268 -0.6855 -0.6935  0.2835
   43TMC2    C3  667   0.701   4.542   0.251 -0.5341  0.4193  0.7073
   43TMC2    C4  668   0.872   4.545   0.460 -0.8594  0.8695 -0.1329
   43TMC2    C5  669   0.775   4.635   0.443  0.4162 -0.6457 -0.1748
   43TMC2    C6  670   0.693   4.641   0.335 -0.9152 -0.4535  0.0032
   43TMC2     C  671   1.000   4.396   0.345  0.3197  0.1222 -0.5382
   43TMC2     O  672   1.083   4.484   0.374 -0.6359  0.1308 -0.3645
   43TMC2     H  673   0.790   4.354   0.199 -1.8066 -0.6525  0.1522
   43TMC2    H1  674   0.928   4.537   0.552 -2.7097  2.0254  1.0783
   43TMC2    H2  675   0.630   4.727   0.312  2.1863  1.8367  0.0753
   43TMC2    C7  676   0.806   0.034   0.490 -0.0740 -0.0661 -0.4565
   43TMC2    C8  677   0.603   4.537   0.146  0.2815 -0.6156 -0.0318
   43TMC2    O1  678   0.717   0.116   0.490  0.3747 -0.4219 -0.1108
   43TMC2    O2  679   0.579   4.429   0.091 -0.1086  0.4031 -0.5256
   43TMC2    O5  680   0.588   4.661   0.084 -0.3322  0.0435 -0.0583
   43TMC2    H5  681   0.623   0.007   0.124  0.0269 -0.4126  0.5506
   44MPD2     C  682   1.372   4.073   0.222 -0.0946 -0.7583  0.0244
   44MPD2    C1  683   1.358   4.211   0.212 -0.1153 -0.5107 -0.6134
   44MPD2    C2  684   1.240   4.273   0.227  0.2095 -1.0980 -0.6221
   44MPD2    C3  685   1.131   4.206   0.265  0.4754 -0.0346 -1.0682
   44MPD2    C4  686   1.134   4.068   0.265  0.5037  0.0897  0.0981
   44MPD2    C5  687   1.256   4.006   0.250  0.4152  0.4112  0.3746
   44MPD2     H  688   1.243   4.381   0.213 -1.7798 -1.0030 -0.4304
   44MPD2    H1  689   1.044   4.011   0.287  1.1120 -0.5303  0.9991
   44MPD2    H2  690   1.462   4.012   0.220  0.3001 -0.2366  1.2753
   44MPD2    H3  691   1.262   3.898   0.254 -2.2455  0.1477 -2.5046
   44MPD2     N  692   1.008   4.269   0.294 -0.3471 -0.0236  0.6308
   44MPD2    H5  693   0.923   4.214   0.306 -0.6361  0.2597 -0.1047
   44MPD2    N1  694   1.474   4.294   0.175 -0.2625 -0.0891  0.1005
   44MPD2    H7  695   1.455   4.393   0.161  1.6614  0.6995  3.0664
   45TMC2    C1  696   2.347   1.390   9.607  0.1404  0.3195  0.1290
   45TMC2    C2  697   2.469   1.338   9.633  0.1237  0.9390 -0.2309
   45TMC2    C3  698   2.544   1.396   9.733 -0.4900 -0.6151  0.8957
   45TMC2    C4  699   2.302   1.495   9.680  0.6875  1.0248  0.6800
   45TMC2    C5  700   2.380   1.541   9.783 -0.0725 -0.2512 -0.1929
   45TMC2    C6  701   2.501   1.498   9.809 -0.0321 -0.0112 -0.2164
   45TMC2     C  702   2.262   1.325   9.503 -0.6103 -1.1255  0.8937
   45TMC2     O  703   2.315   1.234   9.439 -0.3211 -0.0319 -0.3358
   45TMC2     H  704   2.503   1.241   9.598  0.0584  0.8848 -0.1467
   45TMC2    H1  705   2.201   1.535   9.681  0.5281  0.6170  1.1918
   45TMC2    H2  706   2.558   1.544   9.890 -0.0704 -1.7040  0.7571
   45TMC2    C7  707   2.342   1.664   9.865 -0.2934 -0.1410 -1.0628
   45TMC2    C8  708   2.660   1.332   9.782  0.4785 -0.2484  0.3073
   45TMC2    O1  709   2.384   1.656   9.979 -0.0606  0.3770  0.4878
   45TMC2    O2  710   2.665   1.209   9.764  0.6976 -0.4558  0.6891
   45TMC2    O5  711   2.765   1.414   9.768 -0.2081  0.0530 -0.2684
   45TMC2    H5  712   2.746   1.509   9.752 -0.0574 -0.2851 -2.3960
   46MPD2     C  713   2.042   1.234   9.321  0.6946 -0.2300  0.0035
   46MPD2    C1  714   2.025   1.320   9.417 -0.2765 -0.0672  0.2564
   46MPD2    C2  715   1.896   1.373   9.435  0.2215  0.5668  0.1907
   46MPD2    C3  716   1.792   1.338   9.362 -0.4797 -0.7369  0.6534
   46MPD2    C4  717   1.808   1.245   9.257  0.2786 -0.5312  0.1984
   46MPD2    C5  718   1.940   1.192   9.240  0.3900  0.3362  0.2621
   46MPD2     H  719   1.881   1.447   9.513  1.4101 -0.2711  1.2162
   46MPD2    H1  720   1.724   1.223   9.192 -0.7088 -0.1830  1.3601
   46MPD2    H2  721   2.133   1.180   9.298  0.0733 -0.1727 -2.6426
   46MPD2    H3  722   1.965   1.121   9.162 -1.7602  0.3553 -0.4448
   46MPD2     N  723   1.665   1.395   9.390  0.2296 -0.4546  0.1147
   46MPD2    H5  724   1.674   1.458   9.470  2.4014  1.0531 -1.3208
   46MPD2    N1  725   2.130   1.367   9.502 -0.2571 -0.0198  0.3593
   46MPD2    H7  726   2.105   1.435   9.574  0.4970  0.3096  0.3072
   47TMC2    C1  727   3.149   2.357   9.101 -0.6213 -0.9645 -0.1600
   47TMC2    C2  728   3.100   2.228   9.089  0.3307 -0.2363 -0.1289
   47TMC2    C3  729   2.963   2.220   9.093 -0.0217  0.7057  0.5650
   47TMC2    C4  730   3.069   2.470   9.099 -0.1704  0.2552 -0.3711
   47TMC2    C5  731   2.933   2.446   9.082  0.1025 -0.1174  0.1398
   47TMC2    C6  732   2.885   2.326   9.080 -0.0026 -0.2902  0.0978
   47TMC2     C  733   3.295   2.380   9.124  0.2367 -0.0618  0.1085
   47TMC2     O  734   3.325   2.492   9.168  0.1313  0.5905 -0.5183
   47TMC2     H  735   3.166   2.143   9.101 -0.7450 -1.0543 -0.0092
   47TMC2    H1  736   3.114   2.569   9.111 -0.7252  0.7942 -2.7979
   47TMC2    H2  737   2.778   2.311   9.074  0.0267 -0.7092  0.6162
   47TMC2    C7  738   2.843   2.559   9.089  0.4858  0.5248 -0.3592
   47TMC2    C8  739   2.907   2.091   9.062  0.3673 -0.2937  0.3464
   47TMC2    O1  740   2.724   2.543   9.106  0.1023 -0.7601 -0.0077
   47TMC2    O2  741   2.963   1.984   9.084 -0.0126  0.2214 -0.7259
   47TMC2    O5  742   2.828   2.109   8.951  0.0241  0.1575 -0.6688
   47TMC2    H5  743   2.818   2.196   8.908 -2.4477  0.4905  0.5169
   48MPD2     C  744   3.582   2.362   9.211  0.6729  0.0487  0.2053
   48MPD2    C1  745   3.513   2.258   9.153 -0.0072  0.0713 -0.4103
   48MPD2    C2  746   3.575   2.138   9.136  0.9577  0.1073 -0.5789
   48MPD2    C3  747   3.712   2.124   9.167 -0.0417 -0.6399 -0.2578
   48MPD2    C4  748   3.782   2.228   9.227  0.0889 -0.6721  0.3654
   48MPD2    C5  749   3.713   2.349   9.247  0.1153 -0.6168  0.9342
   48MPD2     H  750   3.525   2.050   9.101 -1.0248  0.9703  0.0969
   48MPD2    H1  751   3.887   2.223   9.253  0.1404  1.5384  0.6046
   48MPD2    H2  752   3.541   2.462   9.215 -1.0804 -0.7563  3.1052
   48MPD2    H3  753   3.766   2.432   9.293 -2.5821  1.1736  0.8369
   48MPD2     N  754   3.771   2.004   9.136  0.3875  0.2070  0.1465
   48MPD2    H5  755   3.699   1.943   9.099 -0.0132  0.4922  0.4602
   48MPD2    N1  756   3.380   2.273   9.101  0.0324  0.0342 -0.3416
   48MPD2    H7  757   3.348   2.181   9.071 -1.0398  0.8963 -1.8148
   49TMC2    C1  758   1.907   3.668  10.177 -0.3004 -0.7050  0.0090
   49TMC2    C2  759   1.907   3.642  10.043  0.0737  0.1339 -0.6082
   49TMC2    C3  760   1.800   3.583   9.988  0.4715 -0.1262 -0.1141
   49TMC2    C4  761   1.816   3.619  10.263 -0.2552  0.5659  0.6175
   49TMC2    C5  762   1.709   3.551  10.208  0.5112  0.6032  0.6535
   49TMC2    C6  763   1.702   3.541  10.072 -0.6364 -1.0632 -0.2194
   49TMC2     C  764   2.029   3.727  10.223  0.1777  0.2959 -0.9195
   49TMC2     O  765   2.126   3.720  10.148 -0.4126 -0.6511  0.1002
   49TMC2     H  766   1.979   3.693   9.980 -0.8614  1.7994 -0.3155
   49TMC2    H1  767   1.831   3.629  10.370  1.2300 -0.9112  0.5445
   49TMC2    H2  768   1.624   3.480  10.028 -0.1559 -1.3182 -0.7218
   49TMC2    C7  769   1.597   3.520  10.292  0.2693 -0.1956 -0.2537
   49TMC2    C8  770   1.792   3.558   9.843 -0.4571  0.1068 -0.3660
   49TMC2    O1  771   1.614   3.527  10.412 -0.3749 -0.1716 -0.1573
   49TMC2    O2  772   1.894   3.599   9.784 -0.0405  0.0010 -0.9904
   49TMC2    O5  773   1.665   3.557   9.794 -1.0661  0.1940 -0.6318
   49TMC2    H5  774   1.593   3.519   9.850 -0.4507  0.2009  0.1727
   50MPD2     C  775   2.244   3.828  10.405 -0.5111  0.4494  0.3457
   50MPD2    C1  776   2.110   3.861  10.416 -0.3385 -0.4654  0.3798
   50MPD2    C2  777   2.083   3.952  10.518  0.2238 -0.2493 -0.4352
   50MPD2    C3  778   2.177   4.001  10.607 -0.0469  0.1486 -0.6693
   50MPD2    C4  779   2.309   3.973  10.583  0.0019  0.0469  0.0213
   50MPD2    C5  780   2.346   3.882  10.486  0.1690  0.0253 -0.4112
   50MPD2     H  781   1.978   3.978  10.524  0.0022 -1.4724  1.1369
   50MPD2    H1  782   2.383   4.012  10.651  0.8654 -1.0027 -0.3025
   50MPD2    H2  783   2.273   3.749  10.337  0.1431  1.2851 -0.3291
   50MPD2    H3  784   2.447   3.850  10.466  0.1854  0.1130 -0.4681
   50MPD2     N  785   2.145   4.092  10.703  0.3797 -1.0314  0.5116
   50MPD2    H5  786   2.221   4.123  10.764  3.4846 -1.2550 -3.2530
   50MPD2    N1  787   2.013   3.796  10.337 -0.5681 -0.3514 -0.2233
   50MPD2    H7  788   1.917   3.811  10.368  0.2960 -0.2230  2.4052
   51TMC2    C1  789   3.503   3.638   2.058  0.3485 -0.4528 -0.8628
   51TMC2    C2  790   3.572   3.594   2.166 -0.8298 -0.3937  0.3418
   51TMC2    C3  791   3.651   3.676   2.236  0.5212  0.6025 -0.0508
   51TMC2    C4  792   3.512   3.770   2.024  0.9504  0.7042  0.2810
   51TMC2    C5  793   3.588   3.852   2.104 -0.4526 -0.0828  0.2177
   51TMC2    C6  794   3.653   3.810   2.214  0.2224 -0.4414 -0.6571
   51TMC2     C  795   3.430   3.554   1.966 -0.1457  0.0394  0.1168
   51TMC2     O  796   3.335   3.606   1.906  0.6856  0.5703 -0.2789
   51TMC2     H  797   3.551   3.493   2.201  2.6002 -1.0835  0.3384
   51TMC2    H1  798   3.452   3.809   1.942 -0.5249  0.2420  1.1557
   51TMC2    H2  799   3.711   3.876   2.277 -1.6923  0.2075  0.4286
   51TMC2    C7  800   3.596   3.993   2.064 -0.0564  0.5456  0.1039
   51TMC2    C8  801   3.721   3.623   2.354  0.2450 -0.4146  1.1080
   51TMC2    O1  802   3.688   4.056   2.118 -0.5366  0.0620  0.5350
   51TMC2    O2  803   3.652   3.587   2.450 -0.7657 -0.2704  0.1260
   51TMC2    O5  804   3.831   3.700   2.364  0.4328 -0.1457  0.3255
   51TMC2    H5  805   3.864   3.713   2.273 -1.7325 -0.5285 -0.5100
   52MPD2     C  806   3.442   3.189   1.607 -0.0372 -0.1403 -0.0231
   52MPD2    C1  807   3.353   3.290   1.629  1.2479  0.0310 -0.3692
   52MPD2    C2  808   3.369   3.381   1.733 -0.2862 -0.0704  0.1463
   52MPD2    C3  809   3.468   3.349   1.824  0.0660 -0.1118 -0.1093
   52MPD2    C4  810   3.549   3.242   1.809 -0.2270  0.3065  0.1783
   52MPD2    C5  811   3.535   3.161   1.702 -0.2669 -0.8589 -0.0451
   52MPD2     H  812   3.319   3.476   1.719  0.3136  0.3656  0.9461
   52MPD2    H1  813   3.632   3.229   1.877 -0.0809  2.2032  0.3678
   52MPD2    H2  814   3.437   3.120   1.524  2.9161  0.3770 -0.6522
   52MPD2    H3  815   3.604   3.077   1.692  1.2822  0.5662 -1.3660
   52MPD2     N  816   3.491   3.430   1.938  0.1435  0.4905 -0.0526
   52MPD2    H5  817   3.575   3.403   1.989  0.3836 -1.0505 -1.2610
   52MPD2    N1  818   3.264   3.332   1.530  0.1030 -0.7698 -0.2370
   52MPD2    H7  819   3.197   3.401   1.562  0.6084  0.2514 -1.4141
   53TMC2    C1  820   3.317   1.938  11.661 -0.0169 -0.3197 -0.6548
   53TMC2    C2  821   3.409   1.904  11.562 -0.5284  0.4279  0.2752
   53TMC2    C3  822   3.375   1.918  11.429  0.0519 -0.0276  0.0783
   53TMC2    C4  823   3.197   1.986  11.633 -0.1922  0.0489 -0.3413
   53TMC2    C5  824   3.160   1.998  11.496 -0.1031  0.2298  0.4377
   53TMC2    C6  825   3.245   1.967  11.399  0.6297 -0.1842  0.0604
   53TMC2     C  826   3.360   1.937  11.798 -0.5532 -0.2913  0.1392
   53TMC2     O  827   3.472   1.897  11.811 -0.3423  0.0243 -0.5613
   53TMC2     H  828   3.510   1.877  11.591 -1.3068 -1.3131  1.3848
   53TMC2    H1  829   3.119   2.009  11.705  1.1913  2.4583  0.3709
   53TMC2    H2  830   3.214   2.004  11.302 -1.2328 -1.2123  0.2738
   53TMC2    C7  831   3.015   2.020  11.467  0.2609 -0.1435  0.0175
   53TMC2    C8  832   3.473   1.929  11.327 -0.8194  0.2835  0.9643
   53TMC2    O1  833   2.941   2.041  11.562  0.2386 -0.1778 -0.1561
   53TMC2    O2  834   3.439   1.969  11.217  0.7598  0.0642  0.0782
   53TMC2    O5  835   3.583   1.849  11.355 -0.3059  0.7072  0.2675
   53TMC2    H5  836   3.568   1.794  11.435  0.9375  1.3173  0.9185
   54MPD2     C  837   3.383   1.937  12.101  0.2277 -0.2380  0.3338
   54MPD2    C1  838   3.268   1.965  12.033 -0.4774  0.2148  0.5010
   54MPD2    C2  839   3.148   1.970  12.106 -0.5317 -0.2895 -0.2303
   54MPD2    C3  840   3.145   1.956  12.245  0.6181  0.1351  1.0427
   54MPD2    C4  841   3.268   1.930  12.310  0.2404 -0.2327 -0.2818
   54MPD2    C5  842   3.382   1.912  12.234 -0.1585 -0.7127 -0.0230
   54MPD2     H  843   3.052   1.983  12.056  1.0198  1.2674 -2.8054
   54MPD2    H1  844   3.294   1.927  12.415 -1.9063  0.2456  0.2571
   54MPD2    H2  845   3.477   1.928  12.048 -0.5934 -2.1774 -0.7864
   54MPD2    H3  846   3.473   1.876  12.282  0.3612  0.2947 -0.2464
   54MPD2     N  847   3.035   1.977  12.326 -0.2448  0.0320 -0.0742
   54MPD2    H5  848   3.048   1.979  12.427 -0.3562 -4.0563 -0.0113
   54MPD2    N1  849   3.264   1.972  11.891 -0.1293 -0.6099  0.1763
   54MPD2    H7  850   3.170   1.988  11.857  0.5431  0.8669 -0.9881
   55TMC2    C1  851   4.064   4.249   1.116 -0.6257 -0.4192 -0.0026
   55TMC2    C2  852   4.132   4.179   1.024 -0.4268 -0.4280 -0.0317
   55TMC2    C3  853   4.160   4.053   1.063 -0.2631 -0.1233 -0.7354
   55TMC2    C4  854   4.015   4.194   1.233 -0.2032  0.5245  0.1210
   55TMC2    C5  855   4.046   4.061   1.256 -0.3810  0.0426 -0.3687
   55TMC2    C6  856   4.130   3.989   1.177  0.1908 -0.3216 -0.0245
   55TMC2     C  857   4.030   4.382   1.082 -0.7557  0.3456  0.0539
   55TMC2     O  858   3.931   4.426   1.142  0.2213 -0.0354  0.5069
   55TMC2     H  859   4.164   4.225   0.931 -0.7319 -1.0558 -0.4506
   55TMC2    H1  860   3.957   4.253   1.303 -2.1665 -1.3065  0.0510
   55TMC2    H2  861   4.170   3.889   1.191  1.1965  0.3534  1.8381
   55TMC2    C7  862   3.959   3.985   1.341  0.3913 -0.2166 -0.6469
   55TMC2    C8  863   4.230   3.969   0.970  0.3662 -0.0600  0.2353
   55TMC2    O1  864   3.987   3.872   1.381  0.7637  0.3874 -0.3629
   55TMC2    O2  865   4.316   3.887   0.992  0.6160 -0.0629  0.6324
   55TMC2    O5  866   4.181   3.992   0.850  0.0181  0.4136 -0.3076
   55TMC2    H5  867   4.121   4.068   0.834  1.7438  1.6367 -1.0542
   56MPD2     C  868   4.252   4.619   0.887 -0.4400  0.2786 -0.2349
   56MPD2    C1  869   4.139   4.571   0.955  0.0409  0.0270  0.3210
   56MPD2    C2  870   4.024   4.652   0.950  0.0631  0.0480  0.1204
   56MPD2    C3  871   4.037   0.038   0.890  0.5084 -0.4422  0.5571
   56MPD2    C4  872   4.150   0.080   0.831 -0.0436  0.0008  0.3467
   56MPD2    C5  873   4.258   0.004   0.828  0.0399  0.2774  0.3739
   56MPD2     H  874   3.930   4.633   0.999 -1.0157 -1.2584 -2.4338
   56MPD2    H1  875   4.163   0.178   0.788 -0.7453  0.2049  0.6144
   56MPD2    H2  876   4.345   4.562   0.882 -0.9990 -0.8166  1.5885
   56MPD2    H3  877   4.354   0.032   0.785 -0.5981  0.2545 -1.0616
   56MPD2     N  878   3.920   0.125   0.896  0.4843 -0.1502  0.4937
   56MPD2    H5  879   3.840   0.090   0.947 -1.2205  1.2274 -1.2526
   56MPD2    N1  880   4.139   4.440   1.009 -0.0829  0.1861  0.4116
   56MPD2    H7  881   4.222   4.384   0.997 -0.3563 -0.3523  1.0366
   57TMC2    C1  882   3.607   0.674  13.823  0.6502 -0.3536  0.5728
   57TMC2    C2  883   3.727   0.739  13.805  1.3277 -0.4825  0.2352
   57TMC2    C3  884   3.820   0.694  13.717 -0.3066 -0.3020  0.3054
   57TMC2    C4  885   3.570   0.568  13.745 -0.8953 -0.1419 -0.0570
   57TMC2    C5  886   3.656   0.537  13.641  0.2413  0.3284  0.3669
   57TMC2    C6  887   3.785   0.590  13.631 -0.0968 -0.2738 -1.2289
   57TMC2     C  888   3.503   0.752  13.892  0.0265 -0.0064  0.8067
   57TMC2     O  889   3.525   0.866  13.917  0.1232 -0.4242  0.5450
   57TMC2     H  890   3.758   0.809  13.881  0.2255  2.9651 -2.4942
   57TMC2    H1  891   3.475   0.518  13.760 -0.3873 -0.1508  3.0524
   57TMC2    H2  892   3.863   0.557  13.563  1.0285 -0.5000  0.1876
   57TMC2    C7  893   3.600   0.447  13.538 -0.8315 -0.3159 -0.2982
   57TMC2    C8  894   3.964   0.718  13.724 -1.0160  0.1933 -0.3922
   57TMC2    O1  895   3.489   0.401  13.557  0.1766 -0.4128 -0.5650
   57TMC2    O2  896   4.044   0.630  13.693  0.4214 -0.1270 -0.2313
   57TMC2    O5  897   3.986   0.823  13.803  0.1835 -0.2208  0.2590
   57TMC2    H5  898   3.922   0.888  13.767  2.9699  1.5278 -1.5068
   58MPD2     C  899   3.033   0.791  14.093 -0.4166 -0.3635  0.3909
   58MPD2    C1  900   3.115   0.882  14.032 -0.3182 -0.3016  0.1594
   58MPD2    C2  901   3.240   0.851  13.988 -0.1830  0.1307 -0.2616
   58MPD2    C3  902   3.279   0.719  13.999 -0.0677  0.7533 -0.3592
   58MPD2    C4  903   3.193   0.633  14.060  0.7539 -0.0560 -0.4897
   58MPD2    C5  904   3.072   0.661  14.106 -0.5322 -0.4581 -0.4688
   58MPD2     H  905   3.303   0.917  13.930  0.6604 -1.2157 -0.8671
   58MPD2    H1  906   3.218   0.528  14.072  0.2246 -0.4528 -2.9155
   58MPD2    H2  907   2.933   0.812  14.128 -0.5296 -0.8581  0.3676
   58MPD2    H3  908   3.010   0.581  14.145  0.8821 -1.0722  0.5506
   58MPD2     N  909   3.398   0.672  13.946 -0.2123  0.0730  0.1043
   58MPD2    H5  910   3.421   0.575  13.964 -1.5120 -0.4562 -1.0798
   58MPD2    N1  911   3.074   1.016  14.007 -0.3368 -0.3186  0.4069
   58MPD2    H7  912   3.138   1.071  13.951 -2.3412  1.3369 -0.2953
   59TMC2    C1  913   1.342   1.371  12.363  0.6781  0.2405 -0.6792
   59TMC2    C2  914   1.359   1.352  12.228  0.5245 -0.2802 -1.0275
   59TMC2    C3  915   1.257   1.284  12.165 -0.7514  0.6616 -0.1925
   59TMC2    C4  916   1.228   1.325  12.425 -0.3064 -0.6580 -0.0340
   59TMC2    C5  917   1.129   1.256  12.358 -0.4097 -0.3787  0.1454
   59TMC2    C6  918   1.137   1.235  12.221 -0.1271  0.2940 -0.3545
   59TMC2     C  919   1.440   1.440  12.444 -0.7200 -0.2510 -0.4197
   59TMC2     O  920   1.438   1.426  12.565 -0.2795 -0.3449  0.3726
   59TMC2     H  921   1.450   1.375  12.174  1.0764  2.4872  1.0602
   59TMC2    H1  922   1.223   1.350  12.530  1.6337 -2.1123  0.3901
   59TMC2    H2  923   1.076   1.165  12.165 -0.7880  1.7260 -1.4300
   59TMC2    C7  924   1.011   1.243  12.433 -0.2886  0.9519 -0.9744
   59TMC2    C8  925   1.265   1.258  12.023  0.6092 -0.0723  0.4735
   59TMC2    O1  926   1.004   1.292  12.542 -0.0239  0.5099  0.2735
   59TMC2    O2  927   1.158   1.246  11.966 -0.0596 -0.9294  0.4376
   59TMC2    O5  928   1.383   1.199  12.000  0.6092  0.1637  0.2316
   59TMC2    H5  929   1.440   1.192  12.080  0.3408 -0.1518  0.3940
   60MPD2     C  930   1.673   1.713  12.334 -0.5790 -0.0224 -0.3610
   60MPD2    C1  931   1.618   1.618  12.418  0.7187  0.7214  0.2190
   60MPD2    C2  932   1.678   1.593  12.540 -0.1999  0.0290  0.4198
   60MPD2    C3  933   1.773   1.688  12.588  0.0503 -0.0151  0.3929
   60MPD2    C4  934   1.826   1.782  12.500  0.6378  0.1769  0.4265
   60MPD2    C5  935   1.777   1.797  12.378 -0.4844 -0.0026 -0.5577
   60MPD2     H  936   1.635   1.518  12.606  0.3552 -0.2372  0.4794
   60MPD2    H1  937   1.912   1.841  12.530  1.3090 -0.3090 -0.5425
   60MPD2    H2  938   1.633   1.730  12.234  1.6094 -0.3456 -1.2758
   60MPD2    H3  939   1.809   1.878  12.313  0.6792  0.2294  0.3203
   60MPD2     N  940   1.831   1.685  12.721  0.5183  0.3416 -0.2133
   60MPD2    H5  941   1.882   1.771  12.738 -0.0841 -0.0740  3.8675
   60MPD2    N1  942   1.507   1.535  12.369  0.3038 -0.6551  0.0870
   60MPD2    H7  943   1.484   1.539  12.270  1.3267 -0.4517 -0.1425
   61TMC2    C1  944   0.686   2.480  15.297  0.7481  0.3741 -0.6644
   61TMC2    C2  945   0.666   2.404  15.407 -0.0680 -0.6468  0.5194
   61TMC2    C3  946   0.639   2.464  15.525  0.6396 -0.0046  0.2042
   61TMC2    C4  947   0.680   2.614  15.292 -0.1730 -0.6340 -0.1730
   61TMC2    C5  948   0.642   2.677  15.413 -0.4015 -0.2182 -0.6892
   61TMC2    C6  949   0.620   2.602  15.524 -0.2929 -0.2379 -0.2291
   61TMC2     C  950   0.754   2.408  15.187 -0.4086  0.0041  0.6710
   61TMC2     O  951   0.774   2.288  15.190  0.2338  0.2788 -0.1423
   61TMC2     H  952   0.686   2.297  15.405  0.1185 -0.5789 -0.8910
   61TMC2    H1  953   0.700   2.672  15.203 -0.1484 -1.9107 -0.9964
   61TMC2    H2  954   0.599   2.647  15.621  1.5454 -1.4548  0.7371
   61TMC2    C7  955   0.625   2.825  15.413  0.2790  0.4531 -0.4973
   61TMC2    C8  956   0.577   2.380  15.626 -0.0569  0.2634  0.2642
   61TMC2    O1  957   0.629   2.872  15.300  0.1617  0.1337 -0.0099
   61TMC2    O2  958   0.541   2.264  15.613 -0.3042  0.4321 -0.1416
   61TMC2    O5  959   0.572   2.440  15.742  0.1286 -0.0062 -0.3486
   61TMC2    H5  960   0.607   2.532  15.743 -0.1835  0.1186 -1.1912
   62MPD2     C  961   0.836   2.328  14.911 -0.0460 -0.2774  0.5351
   62MPD2    C1  962   0.843   2.459  14.961 -0.2280 -0.9099 -0.0750
   62MPD2    C2  963   0.885   2.556  14.867  0.0101 -0.4303 -0.6542
   62MPD2    C3  964   0.915   2.525  14.733  0.2331  0.6961  0.1260
   62MPD2    C4  965   0.918   2.396  14.697 -0.0190 -0.1037 -0.3622
   62MPD2    C5  966   0.878   2.296  14.783  0.1349 -0.0301  0.9341
   62MPD2     H  967   0.890   2.657  14.906 -0.9512 -1.4845  2.2213
   62MPD2    H1  968   0.932   2.372  14.592 -1.2490  2.6679 -1.1670
   62MPD2    H2  969   0.794   2.244  14.965 -2.1389  0.3721 -0.0515
   62MPD2    H3  970   0.870   2.196  14.743 -0.2213  1.4667 -2.7387
   62MPD2     N  971   0.941   2.622  14.627  0.1674 -0.2549 -0.6394
   62MPD2    H5  972   0.956   2.590  14.533 -3.0685 -1.6845 -0.6921
   62MPD2    N1  973   0.798   2.494  15.085 -0.1973  0.0322  0.3382
   62MPD2    H7  974   0.788   2.593  15.108 -0.3384 -0.0013  0.4184
   63TMC2    C1  975   3.854   2.945  10.046 -0.5048 -0.2851 -0.7911
   63TMC2    C2  976   3.853   3.073  10.091  0.4490  0.0304 -0.0402
   63TMC2    C3  977   3.903   3.174  10.017 -0.9574 -0.2119  0.1449
   63TMC2    C4  978   3.901   2.914   9.920  0.7264 -0.0817 -0.6121
   63TMC2    C5  979   3.947   3.020   9.841  0.2346  1.1359 -0.3666
   63TMC2    C6  980   3.954   3.152   9.895 -0.2877  0.4121  0.7429
   63TMC2     C  981   3.842   2.841  10.155 -0.3203  0.1507 -0.2807
   63TMC2     O  982   3.807   2.871  10.268  0.5963  0.2415  0.3406
   63TMC2     H  983   3.821   3.091  10.192 -2.6874 -0.1750 -0.9896
   63TMC2    H1  984   3.898   2.812   9.885  1.0811 -0.4206  0.3576
   63TMC2    H2  985   3.974   3.227   9.819  0.1236 -0.7739 -0.3140
   63TMC2    C7  986   3.990   2.992   9.706 -0.1476  0.0553  0.1075
   63TMC2    C8  987   3.931   3.296  10.088  0.2734 -0.5713  0.0271
   63TMC2    O1  988   3.995   2.877   9.675  0.4132 -0.3119  0.0316
   63TMC2    O2  989   3.905   3.306  10.204 -0.0479 -0.4382  0.2179
   63TMC2    O5  990   4.044   3.350  10.034 -0.2423  0.7322  0.0298
   63TMC2    H5  991   4.057   3.330   9.939  0.5659  0.6747  0.1571
   64MPD2     C  992   3.974   2.385  10.336  0.3777  0.6415 -0.3893
   64MPD2    C1  993   3.941   2.368  10.201  0.9551  0.8578 -0.4059
   64MPD2    C2  994   3.904   2.477  10.129 -0.1957 -0.3319  0.0561
   64MPD2    C3  995   3.891   2.601  10.190 -0.0313 -0.2316 -0.2074
   64MPD2    C4  996   3.914   2.614  10.324 -0.3510 -0.5209  0.2597
   64MPD2    C5  997   3.957   2.510  10.396 -0.6211 -0.3462 -0.5050
   64MPD2     H  998   3.885   2.467  10.022 -1.8130  0.4559  0.2562
   64MPD2    H1  999   3.885   2.702  10.381  1.1818 -0.6949  1.2904
   64MPD2    H2 1000   3.994   2.301  10.401  1.7792  0.2846 -1.2985
   64MPD2    H3 1001   3.949   2.526  10.503 -2.3909 -1.3336 -0.4727
   64MPD2     N 1002   3.863   2.714  10.108  0.5492  0.4024  0.5142
   64MPD2    H5 1003   3.868   2.705  10.007 -0.8914  0.9875  0.3887
   64MPD2    N1 1004   3.942   2.243  10.138 -0.1023 -0.0868 -0.2927
   64MPD2    H7 1005   3.917   2.247  10.040 -1.7686  2.2156  0.2284
   65TMC2    C1 1006   1.064   2.288  15.412  0.7054 -0.0114 -0.1076
   65TMC2    C2 1007   1.141   2.248  15.305 -0.1656 -0.4793  0.8734
   65TMC2    C3 1008   1.156   2.340  15.201 -0.1327  0.0593 -0.5707
   65TMC2    C4 1009   1.019   2.423  15.432  0.2816 -0.1019 -0.2909
   65TMC2    C5 1010   1.050   2.508  15.331 -0.3417 -1.0037 -1.1445
   65TMC2    C6 1011   1.116   2.469  15.211 -0.0609 -0.3198  0.2194
   65TMC2     C 1012   1.036   2.200  15.524  0.2167  0.4087 -0.2781
   65TMC2     O 1013   0.956   2.237  15.611  0.3201  0.5069  0.2032
   65TMC2     H 1014   1.156   2.143  15.284 -0.1987 -0.5120  1.0139
   65TMC2    H1 1015   0.959   2.445  15.519  1.2437 -0.6944  0.5322
   65TMC2    H2 1016   1.121   2.542  15.131 -0.6182 -0.2809  0.2185
   65TMC2    C7 1017   1.008   2.651  15.336 -0.0147 -0.3927  0.7083
   65TMC2    C8 1018   1.218   2.287  15.078  0.6005 -0.3323  0.2069
   65TMC2    O1 1019   0.979   2.701  15.229 -0.1716  0.1605 -0.3024
   65TMC2    O2 1020   1.202   2.172  15.046 -0.7429  0.0063  0.2862
   65TMC2    O5 1021   1.282   2.379  15.000 -0.1260  0.4126  0.2775
   65TMC2    H5 1022   1.306   2.472  15.020  0.5960 -0.5170  3.7320
   66MPD2     C 1023   1.045   1.992  15.721 -0.0868 -0.0754  0.0816
   66MPD2    C1 1024   1.069   1.969  15.586  0.2868  0.7835 -0.6779
   66MPD2    C2 1025   1.100   1.844  15.539  0.2480 -0.3937  0.4438
   66MPD2    C3 1026   1.112   1.739  15.629  0.5789 -0.3724 -0.4200
   66MPD2    C4 1027   1.087   1.759  15.766  0.7724 -0.8273  0.5401
   66MPD2    C5 1028   1.067   1.891  15.813  0.1247  0.5313  0.4433
   66MPD2     H 1029   1.123   1.841  15.433 -0.2838  0.1969  0.3148
   66MPD2    H1 1030   1.105   1.676  15.834 -0.8905 -0.0673  1.8869
   66MPD2    H2 1031   1.029   2.087  15.771 -1.1051 -0.0990 -0.2033
   66MPD2    H3 1032   1.056   1.912  15.919 -0.5828 -0.6464  0.6074
   66MPD2     N 1033   1.134   1.606  15.586 -0.2276  1.0306 -0.3588
   66MPD2    H5 1034   1.112   1.537  15.657 -1.2672  0.6714 -1.0345
   66MPD2    N1 1035   1.081   2.076  15.500  0.1268 -0.4975  0.6197
   66MPD2    H7 1036   1.127   2.061  15.411 -0.5112  0.7968  0.0800
   67TMC2    C1 1037   1.146   1.348  14.320 -0.4097 -0.1416  0.3190
   67TMC2    C2 1038   1.204   1.469  14.346 -0.3704  0.1351  0.1801
   67TMC2    C3 1039   1.308   1.480  14.430 -0.2099  0.4661  0.2268
   67TMC2    C4 1040   1.201   1.230  14.375 -0.5942  0.7223  0.0710
   67TMC2    C5 1041   1.307   1.246  14.458 -0.1443  0.2195 -0.0811
   67TMC2    C6 1042   1.364   1.370  14.488 -0.0505 -0.9222  0.0677
   67TMC2     C 1043   1.031   1.324  14.231  0.3034  0.6919  0.0388
   67TMC2     O 1044   0.985   1.209  14.231 -0.6201  1.2349 -0.2623
   67TMC2     H 1045   1.167   1.559  14.297  0.4808  0.1052 -0.5057
   67TMC2    H1 1046   1.149   1.135  14.380 -0.9832  1.0003  1.3460
   67TMC2    H2 1047   1.456   1.365  14.544  0.1906 -2.4866 -0.4661
   67TMC2    C7 1048   1.335   1.130  14.544 -0.6083 -0.4122  0.0739
   67TMC2    C8 1049   1.402   1.584  14.398  0.2335  0.4486 -0.1413
   67TMC2    O1 1050   1.285   1.023  14.511  0.0090 -0.1954 -0.7180
   67TMC2    O2 1051   1.394   1.650  14.297 -0.0989  0.9160 -0.1895
   67TMC2    O5 1052   1.497   1.593  14.500  0.0781  0.2047 -0.0963
   67TMC2    H5 1053   1.473   1.541  14.580  2.6573 -0.8378  0.0091
   68MPD2     C 1054   0.834   1.300  14.013 -0.1788 -0.3808  0.0951
   68MPD2    C1 1055   0.883   1.420  14.065 -0.1701 -0.2837  0.4068
   68MPD2    C2 1056   0.832   1.533  14.013  0.5228  0.7053 -0.0743
   68MPD2    C3 1057   0.729   1.533  13.917  0.1208  0.2519 -0.2246
   68MPD2    C4 1058   0.683   1.418  13.866  0.7353  0.2125 -1.2641
   68MPD2    C5 1059   0.746   1.307  13.911  0.1432  1.0500  0.2477
   68MPD2     H 1060   0.876   1.626  14.047  4.5399 -1.1722 -0.2005
   68MPD2    H1 1061   0.601   1.410  13.796  0.7033  1.2261 -1.3390
   68MPD2    H2 1062   0.877   1.204  14.040 -0.7733 -0.9568 -1.0267
   68MPD2    H3 1063   0.720   1.213  13.865  0.3632  1.2973 -0.3695
   68MPD2     N 1064   0.657   1.646  13.871 -0.6116  0.0071 -0.4027
   68MPD2    H5 1065   0.584   1.631  13.802 -1.1746 -0.4546  0.2841
   68MPD2    N1 1066   0.988   1.430  14.152  0.0120 -0.4010  0.3029
   68MPD2    H7 1067   1.032   1.520  14.167 -0.3324 -0.2405  0.3647
   69TMC2    C1 1068   3.058   2.599  12.949  0.3315  1.0361  0.0096
   69TMC2    C2 1069   2.954   2.685  12.955 -0.1442 -0.1423  0.8342
   69TMC2    C3 1070   2.900   2.719  12.836  0.2951 -0.5241  1.0396
   69TMC2    C4 1071   3.100   2.536  12.833  0.7969  0.1483  0.3980
   69TMC2    C5 1072   3.024   2.562  12.726 -0.5062 -0.0533  0.3660
   69TMC2    C6 1073   2.928   2.654  12.716  0.4986  0.5950  0.2646
   69TMC2     C 1074   3.089   2.528  13.077  0.0291  0.2080  0.2484
   69TMC2     O 1075   2.998   2.527  13.163  0.0976 -0.0981 -0.1443
   69TMC2     H 1076   2.933   2.727  13.053  0.0219  1.1236  0.3263
   69TMC2    H1 1077   3.186   2.472  12.840  0.8058  0.1079 -0.0812
   69TMC2    H2 1078   2.870   2.675  12.628 -2.6271  0.3271  2.2676
   69TMC2    C7 1079   3.059   2.494  12.600 -0.7895 -0.2684  1.2256
   69TMC2    C8 1080   2.773   2.784  12.843 -0.4653 -0.0782  0.0218
   69TMC2    O1 1081   3.165   2.433  12.588 -0.3099 -0.3285  0.0942
   69TMC2    O2 1082   2.675   2.730  12.789  0.2633  0.5023 -0.1688
   69TMC2    O5 1083   2.773   2.878  12.939  0.4515  0.6032 -0.0433
   69TMC2    H5 1084   2.865   2.896  12.970  0.3610  0.0570  0.5363
   70MPD2     C 1085   3.414   2.437  13.193  0.3865 -0.4057  0.4114
   70MPD2    C1 1086   3.275   2.448  13.206 -0.5298 -0.0140  0.6456
   70MPD2    C2 1087   3.211   2.379  13.305 -0.1710 -0.1212 -0.3005
   70MPD2    C3 1088   3.280   2.288  13.386 -0.4336  0.3087  0.4342
   70MPD2    C4 1089   3.420   2.285  13.372 -0.4085 -0.4335  0.2841
   70MPD2    C5 1090   3.490   2.359  13.282  0.2741 -0.0321 -0.1925
   70MPD2     H 1091   3.106   2.396  13.323  0.1864  1.1425  0.5410
   70MPD2    H1 1092   3.477   2.220  13.437  0.0101  0.3601  0.7143
   70MPD2    H2 1093   3.465   2.473  13.105  0.4594 -0.0874  0.5841
   70MPD2    H3 1094   3.593   2.327  13.271  1.0578  2.0647  1.1748
   70MPD2     N 1095   3.234   2.227  13.504  0.3289  0.7505 -0.2437
   70MPD2    H5 1096   3.296   2.166  13.556  1.5311  1.0568 -1.3200
   70MPD2    N1 1097   3.219   2.505  13.089  0.1651 -0.1319  0.5578
   70MPD2    H7 1098   3.281   2.547  13.021 -2.7603 -0.2279 -2.2001
   71TMC2    C1 1099   0.734   3.173   1.485 -0.2360 -0.1496  0.2477
   71TMC2    C2 1100   0.863   3.166   1.515  0.1730  0.2981 -0.3248
   71TMC2    C3 1101   0.917   3.248   1.612  0.4425  0.6792 -0.3263
   71TMC2    C4 1102   0.644   3.252   1.560 -0.3048  0.5692 -0.3542
   71TMC2    C5 1103   0.703   3.334   1.652  0.3192  0.9333  0.1340
   71TMC2    C6 1104   0.838   3.341   1.677 -0.7843  0.0878 -0.0501
   71TMC2     C 1105   0.694   3.066   1.395  0.6749 -0.3254  0.6046
   71TMC2     O 1106   0.774   3.023   1.312 -0.1115 -0.1413 -0.0012
   71TMC2     H 1107   0.925   3.107   1.449  0.6337  0.5424 -0.1097
   71TMC2    H1 1108   0.537   3.235   1.565  0.1589 -2.1499  0.1047
   71TMC2    H2 1109   0.868   3.410   1.754 -1.5368  1.2866 -0.8295
   71TMC2    C7 1110   0.630   3.443   1.700  0.1842 -0.4662 -0.7956
   71TMC2    C8 1111   1.047   3.301   1.588  0.4090 -0.2744  0.3824
   71TMC2    O1 1112   0.657   3.481   1.817 -0.5798  1.0749  0.1160
   71TMC2    O2 1113   1.057   3.418   1.558 -0.1924 -0.4159 -0.0740
   71TMC2    O5 1114   1.120   3.203   1.537 -0.4926  0.1080  0.3795
   71TMC2    H5 1115   1.111   3.117   1.584  0.4520  0.1968  0.7135
   72MPD2     C 1116   0.327   2.877   1.088 -0.7204 -0.4631 -0.7027
   72MPD2    C1 1117   0.462   2.898   1.067 -0.2000 -0.4819  0.2194
   72MPD2    C2 1118   0.534   2.968   1.159 -0.2706  0.8981  0.4933
   72MPD2    C3 1119   0.480   2.990   1.287  0.4260 -0.0632  0.5367
   72MPD2    C4 1120   0.347   2.971   1.307  0.2561 -0.6199 -0.2353
   72MPD2    C5 1121   0.272   2.923   1.204 -0.6119 -0.0938 -0.3413
   72MPD2     H 1122   0.636   2.998   1.138 -0.3306  0.3883 -0.5043
   72MPD2    H1 1123   0.303   2.993   1.404 -1.9588  0.2170 -1.4344
   72MPD2    H2 1124   0.259   2.823   1.024 -1.0948  0.3704 -0.9943
   72MPD2    H3 1125   0.165   2.923   1.222 -0.7972  0.2934 -1.4348
   72MPD2     N 1126   0.555   3.053   1.388 -0.1858 -0.7884 -0.3932
   72MPD2    H5 1127   0.491   3.084   1.460  1.1428 -0.9360  0.8506
   72MPD2    N1 1128   0.527   2.844   0.951  0.3749 -0.1284 -0.0513
   72MPD2    H7 1129   0.621   2.882   0.939  0.9145 -0.6435  2.6557
   73TMC2    C1 1130   0.151   0.135  13.560 -0.0465 -0.0136  0.6641
   73TMC2    C2 1131   0.087   0.049  13.652 -0.1745  0.0003  1.1550
   73TMC2    C3 1132   0.142   4.661  13.682  0.1409 -0.1892  0.3245
   73TMC2    C4 1133   0.258   0.080  13.493 -0.0831  0.3139 -0.3840
   73TMC2    C5 1134   0.314   4.699  13.528 -0.3763 -0.2477 -0.0918
   73TMC2    C6 1135   0.262   4.621  13.626  0.0280 -0.0556 -0.3775
   73TMC2     C 1136   0.201   0.261  13.611  0.8944  0.1371  0.1704
   73TMC2     O 1137   0.310   0.257  13.662  0.7000 -0.3931  0.3261
   73TMC2     H 1138   0.005   0.089  13.712  0.9572  0.8038  2.1557
   73TMC2    H1 1139   0.304   0.144  13.420  2.4823 -0.2270  0.7717
   73TMC2    H2 1140   0.300   4.522  13.648 -1.0720 -0.6035 -0.9775
   73TMC2    C7 1141   0.458   4.696  13.533  0.3036 -0.7493  0.3791
   73TMC2    C8 1142   0.049   4.564  13.741  0.9921  0.5783  0.2112
   73TMC2    O1 1143   0.510   4.585  13.535 -0.6150  0.2060  0.1573
   73TMC2    O2 1144   0.100   4.461  13.790  0.3118  0.1771  0.0740
   73TMC2    O5 1145   4.664   4.569  13.691  0.0078 -0.0619 -0.0969
   73TMC2    H5 1146   4.653   4.641  13.625  1.7312  1.4078  1.2351
   74MPD2     C 1147   0.174   0.768  13.605  0.1520 -0.0139  0.2994
   74MPD2    C1 1148   0.273   0.686  13.643  0.0238  0.4073  0.0656
   74MPD2    C2 1149   0.248   0.548  13.641  0.4631  0.1071 -0.3445
   74MPD2    C3 1150   0.127   0.494  13.613 -0.7705  0.7939 -0.0458
   74MPD2    C4 1151   0.026   0.586  13.591 -0.2593  0.3145 -0.0754
   74MPD2    C5 1152   0.044   0.719  13.576 -0.3725  0.4420 -0.2111
   74MPD2     H 1153   0.330   0.478  13.634 -0.5381 -1.2224  1.2038
   74MPD2    H1 1154   4.672   0.540  13.553 -0.4235  0.9584 -0.4810
   74MPD2    H2 1155   0.200   0.873  13.599 -2.1820  0.4349 -1.7825
   74MPD2    H3 1156   4.699   0.779  13.538  0.9741  1.2468 -1.7968
   74MPD2     N 1157   0.109   0.358  13.589 -0.1627  0.8698 -0.2349
   74MPD2    H5 1158   0.028   0.324  13.538  0.3811  0.0324 -0.5332
   74MPD2    N1 1159   0.402   0.739  13.662 -0.2947 -0.6848  0.4262
   74MPD2    H7 1160   0.416   0.839  13.651 -0.4366 -0.7615 -0.4594
   75TMC2    C1 1161   0.621   1.872  13.811  0.1866  0.6448  0.1930
   75TMC2    C2 1162   0.677   1.990  13.820 -0.0714  0.2905 -0.2533
   75TMC2    C3 1163   0.672   2.083  13.721  0.1416 -0.2714 -0.0354
   75TMC2    C4 1164   0.549   1.829  13.703  0.5415 -0.1746 -0.6347
   75TMC2    C5 1165   0.524   1.931  13.607 -0.7182 -0.1871 -0.2457
   75TMC2    C6 1166   0.585   2.051  13.619  0.4440 -0.1340  0.6770
   75TMC2     C 1167   0.683   1.776  13.898  0.0386 -0.1156 -0.2910
   75TMC2     O 1168   0.763   1.811  13.982  0.2955  0.4501 -0.1532
   75TMC2     H 1169   0.740   2.024  13.901 -0.9607 -0.1213  0.6097
   75TMC2    H1 1170   0.492   1.738  13.693  2.0823 -1.4040  1.8575
   75TMC2    H2 1171   0.589   2.121  13.536  1.3758  0.2743  1.0626
   75TMC2    C7 1172   0.435   1.907  13.492  0.0375  0.4094  0.0569
   75TMC2    C8 1173   0.728   2.210  13.746  0.0913  0.6739  0.4382
   75TMC2    O1 1174   0.434   1.791  13.454 -0.0446 -0.6465  0.3286
   75TMC2    O2 1175   0.825   2.228  13.823 -0.0385  0.7177  0.0937
   75TMC2    O5 1176   0.670   2.310  13.673 -0.4400  0.8981  0.2776
   75TMC2    H5 1177   0.578   2.292  13.644  0.1275  1.1370 -1.7171
   76TMC2    C1 1178   3.712   1.376  11.825  0.1821 -0.8192  0.1100
   76TMC2    C2 1179   3.585   1.328  11.804  0.0935 -0.3183  0.1441
   76TMC2    C3 1180   3.554   1.194  11.795  0.1257  0.1959  0.2515
   76TMC2    C4 1181   3.811   1.282  11.842 -0.5570 -0.2231  0.5110
   76TMC2    C5 1182   3.777   1.145  11.828 -0.3150  0.3569  0.1750
   76TMC2    C6 1183   3.653   1.097  11.800  0.1120 -0.2147  0.5851
   76TMC2     C 1184   3.730   1.518  11.830 -0.3602  0.6513  0.3762
   76TMC2     O 1185   3.649   1.588  11.770 -0.3068 -0.8660  0.4400
   76TMC2     H 1186   3.510   1.402  11.779 -2.1713 -3.4411 -2.2657
   76TMC2    H1 1187   3.914   1.316  11.841 -0.3716 -0.8176 -0.4120
   76TMC2    H2 1188   3.637   0.990  11.794 -0.0118 -0.1812  0.3392
   76TMC2    C7 1189   3.882   1.045  11.862 -0.2905  0.1401 -0.5517
   76TMC2    C8 1190   3.429   1.150  11.735 -0.4797  0.4735  0.0537
   76TMC2    O1 1191   3.874   0.936  11.808 -0.6135 -0.2622 -0.9154
   76TMC2    O2 1192   3.326   1.219  11.748 -0.4999  0.0179  0.3551
   76TMC2    O5 1193   3.457   1.083  11.625  0.3127 -0.0031 -0.0187
   76TMC2    H5 1194   3.546   1.042  11.629  0.8701  1.1748 -0.3472
   77MPD2     C 1195   3.925   1.957  12.048  0.3094  0.7864  1.2294
   77MPD2    C1 1196   3.816   1.931  11.966  0.3121 -0.0825 -0.7204
   77MPD2    C2 1197   3.793   1.804  11.921 -0.2410 -0.5145  0.1609
   77MPD2    C3 1198   3.864   1.693  11.959  0.3481  0.1778  0.6275
   77MPD2    C4 1199   3.978   1.719  12.036 -0.0095 -0.1737 -0.0773
   77MPD2    C5 1200   4.003   1.847  12.080  0.3716 -0.3849 -0.4822
   77MPD2     H 1201   3.700   1.782  11.868  0.1035 -0.5953 -0.4195
   77MPD2    H1 1202   4.049   1.638  12.052  1.1355  0.8673  0.1146
   77MPD2    H2 1203   3.959   2.056  12.075  1.4140  0.8261 -0.2797
   77MPD2    H3 1204   4.090   1.861  12.144  0.5618 -2.8452 -0.2319
   77MPD2     N 1205   3.834   1.561  11.912  0.3479  0.0385 -0.1556
   77MPD2    H5 1206   3.889   1.482  11.944  0.6561  0.1774 -0.3426
   77MPD2    N1 1207   3.714   2.019  11.932 -0.4417  0.1434  0.8557
   77MPD2    H7 1208   3.632   1.973  11.893 -1.4550  0.0963  3.0244
   78TMC2    C1 1209   0.591   2.085   0.171  0.1194  0.0988 -0.7605
   78TMC2    C2 1210   0.482   2.008   0.200 -0.3493 -0.0845 -0.0388
   78TMC2    C3 1211   0.434   2.010   0.328  0.4587 -0.6281  0.2978
   78TMC2    C4 1212   0.657   2.153   0.264  0.1631 -0.8978  0.2692
   78TMC2    C5 1213   0.594   2.171   0.388  0.2412  0.3620  0.7515
   78TMC2    C6 1214   0.483   2.095   0.422  0.3138 -0.1191 -0.0212
   78TMC2     C 1215   0.652   2.079   0.039 -0.1961  0.0599  0.6407
   78TMC2     O 1216   0.712   2.182   0.010 -0.1618  0.8264 -0.0592
   78TMC2     H 1217   0.430   1.955   0.120 -1.6488  1.3771 -0.1527
   78TMC2    H1 1218   0.738   2.219   0.236 -0.4594 -0.5563 -0.7270
   78TMC2    H2 1219   0.444   2.080   0.522  1.2177 -1.2544  0.1564
   78TMC2    C7 1220   0.690   2.210   0.490 -0.1065  0.7877 -0.1480
   78TMC2    C8 1221   0.309   1.933   0.353 -0.3814 -0.1272 -0.6190
   78TMC2    O1 1222   0.802   2.231   0.448 -0.3518 -0.6989 -0.1937
   78TMC2    O2 1223   0.243   1.882   0.262 -0.4773  0.0019 -0.5986
   78TMC2    O5 1224   0.322   1.871   0.467  0.1844 -0.2644 -0.3590
   78TMC2    H5 1225   0.404   1.889   0.518 -0.1497  1.3367 -0.4015
   79MPD1     C 1226   0.803   1.810  17.363 -0.0057 -0.4307 -0.3966
   79MPD1    C1 1227   0.823   1.944  17.395 -0.1865  0.4882 -0.8200
   79MPD1    C2 1228   0.769   1.989  17.518 -0.6796 -0.0416  0.2619
   79MPD1    C3 1229   0.695   1.909  17.600  0.2434 -0.2820 -0.2920
   79MPD1    C4 1230   0.682   1.776  17.569 -0.2218  0.2394  0.4977
   79MPD1    C5 1231   0.733   1.732  17.448 -0.0822  0.1198  0.0842
   79MPD1     H 1232   0.790   2.092  17.544  2.1830 -0.8705  1.3428
   79MPD1    H1 1233   0.620   1.712  17.631 -0.1554  0.4030  0.7324
   79MPD1    H2 1234   0.854   1.763  17.279 -2.3336 -2.8264 -0.4433
   79MPD1    H3 1235   0.722   1.627  17.423  0.4711 -0.1178  0.8756
   79MPD1     N 1236   0.642   1.954  17.723 -0.0578 -0.5224 -0.3588
   79MPD1    H5 1237   0.613   1.873   0.034  1.7288 -0.5129  0.6330
   79MPD1    N1 1238   0.881   2.028  17.297  0.1364  0.3757 -0.4042
   79MPD1    H6 1239   0.952   2.091  17.333  0.7817 -1.2599  1.1921
   79MPD1    H7 1240   0.937   1.972  17.233  0.4261  1.1351 -0.8120
   80TMC2    C1 1241   3.138   1.589  12.225  0.2898 -0.2046  0.2488
   80TMC2    C2 1242   3.150   1.603  12.091 -0.1731 -0.5793  0.3083
   80TMC2    C3 1243   3.042   1.656  12.025 -0.0918  0.0729  0.1792
   80TMC2    C4 1244   3.020   1.614  12.292 -1.0471 -0.4508 -0.2524
   80TMC2    C5 1245   2.910   1.658  12.220 -0.4078  0.0318  0.2632
   80TMC2    C6 1246   2.921   1.687  12.083 -0.4225 -0.2888 -0.0881
   80TMC2     C 1247   3.247   1.515  12.287  0.1073 -0.1862  1.0194
   80TMC2     O 1248   3.295   1.430  12.214 -0.6136  0.3184 -0.5308
   80TMC2     H 1249   3.237   1.560  12.041 -0.9907 -1.5895 -0.2542
   80TMC2    H1 1250   3.012   1.595  12.399 -2.5094 -1.6901 -0.5923
   80TMC2    H2 1251   2.833   1.717  12.028  0.3554  0.8733 -0.7062
   80TMC2    C7 1252   2.782   1.601  12.252 -0.1692 -0.2988  0.3836
   80TMC2    C8 1253   3.043   1.674  11.882 -0.1110 -0.0992  0.1584
   80TMC2    O1 1254   2.673   1.641  12.198 -0.1308 -0.5124  0.2763
   80TMC2    O2 1255   2.937   1.696  11.829  0.0690 -0.6738 -0.1242
   80TMC2    O5 1256   3.167   1.685  11.837 -0.8603 -0.2206  0.4419
   80TMC2    H5 1257   3.244   1.658  11.892 -0.6653 -1.4702 -0.4275
   81MPD2     C 1258   3.395   1.358  12.481  0.4999  0.2992 -0.4522
   81MPD2    C1 1259   3.338   1.472  12.518 -0.0136  0.0871  0.2314
   81MPD2    C2 1260   3.349   1.522  12.649  0.2469 -0.0619 -0.4865
   81MPD2    C3 1261   3.419   1.459  12.744  0.4001  0.3546 -0.2119
   81MPD2    C4 1262   3.469   1.339  12.707  0.0604 -0.1995  0.2144
   81MPD2    C5 1263   3.454   1.287  12.576  0.3746 -0.3662 -0.6989
   81MPD2     H 1264   3.314   1.622  12.672  0.5859 -0.8712  3.6567
   81MPD2    H1 1265   3.527   1.280  12.777  2.4925  0.8565 -0.8988
   81MPD2    H2 1266   3.388   1.318  12.380  1.3377  0.3367 -0.5251
   81MPD2    H3 1267   3.486   1.191  12.538  0.9797  0.3105 -1.9079
   81MPD2     N 1268   3.421   1.498  12.875 -0.5212 -0.0555  0.2545
   81MPD2    H5 1269   3.470   1.437  12.940  1.6791  1.3868 -0.0460
   81MPD2    N1 1270   3.265   1.548  12.420 -0.1359 -0.3830  0.7928
   81MPD2    H7 1271   3.219   1.631  12.455 -1.1504 -2.5698  4.6693
   82TMC2    C1 1272   1.228   0.598  10.506 -0.7283 -0.1830  0.1390
   82TMC2    C2 1273   1.357   0.651  10.490  0.3090 -0.8720 -0.3281
   82TMC2    C3 1274   1.456   0.581  10.551 -0.3583 -0.2421 -0.4499
   82TMC2    C4 1275   1.206   0.484  10.576 -0.2552 -0.7724  0.2012
   82TMC2    C5 1276   1.310   0.430  10.648  0.5745 -0.5922  0.2128
   82TMC2    C6 1277   1.439   0.471  10.624 -0.5613  0.4127  0.1785
   82TMC2     C 1278   1.130   0.662  10.418 -0.4600 -0.6657 -0.0729
   82TMC2     O 1279   1.175   0.729  10.326  0.1740 -0.0305 -0.3538
   82TMC2     H 1280   1.369   0.741  10.431  0.3841 -0.7250 -0.0906
   82TMC2    H1 1281   1.110   0.441  10.602 -1.5959  1.7665 -0.5193
   82TMC2    H2 1282   1.530   0.432  10.667 -1.3796 -0.1473  1.4069
   82TMC2    C7 1283   1.279   0.356  10.768 -0.1458 -0.1194  0.4518
   82TMC2    C8 1284   1.566   0.663  10.586 -0.8002  0.3871 -0.6450
   82TMC2    O1 1285   1.163   0.361  10.809 -0.2442  0.3848  1.1152
   82TMC2    O2 1286   1.640   0.642  10.682 -0.4782 -0.0532  0.1107
   82TMC2    O5 1287   1.617   0.692  10.466  0.2124 -0.0888 -0.7415
   82TMC2    H5 1288   1.569   0.648  10.392  1.1246 -0.9706 -0.7998
   83MPD2     C 1289   0.674   0.695  10.204  0.3689  0.3774  0.2390
   83MPD2    C1 1290   0.801   0.708  10.151  0.3730  0.0134 -0.3736
   83MPD2    C2 1291   0.915   0.673  10.220  0.5717  0.4452  0.1977
   83MPD2    C3 1292   0.896   0.630  10.353  0.0784 -0.7367 -0.6140
   83MPD2    C4 1293   0.774   0.600  10.404 -0.0707  0.2157 -0.1854
   83MPD2    C5 1294   0.660   0.634  10.327  0.4385 -0.1371  0.2749
   83MPD2     H 1295   1.011   0.694  10.175  0.1883 -0.4215 -1.0243
   83MPD2    H1 1296   0.755   0.565  10.505 -1.2857  0.6025 -0.2853
   83MPD2    H2 1297   0.582   0.710  10.149 -1.8376 -3.3852  2.8466
   83MPD2    H3 1298   0.562   0.613  10.370  1.2359 -4.0914  0.1515
   83MPD2     N 1299   1.005   0.612  10.442 -0.9246  0.1248 -0.1581
   83MPD2    H5 1300   0.988   0.565  10.530  1.3526 -1.3841 -0.5180
   83MPD2    N1 1301   0.805   0.748  10.019 -0.4953 -0.2467 -0.2504
   83MPD2    H7 1302   0.723   0.796   9.983  0.2151  1.4600  0.4069
   84TMC2    C1 1303   2.133   4.335  11.033  0.2053  0.0570 -0.4153
   84TMC2    C2 1304   2.048   4.444  11.025 -0.4720  0.6043  0.9138
   84TMC2    C3 1305   1.963   4.454  10.920 -1.5701  0.4026 -0.4833
   84TMC2    C4 1306   2.127   4.238  10.937  0.3898 -1.3181  0.6341
   84TMC2    C5 1307   2.044   4.256  10.829 -0.3186 -0.4150 -0.3950
   84TMC2    C6 1308   1.964   4.368  10.811  0.0709 -0.6591  0.1031
   84TMC2     C 1309   2.234   4.335  11.140 -0.0301 -0.1368  0.1353
   84TMC2     O 1310   2.244   4.441  11.205 -0.2922 -0.6717  0.4024
   84TMC2     H 1311   2.046   4.517  11.105  1.1695  1.6534 -0.0040
   84TMC2    H1 1312   2.202   4.160  10.944  0.1856 -1.5181  0.6013
   84TMC2    H2 1313   1.881   4.382  10.744  1.6629  1.2442 -1.4928
   84TMC2    C7 1314   2.024   4.143  10.737 -0.2626 -0.5768  0.5514
   84TMC2    C8 1315   1.896   4.578  10.905  0.2537  0.0123 -0.1817
   84TMC2    O1 1316   1.921   4.159  10.674  0.3938 -0.5377 -0.4608
   84TMC2    O2 1317   1.945   4.688  10.931  0.0322 -0.4609 -0.0907
   84TMC2    O5 1318   1.771   4.549  10.945 -0.1083  0.0016  0.4079
   84TMC2    H5 1319   1.743   4.455  10.948  0.3011 -0.1825 -1.4709
   85TMC2    C1 1320   2.965   2.938  15.665  0.2548  0.2001 -0.7875
   85TMC2    C2 1321   2.887   2.854  15.587  0.6710 -0.3398 -0.5454
   85TMC2    C3 1322   2.896   2.868  15.449  0.6013  0.5269 -0.4956
   85TMC2    C4 1323   3.048   3.038  15.611  0.9265  1.0571 -0.3472
   85TMC2    C5 1324   3.046   3.053  15.471 -0.7174  0.0135  1.1335
   85TMC2    C6 1325   2.972   2.969  15.396 -0.6497 -0.1871 -0.0847
   85TMC2     C 1326   2.953   2.930  15.809 -0.2581  0.1454 -0.6649
   85TMC2     O 1327   3.000   3.028  15.869  0.0607 -0.1750  0.0329
   85TMC2     H 1328   2.817   2.784  15.630  0.0811 -0.4893 -1.7506
   85TMC2    H1 1329   3.114   3.096  15.674 -0.2181  0.7080  1.1825
   85TMC2    H2 1330   2.971   2.985  15.288  0.9645  0.2491 -0.0284
   85TMC2    C7 1331   3.163   3.127  15.412 -0.5101  0.2558 -0.2266
   85TMC2    C8 1332   2.837   2.772  15.364  0.3205  0.5833  0.3464
   85TMC2    O1 1333   3.264   3.137  15.479 -0.2954 -0.1465  0.0302
   85TMC2    O2 1334   2.833   2.784  15.242  0.5025 -0.1875  0.3048
   85TMC2    O5 1335   2.855   2.650  15.423  0.2332 -0.0937 -0.3989
   85TMC2    H5 1336   2.890   2.640  15.514  0.0458  3.5829  0.0570
   86MPD2     C 1337   2.988   2.647  16.244  0.4342 -0.1972  0.6391
   86MPD2    C1 1338   2.906   2.578  16.154 -0.7538 -0.5387 -0.1169
   86MPD2    C2 1339   2.873   2.635  16.029 -0.0153  0.0672 -0.1750
   86MPD2    C3 1340   2.921   2.759  15.991  0.1178  0.1653 -0.5569
   86MPD2    C4 1341   3.012   2.814  16.076  0.2496 -0.1566 -0.8128
   86MPD2    C5 1342   3.041   2.760  16.194  0.2258  0.3212 -0.6587
   86MPD2     H 1343   2.826   2.568  15.958  0.8156 -0.4250 -0.2651
   86MPD2    H1 1344   3.060   2.909  16.058 -1.1310  0.6404 -0.2836
   86MPD2    H2 1345   3.026   2.603  16.335  0.7217  0.3131  0.7657
   86MPD2    H3 1346   3.114   2.811  16.256 -1.1008  0.7805  0.5330
   86MPD2     N 1347   2.906   2.810  15.858  0.3598  0.7236 -0.5528
   86MPD2    H5 1348   2.874   2.735  15.798  1.9432 -1.4359  1.3126
   86MPD2    N1 1349   2.852   2.452  16.191  0.8944  0.5677 -0.5824
   86MPD2    H7 1350   2.787   2.400  16.133 -0.9686  2.4779 -0.2072
   87TMC2    C1 1351   0.869   0.839   0.919  0.3918  0.5785 -0.9401
   87TMC2    C2 1352   0.918   0.728   0.993 -0.0459  0.2331  0.3065
   87TMC2    C3 1353   0.970   0.750   1.119 -0.2296  0.4646 -0.9505
   87TMC2    C4 1354   0.877   0.962   0.966  0.1807  0.4979 -0.4795
   87TMC2    C5 1355   0.935   0.984   1.090 -0.2822 -0.1899  0.6106
   87TMC2    C6 1356   0.985   0.879   1.165  0.1324  0.4502 -0.1876
   87TMC2     C 1357   0.844   0.817   0.777 -0.4081 -0.7636 -0.0356
   87TMC2     O 1358   0.870   0.912   0.706 -0.1537 -0.0255  0.2969
   87TMC2     H 1359   0.929   0.633   0.942 -1.9995  1.1279 -1.7742
   87TMC2    H1 1360   0.817   1.034   0.913 -0.5886 -0.3940 -0.8268
   87TMC2    H2 1361   1.047   0.890   1.252 -1.3558 -2.8402  1.2870
   87TMC2    C7 1362   1.011   1.112   1.105  0.1868  0.1842 -0.4608
   87TMC2    C8 1363   1.055   0.644   1.169 -0.6446 -0.0875 -0.1538
   87TMC2    O1 1364   1.046   1.153   1.215  0.1856  0.2185  0.3217
   87TMC2    O2 1365   1.109   0.557   1.100  0.5100  0.3559 -0.9777
   87TMC2    O5 1366   1.076   0.655   1.306  0.3588  1.1753  0.3860
   87TMC2    H5 1367   1.005   0.716   1.337  1.0291  2.0806  0.1425
   88MPD2     C 1368   1.031   1.414   1.051  0.5888 -0.5303  0.0744
   88MPD2    C1 1369   1.020   1.309   0.955 -0.2699 -0.5972 -0.0974
   88MPD2    C2 1370   1.000   1.344   0.827  1.2018 -0.0037 -0.2318
   88MPD2    C3 1371   0.986   1.473   0.778  0.3690  0.2737  0.2706
   88MPD2    C4 1372   1.002   1.578   0.873  0.1134  0.4585  0.4047
   88MPD2    C5 1373   1.023   1.540   1.002 -0.2920 -0.2400  0.5957
   88MPD2     H 1374   0.987   1.256   0.765 -0.4976  1.7126 -2.3144
   88MPD2    H1 1375   1.004   1.683   0.846  3.8331 -0.2539 -1.9783
   88MPD2    H2 1376   1.032   1.395   1.158 -3.1392 -0.2042  0.1767
   88MPD2    H3 1377   1.034   1.627   1.066 -2.1752 -0.2766  0.9710
   88MPD2     N 1378   0.944   1.504   0.650 -0.6249 -0.1027 -0.2105
   88MPD2    H5 1379   0.942   1.603   0.628 -0.0808 -0.3684 -1.4500
   88MPD2    N1 1380   1.006   1.174   0.985 -0.5545 -0.0747  0.3479
   88MPD2    H7 1381   1.007   1.108   0.907 -3.4367 -0.4221  0.5946
   89TMC2    C1 1382   1.857   4.130   0.653 -0.6176  0.2606  0.7846
   89TMC2    C2 1383   1.835   4.010   0.585  0.5979  0.1507  0.1291
   89TMC2    C3 1384   1.724   3.999   0.514  0.1153 -0.7925  0.4847
   89TMC2    C4 1385   1.777   4.236   0.634 -0.0344 -0.4835 -0.2369
   89TMC2    C5 1386   1.670   4.220   0.551  0.4815  0.0154 -0.2503
   89TMC2    C6 1387   1.639   4.105   0.493 -0.2789  0.3900  0.5543
   89TMC2     C 1388   1.924   4.130   0.777 -0.0537 -0.3367 -0.2653
   89TMC2     O 1389   1.967   4.236   0.816  0.2582  0.1660 -0.3435
   89TMC2     H 1390   1.885   3.918   0.611 -0.2277 -1.3184 -3.6259
   89TMC2    H1 1391   1.791   4.327   0.692  0.3774  0.0702 -1.2054
   89TMC2    H2 1392   1.547   4.101   0.436  0.4242 -1.2264 -0.4774
   89TMC2    C7 1393   1.576   4.326   0.537 -0.1715  0.6693 -0.0903
   89TMC2    C8 1394   1.699   3.878   0.434  0.2952  0.5160 -0.1807
   89TMC2    O1 1395   1.460   4.297   0.552  0.1114 -0.2528 -0.8339
   89TMC2    O2 1396   1.782   3.799   0.395  0.6423  0.6879 -0.1612
   89TMC2    O5 1397   1.562   3.858   0.421  0.0244 -0.2190 -0.5511
   89TMC2    H5 1398   1.508   3.913   0.481  0.9035 -0.8758  0.8349
   90MPD2     C 1399   2.072   3.913   1.218  0.1835 -0.3006  0.6262
   90MPD2    C1 1400   1.981   3.830   1.157 -1.0107  0.7459 -0.6275
   90MPD2    C2 1401   1.932   3.869   1.038 -0.4947  0.4821  0.0424
   90MPD2    C3 1402   1.971   3.985   0.981  0.2833  0.4518  0.4948
   90MPD2    C4 1403   2.072   4.061   1.040 -0.1211  0.1713 -0.7506
   90MPD2    C5 1404   2.121   4.027   1.162  0.6523 -0.5219 -0.3657
   90MPD2     H 1405   1.856   3.809   0.988  0.7114 -0.2490 -0.9282
   90MPD2    H1 1406   2.115   4.147   0.989 -0.7956 -0.0730 -1.7333
   90MPD2    H2 1407   2.100   3.889   1.319  1.2051 -0.3145  0.3348
   90MPD2    H3 1408   2.194   4.087   1.216  0.9495 -0.6888 -0.5806
   90MPD2     N 1409   1.911   4.015   0.853 -0.2803  0.3786 -0.4664
   90MPD2    H5 1410   1.854   3.942   0.811 -0.1459  0.3820 -0.6511
   90MPD2    N1 1411   1.918   3.718   1.211  1.3407  0.0216 -0.7428
   90MPD2    H7 1412   1.837   3.680   1.163  0.5826  1.2296 -0.4145
   91TMC2    C1 1413   3.247   4.260  16.161  0.7835 -0.1611  0.5344
   91TMC2    C2 1414   3.293   4.365  16.238  1.1671 -0.4080 -0.0903
   91TMC2    C3 1415   3.196   4.422  16.322  0.4798 -0.6000 -0.1034
   91TMC2    C4 1416   3.120   4.209  16.164 -0.0616  0.3534 -0.1323
   91TMC2    C5 1417   3.029   4.271  16.239  1.6366  0.1588  0.4174
   91TMC2    C6 1418   3.063   4.379  16.324  0.1985  0.1013 -0.0303
   91TMC2     C 1419   3.338   4.185  16.072 -0.0554 -0.1703  0.0124
   91TMC2     O 1420   3.288   4.118  15.983  0.3526 -0.4793  1.1676
   91TMC2     H 1421   3.388   4.417  16.230  0.2651  1.0662 -1.1142
   91TMC2    H1 1422   3.099   4.126  16.096 -0.6812  2.2286 -2.2271
   91TMC2    H2 1423   2.982   4.436  16.368  0.0295 -0.2209  0.0801
   91TMC2    C7 1424   2.912   4.200  16.267  0.8668 -0.4725 -0.2665
   91TMC2    C8 1425   3.240   4.528  16.415 -0.5309 -0.0738 -0.3698
   91TMC2    O1 1426   2.862   4.216  16.375 -0.5494  0.3422  0.2080
   91TMC2    O2 1427   3.312   4.617  16.376  0.0294  0.1142 -0.2204
   91TMC2    O5 1428   3.180   4.506  16.534 -0.1546 -0.0996 -0.2644
   91TMC2    H5 1429   3.121   4.428  16.538 -0.4358  0.1110 -0.2908
   92MPD2     C 1430   3.576   4.047  15.939  0.1952  0.0474  0.3207
   92MPD2    C1 1431   3.578   4.135  16.046 -0.4588  0.5580  0.3747
   92MPD2    C2 1432   3.697   4.179  16.079 -0.0970 -0.0316  0.2020
   92MPD2    C3 1433   3.809   4.149  16.009 -0.5213 -0.5626 -0.1731
   92MPD2    C4 1434   3.803   4.064  15.899 -0.3247  0.4298 -0.0470
   92MPD2    C5 1435   3.686   4.018  15.866 -0.6782 -0.1535 -0.4978
   92MPD2     H 1436   3.711   4.243  16.165 -2.8168 -1.8168  1.9592
   92MPD2    H1 1437   3.885   4.042  15.832  1.2044  0.3130  1.9033
   92MPD2    H2 1438   3.481   4.005  15.908  0.2584  0.3413 -0.2609
   92MPD2    H3 1439   3.673   3.967  15.771  1.8562 -1.2422 -0.2564
   92MPD2     N 1440   3.933   4.197  16.060  0.1072 -0.5587 -0.3043
   92MPD2    H5 1441   3.943   4.267  16.134  0.5020  0.1009 -0.9869
   92MPD2    N1 1442   3.470   4.188  16.110  0.4061  0.1714  0.2373
   92MPD2    H7 1443   3.495   4.251  16.185 -1.0649  1.7866 -0.6249
   93TMC2    C1 1444   0.454   4.389  13.825 -0.0150  0.4048 -0.0644
   93TMC2    C2 1445   0.392   4.435  13.939  0.8380  0.1588  0.5501
   93TMC2    C3 1446   0.461   4.524  14.017  0.2330 -0.0375 -0.4960
   93TMC2    C4 1447   0.585   4.421  13.795 -0.5444  0.4713  0.1103
   93TMC2    C5 1448   0.649   4.512  13.874 -0.4144  0.0093  0.2221
   93TMC2    C6 1449   0.591   4.555  13.993 -0.8696  0.0627 -0.2802
   93TMC2     C 1450   0.400   4.259  13.777 -0.1182 -0.1681 -0.0641
   93TMC2     O 1451   0.492   4.179  13.749 -0.2074 -0.4666 -0.1690
   93TMC2     H 1452   0.288   4.411  13.960  0.9879 -0.5238  0.5320
   93TMC2    H1 1453   0.632   4.379  13.707  1.1672  0.4063  1.0647
   93TMC2    H2 1454   0.644   4.607  14.072 -0.0808 -0.2087 -0.6296
   93TMC2    C7 1455   0.775   4.572  13.835 -0.6359 -0.0774 -0.6307
   93TMC2    C8 1456   0.400   4.558  14.143 -0.5366 -1.0970 -0.4251
   93TMC2    O1 1457   0.822   4.531  13.730  0.3571  0.4040 -0.2059
   93TMC2    O2 1458   0.316   4.488  14.196  0.0044 -0.7083 -0.7296
   93TMC2    O5 1459   0.437   4.678  14.191 -0.0326  0.3447  0.4245
   93TMC2    H5 1460   0.496   4.727  14.130  1.1082  0.6402  1.7485
   94MPD2     C 1461   0.262   4.013  13.703  0.9420 -0.5333  0.2002
   94MPD2    C1 1462   0.191   4.127  13.746 -0.9210 -0.1892  0.0358
   94MPD2    C2 1463   0.056   4.126  13.769  0.2672  0.6758  0.0868
   94MPD2    C3 1464   4.713   4.013  13.733 -0.7875  0.1490 -0.2279
   94MPD2    C4 1465   0.047   3.910  13.675  0.4558  0.0466 -0.1780
   94MPD2    C5 1466   0.183   3.905  13.668  1.0465  0.5538  0.4090
   94MPD2     H 1467   0.011   4.211  13.818  2.0486  1.1705  0.8519
   94MPD2    H1 1468   4.732   3.822  13.637 -1.3478  1.6742 -1.4944
   94MPD2    H2 1469   0.368   3.998  13.687  1.1833  1.5715 -0.2817
   94MPD2    H3 1470   0.230   3.820  13.620 -0.8980  0.1641 -0.8217
   94MPD2     N 1471   4.576   4.009  13.741 -0.4826 -0.1390  0.1935
   94MPD2    H5 1472   4.529   3.937  13.687 -2.6014  1.2790  0.1522
   94MPD2    N1 1473   0.263   4.244  13.783 -0.2523  0.1450 -0.0858
   94MPD2    H7 1474   0.207   4.326  13.803 -1.4826 -1.0168  1.2560
   95TMC2    C1 1475   0.307   1.644  15.684  0.0021  0.0392 -0.5515
   95TMC2    C2 1476   0.267   1.637  15.817  0.2722 -0.4529 -0.1196
   95TMC2    C3 1477   0.207   1.750  15.868 -0.1787 -0.5107  0.3282
   95TMC2    C4 1478   0.302   1.764  15.613 -0.1761 -0.1528  0.0924
   95TMC2    C5 1479   0.272   1.878  15.680  0.2266  0.5350 -0.1123
   95TMC2    C6 1480   0.207   1.874  15.804  0.0463 -0.0061 -0.0253
   95TMC2     C 1481   0.397   1.550  15.630  0.4654  0.2718  0.0180
   95TMC2     O 1482   0.477   1.586  15.543  0.3664 -0.3789 -0.0024
   95TMC2     H 1483   0.281   1.545  15.872  0.8147  0.0818  0.6334
   95TMC2    H1 1484   0.343   1.765  15.513  1.4328 -0.0482  0.7562
   95TMC2    H2 1485   0.160   1.964  15.844 -1.5969 -0.8856  0.0360
   95TMC2    C7 1486   0.259   2.003  15.605  0.3832  0.7589 -0.0472
   95TMC2    C8 1487   0.145   1.739  16.005 -0.0436 -0.2524  0.8487
   95TMC2    O1 1488   0.186   2.089  15.649 -0.5611  0.5013  0.5540
   95TMC2    O2 1489   0.187   1.656  16.088 -0.3381  0.3204  0.1895
   95TMC2    O5 1490   0.025   1.789  16.002  0.3734  0.3441 -0.1357
   95TMC2    H5 1491   0.005   1.825  15.913  0.1227  1.0140  0.1838
   96MPD2     C 1492   0.629   1.104  15.656 -0.5093  0.0102  0.1018
   96MPD2    C1 1493   0.669   1.227  15.617 -1.0149 -0.5888 -0.8354
   96MPD2    C2 1494   0.583   1.332  15.637 -0.6508 -0.4759 -0.7219
   96MPD2    C3 1495   0.452   1.314  15.674 -0.2177 -0.5138  0.1019
   96MPD2    C4 1496   0.413   1.190  15.719 -0.2647 -0.3813  0.0106
   96MPD2    C5 1497   0.499   1.080  15.689 -0.3316  0.1274 -0.0785
   96MPD2     H 1498   0.630   1.428  15.620 -0.9459 -0.0797  0.7613
   96MPD2    H1 1499   0.314   1.169  15.756 -0.8515  0.2427 -1.1763
   96MPD2    H2 1500   0.697   1.019  15.645 -0.8349 -0.0015 -1.6725
   96MPD2    H3 1501   0.468   0.980  15.717 -1.6865  0.1127 -1.6359
   96MPD2     N 1502   0.366   1.425  15.682 -0.4177  0.2964 -0.0192
   96MPD2    H5 1503   0.272   1.415  15.720 -0.3676  0.1054  0.0562
   96MPD2    N1 1504   0.792   1.255  15.554  0.2851  0.5200 -0.0036
   96MPD2    H7 1505   0.819   1.352  15.549 -1.2754  0.8600 -1.8425
   97TMC2    C1 1506   2.365   4.231  17.256  0.0085  0.1257 -0.3255
   97TMC2    C2 1507   2.256   4.287  17.201 -0.0611  0.1637  0.3640
   97TMC2    C3 1508   2.232   4.420  17.216  0.4209 -0.4027  0.2297
   97TMC2    C4 1509   2.460   4.305  17.320  0.3676 -0.8512  0.2836
   97TMC2    C5 1510   2.427   4.433  17.349  0.1915 -0.1377 -0.1827
   97TMC2    C6 1511   2.315   4.495  17.298 -0.5578  0.0753 -0.6146
   97TMC2     C 1512   2.356   4.095  17.304 -0.0208 -0.3357  0.2743
   97TMC2     O 1513   2.456   4.054  17.362  0.0372 -0.2670 -0.2297
   97TMC2     H 1514   2.183   4.231  17.145  0.8697  0.3939 -1.0795
   97TMC2    H1 1515   2.549   4.258  17.360  0.6139  0.5733  1.4127
   97TMC2    H2 1516   2.282   4.588  17.343 -2.4352  0.1951 -2.2142
   97TMC2    C7 1517   2.514   4.495  17.450 -0.0459 -0.2893  0.1272
   97TMC2    C8 1518   2.141   4.488  17.126  0.3603  0.1193  0.0016
   97TMC2    O1 1519   2.594   4.424  17.512  0.2077  0.8089  0.6123
   97TMC2    O2 1520   2.056   4.431  17.062 -0.3833 -0.1495  0.4916
   97TMC2    O5 1521   2.179   4.617  17.105  0.2631 -0.5498 -0.0353
   97TMC2    H5 1522   2.241   4.663  17.165  1.8677 -1.6701 -0.8594
   98MPD2     C 1523   2.100   3.671  17.426 -0.1957 -0.7441 -0.5533
   98MPD2    C1 1524   2.226   3.702  17.454  0.4087  0.1253 -0.0201
   98MPD2    C2 1525   2.279   3.825  17.406 -0.5275 -0.4816  0.0098
   98MPD2    C3 1526   2.199   3.907  17.328 -0.1395  0.5480 -0.6955
   98MPD2    C4 1527   2.073   3.864  17.302 -0.3487 -0.3209  0.2920
   98MPD2    C5 1528   2.022   3.752  17.354 -0.1176  0.3374  0.0573
   98MPD2     H 1529   2.377   3.857  17.440  0.4327 -3.0067 -0.3340
   98MPD2    H1 1530   2.018   3.919  17.226 -0.1794  2.0151  1.8807
   98MPD2    H2 1531   2.064   3.571  17.446 -0.4033 -0.5157  0.2261
   98MPD2    H3 1532   1.925   3.722  17.317 -0.5272  1.9860 -0.2064
   98MPD2     N 1533   2.243   4.022  17.266  0.0431 -0.8161  0.5411
   98MPD2    H5 1534   2.190   4.069  17.193  2.4517  0.0790 -0.6306
   98MPD2    N1 1535   2.295   3.611  17.534  0.1064 -0.7868 -0.3215
   98MPD2    H7 1536   2.248   3.535  17.583  0.0381 -2.2962 -2.7581
   99TMC2    C1 1537   1.562   0.167   0.824 -0.1341  0.2684  0.3903
   99TMC2    C2 1538   1.641   0.242   0.893  0.3007  0.0571 -0.5790
   99TMC2    C3 1539   1.744   0.179   0.962 -0.4800  0.8399  0.1991
   99TMC2    C4 1540   1.578   0.026   0.814  0.3511  0.4033 -0.0148
   99TMC2    C5 1541   1.679   4.704   0.891 -0.3805 -0.4238  0.4324
   99TMC2    C6 1542   1.772   0.051   0.953  0.0820  0.8927  0.4078
   99TMC2     C 1543   1.442   0.230   0.775  0.5877 -0.1921 -0.1851
   99TMC2     O 1544   1.446   0.353   0.780  0.0520 -0.0799 -0.3210
   99TMC2     H 1545   1.614   0.346   0.905  2.2791  0.8106 -2.6808
   99TMC2    H1 1546   1.519   4.697   0.750  1.0600 -0.1651 -0.0803
   99TMC2    H2 1547   1.852   0.018   1.018 -0.1235 -1.0599 -0.3437
   99TMC2    C7 1548   1.696   4.569   0.906  0.9145  0.2481  0.1027
   99TMC2    C8 1549   1.812   0.252   1.064 -0.1106  0.1172  0.2129
   99TMC2    O1 1550   1.808   4.535   0.944 -0.3392  0.8866 -0.3350
   99TMC2    O2 1551   1.866   0.210   1.166 -0.2112  0.3384  0.5746
   99TMC2    O5 1552   1.809   0.383   1.030 -0.2729 -0.1964  0.2175
   99TMC2    H5 1553   1.773   0.405   0.941 -0.7370  0.1830  0.4956
  100MPD2     C 1554   1.161   0.314   0.728  0.4389 -0.2422 -0.0232
  100MPD2    C1 1555   1.217   0.191   0.693 -0.8900  0.2748 -0.5117
  100MPD2    C2 1556   1.138   0.096   0.634  0.2129  0.6975  0.4999
  100MPD2    C3 1557   1.007   0.127   0.599 -0.2590 -0.6578  0.4860
  100MPD2    C4 1558   0.956   0.252   0.637  0.4617  0.7852 -0.6262
  100MPD2    C5 1559   1.033   0.342   0.703 -0.1818 -0.8377 -0.0704
  100MPD2     H 1560   1.179   4.733   0.622 -0.3651  0.2940  1.7717
  100MPD2    H1 1561   0.850   0.261   0.621  0.1566 -1.1936  0.2582
  100MPD2    H2 1562   1.214   0.382   0.793  1.4810 -1.7295  0.6894
  100MPD2    H3 1563   0.993   0.439   0.731 -2.1961 -2.0097  1.1330
  100MPD2     N 1564   0.932   0.028   0.543 -0.2061 -0.3926  0.4506
  100MPD2    H5 1565   0.982   4.678   0.524 -1.7713 -0.9471 -1.2144
  100MPD2    N1 1566   1.344   0.153   0.734  0.4940  0.0039  0.5161
  100MPD2    H7 1567   1.365   0.053   0.737  0.7008  0.0715  1.4663
  101TMC2    C1 1568   2.267   2.440  12.619  0.1878  0.4622 -0.3170
  101TMC2    C2 1569   2.237   2.571  12.661  0.5310 -0.5150  0.4272
  101TMC2    C3 1570   2.188   2.666  12.569  0.4300 -0.3803 -0.0301
  101TMC2    C4 1571   2.230   2.414  12.492 -0.2656 -0.1993 -0.3035
  101TMC2    C5 1572   2.184   2.500  12.400 -0.2894  0.1258  0.6720
  101TMC2    C6 1573   2.158   2.625  12.444  0.1476 -0.6954  0.3186
  101TMC2     C 1574   2.239   2.331  12.711  0.6552 -0.1404 -0.1039
  101TMC2     O 1575   2.127   2.279  12.700 -0.0111  0.3215 -0.0672
  101TMC2     H 1576   2.236   2.587  12.769 -0.7259  0.1835  0.3113
  101TMC2    H1 1577   2.240   2.310  12.462 -2.0386 -0.1889 -0.9210
  101TMC2    H2 1578   2.122   2.706  12.381  0.8817  0.6269  1.5957
  101TMC2    C7 1579   2.159   2.450  12.259  0.3604 -0.3120  0.1749
  101TMC2    C8 1580   2.127   2.787  12.611  0.3347  0.2595 -0.1177
  101TMC2    O1 1581   2.167   2.330  12.231  0.2327 -0.0942 -0.1368
  101TMC2    O2 1582   2.022   2.835  12.568 -0.2325 -0.0411  0.0049
  101TMC2    O5 1583   2.192   2.822  12.724  0.0248 -0.1244 -0.3050
  101TMC2    H5 1584   2.274   2.771  12.739 -0.0056 -0.1954 -0.3791
  102MPD2     C 1585   2.480   2.169  12.927 -0.4525 -0.2146  0.8339
  102MPD2    C1 1586   2.360   2.185  12.860  0.7414  0.0598  0.6534
  102MPD2    C2 1587   2.261   2.090  12.881 -0.0806 -0.2062  0.2896
  102MPD2    C3 1588   2.272   1.988  12.978  0.3931  0.3736 -1.1762
  102MPD2    C4 1589   2.388   1.977  13.050  0.3354  0.8097 -0.8348
  102MPD2    C5 1590   2.486   2.065  13.013  0.6372 -0.1430 -0.6964
  102MPD2     H 1591   2.162   2.100  12.838 -0.0026 -1.4667 -0.2050
  102MPD2    H1 1592   2.402   1.899  13.124  0.8935  0.2864 -1.4992
  102MPD2    H2 1593   2.564   2.236  12.918 -0.7993 -0.1370 -1.9265
  102MPD2    H3 1594   2.575   2.054  13.075  0.0056 -1.4121 -0.0052
  102MPD2     N 1595   2.165   1.897  12.991 -0.3441 -0.5014  0.6364
  102MPD2    H5 1596   2.082   1.904  12.933  0.2216  0.3780 -0.0524
  102MPD2    N1 1597   2.348   2.299  12.788 -0.3693  0.3979  0.4549
  102MPD2    H7 1598   2.432   2.356  12.789 -0.8616  1.1526 -0.3006
  103TMC2    C1 1599   4.520   1.304  12.254 -0.1506 -0.3821 -0.6226
  103TMC2    C2 1600   4.619   1.222  12.302 -0.3207 -0.1208 -0.4101
  103TMC2    C3 1601   4.714   1.282  12.381  0.3580  0.2875  0.0628
  103TMC2    C4 1602   4.519   1.435  12.292  0.3115  0.0298  0.0537
  103TMC2    C5 1603   4.620   1.500  12.354  0.4919 -0.4896  0.0744
  103TMC2    C6 1604   4.723   1.419  12.399  0.2126  0.4722 -0.3697
  103TMC2     C 1605   4.399   1.258  12.197 -0.0178 -0.1592 -0.1634
  103TMC2     O 1606   4.322   1.344  12.158  0.3143  0.5512  0.1161
  103TMC2     H 1607   4.627   1.114  12.310  0.3014 -0.2641 -2.8927
  103TMC2    H1 1608   4.426   1.491  12.284  0.7593  1.0525  2.0481
  103TMC2    H2 1609   0.065   1.451  12.466  0.6728 -0.0087 -0.6702
  103TMC2    C7 1610   4.599   1.615  12.446  0.3562 -0.0999 -0.9183
  103TMC2    C8 1611   0.101   1.207  12.399 -0.2565 -0.5477  0.4021
  103TMC2    O1 1612   4.692   1.643  12.519 -0.0772 -0.3664 -0.0968
  103TMC2    O2 1613   0.177   1.220  12.496 -0.2747  0.2090 -0.0224
  103TMC2    O5 1614   0.151   1.230  12.274  0.5144  0.6172 -0.5633
  103TMC2    H5 1615   0.081   1.239  12.206 -0.3968  1.3187  0.4510
  104MPD2     C 1616   4.328   0.911  12.086  0.0501  0.3671 -0.0696
  104MPD2    C1 1617   4.320   1.052  12.091  0.1306 -0.1200 -0.2795
  104MPD2    C2 1618   4.208   1.107  12.028 -0.9165  0.1413  0.7529
  104MPD2    C3 1619   4.110   1.035  11.965 -1.0226 -0.0267  0.4258
  104MPD2    C4 1620   4.115   0.898  11.967 -0.9238  0.1275  0.4805
  104MPD2    C5 1621   4.216   0.843  12.043  0.5021 -0.4719  0.3842
  104MPD2     H 1622   4.206   1.216  12.023  0.7697  0.0559 -1.8776
  104MPD2    H1 1623   4.058   0.820  11.918 -1.2493  0.9053 -0.3615
  104MPD2    H2 1624   4.411   0.854  12.127  1.4427  0.2493 -3.0527
  104MPD2    H3 1625   4.227   0.736  12.056  1.0534 -0.4768 -0.1022
  104MPD2     N 1626   3.990   1.103  11.925 -0.1892  0.6197 -0.1911
  104MPD2    H5 1627   3.992   1.204  11.940  0.3457  0.9846 -2.8544
  104MPD2    N1 1628   4.414   1.130  12.160  0.1391 -0.8516 -0.0034
  104MPD2    H7 1629   4.501   1.085  12.187 -0.1141 -2.8465 -2.5117
  105TMC2    C1 1630   1.070   0.846  17.637  0.4490 -0.0996 -0.3247
  105TMC2    C2 1631   1.036   0.976  17.627 -0.7884  0.3772  0.4666
  105TMC2    C3 1632   0.950   1.015  17.725  0.8171  1.2942  0.1066
  105TMC2    C4 1633   0.995   0.758  17.709  0.3308  0.1647  0.4323
  105TMC2    C5 1634   0.901   0.806   0.052 -0.1456  0.0032 -0.6248
  105TMC2    C6 1635   0.888   0.937   0.073 -1.1387  0.0786  0.1336
  105TMC2     C 1636   1.175   0.790  17.557  0.4799 -0.4840  0.5475
  105TMC2     O 1637   1.184   0.668  17.551 -0.4064 -0.4084 -0.8515
  105TMC2     H 1638   1.083   1.050  17.564  2.5141 -1.4375  0.7903
  105TMC2    H1 1639   1.030   0.655  17.713 -0.7350 -0.1547  1.7864
  105TMC2    H2 1640   0.823   0.978   0.150  2.2670 -0.9848  3.6106
  105TMC2    C7 1641   0.847   0.706   0.142  0.0189  0.1172  0.3761
  105TMC2    C8 1642   0.922   1.156  17.733  0.6362 -0.4301 -0.5995
  105TMC2    O1 1643   0.871   0.594   0.102 -0.0343  0.0484  0.1914
  105TMC2    O2 1644   0.911   1.224   0.091  0.3018  0.3817 -0.3197
  105TMC2    O5 1645   0.921   1.197  17.605 -0.3781 -0.2704  0.0794
  105TMC2    H5 1646   0.897   1.120  17.550 -0.4236 -0.3652  0.2297
  106MPD2     C 1647   1.605   0.848  17.276 -0.5424 -0.4967  0.2852
  106MPD2    C1 1648   1.543   0.975  17.284 -0.4762  0.1910  0.3412
  106MPD2    C2 1649   1.425   0.978  17.362 -0.4486  0.3235  0.2939
  106MPD2    C3 1650   1.359   0.868  17.422  0.0394 -0.2281 -0.1884
  106MPD2    C4 1651   1.432   0.753  17.420 -0.1219  0.4231 -0.6729
  106MPD2    C5 1652   1.552   0.743  17.350 -0.1717 -0.5209 -0.0723
  106MPD2     H 1653   1.379   1.076  17.361  0.0652  0.5520 -0.6060
  106MPD2    H1 1654   1.398   0.663  17.470  1.9743 -0.0090 -0.0561
  106MPD2    H2 1655   1.690   0.822  17.214 -0.3998  0.0119  0.2653
  106MPD2    H3 1656   1.592   0.643  17.337  0.4327 -0.1777 -0.8321
  106MPD2     N 1657   1.241   0.886  17.485  0.5747  0.4437 -0.8553
  106MPD2    H5 1658   1.204   0.981  17.491  1.0030  0.4285  2.0120
  106MPD2    N1 1659   1.593   1.090  17.221  0.2283 -0.3064  0.2254
  106MPD2    H7 1660   1.523   1.163  17.209  1.6184  1.1927  1.3485
  107TMC2    C1 1661   2.469   4.596  11.883  0.4815 -0.2238  0.3662
  107TMC2    C2 1662   2.562   4.607  11.982 -0.0295 -0.1023  1.2847
  107TMC2    C3 1663   2.670   4.529  11.969  0.1666 -0.2799  0.0114
  107TMC2    C4 1664   2.489   4.518  11.777 -0.4286  0.6391 -0.3102
  107TMC2    C5 1665   2.610   4.453  11.758 -0.2156  0.5886  1.1984
  107TMC2    C6 1666   2.709   4.460  11.854 -0.2826  0.2911  0.0914
  107TMC2     C 1667   2.351   4.675  11.902 -0.2924  0.8003 -0.6299
  107TMC2     O 1668   2.322   4.704  12.013  0.0444  0.2160 -0.1040
  107TMC2     H 1669   2.542   4.659  12.074  0.8806  2.1654  0.1938
  107TMC2    H1 1670   2.410   4.487  11.710  1.7909  0.1637 -2.7171
  107TMC2    H2 1671   2.804   4.412  11.833 -0.0804 -0.1558  1.9990
  107TMC2    C7 1672   2.610   4.335  11.671 -0.2465 -0.0199  0.1629
  107TMC2    C8 1673   2.768   4.518  12.077  0.3230 -0.0477  0.6005
  107TMC2    O1 1674   2.681   4.242  11.710 -0.4397 -0.0579 -0.0793
  107TMC2    O2 1675   2.732   4.536  12.192  0.2725 -0.2425  0.0110
  107TMC2    O5 1676   2.890   4.551  12.029  0.7612  0.2225  0.6543
  107TMC2    H5 1677   2.891   4.565  11.932 -1.9573 -0.2965  0.5535
  108MPD2     C 1678   2.104   0.024  11.647  1.1115  0.6754 -0.0181
  108MPD2    C1 1679   2.154   0.009  11.773 -0.2733  0.0083  0.3530
  108MPD2    C2 1680   2.079   0.062  11.880 -0.5267 -0.3538 -0.0445
  108MPD2    C3 1681   1.952   0.121  11.859 -0.3646  0.4955  0.0763
  108MPD2    C4 1682   1.905   0.121  11.727 -0.3830 -0.0578  0.3344
  108MPD2    C5 1683   1.980   0.075  11.620  0.4061 -0.0664 -0.4561
  108MPD2     H 1684   2.112   0.055  11.983 -2.5769  2.3877  0.8388
  108MPD2    H1 1685   1.801   0.146  11.708  0.3794  1.3520 -1.9551
  108MPD2    H2 1686   2.151   4.721  11.557 -0.5839  0.6784 -0.8924
  108MPD2    H3 1687   1.932   0.075  11.523  2.3645 -0.2061 -1.4168
  108MPD2     N 1688   1.867   0.171  11.961  0.8887 -0.2710 -0.2290
  108MPD2    H5 1689   1.770   0.189  11.936  0.4722  0.3322  1.8015
  108MPD2    N1 1690   2.283   4.692  11.785 -0.4314  0.3970  0.2054
  108MPD2    H7 1691   2.331   4.675  11.697 -1.8558  0.7105 -0.6355
  109TMC2    C1 1692   1.831   2.473  17.623  0.4324  0.6783 -0.6047
  109TMC2    C2 1693   1.885   2.446  17.499  0.4107  0.1477  0.6607
  109TMC2    C3 1694   1.952   2.547  17.438  0.0858  0.2004  0.3390
  109TMC2    C4 1695   1.860   2.592  17.685  0.1981  0.3673  0.2887
  109TMC2    C5 1696   1.945   2.684  17.628 -0.2379  0.1598  0.4409
  109TMC2    C6 1697   1.989   2.656  17.498  0.5418  0.6940 -0.0768
  109TMC2     C 1698   1.745   2.373  17.676 -0.0719  0.3056  1.3522
  109TMC2     O 1699   1.700   2.292  17.598  0.5499 -0.3927  0.0819
  109TMC2     H 1700   1.880   2.349  17.451  0.9890  0.3106  0.2687
  109TMC2    H1 1701   1.821   2.615   0.040 -0.5083  2.4177 -0.4844
  109TMC2    H2 1702   2.060   2.720  17.446  1.2651  0.5435  0.7058
  109TMC2    C7 1703   2.018   2.788  17.695  0.0237 -0.8260 -0.2834
  109TMC2    C8 1704   2.010   2.524  17.309  0.2304  0.0805  0.4697
  109TMC2    O1 1705   2.112   2.841  17.635  0.0130 -0.1181  0.1183
  109TMC2    O2 1706   2.114   2.580  17.282 -0.1769 -0.4482  0.5561
  109TMC2    O5 1707   1.910   2.494  17.224 -0.2450  0.0538  0.6683
  109TMC2    H5 1708   1.828   2.480  17.276  0.1790 -2.3810  0.6490
  110MPD2     C 1709   1.566   2.090   0.301 -0.3605  0.0369  0.4364
  110MPD2    C1 1710   1.594   2.214   0.354 -0.3974  0.6452  0.4116
  110MPD2    C2 1711   1.665   2.308   0.277  0.9479  0.1254 -0.2908
  110MPD2    C3 1712   1.690   2.276   0.146  0.5506 -0.3424  0.1780
  110MPD2    C4 1713   1.670   2.146   0.104 -0.0518 -0.7562  0.6552
  110MPD2    C5 1714   1.610   2.058   0.178 -0.1541  0.2822 -0.5607
  110MPD2     H 1715   1.691   2.410   0.302  1.8202  0.1030 -1.1439
  110MPD2    H1 1716   1.703   2.109   0.008 -1.7314 -1.9087  0.5039
  110MPD2    H2 1717   1.501   2.024   0.357  1.7316 -0.5491  2.1669
  110MPD2    H3 1718   1.579   1.963   0.138 -0.1064  0.2560 -0.5360
  110MPD2     N 1719   1.732   2.383   0.065  0.1928  0.7033  0.3343
  110MPD2    H5 1720   1.770   2.464   0.113  2.4718 -0.4063  0.3957
  110MPD2    N1 1721   1.544   2.241   0.482 -0.4260  0.8853 -0.0415
  110MPD2    H7 1722   1.493   2.165   0.526  0.1243 -0.0454 -1.0227
  111TMC2    C1 1723   1.573   1.152  11.697 -0.5024  0.0363 -0.1786
  111TMC2    C2 1724   1.544   1.019  11.714  0.8644  0.2870  0.4785
  111TMC2    C3 1725   1.637   0.936  11.773 -0.5604 -0.1862 -0.3936
  111TMC2    C4 1726   1.688   1.207  11.747  0.3867 -0.2976 -0.2137
  111TMC2    C5 1727   1.773   1.123  11.812  0.2984 -0.0438 -0.3197
  111TMC2    C6 1728   1.757   0.985  11.820 -0.9473  0.7037  0.2731
  111TMC2     C 1729   1.503   1.231  11.599 -0.4656 -0.2871 -0.7897
  111TMC2     O 1730   1.557   1.333  11.554  0.0878  0.4375 -0.3280
  111TMC2     H 1731   1.457   0.968  11.675  2.4793 -1.0899 -1.3679
  111TMC2    H1 1732   1.694   1.314  11.735  0.1102 -0.3680 -0.9906
  111TMC2    H2 1733   1.830   0.914  11.855 -0.0270  0.9443 -1.2004
  111TMC2    C7 1734   1.907   1.162  11.846  0.0277 -0.4245 -0.7040
  111TMC2    C8 1735   1.629   0.800  11.722  0.2852 -0.0726  0.0206
  111TMC2    O1 1736   1.966   1.097  11.930 -0.6043  0.1520  0.3000
  111TMC2    O2 1737   1.528   0.734  11.709 -0.6014  0.0722 -0.1603
  111TMC2    O5 1738   1.742   0.784  11.660  0.2169 -0.0678  0.0401
  111TMC2    H5 1739   1.805   0.854  11.687 -1.9710  1.6656  0.6320
  112MPD2     C 1740   1.116   1.358  11.271 -0.9088 -0.1383  0.3039
  112MPD2    C1 1741   1.256   1.371  11.266 -0.9132  0.0757 -0.2611
  112MPD2    C2 1742   1.339   1.319  11.362  0.1156  0.2066 -0.4970
  112MPD2    C3 1743   1.287   1.255  11.473 -0.2164  0.5441  0.4117
  112MPD2    C4 1744   1.150   1.247  11.486 -0.0618  0.5225  0.3937
  112MPD2    C5 1745   1.066   1.300  11.391  0.4761 -0.4086  0.5073
  112MPD2     H 1746   1.446   1.325  11.349 -0.0649 -2.1785 -3.1795
  112MPD2    H1 1747   1.096   1.192  11.562  0.4093 -0.7123 -0.1794
  112MPD2    H2 1748   1.052   1.386  11.188 -0.3513 -1.3112 -0.5033
  112MPD2    H3 1749   0.960   1.278  11.393  0.4407 -0.2955 -0.2380
  112MPD2     N 1750   1.370   1.197  11.583  0.2109 -0.7467 -0.3057
  112MPD2    H5 1751   1.323   1.136  11.649 -1.4890 -0.5923 -1.3735
  112MPD2    N1 1752   1.320   1.429  11.155  0.0142 -0.8289  0.0964
  112MPD2    H7 1753   1.422   1.427  11.160 -0.0340 -0.4601  1.1701
  113TMC2    C1 1754   0.227   4.439   0.673  0.1278 -0.5252 -0.2975
  113TMC2    C2 1755   0.145   4.525   0.605 -0.2823  0.0448 -0.3609
  113TMC2    C3 1756   0.010   4.496   0.602  0.1016 -0.2997 -0.0026
  113TMC2    C4 1757   0.171   4.335   0.746  0.2450 -0.4390 -0.0065
  113TMC2    C5 1758   0.035   4.308   0.733  0.7537  0.1461  0.1507
  113TMC2    C6 1759   4.686   4.384   0.658  0.1505  0.2364 -0.3820
  113TMC2     C 1760   0.359   4.491   0.700 -0.3773 -0.3502 -0.2242
  113TMC2     O 1761   0.376   4.612   0.711  0.8612  0.1464  0.0636
  113TMC2     H 1762   0.200   4.606   0.559  1.6093 -1.3622 -0.5877
  113TMC2    H1 1763   0.234   4.268   0.802 -0.6401 -2.2208 -1.1376
  113TMC2    H2 1764   4.578   4.378   0.652  0.1042 -0.0498  0.8061
  113TMC2    C7 1765   4.700   4.217   0.824  0.3698  1.0573  0.0950
  113TMC2    C8 1766   4.664   4.612   0.615  0.5551 -0.6106 -0.0635
  113TMC2    O1 1767   4.580   4.209   0.795 -0.0731  0.0956 -0.0452
  113TMC2    O2 1768   4.727   4.717   0.628 -0.6917  0.3632 -0.6062
  113TMC2    O5 1769   4.556   4.598   0.530  0.3982 -0.6367  1.0952
  113TMC2    H5 1770   4.576   4.513   0.486 -1.2395 -0.1224 -0.6336
  114MPD2     C 1771   0.864   4.427   0.787  0.2597  0.2207 -0.4451
  114MPD2    C1 1772   0.781   4.535   0.800 -0.9140  0.3570  0.1226
  114MPD2    C2 1773   0.652   4.522   0.768 -0.1319 -0.2588  0.1044
  114MPD2    C3 1774   0.593   4.402   0.736 -0.3567  0.0228 -0.0002
  114MPD2    C4 1775   0.676   4.290   0.721  0.9853  0.4596 -0.3131
  114MPD2    C5 1776   0.804   4.308   0.752 -0.1208 -0.3231 -0.0578
  114MPD2     H 1777   0.589   4.609   0.785 -2.1466 -1.8877  0.9642
  114MPD2    H1 1778   0.638   4.192   0.695 -0.5801  1.1345 -0.5996
  114MPD2    H2 1779   0.968   4.423   0.815  0.3733  1.1165 -0.7412
  114MPD2    H3 1780   0.875   4.227   0.736 -0.3626 -0.7929  1.2311
  114MPD2     N 1781   0.451   4.388   0.709 -0.6317 -0.1187  0.3005
  114MPD2    H5 1782   0.409   4.298   0.689 -0.6430  0.9589 -4.6217
  114MPD2    N1 1783   0.816   4.660   0.860 -0.2642 -1.0626  1.1228
  114MPD2    H7 1784   0.743   4.727   0.878  0.9313  0.0171  1.9425
  115TMC2    C1 1785   1.180   3.145  17.443  0.3512 -0.3826 -0.7393
  115TMC2    C2 1786   1.290   3.104  17.366  0.5710  0.3736 -0.3778
  115TMC2    C3 1787   1.399   3.186  17.364  0.1053  0.0945 -0.1572
  115TMC2    C4 1788   1.181   3.267  17.496 -0.0358  0.0014 -0.6090
  115TMC2    C5 1789   1.289   3.345  17.487 -0.4111  0.2455  0.0299
  115TMC2    C6 1790   1.402   3.309  17.420  0.3816  0.1605 -0.7977
  115TMC2     C 1791   1.054   3.076  17.420 -0.2626 -0.4171  0.4306
  115TMC2     O 1792   1.045   3.016  17.314  0.3005 -0.0752  0.1793
  115TMC2     H 1793   1.294   3.009  17.313 -1.5384  0.1364 -0.0825
  115TMC2    H1 1794   1.098   3.302  17.557  1.8229  2.6611  0.3991
  115TMC2    H2 1795   1.494   3.365  17.432  0.0772 -0.0065  2.3734
  115TMC2    C7 1796   1.293   3.469  17.557  0.3847  0.6078 -0.0881
  115TMC2    C8 1797   1.525   3.125  17.310  0.6165 -0.0814 -0.7549
  115TMC2    O1 1798   1.231   3.488  17.658 -0.1884  0.0033  0.2086
  115TMC2    O2 1799   1.552   3.007  17.303 -0.3623  0.2897 -0.2315
  115TMC2    O5 1800   1.615   3.224  17.300 -0.3549  0.0287 -0.1141
  115TMC2    H5 1801   1.570   3.310  17.312 -1.1946 -0.5047  0.5083
  116MPD2     C 1802   0.565   2.950  17.507  0.6454 -0.7645  0.9108
  116MPD2    C1 1803   0.660   2.888  17.438 -0.4497  0.5670 -0.0601
  116MPD2    C2 1804   0.789   2.940  17.437 -0.6236 -0.5751  0.3970
  116MPD2    C3 1805   0.816   3.052  17.513  0.3756  0.2440  0.0386
  116MPD2    C4 1806   0.717   3.108  17.588  0.2942  0.1351  0.3226
  116MPD2    C5 1807   0.595   3.050  17.589 -0.1729 -0.3042 -0.7013
  116MPD2     H 1808   0.864   2.894  17.375 -0.2755  0.1262  0.2988
  116MPD2    H1 1809   0.727   3.201  17.642 -4.3425  1.5277 -1.1482
  116MPD2    H2 1810   0.466   2.910  17.495 -0.7194  2.5791  1.0705
  116MPD2    H3 1811   0.516   3.106  17.638 -0.9858 -1.7737 -0.3371
  116MPD2     N 1812   0.950   3.114  17.506  0.5548  0.8346 -0.2289
  116MPD2    H5 1813   0.964   3.188  17.574 -1.1594 -0.0810  1.1220
  116MPD2    N1 1814   0.617   2.777  17.356  0.2812 -0.2226  0.9696
  116MPD2    H7 1815   0.520   2.747  17.360 -0.0046  0.7115  1.1397
  117TMC2    C1 1816   4.480   4.364  14.126 -0.0835  0.1303  0.6791
  117TMC2    C2 1817   4.494   4.343  14.262 -0.5945 -0.0030 -0.6959
  117TMC2    C3 1818   4.586   4.425  14.329  0.2744 -0.5857 -0.1931
  117TMC2    C4 1819   4.553   4.456  14.051  0.5148 -0.5444  0.1632
  117TMC2    C5 1820   4.651   4.522  14.123  0.0555  0.1457 -0.0415
  117TMC2    C6 1821   4.674   4.503  14.260 -0.4686  0.3272  0.0441
  117TMC2     C 1822   4.348   4.323  14.077  0.6433  0.2888  0.8764
  117TMC2     O 1823   4.274   4.241  14.131  0.3131 -0.2121  0.2811
  117TMC2     H 1824   4.421   4.285  14.316 -0.3133  1.0633  0.8128
  117TMC2    H1 1825   4.564   4.447  13.944 -0.7278  0.6992 -0.0678
  117TMC2    H2 1826   4.722   4.583  14.315  0.2712  1.1237 -1.7552
  117TMC2    C7 1827   4.666   4.658  14.082  0.7899 -0.1542  1.0444
  117TMC2    C8 1828   4.538   4.451  14.469 -0.8604 -0.4144  0.5137
  117TMC2    O1 1829   0.024   4.719  14.135 -0.4936 -0.6253 -0.3957
  117TMC2    O2 1830   4.419   4.434  14.495  0.2180 -0.5212 -0.5774
  117TMC2    O5 1831   4.638   4.487  14.554 -0.2160  0.7264  0.2231
  117TMC2    H5 1832   4.731   4.473  14.526 -1.2952 -0.1796 -2.9803
  118MPD2     C 1833   4.478   0.081  13.822 -1.0705 -0.6801  0.3855
  118MPD2    C1 1834   4.574   0.079  13.916  0.3218 -0.4948 -0.4672
  118MPD2    C2 1835   4.659   0.185  13.934 -0.0906  0.2777 -0.1526
  118MPD2    C3 1836   4.633   0.301  13.859 -0.7354 -0.3321  0.4714
  118MPD2    C4 1837   4.547   0.303  13.756  0.5105  0.3710 -0.4956
  118MPD2    C5 1838   4.474   0.190  13.732  0.0805 -0.5765 -0.4227
  118MPD2     H 1839   4.724   0.191  14.020  0.5108  0.1256 -0.5945
  118MPD2    H1 1840   4.510   0.385  13.695 -0.3639  1.2606  1.2176
  118MPD2    H2 1841   4.398   0.007  13.817  0.8477 -2.5791 -2.0320
  118MPD2    H3 1842   4.406   0.192  13.648  0.4750  1.6163 -0.6659
  118MPD2     N 1843   4.683   0.428  13.893 -0.1240 -0.1379 -0.6723
  118MPD2    H5 1844   4.630   0.508  13.861 -0.2548 -0.0394 -0.2112
  118MPD2    N1 1845   4.578   4.694  13.985  0.0363 -0.1708 -0.2266
  118MPD2    H7 1846   4.505   4.628  13.963 -0.8207 -0.0574  2.1988
  119TMC2    C1 1847   2.818   0.978  13.557 -0.1270  0.0791  0.2326
  119TMC2    C2 1848   2.845   0.902  13.444 -0.5047 -0.2062  0.7010
  119TMC2    C3 1849   2.736   0.857  13.374 -0.3042 -0.1003  0.4493
  119TMC2    C4 1850   2.694   1.002  13.596 -0.1121  0.5100 -0.1804
  119TMC2    C5 1851   2.590   0.965  13.519  0.2076  0.4901  0.8372
  119TMC2    C6 1852   2.603   0.887  13.409  0.1576  0.5507  0.2810
  119TMC2     C 1853   2.927   1.055  13.620  0.5711  0.6910 -0.0286
  119TMC2     O 1854   2.891   1.147  13.691  0.0390  0.1844  0.2139
  119TMC2     H 1855   2.950   0.889  13.418 -0.7331  2.1201 -1.3542
  119TMC2    H1 1856   2.670   1.067  13.680 -0.9844 -0.4844  0.3437
  119TMC2    H2 1857   2.518   0.837  13.366 -1.1389  2.7868  0.2442
  119TMC2    C7 1858   2.461   0.953  13.578  0.2992  0.5512  0.2324
  119TMC2    C8 1859   2.753   0.756  13.269  0.4588 -0.0426 -0.2048
  119TMC2    O1 1860   2.357   0.969  13.513  0.2757 -0.1404  0.7486
  119TMC2    O2 1861   2.671   0.772  13.180 -0.1927  0.2952 -0.8107
  119TMC2    O5 1862   2.884   0.717  13.260 -0.3594 -0.0256  0.0268
  119TMC2    H5 1863   2.930   0.705  13.346  0.3709  0.1813 -0.3393
  120MPD2     C 1864   3.414   1.139  13.754  0.8091  0.4952  0.3723
  120MPD2    C1 1865   3.298   1.223  13.760  0.1244  0.1566  0.0318
  120MPD2    C2 1866   3.184   1.179  13.698  0.2347  0.0655 -0.3551
  120MPD2    C3 1867   3.172   1.056  13.644 -0.6070  0.1527  0.1615
  120MPD2    C4 1868   3.288   0.973  13.640 -0.0882  0.1854 -0.2173
  120MPD2    C5 1869   3.405   1.022  13.690  0.0875  0.6363 -0.1935
  120MPD2     H 1870   3.099   1.245  13.684  1.3678  1.2008 -1.9486
  120MPD2    H1 1871   3.284   0.868  13.611  0.2694  0.2574 -0.5248
  120MPD2    H2 1872   3.513   1.154  13.795  1.3658 -0.2715 -0.7121
  120MPD2    H3 1873   3.496   0.963  13.689 -0.0845  0.4051 -1.3627
  120MPD2     N 1874   3.050   0.995  13.608  0.1165 -0.5884 -0.0714
  120MPD2    H5 1875   3.061   0.905  13.563 -0.9401 -0.5945 -0.3141
  120MPD2    N1 1876   3.303   1.348  13.822  0.2322 -0.3509 -0.3847
  120MPD2    H7 1877   3.398   1.384  13.825  1.4151 -3.5912  1.1278
  121TMC2    C1 1878   4.706   2.776  14.063 -0.1149 -0.5641 -0.0736
  121TMC2    C2 1879   4.663   2.656  14.119 -0.0798 -0.2102  0.2533
  121TMC2    C3 1880   4.548   2.665  14.195  0.2306  0.3222 -0.1106
  121TMC2    C4 1881   4.635   2.894  14.084 -0.2555  0.0131 -0.6812
  121TMC2    C5 1882   4.525   2.895  14.167 -0.0511 -0.2855  0.8983
  121TMC2    C6 1883   4.476   2.781  14.214 -0.1764  0.1554  0.3201
  121TMC2     C 1884   0.090   2.779  13.985  0.8969  0.3103 -0.5906
  121TMC2     O 1885   0.186   2.711  14.014 -0.2946 -0.2173  0.4233
  121TMC2     H 1886   4.726   2.568  14.111 -0.8075 -0.4905 -2.2527
  121TMC2    H1 1887   4.662   2.986  14.034  3.3989  0.0346  1.3539
  121TMC2    H2 1888   4.406   2.801  14.295  0.2452 -1.2265  1.0321
  121TMC2    C7 1889   4.424   3.007  14.140 -0.2003 -0.6389 -0.3223
  121TMC2    C8 1890   4.490   2.545  14.231 -0.2590 -0.1161  0.1743
  121TMC2    O1 1891   4.478   3.116  14.119  0.1312 -0.4496 -0.2442
  121TMC2    O2 1892   4.567   2.452  14.253  0.0669  0.1107  0.0975
  121TMC2    O5 1893   4.366   2.572  14.284 -0.5763  0.2263 -0.2914
  121TMC2    H5 1894   4.326   2.654  14.248  0.3000  1.3112  1.1996
  122MPD2     C 1895   0.279   2.815  13.755 -0.5710 -0.2590 -0.3870
  122MPD2    C1 1896   0.156   2.876  13.768  0.4753 -0.3526  0.3853
  122MPD2    C2 1897   0.123   2.962  13.668 -0.1434 -0.0922  0.3028
  122MPD2    C3 1898   0.210   2.993  13.561 -0.9752  0.4486 -0.2075
  122MPD2    C4 1899   0.337   2.938  13.554  0.5352 -0.6375 -0.4419
  122MPD2    C5 1900   0.369   2.841  13.648  0.4334 -0.3654 -0.3192
  122MPD2     H 1901   0.024   3.006  13.664  0.8581  2.2893  1.5794
  122MPD2    H1 1902   0.396   2.958  13.466 -0.0222 -1.9809 -1.1225
  122MPD2    H2 1903   0.310   2.744  13.831 -2.6654 -0.1252  0.5930
  122MPD2    H3 1904   0.454   2.775  13.637  1.1040  0.7151 -1.5942
  122MPD2     N 1905   0.163   3.066  13.449 -0.4143  0.0503 -0.1000
  122MPD2    H5 1906   0.226   3.068  13.370 -0.0386 -1.0663  0.1643
  122MPD2    N1 1907   0.071   2.856  13.874 -0.6406  0.0790 -0.1953
  122MPD2    H7 1908   4.714   2.896  13.865 -0.9185 -1.1296 -2.5634
  123TMC2    C1 1909   2.601   0.226   8.723  0.6601 -0.5800  0.0405
  123TMC2    C2 1910   2.608   0.177   8.597 -0.1738 -0.0357 -0.1809
  123TMC2    C3 1911   2.663   0.054   8.573  0.3144  1.0153 -0.2529
  123TMC2    C4 1912   2.646   0.155   8.829  0.0541  0.3143  0.2225
  123TMC2    C5 1913   2.702   0.030   8.801 -0.0923 -0.5606 -0.2744
  123TMC2    C6 1914   2.716   4.713   8.675 -0.2898 -0.8100 -0.0835
  123TMC2     C 1915   2.527   0.347   8.743 -0.2688 -0.3867 -0.4711
  123TMC2     O 1916   2.543   0.444   8.669 -0.3543  0.6197 -0.3166
  123TMC2     H 1917   2.545   0.227   8.524  0.8593 -1.1275 -1.8285
  123TMC2    H1 1918   2.644   0.202   8.926 -0.8743 -0.0286  0.3665
  123TMC2    H2 1919   2.760   4.619   8.643 -0.2596 -0.6569 -0.5029
  123TMC2    C7 1920   2.779   4.704   8.909  0.5254  0.1066  0.0981
  123TMC2    C8 1921   2.636   4.726   8.445 -0.3136 -0.2440  0.4434
  123TMC2    O1 1922   2.752   0.005   9.021  0.1824  0.0707  0.1165
  123TMC2    O2 1923   2.633   4.604   8.426 -0.1925  0.4513 -0.2249
  123TMC2    O5 1924   2.659   0.086   8.346 -0.2709 -0.1645  0.4393
  123TMC2    H5 1925   2.698   0.170   8.378  1.1394 -0.7386  0.1881
  124MPD2     C 1926   2.238   0.647   9.052 -0.4451 -0.2546  0.3265
  124MPD2    C1 1927   2.233   0.519   9.100 -0.3099 -0.0089  0.0675
  124MPD2    C2 1928   2.285   0.415   9.023  0.9192  0.2529 -0.5137
  124MPD2    C3 1929   2.373   0.438   8.915 -0.2088 -0.0499 -0.4860
  124MPD2    C4 1930   2.384   0.568   8.876 -0.2405  0.7391 -0.2778
  124MPD2    C5 1931   2.319   0.670   8.943 -0.4402  0.3360 -0.7103
  124MPD2     H 1932   2.272   0.314   9.061  0.9249  0.8051  0.9377
  124MPD2    H1 1933   2.446   0.597   8.792  0.9601 -0.1892  0.2811
  124MPD2    H2 1934   2.179   0.727   9.095  0.3345 -0.4990  1.8399
  124MPD2    H3 1935   2.322   0.772   8.906  0.1309  0.5534 -0.0739
  124MPD2     N 1936   2.441   0.330   8.853  0.4697 -0.8253  0.2691
  124MPD2    H5 1937   2.422   0.236   8.887 -0.0668 -1.4489 -1.7757
  124MPD2    N1 1938   2.169   0.495   9.221  0.1507 -0.1798 -0.4975
  124MPD2    H7 1939   2.118   0.565   9.275  1.1305 -1.2408  1.7802
  125TMC2    C1 1940   2.408   3.089   9.732  0.1899 -1.0418  0.1957
  125TMC2    C2 1941   2.290   3.031   9.689 -0.2967  0.5041  0.0918
  125TMC2    C3 1942   2.279   2.995   9.557  0.1789 -0.1920 -0.2049
  125TMC2    C4 1943   2.509   3.109   9.645  0.2122 -0.6746  0.0671
  125TMC2    C5 1944   2.495   3.067   9.511 -0.2739 -0.0976 -0.6162
  125TMC2    C6 1945   2.382   3.006   9.474 -0.7576 -0.3975 -0.0516
  125TMC2     C 1946   2.427   3.124   9.872  0.4193 -0.2598 -0.1535
  125TMC2     O 1947   2.519   3.195   9.905 -0.0188 -0.1146  0.2996
  125TMC2     H 1948   2.203   3.021   9.753 -0.1459  2.8088  0.6480
  125TMC2    H1 1949   2.603   3.144   9.688 -0.3623 -0.2926  1.0061
  125TMC2    H2 1950   2.377   2.977   9.370 -0.9113  0.6454 -0.3418
  125TMC2    C7 1951   2.612   3.073   9.420  0.0455  0.2462  0.3811
  125TMC2    C8 1952   2.174   2.913   9.510 -0.1769 -0.3673  0.4030
  125TMC2    O1 1953   2.681   3.170   9.420  0.4734  0.7847  0.0940
  125TMC2    O2 1954   2.130   2.922   9.397  0.1980  0.4418 -0.0865
  125TMC2    O5 1955   2.134   2.826   9.606  0.5557  0.2180  0.4390
  125TMC2    H5 1956   2.194   2.834   9.684 -0.3058  0.3674  1.0856
  126MPD1     C 1957   2.292   3.031  10.361  0.1292 -0.4827 -0.8092
  126MPD1    C1 1958   2.193   2.985  10.280 -0.7817 -0.5895 -1.0845
  126MPD1    C2 1959   2.220   2.990  10.145  0.2418  0.1584  0.0551
  126MPD1    C3 1960   2.320   3.067  10.092 -0.0038 -0.9262 -0.1029
  126MPD1    C4 1961   2.413   3.120  10.170 -0.4634 -0.0326  0.2014
  126MPD1    C5 1962   2.400   3.096  10.306  0.4640 -0.0951 -0.2030
  126MPD1     H 1963   2.155   2.941  10.074 -0.8513 -1.1901  1.9994
  126MPD1    H1 1964   2.499   3.180  10.141 -0.0427 -1.7317 -2.0717
  126MPD1    H2 1965   2.279   3.033  10.469  2.7465 -0.6674 -0.4917
  126MPD1    H3 1966   2.475   3.132  10.377  1.1316 -2.0501  0.0778
  126MPD1     N 1967   2.326   3.063   9.949  0.0161 -0.8199 -0.4006
  126MPD1    H5 1968   2.254   3.012   9.900 -1.4036  0.7725  0.0030
  126MPD1    N1 1969   2.093   2.905  10.334 -0.6203 -0.1235  0.6208
  126MPD1    H6 1970   2.064   2.934  10.427 -3.0489 -2.3664  0.5883
  126MPD1    H7 1971   2.003   2.909  10.286 -2.4170 -0.3917  3.9457
  127TMC2    C1 1972   3.312   1.099   9.650  0.1330 -0.1109  0.5908
  127TMC2    C2 1973   3.293   1.131   9.782 -0.6317 -0.2327 -0.3160
  127TMC2    C3 1974   3.305   1.026   9.873  0.4267  1.1361 -0.4085
  127TMC2    C4 1975   3.353   0.976   9.611  0.4364 -0.0898  1.0364
  127TMC2    C5 1976   3.352   0.874   9.707 -0.4511 -0.1559  0.3449
  127TMC2    C6 1977   3.333   0.898   9.839  0.0113 -0.3895 -0.1620
  127TMC2     C 1978   3.350   1.201   9.558  0.3184 -0.6074  0.0817
  127TMC2     O 1979   3.432   1.281   9.598 -0.1816  0.4259 -0.1473
  127TMC2     H 1980   3.285   1.234   9.815  0.1690  0.0769 -1.0850
  127TMC2    H1 1981   3.372   0.939   9.511 -1.7541  2.9631 -0.5133
  127TMC2    H2 1982   3.337   0.827   9.921  0.7267  1.1893  1.1564
  127TMC2    C7 1983   3.407   0.747   9.672  0.3986 -0.2749  0.4022
  127TMC2    C8 1984   3.302   1.061  10.014  0.3454 -0.3722  0.0770
  127TMC2    O1 1985   3.393   0.704   9.558 -0.3732 -0.2268  0.5360
  127TMC2    O2 1986   3.258   1.164  10.057 -0.0954  0.6655  0.0927
  127TMC2    O5 1987   3.412   1.009  10.078 -0.0718  0.4075  0.1901
  127TMC2    H5 1988   3.457   0.941  10.024  0.6239 -0.4574  1.8572
  128MPD2     C 1989   3.303   1.195   9.184 -0.1844 -0.2670  0.4599
  128MPD2    C1 1990   3.343   1.241   9.311  0.0376 -0.9505 -0.3937
  128MPD2    C2 1991   3.445   1.339   9.311 -0.3013 -0.4550  0.4185
  128MPD2    C3 1992   3.484   1.401   9.196  0.3129 -0.0326  0.7593
  128MPD2    C4 1993   3.431   1.363   9.075 -0.0716  0.0091 -0.3045
  128MPD2    C5 1994   3.341   1.253   9.065 -0.9467  0.9733 -0.1114
  128MPD2     H 1995   3.499   1.371   9.399 -0.1904  1.7470 -0.4272
  128MPD2    H1 1996   3.466   1.408   8.982 -0.7246  1.3913  0.1227
  128MPD2    H2 1997   3.227   1.120   9.169  0.7303 -0.7614 -1.6073
  128MPD2    H3 1998   3.303   1.218   8.970  1.3296 -0.6621 -0.4210
  128MPD2     N 1999   3.600   1.484   9.204 -0.0104  0.9925 -0.4150
  128MPD2    H5 2000   3.641   1.493   9.297 -1.4487 -1.8675  0.5102
  128MPD2    N1 2001   3.295   1.180   9.431  0.3876  0.0109  0.3007
  128MPD2    H7 2002   3.237   1.099   9.415 -2.0404  1.9856 -0.7666
  129TMC2    C1 2003   2.884   2.548   1.618  0.3220 -0.3887 -0.3876
  129TMC2    C2 2004   3.010   2.605   1.643  0.0866  0.7144 -0.4827
  129TMC2    C3 2005   3.106   2.511   1.666  0.7642  0.4102 -0.2138
  129TMC2    C4 2006   2.858   2.414   1.597 -0.5191 -0.2118 -0.0821
  129TMC2    C5 2007   2.965   2.335   1.607 -0.1629 -0.0428 -0.1525
  129TMC2    C6 2008   3.087   2.382   1.647 -0.5083  0.2218  0.4005
  129TMC2     C 2009   2.776   2.644   1.583 -0.1841  0.2947  0.1279
  129TMC2     O 2010   2.666   2.595   1.595 -0.3475  0.4436  0.5583
  129TMC2     H 2011   3.039   2.706   1.669  1.9714  0.3899 -1.3247
  129TMC2    H1 2012   2.758   2.375   1.585  0.1552 -2.0662  0.3211
  129TMC2    H2 2013   3.175   2.323   1.668 -1.1245 -0.9530 -0.3606
  129TMC2    C7 2014   2.943   2.196   1.585  0.1625 -0.4606  0.1690
  129TMC2    C8 2015   3.243   2.547   1.702 -0.1906  0.2606 -0.4483
  129TMC2    O1 2016   2.827   2.156   1.596  0.3353 -0.6426  0.0814
  129TMC2    O2 2017   3.295   2.636   1.637 -0.6267 -0.0701  0.2432
  129TMC2    O5 2018   3.259   2.526   1.830  0.0457  0.0019 -0.1952
  129TMC2    H5 2019   3.186   2.467   1.859  0.3736 -0.6134 -0.6460
  130MPD2     C 2020   2.614   2.881   1.507  0.6391  0.1161  0.6788
  130MPD2    C1 2021   2.751   2.875   1.506  0.0043  0.2647  0.6727
  130MPD2    C2 2022   2.824   2.985   1.458 -0.5711  0.1258 -0.4697
  130MPD2    C3 2023   2.766   3.104   1.414 -0.3557  0.0716  0.4036
  130MPD2    C4 2024   2.629   3.109   1.411  0.7263 -0.8662 -0.1437
  130MPD2    C5 2025   2.556   2.995   1.450 -0.4217  0.5393  0.5069
  130MPD2     H 2026   2.931   2.972   1.460 -0.6548 -0.5112 -0.0048
  130MPD2    H1 2027   2.572   3.194   1.375 -1.2003 -3.0143 -2.2002
  130MPD2    H2 2028   2.549   2.804   1.546 -0.2143 -0.1500 -1.2665
  130MPD2    H3 2029   2.449   2.999   1.433 -0.2853  0.0748 -0.4586
  130MPD2     N 2030   2.863   3.199   1.361 -0.2020 -0.1515 -0.6384
  130MPD2    H5 2031   2.962   3.176   1.360  0.0038  0.6276  2.0757
  130MPD2    N1 2032   2.825   2.763   1.541 -0.3523 -0.1342 -0.1254
  130MPD2    H7 2033   2.926   2.774   1.548 -0.1580 -1.0673 -1.3973
  131TMC2    C1 2034   2.248   1.206   9.954 -0.3230 -0.0666  0.4254
  131TMC2    C2 2035   2.149   1.258  10.036  0.1317 -0.4114 -0.8733
  131TMC2    C3 2036   2.185   1.319  10.155  0.0307 -0.3712 -0.1437
  131TMC2    C4 2037   2.374   1.205   9.994  0.2232 -0.8229 -0.5653
  131TMC2    C5 2038   2.403   1.265  10.112  0.3446 -0.2179 -0.0771
  131TMC2    C6 2039   2.314   1.333  10.196 -0.2155  0.6965 -0.0760
  131TMC2     C 2040   2.211   1.111   9.855  0.7498 -0.1441  0.8455
  131TMC2     O 2041   2.281   1.011   9.837 -0.1467 -0.1717 -0.1669
  131TMC2     H 2042   2.045   1.253  10.006 -0.1926 -0.6907  0.3280
  131TMC2    H1 2043   2.446   1.166   9.922  0.3548  0.4467 -1.1254
  131TMC2    H2 2044   2.339   1.361  10.298  1.1814  0.0316 -0.2334
  131TMC2    C7 2045   2.537   1.313  10.130 -0.1492 -0.4351  0.5337
  131TMC2    C8 2046   2.082   1.338  10.253 -0.4939  0.0548 -0.1305
  131TMC2    O1 2047   2.630   1.253  10.080  0.7903 -1.0504 -0.4862
  131TMC2    O2 2048   1.979   1.275  10.240 -0.3152 -0.3431  0.4511
  131TMC2    O5 2049   2.088   1.470  10.289  0.5500 -0.1798 -0.0559
  131TMC2    H5 2050   2.169   1.513  10.255  0.2841 -0.0916 -0.5741
  132MPD2     C 2051   1.901   1.124   9.657 -0.2685 -0.3036 -0.0243
  132MPD2    C1 2052   2.002   1.065   9.729 -0.3808  0.5185 -0.2137
  132MPD2    C2 2053   2.028   0.931   9.715 -0.5573 -0.0283 -0.0705
  132MPD2    C3 2054   1.953   0.852   9.628  0.5624 -0.0468  0.2417
  132MPD2    C4 2055   1.839   0.908   9.570 -0.5374  0.0770  0.2299
  132MPD2    C5 2056   1.821   1.045   9.575 -0.2703 -0.1719 -0.1501
  132MPD2     H 2057   2.106   0.886   9.776 -0.0274 -0.8375 -1.3574
  132MPD2    H1 2058   1.791   0.855   9.488 -0.6647 -0.4856  0.6667
  132MPD2    H2 2059   1.867   1.227   9.648  0.0046 -0.0648  1.7598
  132MPD2    H3 2060   1.732   1.083   9.525  0.5693 -0.4927 -1.8530
  132MPD2     N 2061   1.986   0.712   9.608  0.5064 -0.7902 -0.1857
  132MPD2    H5 2062   2.073   0.684   9.652  0.8231  0.9299  0.2815
  132MPD2    N1 2063   2.091   1.152   9.795  0.1214  0.2678 -0.3483
  132MPD2    H7 2064   2.066   1.250   9.805 -2.6288 -0.3810 -0.9032
  133TMC2    C1 2065   1.811   2.044  10.036 -0.1228 -0.8080  0.1480
  133TMC2    C2 2066   1.872   1.929  10.080 -1.2653 -0.5288  0.7174
  133TMC2    C3 2067   1.922   1.936  10.206  0.3061 -0.3332 -0.5865
  133TMC2    C4 2068   1.805   2.164  10.108 -0.1446  0.2255 -0.0753
  133TMC2    C5 2069   1.870   2.163  10.230  0.2730  0.2362 -0.5625
  133TMC2    C6 2070   1.927   2.049  10.282  0.3300 -0.4060  0.2090
  133TMC2     C 2071   1.728   2.016   9.917  0.1753  0.3871  0.8417
  133TMC2     O 2072   1.725   1.897   9.883  0.7026 -0.0034  0.0465
  133TMC2     H 2073   1.905   1.857  10.007  0.5368  0.3374  0.6639
  133TMC2    H1 2074   1.744   2.246  10.075 -0.2458 -0.0290 -0.5248
  133TMC2    H2 2075   1.980   2.036  10.376  1.0286 -0.6380 -0.2099
  133TMC2    C7 2076   1.895   2.287  10.287 -0.3070  0.8377  0.5018
  133TMC2    C8 2077   1.972   1.810  10.261 -0.6004 -0.8601  0.6054
  133TMC2    O1 2078   1.881   2.383  10.212 -0.2494  0.1705 -0.1360
  133TMC2    O2 2079   2.088   1.797  10.301  0.4243 -0.2155  0.3499
  133TMC2    O5 2080   1.906   1.717  10.197  0.1788  0.0940 -0.2364
  133TMC2    H5 2081   1.819   1.750  10.166 -0.4378 -0.3808  0.9654
  134MPD2     C 2082   1.470   2.231   9.759  0.4445  1.1022  0.1649
  134MPD2    C1 2083   1.538   2.115   9.785  0.2657 -0.0159 -0.2149
  134MPD2    C2 2084   1.505   2.002   9.710 -0.7701 -0.6864  0.3422
  134MPD2    C3 2085   1.401   2.008   9.617 -0.5612  0.1388 -0.3680
  134MPD2    C4 2086   1.329   2.126   9.596  0.2957  0.7639  0.5696
  134MPD2    C5 2087   1.365   2.232   9.674  0.9949  0.1571  0.3467
  134MPD2     H 2088   1.561   1.912   9.730  0.8293  0.0342 -0.9458
  134MPD2    H1 2089   1.249   2.145   9.525  1.0255  1.3371 -0.1065
  134MPD2    H2 2090   1.493   2.325   9.807  1.2601  0.2822  1.3634
  134MPD2    H3 2091   1.309   2.326   9.674  0.4021 -0.1928  0.6132
  134MPD2     N 2092   1.382   1.899   9.525 -0.3929 -0.2517 -0.1975
  134MPD2    H5 2093   1.325   1.922   9.444  0.9334  2.3058 -0.3938
  134MPD2    N1 2094   1.646   2.122   9.878  0.0644 -0.1662 -0.1543
  134MPD2    H7 2095   1.662   2.214   9.917 -1.6734  0.7519 -1.6102
  135TMC2    C1 2096   3.240   3.222   9.715  0.0507 -0.2526  0.1882
  135TMC2    C2 2097   3.252   3.278   9.846 -0.4656 -0.3068 -0.2678
  135TMC2    C3 2098   3.241   3.204   9.961  0.8707 -0.7093  0.9023
  135TMC2    C4 2099   3.245   3.084   9.702 -0.2138  0.1964 -0.0382
  135TMC2    C5 2100   3.242   3.018   9.816  0.2995  0.1014  0.1970
  135TMC2    C6 2101   3.230   3.069   9.945 -0.1589  0.4540  0.1545
  135TMC2     C 2102   3.321   3.295   9.616  0.0369 -0.5625 -0.9132
  135TMC2     O 2103   3.351   3.408   9.645  0.3381 -0.5218 -0.6911
  135TMC2     H 2104   3.266   3.385   9.858 -0.6678 -0.2511 -0.5476
  135TMC2    H1 2105   3.250   3.032   9.607  0.3764 -0.8819  0.5886
  135TMC2    H2 2106   3.212   3.009  10.034  0.2333  1.6167  1.0170
  135TMC2    C7 2107   3.237   2.873   9.800 -0.2519  0.2107  0.2511
  135TMC2    C8 2108   3.298   3.261  10.082 -0.3083 -0.8449  0.5587
  135TMC2    O1 2109   3.202   2.830   9.697  0.3267 -0.3510 -0.1274
  135TMC2    O2 2110   3.391   3.340  10.071 -0.0164 -0.5455  0.0199
  135TMC2    O5 2111   3.201   3.260  10.173  0.6545 -0.2151 -0.1335
  135TMC2    H5 2112   3.129   3.193  10.165  0.1936  0.3278 -0.5392
  136MPD2     C 2113   3.513   3.349   9.411 -0.1354  0.5376 -0.6155
  136MPD2    C1 2114   3.411   3.266   9.388 -0.5574 -0.0267  0.0340
  136MPD2    C2 2115   3.403   3.199   9.269 -0.6871  1.0991 -0.1213
  136MPD2    C3 2116   3.499   3.213   9.169 -0.0261  0.2732 -0.0183
  136MPD2    C4 2117   3.599   3.303   9.194 -0.0152  0.3828 -0.5532
  136MPD2    C5 2118   3.609   3.365   9.317 -0.1197  0.3716 -0.2698
  136MPD2     H 2119   3.323   3.126   9.261 -0.3039  0.7382 -0.6357
  136MPD2    H1 2120   3.674   3.327   9.120 -0.7673  0.4365 -1.2988
  136MPD2    H2 2121   3.527   3.404   9.504 -1.7499  0.2077 -0.1810
  136MPD2    H3 2122   3.689   3.434   9.344 -0.5684  0.7111  0.1760
  136MPD2     N 2123   3.504   3.143   9.046  0.1532  0.9608 -0.1519
  136MPD2    H5 2124   3.594   3.133   9.001  1.0694 -0.2832  1.9254
  136MPD2    N1 2125   3.320   3.230   9.490 -0.4411  0.2345 -0.5169
  136MPD2    H7 2126   3.265   3.147   9.474 -1.2755  0.5752  0.5418
  137TMC2    C1 2127   3.045   2.605   9.470 -0.0486  0.0116 -0.6706
  137TMC2    C2 2128   3.106   2.693   9.379  0.2094  0.0565 -0.2926
  137TMC2    C3 2129   3.058   2.816   9.391  0.4448 -0.1706 -0.3056
  137TMC2    C4 2130   2.948   2.648   9.559 -0.1522  0.5819  0.2296
  137TMC2    C5 2131   2.902   2.772   9.561 -1.0436  0.0683  0.8234
  137TMC2    C6 2132   2.954   2.861   9.472 -0.2893  0.6637 -0.3664
  137TMC2     C 2133   3.069   2.462   9.472 -0.1143  0.5414  0.3302
  137TMC2     O 2134   3.180   2.412   9.477  0.0025  0.3418  0.3216
  137TMC2     H 2135   3.196   2.668   9.325 -0.5543 -0.9536 -1.1045
  137TMC2    H1 2136   2.917   2.579   9.637 -0.2530 -0.9926 -1.1809
  137TMC2    H2 2137   2.941   2.967   9.487 -0.7346  0.6945 -0.9809
  137TMC2    C7 2138   2.818   2.819   9.669 -0.4441 -0.4509  0.5108
  137TMC2    C8 2139   3.142   2.929   9.351  0.3267 -0.5111 -0.3161
  137TMC2    O1 2140   2.824   2.941   9.689 -0.3951  0.1361  0.6164
  137TMC2    O2 2141   3.110   3.045   9.363 -0.3008 -0.5311  1.0405
  137TMC2    O5 2142   3.273   2.893   9.374 -0.2194  0.4363  0.2205
  137TMC2    H5 2143   3.287   2.796   9.381  0.4961  0.7285  2.6949
  138MPD2     C 2144   2.816   2.202   9.413 -0.2652  0.2038  0.4654
  138MPD2    C1 2145   2.925   2.258   9.473  0.1093  0.0662  0.4626
  138MPD2    C2 2146   3.013   2.179   9.549  0.1020 -0.1080  1.1791
  138MPD2    C3 2147   2.995   2.043   9.561 -0.0322  0.2286  0.5131
  138MPD2    C4 2148   2.885   1.991   9.495 -0.5142  0.7739  0.0250
  138MPD2    C5 2149   2.801   2.065   9.418 -0.2211 -0.6717  0.1238
  138MPD2     H 2150   3.099   2.222   9.599  2.3946 -1.1359 -1.9010
  138MPD2    H1 2151   2.865   1.885   9.508 -2.0499  0.8781 -1.4752
  138MPD2    H2 2152   2.737   2.263   9.371 -0.7883 -1.8096 -1.4571
  138MPD2    H3 2153   2.717   2.016   9.369 -0.8060  1.8033 -1.3758
  138MPD2     N 2154   3.086   1.971   9.650 -0.6102  0.1627  0.3842
  138MPD2    H5 2155   3.165   2.018   9.694 -1.1991  0.4379  1.1417
  138MPD2    N1 2156   2.945   2.400   9.459 -1.0317 -0.9059  0.2872
  138MPD2    H7 2157   2.862   2.456   9.441 -1.0019 -0.8824  0.2248
  139TMC2    C1 2158   4.381   0.684  13.384  0.0542 -0.0224  0.1754
  139TMC2    C2 2159   4.277   0.594  13.372 -0.1041  0.5705 -0.0333
  139TMC2    C3 2160   4.157   0.634  13.405  0.5469  0.3650 -0.4983
  139TMC2    C4 2161   4.359   0.812  13.429  0.1337 -0.4792 -0.3191
  139TMC2    C5 2162   4.229   0.851  13.459  0.1478  1.7869  0.3243
  139TMC2    C6 2163   4.123   0.761  13.455  0.8962  0.4893 -0.4929
  139TMC2     C 2164   4.508   0.637  13.329 -0.3677 -0.1759 -0.1469
  139TMC2     O 2165   4.528   0.515  13.333  0.3475 -0.4572  0.0598
  139TMC2     H 2166   4.296   0.491  13.345  1.7878  1.4960 -2.2831
  139TMC2    H1 2167   4.439   0.881  13.453 -0.0495 -0.5424  0.4821
  139TMC2    H2 2168   4.019   0.790  13.462  1.0539  1.1620 -0.8756
  139TMC2    C7 2169   4.191   0.994  13.456  0.2513  0.3982  0.3515
  139TMC2    C8 2170   4.055   0.554  13.335 -0.0328  0.0824  0.1974
  139TMC2    O1 2171   4.072   1.023  13.463 -0.0915  0.0804 -0.3089
  139TMC2    O2 2172   3.936   0.555  13.363 -0.1745  0.1589  0.3256
  139TMC2    O5 2173   4.094   0.580  13.211 -0.4296 -0.0852  0.2493
  139TMC2    H5 2174   4.190   0.596  13.198 -0.0140 -2.5582  0.1758
  140MPD2     C 2175   0.076   0.839  13.268 -0.3900 -0.7957 -0.5955
  140MPD2    C1 2176   0.001   0.724  13.263  0.0182  0.0940 -0.2574
  140MPD2    C2 2177   0.051   0.603  13.231 -1.1151  0.7174  0.0112
  140MPD2    C3 2178   0.182   0.597  13.195  0.4307  0.8473  0.5726
  140MPD2    C4 2179   0.257   0.709  13.201  0.2944 -0.2840  0.0508
  140MPD2    C5 2180   0.208   0.827  13.251 -1.0550  0.2647 -0.4944
  140MPD2     H 2181   4.722   0.517  13.227 -0.1028 -0.1446  1.6664
  140MPD2    H1 2182   0.360   0.701  13.169  0.6633 -0.1977  1.2171
  140MPD2    H2 2183   0.026   0.928  13.302 -1.1027 -2.6197  3.2002
  140MPD2    H3 2184   0.275   0.911  13.264  1.6666 -1.9542 -0.0676
  140MPD2     N 2185   0.228   0.470  13.147  0.5216  0.3815  0.1423
  140MPD2    H5 2186   0.157   0.397  13.150 -0.8127  1.6608 -0.5463
  140MPD2    N1 2187   4.599   0.741  13.294  0.0971  0.2771  0.3478
  140MPD2    H7 2188   4.573   0.837  13.312 -0.1810  0.3874 -0.6089
  141TMC2    C1 2189   0.344   1.995  13.934  0.1639  0.3210 -0.5075
  141TMC2    C2 2190   0.353   1.900  14.032  0.2150 -0.1170 -0.0897
  141TMC2    C3 2191   0.423   1.923  14.143  0.3801 -0.2844  0.1085
  141TMC2    C4 2192   0.407   2.117  13.944 -0.0503  0.3637 -0.1429
  141TMC2    C5 2193   0.473   2.145  14.064 -0.2369 -0.4883  0.4464
  141TMC2    C6 2194   0.492   2.040  14.157  0.3842 -0.1001  0.3185
  141TMC2     C 2195   0.238   1.989  13.833  0.1222  0.2411 -0.2590
  141TMC2     O 2196   0.214   2.093  13.779  0.7023  0.3411 -0.6688
  141TMC2     H 2197   0.315   1.800  14.019 -0.0767 -0.1123  0.7433
  141TMC2    H1 2198   0.391   2.195  13.870 -0.7337 -0.0509 -0.4345
  141TMC2    H2 2199   0.544   2.064  14.249  0.4895  1.4899 -0.1560
  141TMC2    C7 2200   0.556   2.259  14.075 -0.8241  0.0123 -0.3032
  141TMC2    C8 2201   0.397   1.826  14.250 -0.3095  0.0617 -0.0860
  141TMC2    O1 2202   0.659   2.243  14.141  0.6716  0.0981  0.5624
  141TMC2    O2 2203   0.351   1.717  14.220  0.1764 -0.1372 -0.7437
  141TMC2    O5 2204   0.346   1.907  14.350 -0.2107 -0.1443 -0.3517
  141TMC2    H5 2205   0.369   2.002  14.339 -1.5849  0.2417  0.1886
  142TMC2    C1 2206   2.919   4.425   9.698 -0.6835 -0.6766  0.1654
  142TMC2    C2 2207   3.013   4.474   9.786 -0.7931 -0.1969 -0.4295
  142TMC2    C3 2208   3.142   4.483   9.741  0.6321  0.4468 -0.7010
  142TMC2    C4 2209   2.945   4.398   9.566  0.0787 -0.3335  0.2589
  142TMC2    C5 2210   3.073   4.429   9.529  0.0105 -0.0586  0.1618
  142TMC2    C6 2211   3.173   4.463   9.613 -0.4646 -0.3499  0.7039
  142TMC2     C 2212   2.790   4.386   9.742  0.3849  0.6318 -0.5194
  142TMC2     O 2213   2.721   4.324   9.668  0.2979  0.4028 -0.0938
  142TMC2     H 2214   2.987   4.491   9.890 -0.8844  1.9165 -0.8045
  142TMC2    H1 2215   2.872   4.371   9.491 -0.1104  1.7716 -0.3029
  142TMC2    H2 2216   3.272   4.482   9.574  0.4337 -1.9083  2.2036
  142TMC2    C7 2217   3.108   4.399   9.387 -0.1117 -0.3965 -0.3013
  142TMC2    C8 2218   3.241   4.523   9.841 -0.5389 -0.2099 -0.3258
  142TMC2    O1 2219   3.226   4.395   9.353  0.5957  0.3166 -0.1809
  142TMC2    O2 2220   3.363   4.518   9.822  0.0182 -0.3337 -0.1456
  142TMC2    O5 2221   3.175   4.605   9.920  0.1961  0.1856 -0.1339
  142TMC2    H5 2222   3.085   4.627   9.887  0.2396  1.9216  0.8909
  143MPD2     C 2223   2.419   4.310  10.087  0.1701  0.1168  0.0447
  143MPD2    C1 2224   2.459   4.238   9.979 -0.6609  0.1827  0.1015
  143MPD2    C2 2225   2.573   4.276   9.908  0.5393  0.5451 -0.4169
  143MPD2    C3 2226   2.640   4.395   9.935 -0.6319 -0.2217 -0.2115
  143MPD2    C4 2227   2.596   4.461  10.050 -0.3120  0.2154  0.0958
  143MPD2    C5 2228   2.488   4.420  10.123  0.9515  0.4386 -0.1041
  143MPD2     H 2229   2.606   4.222   9.821 -0.6819 -0.6167 -0.1616
  143MPD2    H1 2230   2.622   4.564  10.071 -2.7839  1.1250 -1.2962
  143MPD2    H2 2231   2.332   4.282  10.146  0.0616  1.1004  0.3531
  143MPD2    H3 2232   2.461   4.476  10.212  1.6581 -0.0632  0.4281
  143MPD2     N 2233   2.750   4.441   9.863  0.3308  0.4201  0.1109
  143MPD2    H5 2234   2.813   4.504   9.912 -1.4688 -0.0217  2.9502
  143MPD2    N1 2235   2.374   4.129   9.937  0.3467 -0.3716  0.0283
  143MPD2    H7 2236   2.304   4.099  10.004 -0.5766  1.0221 -0.3235
  144TMC2    C1 2237   0.025   3.582   0.488 -0.2932 -0.1662 -0.1057
  144TMC2    C2 2238   0.006   3.677   0.587  0.7592  0.9334  0.1888
  144TMC2    C3 2239   0.108   3.701   0.676 -0.1006 -0.0937  0.7961
  144TMC2    C4 2240   0.147   3.519   0.474  0.8862  0.3736 -0.0600
  144TMC2    C5 2241   0.239   3.541   0.571  0.4586  0.4757  0.4688
  144TMC2    C6 2242   0.222   3.630   0.674  0.4660 -0.1600  0.5115
  144TMC2     C 2243   4.683   3.585   0.367 -0.0040 -0.2984 -0.5754
  144TMC2     O 2244   4.708   3.502   0.282 -0.4698  0.1053  0.2175
  144TMC2     H 2245   4.648   3.728   0.601 -0.1773 -0.7574 -0.0397
  144TMC2    H1 2246   0.165   3.455   0.388 -1.6761  0.3497 -0.5607
  144TMC2    H2 2247   0.290   3.632   0.758  2.4008  0.3932 -1.0712
  144TMC2    C7 2248   0.364   3.483   0.547 -0.2076 -0.1310  0.0857
  144TMC2    C8 2249   0.066   3.799   0.781 -1.0180 -0.0771 -0.0560
  144TMC2    O1 2250   0.385   3.415   0.447 -0.2798 -0.4923  0.2126
  144TMC2    O2 2251   4.688   3.851   0.782 -0.1866  0.5563 -0.1771
  144TMC2    O5 2252   0.186   3.864   0.804 -0.4287  0.4379 -0.3543
  144TMC2    H5 2253   0.255   3.823   0.748 -0.8252  1.7197 -1.7955
  145MPD2     C 2254   4.405   3.872   0.046 -1.1960  0.1803 -0.0490
  145MPD2    C1 2255   4.479   3.760   0.028  0.2006 -0.6631  0.2254
  145MPD2    C2 2256   4.538   3.689   0.126  0.0114  0.0367  0.7237
  145MPD2    C3 2257   4.532   3.742   0.259 -0.2975  0.5466  0.4856
  145MPD2    C4 2258   4.447   3.847   0.279 -0.4632  0.4448  0.3083
  145MPD2    C5 2259   4.397   3.919   0.174 -0.1343  0.1614 -0.6835
  145MPD2     H 2260   4.601   3.602   0.110  0.6629  0.3950  1.3200
  145MPD2    H1 2261   4.432   3.874   0.383  0.4816  1.9133  0.0627
  145MPD2    H2 2262   4.358   3.927  17.709 -0.4568  1.1316  0.1639
  145MPD2    H3 2263   4.326   3.999   0.192  0.6865  0.8214 -0.3926
  145MPD2     N 2264   4.594   3.681   0.372  0.2448  0.3976  0.3543
  145MPD2    H5 2265   4.572   3.723   0.461 -1.1653  2.1177 -0.8048
  145MPD2    N1 2266   4.499   3.714  17.644 -0.2297 -0.7475  0.6469
  145MPD2    H7 2267   4.561   3.634  17.639  0.5782  0.0484 -1.8518
  146TMC2    C1 2268   1.792   3.110  12.919  0.0534  0.2967 -0.7999
  146TMC2    C2 2269   1.756   3.152  12.795  0.2970  0.1889  0.2267
  146TMC2    C3 2270   1.760   3.056  12.703 -0.3603  0.0431  0.0636
  146TMC2    C4 2271   1.838   2.981  12.950 -1.0377 -0.4122 -0.0176
  146TMC2    C5 2272   1.835   2.892  12.845  0.0735 -0.5591 -0.1142
  146TMC2    C6 2273   1.795   2.928  12.717  0.2969 -0.0252 -0.1410
  146TMC2     C 2274   1.821   3.210  13.019 -0.4304  0.5765  0.0628
  146TMC2     O 2275   1.764   3.317  13.016 -0.0847  0.5726 -0.1207
  146TMC2     H 2276   1.722   3.253  12.776 -2.1701 -0.9240 -1.1252
  146TMC2    H1 2277   1.862   2.938  13.047 -0.6611  0.2495  0.1845
  146TMC2    H2 2278   1.785   2.854  12.639  1.1420 -0.8321  0.5206
  146TMC2    C7 2279   1.870   2.750  12.862 -0.3654 -0.2901 -0.4021
  146TMC2    C8 2280   1.744   3.096  12.571  0.1470 -0.6789 -0.7332
  146TMC2    O1 2281   1.825   2.670  12.782  0.1101 -0.1034 -0.0152
  146TMC2    O2 2282   1.683   3.199  12.544  0.0025  0.1377 -0.2615
  146TMC2    O5 2283   1.848   3.049  12.499 -0.1161  0.1696 -1.0920
  146TMC2    H5 2284   1.891   2.969  12.537  0.7358  0.1002 -2.2131
  147MPD2     C 2285   2.145   2.347  13.060  0.2153 -0.0435  0.0755
  147MPD2    C1 2286   2.207   2.470  13.097 -0.1570 -0.3128  0.5014
  147MPD2    C2 2287   2.152   2.592  13.057 -0.0744  0.0832 -0.0850
  147MPD2    C3 2288   2.032   2.597  12.987 -0.8762 -0.4556  0.4323
  147MPD2    C4 2289   1.973   2.475  12.960  0.1276  0.3833 -0.4523
  147MPD2    C5 2290   2.021   2.355  12.998 -0.1441  0.1658 -0.2463
  147MPD2     H 2291   2.206   2.683  13.084  0.2258 -0.1806  0.2126
  147MPD2    H1 2292   1.885   2.467  12.897  0.5107 -0.2511 -0.9123
  147MPD2    H2 2293   2.184   2.250  13.088  0.1620  0.4706  1.9266
  147MPD2    H3 2294   1.970   2.266  12.961  0.9592 -0.5136 -0.1346
  147MPD2     N 2295   1.973   2.723  12.955  0.5318 -0.0925  0.0453
  147MPD2    H5 2296   2.014   2.801  13.006 -0.8583  0.2907  0.5717
  147MPD2    N1 2297   2.333   2.458  13.154 -0.6753  0.1013  0.6723
  147MPD2    H7 2298   2.363   2.366  13.185 -0.5583 -0.4702 -1.1878
  148TMC2    C1 2299   1.923   1.501  10.543 -0.4178  0.5426 -0.1939
  148TMC2    C2 2300   2.018   1.598  10.572  0.8467  0.1877 -0.1241
  148TMC2    C3 2301   2.130   1.565  10.640  0.5909  0.3964 -0.4594
  148TMC2    C4 2302   1.950   1.369  10.570  0.3722 -0.0605  0.4944
  148TMC2    C5 2303   2.078   1.342  10.614  0.1454  0.8363 -0.2587
  148TMC2    C6 2304   2.165   1.439  10.656 -0.1436 -0.5366  0.2503
  148TMC2     C 2305   1.795   1.538  10.490 -0.1633 -0.7830  0.1368
  148TMC2     O 2306   1.764   1.655  10.505  0.2419 -1.0358  0.7789
  148TMC2     H 2307   1.994   1.702  10.558  0.5548  0.1490  0.0800
  148TMC2    H1 2308   1.881   1.287  10.561 -1.3526  1.0728  3.4602
  148TMC2    H2 2309   2.253   1.415  10.715  0.5522  0.3624 -0.4297
  148TMC2    C7 2310   2.118   1.208  10.617 -0.5427 -0.8049  0.4643
  148TMC2    C8 2311   2.236   1.658  10.638 -0.8118  0.0393 -0.1432
  148TMC2    O1 2312   2.027   1.127  10.620  0.5802 -0.0135 -0.6332
  148TMC2    O2 2313   2.337   1.624  10.701 -0.5277 -0.1939  0.2072
  148TMC2    O5 2314   2.229   1.725  10.516  0.4334 -0.6004  0.1886
  148TMC2    H5 2315   2.147   1.715  10.464  1.3813  0.2490 -1.4833
  149MPD2     C 2316   1.536   1.546  10.341 -0.6587 -0.6335  0.1648
  149MPD2    C1 2317   1.625   1.442  10.341  0.0324 -0.5971 -0.2481
  149MPD2    C2 2318   1.610   1.333  10.260  0.4317 -0.2597  0.2171
  149MPD2    C3 2319   1.485   1.317  10.201 -0.0802 -0.2894 -0.6286
  149MPD2    C4 2320   1.389   1.420  10.195 -0.0173 -0.1387 -0.3642
  149MPD2    C5 2321   1.420   1.531  10.269 -0.0204 -0.2031 -0.1124
  149MPD2     H 2322   1.687   1.257  10.255  0.1242 -0.3480 -3.0413
  149MPD2    H1 2323   1.291   1.419  10.149 -0.6614 -2.8238  1.0360
  149MPD2    H2 2324   1.545   1.643  10.391  0.0897 -0.8225  0.3929
  149MPD2    H3 2325   1.348   1.612  10.275  0.9571  0.7423 -0.9441
  149MPD2     N 2326   1.443   1.195  10.139  0.0676 -0.5443  0.0373
  149MPD2    H5 2327   1.366   1.196  10.072  0.1476 -0.1601 -0.0513
  149MPD2    N1 2328   1.747   1.434  10.412 -0.3716 -0.3426 -0.6269
  149MPD2    H7 2329   1.805   1.355  10.385 -0.4086 -1.0188  1.3006
  150TMC2    C1 2330   3.650   1.286  12.185  0.0733 -0.5282 -0.5929
  150TMC2    C2 2331   3.603   1.418  12.180  0.3751 -0.1738 -0.7977
  150TMC2    C3 2332   3.657   1.501  12.277 -0.5623 -0.0961 -0.5695
  150TMC2    C4 2333   3.749   1.244  12.265  0.2883 -0.9736  0.5934
  150TMC2    C5 2334   3.811   1.330  12.347  0.1960 -0.6576 -0.6437
  150TMC2    C6 2335   3.768   1.465  12.357  0.7823  0.0643  0.2323
  150TMC2     C 2336   3.569   1.178  12.136 -0.4004 -0.4295 -1.1321
  150TMC2     O 2337   3.621   1.068  12.135  0.2386 -0.1568 -0.5027
  150TMC2     H 2338   3.526   1.454  12.113  0.4492 -1.2329 -1.4442
  150TMC2    H1 2339   3.797   1.148  12.250 -1.4447 -1.9095  1.0191
  150TMC2    H2 2340   3.824   1.539  12.414  0.3207  3.2415 -3.4800
  150TMC2    C7 2341   3.953   1.301  12.379 -0.0451 -0.7800  0.2955
  150TMC2    C8 2342   3.608   1.638  12.268  0.4370 -0.1093 -0.2587
  150TMC2    O1 2343   4.027   1.402  12.363 -0.4223  0.6284 -0.1544
  150TMC2    O2 2344   3.564   1.682  12.162 -0.3527  0.0817 -0.6191
  150TMC2    O5 2345   3.562   1.668  12.393 -0.0669 -0.0145  0.1394
  150TMC2    H5 2346   3.621   1.634  12.464 -1.9712 -2.6405  0.4799
  151MPD2     C 2347   3.123   0.963  11.995 -0.6958  0.5896 -0.6174
  151MPD2    C1 2348   3.101   1.095  12.012  0.6658  0.3759 -0.2909
  151MPD2    C2 2349   3.203   1.183  12.046  0.0112 -0.8297  0.6402
  151MPD2    C3 2350   3.331   1.132  12.073 -0.4305 -0.0096 -0.2852
  151MPD2    C4 2351   3.353   1.000  12.044  0.0563  0.3692  0.3247
  151MPD2    C5 2352   3.250   0.916  12.006  0.1632 -0.1122 -1.0099
  151MPD2     H 2353   3.179   1.285  12.074 -0.5521 -0.8563  0.2594
  151MPD2    H1 2354   3.449   0.950  12.044  0.3018  0.8473  0.6761
  151MPD2    H2 2355   3.046   0.892  11.965  2.0445 -1.6597 -2.2674
  151MPD2    H3 2356   3.270   0.812  11.983 -0.5704 -0.4839 -0.0053
  151MPD2     N 2357   3.434   1.216  12.119  0.1138  0.1067 -0.1204
  151MPD2    H5 2358   3.401   1.311  12.131 -1.6583 -0.6124  0.6886
  151MPD2    N1 2359   2.968   1.138  12.009 -0.0890 -0.2650 -0.0712
  151MPD2    H7 2360   2.897   1.065  12.003 -0.6205  0.3786 -1.6483
  152TMC2    C1 2361   3.717   0.868  12.789 -0.7163  0.2569  0.2889
  152TMC2    C2 2362   3.809   0.767  12.797 -0.6271 -0.2562  0.5152
  152TMC2    C3 2363   3.940   0.799  12.803  0.1173 -0.0255 -0.3914
  152TMC2    C4 2364   3.754   0.995  12.771 -0.7468  0.6009 -0.3278
  152TMC2    C5 2365   3.891   1.024  12.779  0.6386  0.0061  0.1716
  152TMC2    C6 2366   3.988   0.927  12.797 -0.5182  0.2785 -0.3224
  152TMC2     C 2367   3.588   0.852  12.852 -0.0874 -0.4687  0.0227
  152TMC2     O 2368   3.511   0.944  12.833  0.2531 -0.1029  0.1500
  152TMC2     H 2369   3.778   0.672  12.839 -0.2945 -0.8016 -0.4807
  152TMC2    H1 2370   3.676   1.068  12.753  0.3875  2.0141  0.5468
  152TMC2    H2 2371   4.093   0.948  12.781  0.1008 -1.4649  1.5022
  152TMC2    C7 2372   3.926   1.159  12.727  0.2317 -1.1439  0.0972
  152TMC2    C8 2373   4.034   0.689  12.825  0.2748 -0.2230  0.3941
  152TMC2    O1 2374   3.828   1.226  12.702 -0.0092 -0.0613 -0.0580
  152TMC2    O2 2375   4.130   0.691  12.900 -0.3640 -0.5029  0.6266
  152TMC2    O5 2376   4.047   0.640  12.700  0.3691 -0.0617 -0.3293
  152TMC2    H5 2377   3.971   0.665  12.644 -0.2497 -1.1654  0.0189
  153MPD2     C 2378   3.475   0.611  13.100 -0.3468 -0.5907 -0.0958
  153MPD2    C1 2379   3.457   0.695  12.994 -0.2791  0.1499  0.6976
  153MPD2    C2 2380   3.332   0.720  12.948  0.2848  0.7967  0.0958
  153MPD2    C3 2381   3.221   0.671  13.014  0.1325  0.1929  0.4710
  153MPD2    C4 2382   3.237   0.582  13.122  0.7112 -0.3260  0.2842
  153MPD2    C5 2383   3.368   0.565  13.165 -0.3094 -0.5155 -0.8087
  153MPD2     H 2384   3.322   0.789  12.865 -2.3598  0.3702  0.0470
  153MPD2    H1 2385   3.154   0.547  13.182  1.6850  0.8558  2.3629
  153MPD2    H2 2386   3.571   0.589  13.146  0.7091  2.0319 -1.0329
  153MPD2    H3 2387   3.378   0.506  13.256  1.9157 -0.4189 -0.9744
  153MPD2     N 2388   3.092   0.702  12.969 -0.3224 -0.1194  0.0679
  153MPD2    H5 2389   3.015   0.690  13.033 -0.0237 -0.2450  0.4051
  153MPD2    N1 2390   3.580   0.748  12.941  0.1865  0.5093  0.0643
  153MPD2    H7 2391   3.663   0.699  12.974  1.1866  2.1269 -0.0519
  154TMC2    C1 2392   0.297   4.255   0.292  0.0990 -0.0530  0.1126
  154TMC2    C2 2393   0.309   4.202   0.417 -0.1611 -0.2345 -0.1892
  154TMC2    C3 2394   0.393   4.100   0.437  0.2653 -0.4215 -0.4507
  154TMC2    C4 2395   0.377   4.207   0.190  0.0623 -0.3229  0.2796
  154TMC2    C5 2396   0.462   4.103   0.209 -0.3778 -0.1779  0.4817
  154TMC2    C6 2397   0.463   4.042   0.338 -0.1115 -0.0122  0.5290
  154TMC2     C 2398   0.269   4.395   0.286  0.7222  0.1272 -0.3033
  154TMC2     O 2399   0.324   4.467   0.367 -0.0021 -0.5977 -0.5014
  154TMC2     H 2400   0.245   4.247   0.492  1.6359  0.2842  1.0238
  154TMC2    H1 2401   0.383   4.267   0.100 -2.5810 -1.2199 -0.5004
  154TMC2    H2 2402   0.533   3.962   0.359  1.1203  0.4674 -1.8185
  154TMC2    C7 2403   0.528   4.044   0.095 -0.2359  0.1893  0.0106
  154TMC2    C8 2404   0.400   4.048   0.573  0.0030 -0.6495 -0.3153
  154TMC2    O1 2405   0.523   3.921   0.095 -0.1080  0.5311 -0.2184
  154TMC2    O2 2406   0.369   4.129   0.659  0.3649  0.1009 -0.4493
  154TMC2    O5 2407   0.357   3.920   0.569  0.2023 -0.1568  0.1021
  154TMC2    H5 2408   0.361   3.889   0.476 -1.2938 -0.0001 -0.0116
  155MPD2     C 2409   0.114   4.574   0.021  0.1236  0.6527 -0.1242
  155MPD2    C1 2410   0.174   4.564   0.140 -0.6547  0.5299 -0.7517
  155MPD2    C2 2411   0.195   4.673   0.223 -0.3056 -0.1299 -0.8704
  155MPD2    C3 2412   0.145   0.064   0.179 -0.2701 -0.7143  0.0861
  155MPD2    C4 2413   0.087   0.071   0.054  0.2756 -0.2185 -0.1802
  155MPD2    C5 2414   0.064   4.690  17.719 -0.2076 -0.4294  0.0824
  155MPD2     H 2415   0.235   4.663   0.323 -0.7007  0.0163 -0.6980
  155MPD2    H1 2416   0.046   0.163   0.013  0.5929  0.1410  0.3132
  155MPD2    H2 2417   0.095   4.478  17.720 -1.8656  1.4947 -1.0720
  155MPD2    H3 2418   0.018   4.694  17.621  0.9779 -1.2080 -0.5120
  155MPD2     N 2419   0.177   0.179   0.252 -0.1527  0.0610  0.4239
  155MPD2    H5 2420   0.230   0.170   0.338 -1.9083 -3.4548  1.1469
  155MPD2    N1 2421   0.210   4.434   0.172 -0.7314 -0.3012  0.3340
  155MPD2    H7 2422   0.183   4.357   0.112  1.9458  0.0038 -1.2980
  156TMC2    C1 2423   3.536   2.888  11.435  0.1204  0.4052 -0.3136
  156TMC2    C2 2424   3.450   2.785  11.415  0.4057 -0.2471 -0.4230
  156TMC2    C3 2425   3.361   2.813  11.313  0.1227  0.6836 -0.1864
  156TMC2    C4 2426   3.540   3.004  11.364 -0.1483 -0.3767  0.6194
  156TMC2    C5 2427   3.442   3.030  11.276 -0.5915  0.1099 -0.2542
  156TMC2    C6 2428   3.352   2.932  11.242  0.3852  0.6640  0.5146
  156TMC2     C 2429   3.614   2.889  11.559 -0.5678  0.1165  0.3692
  156TMC2     O 2430   3.695   2.977  11.577 -0.1659 -0.1929 -0.0158
  156TMC2     H 2431   3.447   2.684  11.455 -1.9721  0.1955  0.4689
  156TMC2    H1 2432   3.591   3.089  11.408 -2.1975  0.3654  1.5349
  156TMC2    H2 2433   3.290   2.939  11.153  0.3100  0.7154  0.5718
  156TMC2    C7 2434   3.393   3.166  11.282 -1.1342 -0.8566  0.1504
  156TMC2    C8 2435   3.259   2.714  11.277 -0.1067 -0.3494 -0.2638
  156TMC2    O1 2436   3.476   3.252  11.308 -0.4921 -0.3962  0.2264
  156TMC2    O2 2437   3.207   2.716  11.165  0.5706 -0.5786 -0.2785
  156TMC2    O5 2438   3.186   2.699  11.390  0.5327 -0.2525  0.1521
  156TMC2    H5 2439   3.231   2.753  11.458  0.8751  1.3640 -1.3505
  157MPD2     C 2440   3.598   2.663  11.858 -0.0062 -0.1288  0.0423
  157MPD2    C1 2441   3.653   2.754  11.767 -0.0991  0.6721  0.5411
  157MPD2    C2 2442   3.785   2.808  11.792 -0.9709 -0.2831 -0.4304
  157MPD2    C3 2443   3.834   2.796  11.918  0.1563 -0.1347 -0.2152
  157MPD2    C4 2444   3.772   2.716  12.011  0.6275 -0.4665 -0.3961
  157MPD2    C5 2445   3.668   2.638  11.975 -0.0666 -0.3281  0.6878
  157MPD2     H 2446   3.837   2.863  11.715 -2.0930 -0.2806 -1.1982
  157MPD2    H1 2447   3.813   2.701  12.110  2.4482 -0.1464 -1.0986
  157MPD2    H2 2448   3.512   2.604  11.828 -0.2292 -0.6833  1.7372
  157MPD2    H3 2449   3.631   2.562  12.043 -0.5304  0.5125  1.3704
  157MPD2     N 2450   3.946   2.876  11.944  0.1101  0.2959 -0.2733
  157MPD2    H5 2451   3.968   2.943  11.870  0.6372  0.5267  0.0971
  157MPD2    N1 2452   3.586   2.784  11.643 -0.1779 -0.7266  0.2116
  157MPD2    H7 2453   3.520   2.723  11.597 -0.0313 -1.3447  0.8280
  158TMC2    C1 2454   4.513   2.493  13.716 -0.8979 -1.0350 -0.4974
  158TMC2    C2 2455   4.557   2.597  13.642 -0.3241  0.3838 -0.1600
  158TMC2    C3 2456   4.491   2.631  13.529  0.6553  0.3833  0.3263
  158TMC2    C4 2457   4.390   2.441  13.695 -0.1124  0.2010  0.2361
  158TMC2    C5 2458   4.318   2.480  13.587 -0.0619 -0.5179 -0.1979
  158TMC2    C6 2459   4.371   2.569  13.503  0.4086 -0.1251  0.2568
  158TMC2     C 2460   4.608   2.425  13.801  0.2992 -0.3423  0.0553
  158TMC2     O 2461   4.717   2.482  13.818 -0.0570  0.1726 -0.3636
  158TMC2     H 2462   4.650   2.646  13.670  0.5344 -1.1455 -0.3406
  158TMC2    H1 2463   4.346   2.380  13.773 -0.6090 -0.1930 -0.3573
  158TMC2    H2 2464   4.313   2.603  13.417  1.8834  0.4868 -0.4971
  158TMC2    C7 2465   4.179   2.438  13.572  0.2621 -0.9026 -0.4545
  158TMC2    C8 2466   4.551   2.721  13.434 -0.1316 -0.3447  0.0967
  158TMC2    O1 2467   4.114   2.479  13.479 -0.2902  0.4105  0.2127
  158TMC2    O2 2468   4.481   2.774  13.348 -0.3721 -0.6190 -0.4803
  158TMC2    O5 2469   4.681   2.694  13.438 -0.0739  0.4634 -0.6903
  158TMC2    H5 2470   4.710   2.635  13.511 -0.8736  0.1304 -0.6404
  159MPD2     C 2471   0.019   2.036  14.095 -0.2950  0.7659 -0.0176
  159MPD2    C1 2472   4.643   1.995  14.026  0.8933 -0.4109 -0.3848
  159MPD2    C2 2473   4.581   2.088  13.947 -0.0955 -0.3635  0.0958
  159MPD2    C3 2474   4.625   2.221  13.938  0.0599  0.4794 -0.1143
  159MPD2    C4 2475   0.006   2.261  14.005 -0.4379  0.4928 -0.1035
  159MPD2    C5 2476   0.067   2.168  14.084  0.7605 -0.4591  0.9123
  159MPD2     H 2477   4.496   2.059  13.886 -1.1656  0.5474  1.1460
  159MPD2    H1 2478   0.051   2.360  14.000  0.8519 -0.0882  0.3890
  159MPD2    H2 2479   0.071   1.972  14.165  0.3695  1.1423 -0.1742
  159MPD2    H3 2480   0.159   2.193  14.136  2.0691 -3.5181  0.0247
  159MPD2     N 2481   4.564   2.297  13.838 -0.2409  0.4109 -0.1276
  159MPD2    H5 2482   4.480   2.261  13.794  1.0901 -1.8533 -0.7854
  159MPD2    N1 2483   4.605   1.863  14.045  0.1968 -0.1823  0.1651
  159MPD2    H7 2484   4.664   1.798  14.097  0.7430 -0.6156 -1.0011
  160TMC2    C1 2485   3.946   0.170   1.318 -0.2515 -0.0011  0.3761
  160TMC2    C2 2486   3.813   0.127   1.337  0.3453  0.3455  0.4178
  160TMC2    C3 2487   3.802   4.733   1.364  0.0755  0.1692 -0.4171
  160TMC2    C4 2488   4.057   0.086   1.327  0.3613  0.3858  0.0238
  160TMC2    C5 2489   4.034   4.693   1.357 -0.7461  0.7072 -0.3363
  160TMC2    C6 2490   3.907   4.647   1.375  0.1939 -0.2184 -0.6137
  160TMC2     C 2491   3.975   0.299   1.259  0.4860 -0.0169 -0.4901
  160TMC2     O 2492   4.083   0.317   1.201 -0.4128  0.1504 -0.3849
  160TMC2     H 2493   3.729   0.191   1.313 -0.1367 -0.1841  0.7066
  160TMC2    H1 2494   4.156   0.127   1.317  0.3763  0.4547  0.4685
  160TMC2    H2 2495   3.890   4.544   1.407 -1.5655 -0.1707 -1.4493
  160TMC2    C7 2496   4.147   4.596   1.363 -0.3627  0.0064 -0.4630
  160TMC2    C8 2497   3.681   4.696   1.439 -0.3722 -0.1968 -0.1296
  160TMC2    O1 2498   4.132   4.501   1.443 -0.6631 -0.1631  0.2486
  160TMC2    O2 2499   3.675   4.602   1.521  0.2776 -0.3420  0.0137
  160TMC2    O5 2500   3.568   0.008   1.379 -0.1837  0.1002 -0.1474
  160TMC2    H5 2501   3.572   0.061   1.297  1.6740 -1.8333 -1.3168
  161MPD2     C 2502   3.946   0.555   1.114 -0.0146 -0.2864  0.5432
  161MPD2    C1 2503   3.849   0.496   1.190 -0.0101  0.0557 -0.1068
  161MPD2    C2 2504   3.726   0.562   1.198 -0.1765  0.2124  0.2397
  161MPD2    C3 2505   3.688   0.676   1.118 -0.2123  0.3734 -0.3244
  161MPD2    C4 2506   3.782   0.715   1.035  1.0713 -0.2761  0.3119
  161MPD2    C5 2507   3.911   0.663   1.032 -0.2181  0.2477 -0.1526
  161MPD2     H 2508   3.650   0.526   1.267  0.0517 -1.7571 -0.5513
  161MPD2    H1 2509   3.752   0.800   0.976 -1.5086 -1.9045 -0.7295
  161MPD2    H2 2510   4.043   0.512   1.094  0.1746  0.1609  0.5097
  161MPD2    H3 2511   3.978   0.690   0.950 -1.5067 -2.0288 -1.9899
  161MPD2     N 2512   3.559   0.733   1.109 -0.6911 -0.3044 -0.1843
  161MPD2    H5 2513   3.560   0.814   1.049 -0.5396  0.8258  1.3379
  161MPD2    N1 2514   3.864   0.373   1.255 -0.4306  0.4888  0.0762
  161MPD2    H7 2515   3.790   0.349   1.320 -1.5855 -1.7697 -2.0355
  162TMC2    C1 2516   1.774   2.300   1.212  0.0031 -0.3090 -0.5392
  162TMC2    C2 2517   1.640   2.291   1.230  0.2722 -0.2377  0.6241
  162TMC2    C3 2518   1.594   2.268   1.361 -0.1230  0.3596  0.0003
  162TMC2    C4 2519   1.861   2.254   1.307 -1.0089 -0.1362  0.0142
  162TMC2    C5 2520   1.818   2.228   1.435 -0.2852  0.2573  0.2616
  162TMC2    C6 2521   1.681   2.240   1.464  0.0132 -0.3263 -0.3029
  162TMC2     C 2522   1.822   2.294   1.078 -0.0895 -0.3111 -0.2812
  162TMC2     O 2523   1.741   2.279   0.984  0.2777  0.4057  0.7633
  162TMC2     H 2524   1.576   2.310   1.145  0.6812 -0.7337  0.2068
  162TMC2    H1 2525   1.967   2.252   1.286 -0.5681 -0.8900  2.2959
  162TMC2    H2 2526   1.646   2.219   1.565 -1.1763 -0.7890 -0.8117
  162TMC2    C7 2527   1.916   2.186   1.535 -0.1665  0.2418 -0.0992
  162TMC2    C8 2528   1.478   2.342   1.389 -0.3160  0.1541  0.1878
  162TMC2    O1 2529   1.898   2.212   1.650 -0.0454  0.6702 -0.2449
  162TMC2    O2 2530   1.402   2.375   1.298 -0.5540 -0.5815  0.0115
  162TMC2    O5 2531   1.505   2.428   1.489  0.4818  0.3479 -0.2193
  162TMC2    H5 2532   1.588   2.425   1.540  0.5710 -2.8294 -0.5618
  163MPD2     C 2533   2.198   2.347   0.732  0.6250  0.2837  0.7915
  163MPD2    C1 2534   2.065   2.297   0.721  0.1439 -0.0401  0.2891
  163MPD2    C2 2535   1.981   2.299   0.828 -0.0112  0.7028  0.1839
  163MPD2    C3 2536   2.025   2.335   0.955 -0.4144 -0.6058  0.9811
  163MPD2    C4 2537   2.153   2.368   0.969  1.0955  0.2965  0.1291
  163MPD2    C5 2538   2.239   2.376   0.861 -0.2560  0.4321 -0.6602
  163MPD2     H 2539   1.876   2.278   0.812  0.0350 -0.4163  1.3598
  163MPD2    H1 2540   2.192   2.397   1.067  0.1450  0.2336  0.5228
  163MPD2    H2 2541   2.255   2.362   0.641  1.2444  0.3756  1.1944
  163MPD2    H3 2542   2.340   2.413   0.872  0.0586 -0.3184 -0.9741
  163MPD2     N 2543   1.954   2.331   1.075 -0.1240 -0.2003 -1.1358
  163MPD2    H5 2544   2.001   2.355   1.162 -1.6516  0.6528 -0.5417
  163MPD2    N1 2545   2.027   2.250   0.592 -0.0404 -0.8006 -1.1134
  163MPD2    H7 2546   2.097   2.263   0.519  0.7107  1.0436 -0.0616
  164TMC2    C1 2547   2.041   0.884  11.038  0.8348 -0.0648 -0.0750
  164TMC2    C2 2548   2.106   0.827  11.142  0.3594 -0.0436  0.4602
  164TMC2    C3 2549   2.025   0.763  11.233  0.1860 -0.0661  0.4372
  164TMC2    C4 2550   1.908   0.873  11.011  0.0412  0.0142  0.2534
  164TMC2    C5 2551   1.831   0.820  11.111  0.7152  0.5873 -0.4593
  164TMC2    C6 2552   1.886   0.772  11.233 -1.4653  0.2455  0.6323
  164TMC2     C 2553   2.117   1.002  10.990  0.1386 -0.2377  0.4105
  164TMC2     O 2554   2.071   1.114  11.010 -0.2183  0.4135  0.4768
  164TMC2     H 2555   2.209   0.843  11.168  0.3656  0.8792 -0.1392
  164TMC2    H1 2556   1.861   0.924  10.928 -2.0841 -0.8203  0.9609
  164TMC2    H2 2557   1.828   0.734  11.316 -0.0767  0.0018  1.4771
  164TMC2    C7 2558   1.686   0.852  11.097 -0.0821  0.5016  0.1561
  164TMC2    C8 2559   2.071   0.738  11.367  0.3112 -0.6504 -0.1206
  164TMC2    O1 2560   1.646   0.902  10.994 -0.4411 -0.2064 -0.0537
  164TMC2    O2 2561   2.002   0.747  11.466 -0.7155  0.0823 -0.1836
  164TMC2    O5 2562   2.205   0.714  11.361 -0.0001 -0.0980  0.3004
  164TMC2    H5 2563   2.234   0.690  11.271  1.3122  2.7106 -0.0240
  165TMC2    C1 2564   3.936   4.503   1.809 -0.6103 -0.0091  0.0263
  165TMC2    C2 2565   3.906   4.635   1.776 -0.1816 -1.3479 -0.1182
  165TMC2    C3 2566   4.008   4.711   1.732  0.0754 -0.4917 -0.0657
  165TMC2    C4 2567   4.062   4.455   1.813  0.3122  0.4048  0.3293
  165TMC2    C5 2568   4.158   4.538   1.779 -0.3860  0.0510  0.1120
  165TMC2    C6 2569   4.137   4.666   1.741 -1.0663 -0.5968 -0.5361
  165TMC2     C 2570   3.835   4.405   1.841 -0.4909 -0.0157  0.3978
  165TMC2     O 2571   3.875   4.289   1.844 -0.4295  0.8203 -0.1452
  165TMC2     H 2572   3.805   4.675   1.774  0.1817 -0.4463 -0.1714
  165TMC2    H1 2573   4.085   4.351   1.834 -1.7139  0.1899  1.4550
  165TMC2    H2 2574   4.222   4.723   1.704 -0.6162 -3.3543 -3.7001
  165TMC2    C7 2575   4.296   4.504   1.816 -0.1833  0.0375  0.3971
  165TMC2    C8 2576   3.974   0.102   1.696 -0.1713 -0.1415 -0.0835
  165TMC2    O1 2577   4.381   4.589   1.795  0.0048 -0.5040  0.6349
  165TMC2    O2 2578   3.860   0.143   1.700  0.0755  0.4595 -0.1838
  165TMC2    O5 2579   4.081   0.177   1.666 -0.3126  0.2139  0.1903
  165TMC2    H5 2580   4.164   0.127   1.675 -1.1799 -1.0261  1.3637
  166MPD2     C 2581   3.357   4.212   1.883  0.0782  0.6445  0.2181
  166MPD2    C1 2582   3.479   4.173   1.936 -0.3098  0.7453 -0.3095
  166MPD2    C2 2583   3.594   4.249   1.905  0.5197 -0.3964  0.5090
  166MPD2    C3 2584   3.587   4.368   1.838 -0.6194  0.0850 -0.1496
  166MPD2    C4 2585   3.460   4.417   1.808 -0.7047 -0.1076  0.5986
  166MPD2    C5 2586   3.348   4.333   1.818 -0.1812 -0.0145 -0.3150
  166MPD2     H 2587   3.687   4.213   1.946  1.6203  2.1007  0.2043
  166MPD2    H1 2588   3.445   4.521   1.781  0.2901  0.1974  1.1849
  166MPD2    H2 2589   3.277   4.139   1.887  0.5032  0.2005  0.6636
  166MPD2    H3 2590   3.252   4.360   1.775 -0.0980 -0.6122 -0.8828
  166MPD2     N 2591   3.703   4.450   1.824  0.0308  0.1310  1.3925
  166MPD2    H5 2592   3.689   4.545   1.793 -1.2419  0.9043  4.3707
  166MPD2    N1 2593   3.488   4.045   2.001 -0.1234 -0.8468  0.2250
  166MPD2    H7 2594   3.404   3.988   2.010 -0.3028 -0.6174  0.0263
  167TMC2    C1 2595   1.965   1.332  12.413 -0.1061  0.6069  0.4414
  167TMC2    C2 2596   1.961   1.359  12.552  1.0278  0.3653 -0.4524
  167TMC2    C3 2597   1.888   1.275  12.626 -0.2173 -0.3785 -0.4642
  167TMC2    C4 2598   1.924   1.219  12.357 -0.0774 -0.1228 -0.0644
  167TMC2    C5 2599   1.855   1.135  12.440  0.7558  0.3852 -0.1826
  167TMC2    C6 2600   1.820   1.168  12.569  0.0461 -0.3836 -0.5358
  167TMC2     C 2601   1.980   1.445  12.329  0.4393 -0.1082 -0.8535
  167TMC2     O 2602   2.052   1.535  12.376 -0.4335 -0.2987 -0.3223
  167TMC2     H 2603   1.990   1.451  12.603  1.2450  1.3302 -2.3162
  167TMC2    H1 2604   1.943   1.192  12.254  1.3064 -2.9150  0.9279
  167TMC2    H2 2605   1.765   1.091  12.622  1.9521 -0.7550  0.9109
  167TMC2    C7 2606   1.789   1.019  12.380 -0.2575 -0.0143  0.1992
  167TMC2    C8 2607   1.886   1.292  12.770 -0.1786 -0.2954  0.5390
  167TMC2    O1 2608   1.680   1.002  12.435 -0.1048  0.3378 -0.1024
  167TMC2    O2 2609   1.800   1.250  12.844 -0.2764  0.1790  0.0328
  167TMC2    O5 2610   2.011   1.332  12.806 -0.2071  0.4473  0.2342
  167TMC2    H5 2611   2.085   1.330  12.741 -0.8435 -0.8282 -0.4560
  168MPD2     C 2612   1.949   1.674  12.139  0.7457  0.0152  0.1025
  168MPD2    C1 2613   1.875   1.556  12.133 -0.6309 -0.0044  0.1754
  168MPD2    C2 2614   1.780   1.545  12.040 -0.7110 -0.8584 -0.0424
  168MPD2    C3 2615   1.752   1.643  11.943 -0.2764 -0.3180  0.1547
  168MPD2    C4 2616   1.826   1.758  11.956  0.0635  0.1781  0.1696
  168MPD2    C5 2617   1.924   1.772  12.049  0.7524 -0.3129 -0.1602
  168MPD2     H 2618   1.722   1.454  12.034 -0.6136 -1.0647  1.9570
  168MPD2    H1 2619   1.818   1.841  11.887 -2.7833 -1.2699 -1.2419
  168MPD2    H2 2620   2.034   1.689  12.204 -1.2911  3.0209  2.0639
  168MPD2    H3 2621   1.986   1.861  12.039 -1.1758  0.9085 -1.1996
  168MPD2     N 2622   1.650   1.635  11.843  0.1147 -0.3105  0.3671
  168MPD2    H5 2623   1.649   1.702  11.767  1.2513 -0.6774  0.0308
  168MPD2    N1 2624   1.896   1.446  12.223  0.4366 -0.3631 -0.1461
  168MPD2    H7 2625   1.843   1.360  12.215 -0.2013 -0.0606  0.8025
  169MPD1     C 2626   3.161   0.139   9.592 -1.1390  0.2675  0.2111
  169MPD1    C1 2627   3.119   0.066   9.489 -0.4137  0.0725 -0.1761
  169MPD1    C2 2628   3.208   4.726   9.411 -0.0439 -0.5271 -0.6063
  169MPD1    C3 2629   3.340   4.728   9.436  0.1511  0.4364  0.1040
  169MPD1    C4 2630   3.384   0.072   9.541  0.1634  0.2324 -0.1556
  169MPD1    C5 2631   3.297   0.147   9.613 -0.0387  0.1030 -0.6562
  169MPD1     H 2632   3.176   4.663   9.329 -2.2774  1.8152 -1.5450
  169MPD1    H1 2633   3.490   0.070   9.562  0.2881 -1.0996 -0.9352
  169MPD1    H2 2634   3.091   0.204   9.644 -0.5455  0.5800  0.6145
  169MPD1    H3 2635   3.325   0.209   9.697 -0.9387  0.4201 -0.5950
  169MPD1     N 2636   3.417   4.639   9.353  0.0882  0.3166 -0.0914
  169MPD1    H5 2637   3.364   4.583   9.288 -1.2215  0.3361  0.9545
  169MPD1    N1 2638   2.984   0.073   9.463  0.5392 -0.8231  0.3116
  169MPD1    H6 2639   2.922   0.087   9.542 -1.3244 -0.2789 -1.2386
  169MPD1    H7 2640   2.950   4.734   9.403 -1.3163  0.9355 -0.8254
  170MPD1     C 2641   2.983   3.168  12.540 -0.1109  0.0005 -0.4036
  170MPD1    C1 2642   2.885   3.098  12.610  0.6804  0.6035  0.5646
  170MPD1    C2 2643   2.840   3.148  12.733 -0.3166 -0.1391 -0.1326
  170MPD1    C3 2644   2.879   3.277  12.768 -0.1474  0.2313 -0.1300
  170MPD1    C4 2645   2.967   3.345  12.684 -0.6690  0.3564  0.3575
  170MPD1    C5 2646   3.019   3.294  12.576 -0.3317  0.1069  0.1382
  170MPD1     H 2647   2.786   3.086  12.803 -1.2693  0.6728 -0.1540
  170MPD1    H1 2648   3.000   3.446  12.705 -3.2635  1.2919  0.0353
  170MPD1    H2 2649   3.029   3.115  12.457  3.3365  1.9802  0.2617
  170MPD1    H3 2650   3.098   3.341  12.518 -1.1613  0.7701 -0.4594
  170MPD1     N 2651   2.824   3.337  12.888  0.4926  0.5806  0.0425
  170MPD1    H5 2652   2.745   3.285  12.924  1.2510 -0.7609 -0.2523
  170MPD1    N1 2653   2.859   2.964  12.574 -0.3607  0.0614 -0.6517
  170MPD1    H6 2654   2.863   2.944  12.474 -0.5131 -0.2779 -0.5927
  170MPD1    H7 2655   2.761   2.941  12.591 -0.6796  2.2065  0.3763
  171MPD1     C 2656   1.079   0.320  16.145  0.7088  0.1112 -0.3382
  171MPD1    C1 2657   1.036   0.213  16.084  0.5617  0.0986 -0.6324
  171MPD1    C2 2658   1.131   0.108  16.057 -0.1846  0.1688 -0.0071
  171MPD1    C3 2659   1.268   0.132  16.069 -0.1331  0.2247 -0.3753
  171MPD1    C4 2660   1.308   0.250  16.118 -0.2449  0.3515  0.4593
  171MPD1    C5 2661   1.211   0.344  16.165  0.9546 -0.4970  0.0404
  171MPD1     H 2662   1.093   0.012  16.022 -2.2796 -0.1568  3.1287
  171MPD1    H1 2663   1.413   0.274  16.126  0.0900 -0.4343 -1.6495
  171MPD1    H2 2664   1.004   0.377  16.198  0.0087 -3.1398  2.2005
  171MPD1    H3 2665   1.242   0.430  16.223 -3.8979  0.2640  1.5478
  171MPD1     N 2666   1.369   0.035  16.040 -0.1092 -0.2481 -0.4325
  171MPD1    H5 2667   1.466   0.063  16.028  0.5924 -1.7155  1.7826
  171MPD1    N1 2668   0.901   0.177  16.088 -0.0251 -1.1345  0.3706
  171MPD1    H6 2669   0.881   0.119  16.008  1.5996 -1.3626  0.1233
  171MPD1    H7 2670   0.845   0.262  16.077  0.9387 -0.1658  2.9127
  172MPD1     C 2671   4.469   3.246  17.539  0.4994 -0.2484  0.2435
  172MPD1    C1 2672   4.587   3.241  17.475  0.6157 -0.1559  0.0131
  172MPD1    C2 2673   4.698   3.309  17.538 -0.7549  0.8515  0.1249
  172MPD1    C3 2674   4.689   3.348  17.667 -0.1335 -0.2284 -0.5462
  172MPD1    C4 2675   4.572   3.336  17.733  0.2582 -0.1666  0.6067
  172MPD1    C5 2676   4.458   3.295  17.663 -0.0566 -0.0833 -0.2253
  172MPD1     H 2677   0.052   3.316  17.480 -1.3798  0.9466 -0.8327
  172MPD1    H1 2678   4.557   3.364   0.093  0.6333 -0.0154  0.6180
  172MPD1    H2 2679   4.378   3.214  17.489 -0.8898 -1.6258  3.6622
  172MPD1    H3 2680   4.357   3.279  17.699 -0.0731 -0.7955 -0.5698
  172MPD1     N 2681   0.062   3.398  17.741  0.2842 -0.3012 -0.4508
  172MPD1    H5 2682   0.043   3.439   0.088  0.4476 -0.7765 -0.2004
  172MPD1    N1 2683   4.593   3.210  17.338 -0.6313 -0.4111 -0.2207
  172MPD1    H6 2684   4.683   3.174  17.306 -0.8426 -1.7583  0.6697
  172MPD1    H7 2685   4.524   3.139  17.316  0.7716 -1.5995 -0.7747
  173MPD1     C 2686   2.794   0.048  13.726  0.6742  0.3378 -0.5438
  173MPD1    C1 2687   2.794   4.647  13.726  0.4597 -0.7137 -1.1423
  173MPD1    C2 2688   2.759   4.586  13.842  0.1906 -0.0678  0.2119
  173MPD1    C3 2689   2.701   4.646  13.950  0.7723  0.0941 -0.0065
  173MPD1    C4 2690   2.702   0.045  13.949  0.1424 -0.1994  0.6519
  173MPD1    C5 2691   2.755   0.108  13.842  0.2968  0.3805  0.1953
  173MPD1     H 2692   2.767   4.479  13.833 -2.2378 -0.3599  1.3562
  173MPD1    H1 2693   2.678   0.099  14.039  2.0512 -2.1126  2.2986
  173MPD1    H2 2694   2.825   0.112  13.644 -0.8910  0.1273 -1.3033
  173MPD1    H3 2695   2.742   0.215  13.838 -0.8875  0.2654  1.1740
  173MPD1     N 2696   2.655   4.571  14.062 -1.0351  0.1867 -0.2181
  173MPD1    H5 2697   2.668   4.471  14.052 -1.5126  0.3968 -2.8965
  173MPD1    N1 2698   2.840   4.577  13.611 -0.1224 -0.1030  0.0932
  173MPD1    H6 2699   2.805   4.608  13.521 -0.0745  3.0785  1.1657
  173MPD1    H7 2700   2.819   4.477  13.614  1.7647 -0.4069  3.0332
  174MPD1     C 2701   3.027   3.877  14.320 -0.4316 -0.4048  0.3812
  174MPD1    C1 2702   2.961   3.922  14.431  0.4321  0.4488  0.1203
  174MPD1    C2 2703   2.867   4.021  14.411 -0.1620  0.1288  0.0696
  174MPD1    C3 2704   2.840   4.081  14.288  0.0350 -0.6047  0.2123
  174MPD1    C4 2705   2.914   4.036  14.187 -0.4945  0.4677  0.4782
  174MPD1    C5 2706   3.000   3.941  14.201 -1.0321 -0.0823  0.3313
  174MPD1     H 2707   2.820   4.057  14.502  0.6428  1.6135 -0.1059
  174MPD1    H1 2708   2.899   4.077  14.087  0.7199 -0.0865  0.0743
  174MPD1    H2 2709   3.104   3.802  14.334  0.5565  0.2632 -1.3938
  174MPD1    H3 2710   3.054   3.912  14.112  0.6249  0.8319  1.0265
  174MPD1     N 2711   2.737   4.174  14.273  0.2584 -0.0032 -0.0002
  174MPD1    H5 2712   2.732   4.219  14.182  0.8441 -0.5591 -0.3070
  174MPD1    N1 2713   2.987   3.863  14.555 -0.1496 -0.0546 -0.0061
  174MPD1    H6 2714   3.076   3.816  14.568  1.1887  1.6804 -3.0197
  174MPD1    H7 2715   2.962   3.931  14.627 -1.6926 -0.8526  0.2159
  175MPD1     C 2716   4.719   0.322  15.673 -0.0261 -0.2026  0.4715
  175MPD1    C1 2717   0.110   0.312  15.711  0.3032  0.1441 -0.1139
  175MPD1    C2 2718   0.141   0.296  15.838  0.1220 -0.0313  0.1079
  175MPD1    C3 2719   0.041   0.290  15.930  0.4699 -0.9136  0.1786
  175MPD1    C4 2720   4.646   0.295  15.891  0.7599 -0.3395 -0.0715
  175MPD1    C5 2721   4.616   0.317  15.762 -0.2772  0.5113  0.7385
  175MPD1     H 2722   0.246   0.293  15.866  0.4388  0.6223 -0.9865
  175MPD1    H1 2723   4.570   0.283  15.968  0.6916  0.0807 -0.0731
  175MPD1    H2 2724   4.701   0.336  15.567 -0.5567  1.2587  0.7436
  175MPD1    H3 2725   4.511   0.326  15.736  0.5254  1.8466 -2.1148
  175MPD1     N 2726   0.060   0.280  16.070 -0.5323  0.8381  0.3511
  175MPD1    H5 2727   4.713   0.274  16.128 -1.2410  0.6329 -0.6666
  175MPD1    N1 2728   0.218   0.346  15.624  0.1216 -0.3549  0.0756
  175MPD1    H6 2729   0.306   0.299  15.645  0.9707  1.6982  1.1221
  175MPD1    H7 2730   0.200   0.344  15.523  0.6448  2.6028 -0.0738
  176MPD1     C 2731   1.165   2.574  17.180 -0.3911 -0.4178  0.2261
  176MPD1    C1 2732   1.192   2.679  17.262  0.4911 -0.3595 -0.3399
  176MPD1    C2 2733   1.322   2.712  17.267  0.2257  0.1212 -0.1330
  176MPD1    C3 2734   1.417   2.672  17.174  0.2225  0.1410 -0.1220
  176MPD1    C4 2735   1.381   2.575  17.083 -0.1410  0.9807 -0.4178
  176MPD1    C5 2736   1.254   2.523  17.094  0.3769 -0.2945  0.4790
  176MPD1     H 2737   1.355   2.782  17.344  0.7192 -2.1833  1.7498
  176MPD1    H1 2738   1.442   2.536  17.003  0.6890 -0.2661  0.8249
  176MPD1    H2 2739   1.077   2.510  17.183  1.1162 -2.4302  1.3418
  176MPD1    H3 2740   1.223   2.438  17.034 -1.3220 -1.2148  2.6673
  176MPD1     N 2741   1.547   2.737  17.174  0.7851  0.2922  0.0404
  176MPD1    H5 2742   1.559   2.814  17.239  1.1932  2.8344 -3.0709
  176MPD1    N1 2743   1.104   2.718  17.353  0.3378  0.1762 -0.5317
  176MPD1    H6 2744   1.112   2.816  17.382  0.8339 -0.3396  1.0344
  176MPD1    H7 2745   1.009   2.688  17.331  0.6442 -2.1618  1.3918
  177MPD1     C 2746   4.323   1.178   9.574  0.9154 -0.0802 -0.7147
  177MPD1    C1 2747   4.225   1.123   9.493  0.2486 -0.2838 -0.7940
  177MPD1    C2 2748   4.145   1.216   9.430 -0.4492  0.6570 -0.4065
  177MPD1    C3 2749   4.168   1.353   9.435 -0.3776 -0.2963 -0.4432
  177MPD1    C4 2750   4.274   1.401   9.508 -0.4658  0.4856  0.0301
  177MPD1    C5 2751   4.350   1.316   9.587  0.2632 -0.3654  0.4169
  177MPD1     H 2752   4.053   1.191   9.379 -0.0586 -1.7015  0.0323
  177MPD1    H1 2753   4.286   1.507   9.527  0.2067  0.7578 -1.9269
  177MPD1    H2 2754   4.381   1.109   9.634 -0.1907  0.2151  0.6813
  177MPD1    H3 2755   4.422   1.347   9.662 -0.5432  0.0824  1.0003
  177MPD1     N 2756   4.079   1.435   9.366  0.2765 -0.4678  0.2418
  177MPD1    H5 2757   4.005   1.388   9.313 -0.7431  2.0091 -0.5285
  177MPD1    N1 2758   4.189   0.987   9.511  0.2602  0.4005  0.1915
  177MPD1    H6 2759   4.157   0.938   9.427  1.2588  1.4911 -0.8209
  177MPD1    H7 2760   4.269   0.929   9.533  1.3251  1.3062 -1.3005
  178MPD1     C 2761   2.764   3.814  17.351  0.1771  0.5251  0.1901
  178MPD1    C1 2762   2.683   3.737  17.265  0.0702 -0.0883  0.1945
  178MPD1    C2 2763   2.742   3.619  17.218  0.2336  0.3101  0.0314
  178MPD1    C3 2764   2.861   3.575  17.276  0.0549  0.6630  0.1659
  178MPD1    C4 2765   2.936   3.656  17.361  0.3101  0.7750 -0.5843
  178MPD1    C5 2766   2.883   3.775  17.397  0.1897  0.1227  0.4133
  178MPD1     H 2767   2.700   3.562  17.136 -0.6811  0.7915  0.1635
  178MPD1    H1 2768   3.035   3.629  17.396 -0.0824 -1.9602 -1.6271
  178MPD1    H2 2769   2.721   3.910  17.378  0.2782  0.3808  0.8450
  178MPD1    H3 2770   2.931   3.841  17.468 -2.3955  1.4873  0.8700
  178MPD1     N 2771   2.927   3.454  17.246  0.5574  0.0275 -0.1126
  178MPD1    H5 2772   3.012   3.436  17.298 -0.7059 -0.2141  1.8711
  178MPD1    N1 2773   2.567   3.795  17.211  0.4676 -0.9716  0.0091
  178MPD1    H6 2774   2.520   3.860  17.274  0.2224  2.4890 -3.8070
  178MPD1    H7 2775   2.498   3.722  17.192  1.1115 -1.0361 -2.0469
  179MPD1     C 2776   1.885   1.801  15.379  0.8002 -0.4550 -0.7044
  179MPD1    C1 2777   1.871   1.684  15.301 -0.7908  0.7036 -0.6624
  179MPD1    C2 2778   1.881   1.569  15.375  0.4200  0.0538  0.5382
  179MPD1    C3 2779   1.906   1.554  15.508 -0.7496  0.0292  0.6621
  179MPD1    C4 2780   1.921   1.666  15.578  0.4159 -0.0247 -0.0429
  179MPD1    C5 2781   1.909   1.783  15.512  0.1852  0.2241  0.2039
  179MPD1     H 2782   1.852   1.480  15.321 -1.6720  0.9129  0.2582
  179MPD1    H1 2783   1.944   1.664  15.684  1.4727 -0.0292 -0.2732
  179MPD1    H2 2784   1.881   1.904  15.348  0.9640 -0.0147  0.7441
  179MPD1    H3 2785   1.920   1.869  15.576 -2.5915 -1.4753  2.9947
  179MPD1     N 2786   1.934   1.434  15.574 -0.2562 -0.5394  0.4626
  179MPD1    H5 2787   1.973   1.437  15.667  2.6567 -3.6626 -0.6592
  179MPD1    N1 2788   1.819   1.692  15.169  0.4292  0.1269 -0.2880
  179MPD1    H6 2789   1.847   1.609  15.117 -1.1020 -1.6389  1.6852
  179MPD1    H7 2790   1.844   1.779  15.122 -3.2027  0.3937 -1.7720
  180MPD1     C 2791   2.489   2.901  15.775 -0.3348 -0.1386 -0.1560
  180MPD1    C1 2792   2.410   2.797  15.719 -0.0328 -0.1652  0.1919
  180MPD1    C2 2793   2.422   2.793  15.584  0.4047  0.0826 -0.0625
  180MPD1    C3 2794   2.482   2.881  15.502  0.7623  0.5529 -0.7533
  180MPD1    C4 2795   2.569   2.970  15.566 -0.0903  0.6115  1.0095
  180MPD1    C5 2796   2.568   2.978  15.701  0.1976 -0.5754 -0.3538
  180MPD1     H 2797   2.364   2.713  15.537  0.9737 -0.2625 -0.1735
  180MPD1    H1 2798   2.649   3.034  15.530  0.2249 -1.0140 -1.1307
  180MPD1    H2 2799   2.488   2.914  15.883 -1.0343  0.2912 -0.2231
  180MPD1    H3 2800   2.633   3.049  15.749 -2.3163  0.5268  1.4307
  180MPD1     N 2801   2.472   2.870  15.357  0.5456 -0.3817 -0.2079
  180MPD1    H5 2802   2.415   2.792  15.326 -1.4020  0.7350  0.5302
  180MPD1    N1 2803   2.344   2.691  15.788 -0.2378 -0.3495 -0.1507
  180MPD1    H6 2804   2.262   2.649  15.745  1.1964 -3.4512  0.1215
  180MPD1    H7 2805   2.316   2.724  15.880  0.3374 -0.8562  0.2083
  181MPD1     C 2806   2.881   3.503   9.842 -0.0361  0.3185  0.3118
  181MPD1    C1 2807   2.875   3.466   9.707 -0.4353 -0.4488 -0.0742
  181MPD1    C2 2808   2.965   3.517   9.610 -0.9208 -0.7695  0.0822
  181MPD1    C3 2809   3.050   3.620   9.655 -0.0029  0.0113 -0.1700
  181MPD1    C4 2810   3.051   3.657   9.790  0.2500 -0.0016  0.5640
  181MPD1    C5 2811   2.956   3.605   9.878  0.2936 -0.2894  0.0228
  181MPD1     H 2812   2.971   3.480   9.508 -0.4348  2.0271 -0.9023
  181MPD1    H1 2813   3.115   3.739   9.822  1.3486 -0.4631 -0.4574
  181MPD1    H2 2814   2.825   3.455   9.922  0.1360 -2.6655 -1.3504
  181MPD1    H3 2815   2.952   3.643   9.979  1.3475 -0.9322  0.2990
  181MPD1     N 2816   3.160   3.665   9.578 -0.1319 -0.0402 -0.4649
  181MPD1    H5 2817   3.220   3.734   9.622  0.4671 -0.7806 -0.1141
  181MPD1    N1 2818   2.793   3.357   9.663  0.3139 -0.0144  0.2043
  181MPD1    H6 2819   2.700   3.366   9.703  1.8776  0.6260  3.7219
  181MPD1    H7 2820   2.792   3.367   9.562  1.1405  1.7754  0.3693
  182MPD1     C 2821   3.227   2.007   0.720 -0.0915  0.1720  0.6052
  182MPD1    C1 2822   3.334   2.073   0.781  0.6180  0.6918  0.1909
  182MPD1    C2 2823   3.320   2.202   0.816 -0.3613 -0.1593  0.6751
  182MPD1    C3 2824   3.198   2.263   0.817 -0.3476 -0.1542  0.1561
  182MPD1    C4 2825   3.090   2.190   0.762  0.3435  0.3118 -0.0801
  182MPD1    C5 2826   3.106   2.058   0.719 -0.1296  0.2101 -0.3128
  182MPD1     H 2827   3.401   2.252   0.867 -1.4210  0.9605  1.2678
  182MPD1    H1 2828   2.992   2.236   0.758  0.5150  0.8426  1.7736
  182MPD1    H2 2829   3.242   1.906   0.683 -2.0011  0.3878 -0.7229
  182MPD1    H3 2830   3.026   2.001   0.671 -1.2639  2.4504 -1.0542
  182MPD1     N 2831   3.172   2.396   0.852 -0.4316 -0.5063  0.2277
  182MPD1    H5 2832   3.086   2.434   0.814  1.2800  2.6386 -0.5139
  182MPD1    N1 2833   3.459   2.010   0.778 -0.4279  0.1008  0.2172
  182MPD1    H6 2834   3.445   1.911   0.800  3.6173 -0.1978  1.3646
  182MPD1    H7 2835   3.527   2.055   0.838 -0.7167  1.8671 -0.7792
  183MPD1     C 2836   4.627   3.512   8.567 -0.4386 -0.0205  0.8104
  183MPD1    C1 2837   4.587   3.640   8.607  0.0850  0.0199  0.0183
  183MPD1    C2 2838   4.589   3.667   8.741  0.8158  0.7288  0.3604
  183MPD1    C3 2839   4.645   3.582   8.831  0.6004  0.5925 -0.1901
  183MPD1    C4 2840   4.700   3.463   8.787  0.7239 -0.3071  0.1919
  183MPD1    C5 2841   4.685   3.431   8.657  0.0582  0.1873 -0.0606
  183MPD1     H 2842   4.539   3.759   8.769 -2.9478 -0.7140 -1.6460
  183MPD1    H1 2843   0.005   3.389   8.854 -0.1237  0.7077  1.8487
  183MPD1    H2 2844   4.622   3.487   8.461 -2.5037  0.8632  0.7086
  183MPD1    H3 2845   4.718   3.331   8.632  0.4533  1.0137 -2.8457
  183MPD1     N 2846   4.647   3.626   8.968  0.2950 -0.0437 -0.1344
  183MPD1    H5 2847   4.620   3.722   8.987  0.5406  0.2076 -1.0578
  183MPD1    N1 2848   4.531   3.735   8.513 -0.1229  0.7551  0.0037
  183MPD1    H6 2849   4.447   3.692   8.475  0.2611 -0.9082  1.0604
  183MPD1    H7 2850   4.522   3.834   8.534 -0.0728  0.4387  1.5234
  184MPD1     C 2851   4.442   1.461   9.932 -0.2394  0.2385  0.0283
  184MPD1    C1 2852   4.506   1.564   9.868 -0.5582 -0.3862  0.2157
  184MPD1    C2 2853   4.433   1.638   9.777 -0.1756  0.3212 -0.2320
  184MPD1    C3 2854   4.295   1.627   9.767  0.4506  0.0877  0.0195
  184MPD1    C4 2855   4.233   1.532   9.845 -0.1873  0.8307  0.9857
  184MPD1    C5 2856   4.308   1.449   9.923 -0.0490  0.5502  0.3458
  184MPD1     H 2857   4.480   1.717   9.719 -1.1124  0.3655 -0.9377
  184MPD1    H1 2858   4.125   1.521   9.850 -0.0578 -0.8243  0.1477
  184MPD1    H2 2859   4.489   1.379   9.984 -0.7242  0.4136  0.7480
  184MPD1    H3 2860   4.254   1.375   9.981 -0.3353  1.5573  1.3665
  184MPD1     N 2861   4.213   1.724   9.695  0.2052 -0.4240 -0.4476
  184MPD1    H5 2862   4.117   1.691   9.689  0.7227 -1.7532 -1.5182
  184MPD1    N1 2863   4.645   1.577   9.864  0.2522  0.5669  0.9989
  184MPD1    H6 2864   4.658   1.677   9.848 -1.5462  0.7756  0.8472
  184MPD1    H7 2865   4.693   1.554   9.951  1.4619 -0.7420 -0.0338
  185MPD1     C 2866   3.284   1.960   9.368  0.6663  0.5840 -0.1335
  185MPD1    C1 2867   3.369   1.847   9.369  0.2733  0.3859  0.3235
  185MPD1    C2 2868   3.506   1.859   9.399 -0.1689  0.2737  0.3867
  185MPD1    C3 2869   3.559   1.979   9.446 -0.2503  0.2611  0.2293
  185MPD1    C4 2870   3.474   2.087   9.455 -0.1908  0.4568 -0.1680
  185MPD1    C5 2871   3.342   2.077   9.417  0.5994 -0.4248 -0.6009
  185MPD1     H 2872   3.574   1.776   9.382  0.0273  0.5657 -0.2484
  185MPD1    H1 2873   3.510   2.179   9.500 -2.9079  1.8659 -0.8889
  185MPD1    H2 2874   3.177   1.965   9.347  0.5601 -1.7640 -0.1695
  185MPD1    H3 2875   3.280   2.166   9.428 -0.2695 -1.2748  1.3298
  185MPD1     N 2876   3.700   1.998   9.475 -0.2986  0.5509 -0.6073
  185MPD1    H5 2877   3.727   2.087   9.517 -0.0309  0.2093 -0.0606
  185MPD1    N1 2878   3.323   1.726   9.316  0.3407 -0.0848  0.7688
  185MPD1    H6 2879   3.225   1.709   9.340 -0.2304  0.7546 -0.9834
  185MPD1    H7 2880   3.369   1.649   9.363  0.4818 -0.1339  0.5480
  186MPD1     C 2881   3.210   0.732  16.326 -0.2263 -0.8877 -0.1001
  186MPD1    C1 2882   3.171   0.759  16.453 -0.2716 -0.5001  0.6855
  186MPD1    C2 2883   3.132   0.886  16.484  0.3499  1.1007 -0.4547
  186MPD1    C3 2884   3.107   0.979  16.385  0.0911  0.0888 -0.5985
  186MPD1    C4 2885   3.140   0.949  16.252 -0.6068 -0.0668 -0.3285
  186MPD1    C5 2886   3.204   0.827  16.230  0.3576  0.7287  0.3059
  186MPD1     H 2887   3.122   0.916  16.588  2.5465 -0.1630  0.1101
  186MPD1    H1 2888   3.143   1.019  16.169  1.6372  0.8481  0.5233
  186MPD1    H2 2889   3.245   0.632  16.301  0.8573 -1.1594  2.3886
  186MPD1    H3 2890   3.242   0.807  16.131  0.1968  1.0311  0.1822
  186MPD1     N 2891   3.060   1.110  16.405 -0.0264  0.1263 -0.3825
  186MPD1    H5 2892   3.056   1.176  16.328 -0.5967 -0.6074 -0.9751
  186MPD1    N1 2893   3.204   0.668  16.556  0.4107  0.7660 -0.0977
  186MPD1    H6 2894   3.128   0.651  16.622 -0.3213  0.4094 -1.0280
  186MPD1    H7 2895   3.215   0.579  16.507  2.4108  0.7392  0.4082
  187MPD1     C 2896   2.425   3.151  17.349 -0.4262 -0.9344  0.3187
  187MPD1    C1 2897   2.490   3.216  17.248  0.3862 -0.2345  0.2739
  187MPD1    C2 2898   2.438   3.331  17.203  0.4152 -0.1974  0.5073
  187MPD1    C3 2899   2.309   3.371  17.247  1.0270  0.0137  0.3639
  187MPD1    C4 2900   2.242   3.296  17.347 -0.2753  0.1164  0.1079
  187MPD1    C5 2901   2.302   3.189  17.401  0.2330  0.1665  0.2755
  187MPD1     H 2902   2.482   3.386  17.121  1.6899  0.0660  1.3620
  187MPD1    H1 2903   2.148   3.330  17.389 -1.4138 -1.4616 -1.1804
  187MPD1    H2 2904   2.468   3.061  17.393 -0.3759 -0.4092  1.3325
  187MPD1    H3 2905   2.259   3.144  17.489  0.6604 -0.5997  0.0923
  187MPD1     N 2906   2.236   3.478  17.195  0.1416  0.2054  0.2923
  187MPD1    H5 2907   2.138   3.482  17.222 -0.8916  1.4895 -3.6253
  187MPD1    N1 2908   2.598   3.156  17.188 -0.4828 -0.1192 -0.1121
  187MPD1    H6 2909   2.642   3.086  17.248  0.2912  0.9486  0.5691
  187MPD1    H7 2910   2.668   3.224  17.159 -0.0408 -0.6823 -0.3736
  188MPD1     C 2911   1.319   2.887  11.327  0.3281  0.5249 -1.0223
  188MPD1    C1 2912   1.226   2.947  11.240  0.2856  0.0063 -0.3830
  188MPD1    C2 2913   1.233   2.892  11.112  0.4241  0.5626 -0.6319
  188MPD1    C3 2914   1.323   2.791  11.078 -0.1363  0.0135  0.4906
  188MPD1    C4 2915   1.401   2.742  11.172 -0.0437 -0.2953 -0.5486
  188MPD1    C5 2916   1.415   2.794  11.295  0.7135 -0.1773  0.5548
  188MPD1     H 2917   1.168   2.939  11.040 -1.4022  0.2035  0.7669
  188MPD1    H1 2918   1.464   2.659  11.142 -0.2850 -0.8414  0.4407
  188MPD1    H2 2919   1.339   2.937  11.421 -0.0382 -0.2413 -0.5390
  188MPD1    H3 2920   1.488   2.763  11.369  0.5503 -0.7969  0.4567
  188MPD1     N 2921   1.331   2.731  10.951 -0.0992  0.0243 -0.3122
  188MPD1    H5 2922   1.416   2.679  10.934  1.3262  2.3162 -0.1391
  188MPD1    N1 2923   1.165   3.066  11.257  0.9560 -0.2912 -0.1187
  188MPD1    H6 2924   1.082   3.088  11.202  1.1050 -1.0926 -0.6628
  188MPD1    H7 2925   1.132   3.078  11.353 -0.6057  0.1414 -0.7006
  189MPD1     C 2926   3.451   4.101   0.413  0.4638  0.2635 -0.4272
  189MPD1    C1 2927   3.315   4.131   0.422 -0.2702 -0.1773 -0.5755
  189MPD1    C2 2928   3.269   4.229   0.337  0.5358 -0.1719  0.4501
  189MPD1    C3 2929   3.351   4.314   0.266  0.2878 -0.3666  0.9237
  189MPD1    C4 2930   3.484   4.283   0.258 -0.4217 -0.3110 -0.7426
  189MPD1    C5 2931   3.530   4.173   0.322  0.3008  0.6041  0.1792
  189MPD1     H 2932   3.162   4.247   0.337  1.0466  2.9001 -0.5258
  189MPD1    H1 2933   3.560   4.337   0.203  0.1667  0.3745  0.7343
  189MPD1    H2 2934   3.495   4.012   0.456 -0.3491 -0.6398 -1.4620
  189MPD1    H3 2935   3.636   4.154   0.310  0.3342  0.1855  1.1111
  189MPD1     N 2936   3.297   4.422   0.198 -0.3869 -0.0698  0.1100
  189MPD1    H5 2937   3.196   4.420   0.186 -0.3860 -1.2369  0.2669
  189MPD1    N1 2938   3.232   4.044   0.486  0.1021 -0.5614  0.5545
  189MPD1    H6 2939   3.137   4.071   0.513  1.0945  1.2086  2.2688
  189MPD1    H7 2940   3.277   4.012   0.571  0.3185  1.5549  1.2472
  190MPD1     C 2941   1.686   2.151  15.724  0.3933 -0.2173  0.1891
  190MPD1    C1 2942   1.731   2.193  15.848 -0.3626 -0.0626 -0.6786
  190MPD1    C2 2943   1.867   2.217  15.859 -0.2877  0.0530  0.8489
  190MPD1    C3 2944   1.954   2.169  15.764 -0.1339  0.7951  0.0959
  190MPD1    C4 2945   1.901   2.109  15.654  0.0842  0.3827 -0.0816
  190MPD1    C5 2946   1.771   2.102  15.624 -0.8258 -0.1563  0.1536
  190MPD1     H 2947   1.904   2.281  15.938  0.7956  1.6788 -0.9667
  190MPD1    H1 2948   1.964   2.083  15.570 -1.2193 -0.4705 -0.7955
  190MPD1    H2 2949   1.579   2.144  15.712  0.4078  0.0460 -0.1086
  190MPD1    H3 2950   1.725   2.074  15.530 -0.0771  2.6013 -1.0471
  190MPD1     N 2951   2.088   2.193  15.792  0.5796 -0.4356  0.0932
  190MPD1    H5 2952   2.105   2.265  15.861 -1.0688 -0.3377  0.4131
  190MPD1    N1 2953   1.636   2.254  15.930  0.3353 -0.5019  0.5190
  190MPD1    H6 2954   1.662   2.239  16.028  1.8686 -1.0452  0.0279
  190MPD1    H7 2955   1.542   2.215  15.926  0.6313 -1.1251 -0.3329
  191MPD1     C 2956   1.575   4.619  12.353  0.0032  0.7479 -0.8467
  191MPD1    C1 2957   1.710   4.645  12.363  0.0062 -0.0857 -0.4136
  191MPD1    C2 2958   1.787   4.615  12.250 -0.5010 -0.4095  0.8020
  191MPD1    C3 2959   1.735   4.583  12.128  0.6591  0.7701 -0.8548
  191MPD1    C4 2960   1.601   4.562  12.125  0.1234 -0.6739 -0.3222
  191MPD1    C5 2961   1.526   4.579  12.235 -0.4562  0.0379 -0.2203
  191MPD1     H 2962   1.894   4.626  12.237 -0.8382 -0.6193 -2.0844
  191MPD1    H1 2963   1.561   4.506  12.041  0.4449  1.4040 -1.8597
  191MPD1    H2 2964   1.505   4.628  12.435  1.5997  3.4001  0.2307
  191MPD1    H3 2965   1.419   4.571  12.227 -0.3217 -1.3443 -0.7477
  191MPD1     N 2966   1.816   4.563  12.015  0.2494 -0.0693 -0.3633
  191MPD1    H5 2967   1.917   4.558  12.027  0.1236  0.8978  1.0478
  191MPD1    N1 2968   1.767   4.670  12.491  0.0933 -0.4705  0.5940
  191MPD1    H6 2969   1.695   4.727  12.535 -0.0452 -0.2374  0.0652
  191MPD1    H7 2970   1.853   4.724  12.482 -0.1720 -0.0908  0.3366
  192MPD1     C 2971   1.512   4.375  11.085 -0.5516  0.2046 -0.6458
  192MPD1    C1 2972   1.637   4.328  11.078  0.0956 -0.4246  0.0328
  192MPD1    C2 2973   1.717   4.358  11.191 -0.2562  0.3022  0.0787
  192MPD1    C3 2974   1.669   4.409  11.311  0.5364  1.2124 -0.7061
  192MPD1    C4 2975   1.539   4.466  11.302 -0.6642 -0.2046  0.3919
  192MPD1    C5 2976   1.464   4.448  11.192 -0.5719 -0.2309  0.1452
  192MPD1     H 2977   1.816   4.312  11.196 -1.2405 -1.6815  1.3301
  192MPD1    H1 2978   1.486   4.497  11.392 -0.6445 -0.0138  0.3379
  192MPD1    H2 2979   1.438   4.354  11.008 -0.7002  1.9306 -0.9585
  192MPD1    H3 2980   1.359   4.475  11.197 -0.8412 -1.4130  0.8688
  192MPD1     N 2981   1.740   4.428  11.430  0.0458 -0.4086  0.3169
  192MPD1    H5 2982   1.688   4.470  11.507  1.4977  1.6069  0.1998
  192MPD1    N1 2983   1.689   4.273  10.962 -0.0392  0.0526  0.0173
  192MPD1    H6 2984   1.747   4.192  10.981 -0.6319 -0.0590  1.3047
  192MPD1    H7 2985   1.622   4.251  10.888  0.9165  1.7692 -1.3585
  193MPD1     C 2986   1.536   4.453  16.255  0.0638  0.0111  0.3387
  193MPD1    C1 2987   1.481   4.566  16.315 -0.1922 -0.2392 -0.4034
  193MPD1    C2 2988   1.576   4.654  16.370  0.8385  0.8630  0.0873
  193MPD1    C3 2989   1.715   4.636  16.361 -0.1938  0.2492 -0.3722
  193MPD1    C4 2990   1.756   4.523  16.289  0.3679 -0.9065  0.1172
  193MPD1    C5 2991   1.668   4.431  16.244  0.3257 -0.0164 -0.5424
  193MPD1     H 2992   1.542   0.011  16.413 -0.3668  0.4075  0.1142
  193MPD1    H1 2993   1.862   4.505  16.277  0.4628  0.0722 -0.5432
  193MPD1    H2 2994   1.473   4.386  16.198 -2.1765  0.1819  2.6188
  193MPD1    H3 2995   1.686   4.339  16.191  1.5167 -1.5959  2.6444
  193MPD1     N 2996   1.811   4.733  16.395 -0.0851 -0.8448 -0.4242
  193MPD1    H5 2997   1.907   4.708  16.372 -0.3920 -2.5455  0.1132
  193MPD1    N1 2998   1.343   4.579  16.336  0.0173 -0.1268  0.7315
  193MPD1    H6 2999   1.281   4.528  16.274  1.0587  0.9915 -1.2218
  193MPD1    H7 3000   1.314   4.676  16.347 -1.6929 -0.5482 -0.0621
  194MPD1     C 3001   4.643   2.335  17.325  0.1333  0.2395 -0.4984
  194MPD1    C1 3002   0.008   2.350  17.427  0.9543 -0.3085  0.2918
  194MPD1    C2 3003   0.076   2.234  17.464  0.0915  1.4299 -0.1800
  194MPD1    C3 3004   0.053   2.114  17.394 -0.4044 -0.5280 -0.0002
  194MPD1    C4 3005   4.688   2.107  17.297  0.4496 -0.2862 -0.1495
  194MPD1    C5 3006   4.612   2.219  17.261 -0.2135 -0.7477 -0.4689
  194MPD1     H 3007   0.142   2.245  17.549 -0.7838  0.3212  0.6465
  194MPD1    H1 3008   4.665   2.010  17.256 -1.4179 -0.8087  2.1220
  194MPD1    H2 3009   4.569   2.410  17.300  0.3208  0.6645  0.2302
  194MPD1    H3 3010   4.532   2.220  17.188 -0.0907 -0.3596 -0.5950
  194MPD1     N 3011   0.121   1.996  17.424  0.2594 -0.0541  0.0960
  194MPD1    H5 3012   0.122   1.915  17.362 -2.2893 -1.5780  2.0577
  194MPD1    N1 3013   0.014   2.468  17.508  0.4197 -0.0112  0.4914
  194MPD1    H6 3014   0.002   2.550  17.450  1.1379 -1.1286 -1.2486
  194MPD1    H7 3015   0.100   2.481  17.560  0.3384 -0.8130  0.8290
  195MPD1     C 3016   1.187   3.970   0.600  0.7544  0.3770  0.3554
  195MPD1    C1 3017   1.307   3.899   0.608 -0.2011  0.0855 -0.6876
  195MPD1    C2 3018   1.299   3.763   0.571  0.0555 -0.1476  0.0023
  195MPD1    C3 3019   1.188   3.705   0.505  0.5372  0.0318 -0.4923
  195MPD1    C4 3020   1.068   3.779   0.499  0.3433  0.7214 -0.7699
  195MPD1    C5 3021   1.072   3.907   0.555  1.2554  0.0978 -0.4386
  195MPD1     H 3022   1.395   3.715   0.577 -0.8138 -1.8369  0.3349
  195MPD1    H1 3023   0.970   3.743   0.468  0.5523 -1.2723  0.9258
  195MPD1    H2 3024   1.180   4.072   0.636 -1.7288  0.8625 -1.5107
  195MPD1    H3 3025   0.980   3.965   0.560  1.9689  1.2195 -0.5575
  195MPD1     N 3026   1.191   3.572   0.447  0.9118  0.8104  0.5094
  195MPD1    H5 3027   1.105   3.546   0.400  1.1044  0.5071  0.3263
  195MPD1    N1 3028   1.412   3.952   0.676 -0.2310 -0.3812 -0.1874
  195MPD1    H6 3029   1.396   4.052   0.678  0.7071 -0.2484  0.8952
  195MPD1    H7 3030   1.422   3.926   0.774 -0.1497 -1.2803 -0.4325
  196MPD1     C 3031   0.214   2.369   0.104  0.4663  0.0111 -0.2310
  196MPD1    C1 3032   0.347   2.345   0.103 -0.1465 -0.0326 -0.2334
  196MPD1    C2 3033   0.427   2.424   0.193  0.5367  0.2173  0.3426
  196MPD1    C3 3034   0.365   2.507   0.286 -0.2774 -0.6217  0.1464
  196MPD1    C4 3035   0.227   2.512   0.293 -0.0601 -0.4309  0.1668
  196MPD1    C5 3036   0.158   2.437   0.206 -0.1019 -0.6519  0.5932
  196MPD1     H 3037   0.535   2.423   0.195  0.5440  5.3354  2.3561
  196MPD1    H1 3038   0.170   2.582   0.353  0.8151  0.1859  0.2867
  196MPD1    H2 3039   0.148   2.314   0.037 -1.6819  2.0700  0.1779
  196MPD1    H3 3040   0.050   2.445   0.208 -0.0008  1.0082 -0.6529
  196MPD1     N 3041   0.432   2.580   0.390  0.2657  0.0576  0.7537
  196MPD1    H5 3042   0.373   2.629   0.457 -1.8222 -0.8401 -0.4220
  196MPD1    N1 3043   0.405   2.285  17.730 -0.2073  0.5787 -0.3008
  196MPD1    H6 3044   0.506   2.270  17.739 -0.4754 -1.4712 -0.6977
  196MPD1    H7 3045   0.352   2.199  17.719  0.5267 -0.0144  0.8086
  197MPD1     C 3046   0.510   1.456  17.455 -1.0462 -0.4886  0.0031
  197MPD1    C1 3047   0.490   1.319  17.475 -0.5948 -0.1642 -0.1755
  197MPD1    C2 3048   0.406   1.250  17.387 -0.3526  0.1631  0.4849
  197MPD1    C3 3049   0.343   1.329  17.284 -0.3090 -0.6283 -0.3558
  197MPD1    C4 3050   0.364   1.463  17.276 -0.1447  0.2258 -0.1388
  197MPD1    C5 3051   0.446   1.524  17.364 -0.0175  0.4487  0.2018
  197MPD1     H 3052   0.406   1.142  17.399 -0.4316  0.1005 -0.0623
  197MPD1    H1 3053   0.318   1.523  17.198  1.8550  1.3425 -0.4317
  197MPD1    H2 3054   0.564   1.518  17.526 -0.4954  1.6399 -2.2792
  197MPD1    H3 3055   0.455   1.631  17.350  0.1075  0.3365 -0.5800
  197MPD1     N 3056   0.273   1.271  17.180  1.0674 -0.3067 -0.5234
  197MPD1    H5 3057   0.241   1.325  17.100  0.7848  1.3548  0.7003
  197MPD1    N1 3058   0.574   1.248  17.560  0.5799  0.1577 -0.1140
  197MPD1    H6 3059   0.535   1.158  17.588  1.2394  0.3773  1.5281
  197MPD1    H7 3060   0.590   1.303  17.644 -1.0266 -0.5254  0.6431
  198MPD1     C 3061   1.918   3.450  15.171  0.3286  0.1746 -0.3178
  198MPD1    C1 3062   2.025   3.478  15.092 -0.0556 -0.3322 -0.3934
  198MPD1    C2 3063   2.145   3.504  15.155 -0.5404  0.1935  0.4201
  198MPD1    C3 3064   2.151   3.525  15.291 -0.2653 -0.0203 -0.9355
  198MPD1    C4 3065   2.049   3.473  15.365  0.3178 -0.0257  0.3465
  198MPD1    C5 3066   1.935   3.435  15.305 -0.5633  0.0421 -0.1567
  198MPD1     H 3067   2.229   3.525  15.089 -1.6286  1.0296 -0.6838
  198MPD1    H1 3068   2.054   3.464  15.473 -1.0410 -0.2702  0.3922
  198MPD1    H2 3069   1.829   3.417  15.117  1.2981 -1.9880 -0.5953
  198MPD1    H3 3070   1.853   3.389  15.359 -0.4584  0.7787  0.6350
  198MPD1     N 3071   2.269   3.579  15.350 -0.0427 -0.4815 -0.1262
  198MPD1    H5 3072   2.341   3.607  15.283 -0.0659 -3.5854 -1.4480
  198MPD1    N1 3073   2.024   3.447  14.953 -0.1162  0.3195 -0.2150
  198MPD1    H6 3074   1.939   3.489  14.916 -0.5186  1.2729  1.8414
  198MPD1    H7 3075   2.104   3.496  14.914  2.0491 -1.4794  1.9755
  199MPD1     C 3076   2.988   4.286  10.205  0.3371  0.5263 -0.3643
  199MPD1    C1 3077   2.865   4.242  10.184 -0.6637 -0.6087  0.0210
  199MPD1    C2 3078   2.850   4.144  10.090 -0.3209 -0.4160 -0.1962
  199MPD1    C3 3079   2.954   4.111  10.000  0.4868  0.7800  0.2383
  199MPD1    C4 3080   3.070   4.174  10.016 -0.5427  0.3975 -0.6132
  199MPD1    C5 3081   3.093   4.259  10.118 -0.0396  0.1954 -0.9397
  199MPD1     H 3082   2.751   4.101  10.078 -0.2477 -1.2456  2.2450
  199MPD1    H1 3083   3.144   4.175   9.937 -0.6827  0.4002 -0.7453
  199MPD1    H2 3084   3.008   4.365  10.276 -0.3026  1.7573 -1.5554
  199MPD1    H3 3085   3.179   4.324  10.126 -0.4553  0.4639  1.2923
  199MPD1     N 3086   2.938   4.026   9.889  0.1191 -0.2967  0.0801
  199MPD1    H5 3087   3.015   4.004   9.828 -1.3360 -2.6332 -0.8834
  199MPD1    N1 3088   2.763   4.250  10.284 -0.0760 -0.1122 -1.1158
  199MPD1    H6 3089   2.676   4.240  10.232 -0.6012 -0.5997 -0.1365
  199MPD1    H7 3090   2.762   4.345  10.319  0.7135 -1.2644  1.9980
  200MPD1     C 3091   3.547   4.664  15.501 -0.5097 -1.0700 -0.5567
  200MPD1    C1 3092   3.485   4.555  15.428  0.5818 -0.6275 -0.0766
  200MPD1    C2 3093   3.449   4.590  15.296 -0.8069 -0.4343 -0.5204
  200MPD1    C3 3094   3.500   4.704  15.234 -0.6770  0.3436 -0.3605
  200MPD1    C4 3095   3.574   0.062  15.300  0.7543 -0.4963  0.3456
  200MPD1    C5 3096   3.596   0.037  15.434  0.1046 -0.3344 -0.8098
  200MPD1     H 3097   3.391   4.524  15.232 -0.6494 -0.2235 -0.8858
  200MPD1    H1 3098   3.608   0.158  15.265 -0.7194 -0.8870 -2.0987
  200MPD1    H2 3099   3.565   4.645  15.606 -1.3156  1.8445  0.1028
  200MPD1    H3 3100   3.650   0.111  15.493 -3.4390  1.6846 -0.0706
  200MPD1     N 3101   3.474   4.731  15.095  0.3496 -0.3737  0.5015
  200MPD1    H5 3102   3.413   4.665  15.047  0.6887 -1.1449  1.1273
  200MPD1    N1 3103   3.431   4.455  15.507  0.1483 -0.3165 -0.2672
  200MPD1    H6 3104   3.425   4.364  15.462 -0.7881 -1.5663  2.4107
  200MPD1    H7 3105   3.493   4.446  15.587 -1.3471 -0.2572  0.9030
  201MPD1     C 3106   0.691   3.845  13.153  0.0369 -0.3548 -0.0755
  201MPD1    C1 3107   0.751   3.746  13.071 -0.2535 -0.5102  1.0811
  201MPD1    C2 3108   0.866   3.678  13.122  0.1348 -0.1573  0.1805
  201MPD1    C3 3109   0.923   3.728  13.239  0.6436  0.3978  0.3752
  201MPD1    C4 3110   0.869   3.826  13.310  0.3156  0.3712 -0.2529
  201MPD1    C5 3111   0.761   3.885  13.264  0.0150 -0.0694  0.2083
  201MPD1     H 3112   0.916   3.598  13.069  2.8569  0.9023  1.1972
  201MPD1    H1 3113   0.893   3.846  13.413 -2.5536  2.3549  0.0241
  201MPD1    H2 3114   0.601   3.901  13.128 -0.4170  0.2232  2.8710
  201MPD1    H3 3115   0.720   3.963  13.327  2.4684  0.6600  0.8873
  201MPD1     N 3116   1.043   3.668  13.271 -0.2237 -0.0806  0.4492
  201MPD1    H5 3117   1.088   3.597  13.213  0.1136  0.3108  0.2352
  201MPD1    N1 3118   0.680   3.694  12.958 -0.2001  0.1627  0.5590
  201MPD1    H6 3119   0.752   3.647  12.904  0.6661 -0.0576  1.8957
  201MPD1    H7 3120   0.637   3.771  12.907  1.3790  0.2322 -0.6436
  202MPD1     C 3121   4.461   2.661   9.102 -0.0789 -0.5266 -0.2393
  202MPD1    C1 3122   4.518   2.544   9.145 -0.6631 -0.5944  0.5824
  202MPD1    C2 3123   4.604   2.564   9.253  0.6165 -0.2545 -0.6671
  202MPD1    C3 3124   4.647   2.693   9.294  0.0726  0.3592  0.1399
  202MPD1    C4 3125   4.606   2.804   9.219  0.3325 -0.4752 -0.2141
  202MPD1    C5 3126   4.509   2.789   9.131  0.7214 -0.2812 -0.0610
  202MPD1     H 3127   4.612   2.475   9.315 -0.5253  0.3713  0.3818
  202MPD1    H1 3128   4.632   2.905   9.250  1.5551 -0.7456 -0.3733
  202MPD1    H2 3129   4.363   2.651   9.058 -1.2521 -1.5431  2.5931
  202MPD1    H3 3130   4.473   2.879   9.082 -0.9991  0.6207  2.8395
  202MPD1     N 3131   4.734   2.719   9.398 -0.3494 -0.6134 -0.3607
  202MPD1    H5 3132   0.030   2.813   9.421  0.0756 -0.2335 -2.4895
  202MPD1    N1 3133   4.434   2.426   9.142  0.3633 -0.5541 -0.6234
  202MPD1    H6 3134   4.395   2.415   9.049  3.1053  1.5159 -2.0152
  202MPD1    H7 3135   4.482   2.339   9.164  0.1281 -0.9379 -1.6070
  203MPD1     C 3136   4.015   4.363  12.041  0.7610  0.0496 -0.4630
  203MPD1    C1 3137   3.963   4.237  12.013 -0.1288 -0.2898  0.5610
  203MPD1    C2 3138   4.040   4.128  12.058  0.2719  0.3405  0.4962
  203MPD1    C3 3139   4.168   4.135  12.112 -0.4771 -0.3641  0.0952
  203MPD1    C4 3140   4.227   4.262  12.126 -0.1845  0.3343  1.5252
  203MPD1    C5 3141   4.142   4.370  12.095 -0.0949 -0.1414 -0.4424
  203MPD1     H 3142   3.989   4.034  12.040 -0.7176  0.9969 -0.1786
  203MPD1    H1 3143   4.326   4.281  12.166  0.0949 -0.4758  1.2253
  203MPD1    H2 3144   3.957   4.449  12.010  1.1491  0.4193 -0.1725
  203MPD1    H3 3145   4.180   4.471  12.110  0.3822 -0.1633 -1.4826
  203MPD1     N 3146   4.233   4.012  12.133  0.1364  0.0078  0.8540
  203MPD1    H5 3147   4.188   3.925  12.107  0.8741  0.0543 -0.6066
  203MPD1    N1 3148   3.841   4.226  11.950 -0.2439 -0.0323 -0.8266
  203MPD1    H6 3149   3.839   4.152  11.881 -1.3834 -1.1608  0.4010
  203MPD1    H7 3150   3.828   4.311  11.896 -0.0373  1.1958  1.0334
  204MPD1     C 3151   4.102   0.899   0.205  0.5244  0.0686  0.3303
  204MPD1    C1 3152   4.128   0.866   0.073 -0.6465  0.3425 -0.4261
  204MPD1    C2 3153   4.131   0.731   0.034 -0.5136  0.9834  0.5269
  204MPD1    C3 3154   4.089   0.627   0.118 -0.2549  0.3566 -0.3597
  204MPD1    C4 3155   4.070   0.665   0.250  0.0830 -0.0115 -0.6469
  204MPD1    C5 3156   4.067   0.792   0.291 -0.2626 -0.5790  0.9321
  204MPD1     H 3157   4.141   0.700  17.674 -2.1529 -2.2804  1.3249
  204MPD1    H1 3158   4.029   0.597   0.323  1.6568  0.1073  0.3507
  204MPD1    H2 3159   4.109   1.001   0.241  2.4800  0.3002 -0.6659
  204MPD1    H3 3160   4.051   0.818   0.395 -2.0755  0.3509  0.4176
  204MPD1     N 3161   4.085   0.496   0.070 -0.6693  0.5941 -0.4984
  204MPD1    H5 3162   4.105   0.486  17.715 -2.0948  2.2588 -0.9645
  204MPD1    N1 3163   4.167   0.969  17.726  0.2928  0.0706  0.3174
  204MPD1    H6 3164   4.148   1.063   0.015  1.3197  0.0023  1.1017
  204MPD1    H7 3165   4.114   0.959  17.640  1.7361 -2.2273 -0.3133
  205MPD1     C 3166   3.967   3.655   0.985  0.1591  0.0224 -0.4255
  205MPD1    C1 3167   4.007   3.581   0.878  0.1020  0.6538 -0.0852
  205MPD1    C2 3168   3.977   3.625   0.752  1.1380 -0.4383  0.1368
  205MPD1    C3 3169   3.926   3.754   0.726 -0.8829  0.2890 -0.2082
  205MPD1    C4 3170   3.891   3.830   0.837 -0.4941 -1.2749 -0.6500
  205MPD1    C5 3171   3.908   3.781   0.970  0.1826  0.0327  0.8393
  205MPD1     H 3172   3.997   3.561   0.667  0.0442 -0.5032 -0.0729
  205MPD1    H1 3173   3.839   3.924   0.830 -1.7638 -2.0871 -2.0249
  205MPD1    H2 3174   3.986   3.622   1.086 -1.6968  2.2655  0.6551
  205MPD1    H3 3175   3.884   3.844   1.055  0.8400  0.8520  0.4177
  205MPD1     N 3176   3.900   3.807   0.603  0.0468  0.2688  0.6033
  205MPD1    H5 3177   3.878   3.905   0.596 -0.8704 -0.1195 -1.9162
  205MPD1    N1 3178   4.053   3.448   0.891 -0.2023  0.0157 -0.0931
  205MPD1    H6 3179   4.085   3.412   0.802  0.2351 -1.3942  0.6420
  205MPD1    H7 3180   4.125   3.433   0.962 -1.9673  0.1906  1.7159
  206MPD1     C 3181   3.472   2.598  16.835  0.1425 -0.3745  0.1548
  206MPD1    C1 3182   3.385   2.527  16.759  0.1883 -0.0964 -0.5526
  206MPD1    C2 3183   3.439   2.479  16.640 -0.5345  0.3624 -0.0825
  206MPD1    C3 3184   3.562   2.519  16.588  0.9168  0.2963  0.8033
  206MPD1    C4 3185   3.637   2.610  16.657  0.7439 -0.5439  0.3359
  206MPD1    C5 3186   3.593   2.647  16.785  0.1681 -0.1153  0.5617
  206MPD1     H 3187   3.380   2.403  16.589  1.2719 -0.2877 -1.2093
  206MPD1    H1 3188   3.732   2.645  16.617  1.0713 -1.8378 -0.0298
  206MPD1    H2 3189   3.437   2.636  16.930  0.1268 -0.6513  0.2593
  206MPD1    H3 3190   3.649   2.725  16.836  3.0140 -2.1080  0.5078
  206MPD1     N 3191   3.619   2.455  16.472 -0.0635 -0.3583  0.2215
  206MPD1    H5 3192   3.704   2.498  16.436 -1.7858 -0.2423 -3.7341
  206MPD1    N1 3193   3.264   2.476  16.814  0.4519 -0.1616  0.0500
  206MPD1    H6 3194   3.197   2.470  16.737  0.1772  2.2203  0.1118
  206MPD1    H7 3195   3.235   2.548  16.880 -2.1081  1.5947 -2.9946
  207MPD1     C 3196   1.945   3.406   9.219  0.0681 -0.0365 -0.8225
  207MPD1    C1 3197   2.047   3.488   9.199  0.1340  0.0315  0.0509
  207MPD1    C2 3198   2.087   3.562   9.307 -0.4339 -0.4571 -0.4859
  207MPD1    C3 3199   2.029   3.558   9.431  0.0772  0.0390 -0.0747
  207MPD1    C4 3200   1.930   3.469   9.452  0.2833  0.2326  0.1317
  207MPD1    C5 3201   1.896   3.389   9.345 -0.0415  0.4103  0.1338
  207MPD1     H 3202   2.169   3.632   9.298  1.1994 -2.2565  0.4591
  207MPD1    H1 3203   1.882   3.455   9.548  1.2831  0.4946  0.6686
  207MPD1    H2 3204   1.897   3.341   9.147  1.1529 -1.7266 -0.0094
  207MPD1    H3 3205   1.808   3.328   9.364  0.9105 -1.0043 -0.0597
  207MPD1     N 3206   2.066   3.639   9.541 -0.3608  0.0578 -0.2867
  207MPD1    H5 3207   2.003   3.625   9.620 -0.0498  1.0392  0.1285
  207MPD1    N1 3208   2.099   3.506   9.070 -0.2761  0.2192  0.0771
  207MPD1    H6 3209   2.191   3.550   9.069  0.4670 -1.3644 -2.8424
  207MPD1    H7 3210   2.109   3.421   9.014  1.9638  1.2330 -1.0857
  208MPD1     C 3211   3.261   2.574  17.203 -0.6023  0.0988 -1.0531
  208MPD1    C1 3212   3.325   2.583  17.327 -0.2606  0.1364 -0.6110
  208MPD1    C2 3213   3.266   2.666  17.428  0.7368 -0.8098 -0.6997
  208MPD1    C3 3214   3.144   2.734  17.409  0.5018  0.3059  0.6265
  208MPD1    C4 3215   3.076   2.710  17.290 -0.0976 -0.2734  1.0305
  208MPD1    C5 3216   3.141   2.645  17.189  0.2626  0.1629  0.7354
  208MPD1     H 3217   3.333   2.693  17.510  0.1379 -2.3588  0.3053
  208MPD1    H1 3218   2.990   2.771  17.261 -0.0327 -2.4486 -3.7555
  208MPD1    H2 3219   3.303   2.516  17.122 -0.0410 -0.4775 -0.3412
  208MPD1    H3 3220   3.095   2.638  17.091  3.5098 -0.1549 -0.7789
  208MPD1     N 3221   3.099   2.824  17.514  0.1655  0.3524 -0.7386
  208MPD1    H5 3222   3.152   2.810  17.599 -0.7375  1.2500 -0.0334
  208MPD1    N1 3223   3.452   2.535  17.344 -0.1404  0.0231 -0.2265
  208MPD1    H6 3224   3.482   2.517  17.439  0.0526 -0.6143 -0.4074
  208MPD1    H7 3225   3.467   2.453  17.286  0.0241  0.2755 -0.5396
  209MPD1     C 3226   0.984   3.599  11.057 -0.0891 -0.2959  0.1191
  209MPD1    C1 3227   1.102   3.646  11.108  0.0736 -0.1404  0.1935
  209MPD1    C2 3228   1.208   3.666  11.022  0.0185  0.4235  0.0595
  209MPD1    C3 3229   1.184   3.665  10.887  0.6918  0.2618  0.2024
  209MPD1    C4 3230   1.056   3.639  10.837 -0.2591  0.0490  0.1834
  209MPD1    C5 3231   0.956   3.617  10.928  0.1604  0.5418  0.5205
  209MPD1     H 3232   1.302   3.698  11.066 -1.9721  3.5156  2.0963
  209MPD1    H1 3233   1.024   3.652  10.734  1.0903  0.8139 -0.1411
  209MPD1    H2 3234   0.901   3.567  11.120  1.5603 -0.5603  2.1385
  209MPD1    H3 3235   0.867   3.576  10.881  0.9757 -1.4618  0.7285
  209MPD1     N 3236   1.299   3.697  10.811 -0.0580  0.6241  1.0056
  209MPD1    H5 3237   1.382   3.703  10.868  0.4667  0.2173  0.2925
  209MPD1    N1 3238   1.130   3.662  11.246  0.5108 -0.3284  0.1454
  209MPD1    H6 3239   1.183   3.748  11.259 -1.5797  1.0015 -0.2055
  209MPD1    H7 3240   1.042   3.671  11.297 -0.0282 -0.1136 -0.8369
  210MPD1     C 3241   2.038   3.266  10.922  0.0655 -0.4915  0.2537
  210MPD1    C1 3242   2.054   3.302  10.792 -0.7299  0.6621  0.7124
  210MPD1    C2 3243   1.945   3.366  10.735  0.4107  0.1695 -0.3799
  210MPD1    C3 3244   1.850   3.425  10.823  0.4783  0.9603  0.4097
  210MPD1    C4 3245   1.836   3.384  10.947  0.0059  0.5020  0.4442
  210MPD1    C5 3246   1.927   3.298  11.001 -1.0468 -0.5182 -0.3137
  210MPD1     H 3247   1.948   3.395  10.631 -0.0631  1.4973 -0.0281
  210MPD1    H1 3248   1.760   3.427  11.011  0.9174  0.1729  1.7563
  210MPD1    H2 3249   2.111   3.201  10.968  0.4088 -0.4242 -0.1976
  210MPD1    H3 3250   1.925   3.261  11.103  0.3809 -3.2520 -1.2799
  210MPD1     N 3251   1.749   3.519  10.778  0.1999  0.0731  0.4630
  210MPD1    H5 3252   1.676   3.542  10.845 -0.0045  2.6823 -0.6452
  210MPD1    N1 3253   2.158   3.244  10.717 -0.7462  0.6155 -0.0828
  210MPD1    H6 3254   2.181   3.292  10.630 -1.9224 -1.1824 -1.3897
  210MPD1    H7 3255   2.250   3.233  10.758 -1.8728 -0.9796  2.0209
  211MPD1     C 3256   0.097   4.334  15.607  0.6458  0.4796 -0.4820
  211MPD1    C1 3257   4.713   4.279  15.568 -0.8038 -0.9703 -0.1149
  211MPD1    C2 3258   4.633   4.232  15.669 -0.1246 -0.0182  0.4341
  211MPD1    C3 3259   4.639   4.279  15.798  0.5446 -0.4780 -0.0290
  211MPD1    C4 3260   0.018   4.341  15.837  0.0299  0.3009  0.1769
  211MPD1    C5 3261   0.109   4.375  15.744 -0.6124  0.5096 -0.3693
  211MPD1     H 3262   4.548   4.169  15.646 -1.5747  2.4822 -1.0703
  211MPD1    H1 3263   0.036   4.370  15.940  1.1125  0.5800 -0.0879
  211MPD1    H2 3264   0.178   4.367  15.543  0.4277  0.5952 -0.6967
  211MPD1    H3 3265   0.203   4.425  15.765 -0.8795 -0.6430  3.4830
  211MPD1     N 3266   4.533   4.253  15.885 -0.1047  0.0785  0.2678
  211MPD1    H5 3267   4.455   4.203  15.844 -0.4184  1.8971 -1.3442
  211MPD1    N1 3268   4.698   4.235  15.441  0.4365  0.1330 -0.4047
  211MPD1    H6 3269   4.602   4.219  15.411 -0.2677 -0.4370  2.1187
  211MPD1    H7 3270   0.007   4.291  15.370  2.5149  0.2028  0.9617
  212MPD1     C 3271   3.877   2.473  17.126 -0.2328  0.5003  0.1226
  212MPD1    C1 3272   3.920   2.350  17.175 -0.0215 -0.3397 -0.4256
  212MPD1    C2 3273   3.841   2.233  17.157  0.3175  0.5896 -0.1820
  212MPD1    C3 3274   3.716   2.248  17.092  0.3776 -0.3500 -0.2839
  212MPD1    C4 3275   3.681   2.371  17.046 -0.2627 -0.2547 -0.5842
  212MPD1    C5 3276   3.762   2.478  17.056 -0.9788  0.0302 -0.3070
  212MPD1     H 3277   3.877   2.134  17.183  0.8387  1.0223  0.6908
  212MPD1    H1 3278   3.596   2.376  16.978 -0.3869  0.3204 -0.3831
  212MPD1    H2 3279   3.937   2.563  17.120  0.5645  0.2568  4.5510
  212MPD1    H3 3280   3.725   2.564  17.002  3.7691  1.7057 -0.8682
  212MPD1     N 3281   3.623   2.140  17.077 -0.6315 -0.1317  0.2594
  212MPD1    H5 3282   3.532   2.164  17.037  0.9132  1.9045 -2.0885
  212MPD1    N1 3283   4.046   2.353  17.234  0.1213  0.7611  0.0178
  212MPD1    H6 3284   4.105   2.420  17.185  0.7850  1.4874  1.8382
  212MPD1    H7 3285   4.098   2.265  17.235  0.8116  1.2249  2.9990
  213MPD1     C 3286   1.764   2.842  15.699 -0.3601  0.5968  0.0742
  213MPD1    C1 3287   1.651   2.789  15.648 -0.7332  0.0496 -0.3721
  213MPD1    C2 3288   1.605   2.839  15.531  0.0022 -0.3346  0.4068
  213MPD1    C3 3289   1.638   2.959  15.487 -0.1102 -0.2705 -0.6294
  213MPD1    C4 3290   1.723   3.028  15.568  0.2599  0.5445  0.9508
  213MPD1    C5 3291   1.794   2.968  15.665  0.2315 -0.1117 -0.1801
  213MPD1     H 3292   1.535   2.786  15.467  1.6070 -0.7178 -1.0546
  213MPD1    H1 3293   1.768   3.122  15.539 -0.6444  1.3148  1.9997
  213MPD1    H2 3294   1.821   2.803  15.782  1.4359  1.8126 -0.6083
  213MPD1    H3 3295   1.878   3.014  15.716  1.4902  0.3858 -2.6832
  213MPD1     N 3296   1.587   3.002  15.367  0.2435 -0.5573 -0.8076
  213MPD1    H5 3297   1.529   2.928  15.330 -0.5563  0.7695 -2.2165
  213MPD1    N1 3298   1.621   2.651  15.672 -0.4665  0.1412  0.8079
  213MPD1    H6 3299   1.531   2.617  15.638 -0.6826  2.1966 -0.6585
  213MPD1    H7 3300   1.630   2.622  15.769  0.8569  2.1151  1.2679
  214MPD1     C 3301   1.430   2.718  14.511  0.5119 -0.0678  0.2197
  214MPD1    C1 3302   1.333   2.674  14.603 -0.2053 -0.0237  0.2040
  214MPD1    C2 3303   1.318   2.757  14.715  0.1052  0.4621 -0.1922
  214MPD1    C3 3304   1.385   2.881  14.718 -0.3215  0.0291  0.4818
  214MPD1    C4 3305   1.474   2.918  14.618 -0.2697 -0.2974  0.3408
  214MPD1    C5 3306   1.501   2.828  14.521  0.2531 -0.1163  0.8851
  214MPD1     H 3307   1.270   2.718  14.804  3.7122  0.1500  1.6340
  214MPD1    H1 3308   1.532   3.009  14.622  1.5633 -1.3960 -1.5060
  214MPD1    H2 3309   1.457   2.644  14.436  1.2574 -0.0556  0.4840
  214MPD1    H3 3310   1.568   2.862  14.442  0.4629 -0.7847  0.7742
  214MPD1     N 3311   1.369   2.983  14.817  0.7985 -0.4574 -0.0578
  214MPD1    H5 3312   1.420   3.071  14.810 -1.2875  0.7759  0.2279
  214MPD1    N1 3313   1.280   2.548  14.596  0.2335 -0.2248 -0.4050
  214MPD1    H6 3314   1.257   2.526  14.500 -1.0349 -1.5860  0.1977
  214MPD1    H7 3315   1.198   2.534  14.655 -0.2209  2.6670 -0.3571
  215MPD1     C 3316   0.514   3.955  10.568 -0.5254  0.0260 -0.1563
  215MPD1    C1 3317   0.611   4.008  10.484 -0.0038  0.0250 -0.1786
  215MPD1    C2 3318   0.739   4.020  10.541  0.5609 -0.1889 -0.3872
  215MPD1    C3 3319   0.765   4.009  10.675  0.1541 -0.3553  0.1856
  215MPD1    C4 3320   0.658   3.985  10.757 -0.5546 -0.3307 -0.6139
  215MPD1    C5 3321   0.540   3.939  10.698  0.5576  1.1601  0.2943
  215MPD1     H 3322   0.810   4.046  10.463  0.5830  0.7140 -0.0585
  215MPD1    H1 3323   0.655   3.972  10.864  0.3610  1.4532 -0.3790
  215MPD1    H2 3324   0.414   3.928  10.534 -0.4476 -0.5840  0.1001
  215MPD1    H3 3325   0.462   3.909  10.767  0.4675  1.4054  0.2992
  215MPD1     N 3326   0.897   4.020  10.725 -0.4800  0.4423 -0.2001
  215MPD1    H5 3327   0.970   4.046  10.660  0.9008 -1.4883  0.5583
  215MPD1    N1 3328   0.603   3.992  10.340  0.5201  0.0005 -0.1555
  215MPD1    H6 3329   0.672   4.050  10.294 -0.5150  0.5743 -0.9825
  215MPD1    H7 3330   0.508   4.022  10.319  0.1187 -0.6209  0.7565
  216MPD1     C 3331   4.588   2.142  17.697  0.4966  0.7309  0.0794
  216MPD1    C1 3332   4.609   2.057   0.059 -0.0314 -0.2792  0.1046
  216MPD1    C2 3333   4.508   1.969   0.093  0.4892 -0.3951  1.3839
  216MPD1    C3 3334   4.390   1.970   0.029  0.3588 -0.0057  0.7280
  216MPD1    C4 3335   4.374   2.047  17.652  0.2871  0.2874 -0.1906
  216MPD1    C5 3336   4.478   2.127  17.618  0.2851  0.5796 -0.3917
  216MPD1     H 3337   4.524   1.905   0.179  2.9063 -0.4440  0.9040
  216MPD1    H1 3338   4.283   2.062  17.595 -1.5945 -1.3691  2.3477
  216MPD1    H2 3339   4.666   2.215  17.679  1.1772 -0.2502 -0.8971
  216MPD1    H3 3340   4.458   2.197  17.538  1.5060  0.6237 -0.6519
  216MPD1     N 3341   4.290   1.880   0.071 -0.6910  0.3613  0.2195
  216MPD1    H5 3342   4.314   1.816   0.146 -0.7261 -0.1699 -0.2247
  216MPD1    N1 3343   4.723   2.061   0.141 -0.4233 -0.0610 -0.4601
  216MPD1    H6 3344   0.068   2.087   0.086 -0.1442 -3.1910 -1.5223
  216MPD1    H7 3345   0.018   1.974   0.184 -0.5236 -0.4259 -1.1350
  217MPD1     C 3346   3.023   2.191   8.719 -0.5096  1.0225 -0.1757
  217MPD1    C1 3347   2.964   2.314   8.738  0.1347 -0.7662 -1.4104
  217MPD1    C2 3348   3.042   2.427   8.765 -0.1617 -0.0401  0.1342
  217MPD1    C3 3349   3.181   2.423   8.763  0.5403  0.0976 -0.0252
  217MPD1    C4 3350   3.232   2.296   8.733  0.0573 -0.2970  0.3688
  217MPD1    C5 3351   3.155   2.189   8.704  0.0211 -0.9100  0.0443
  217MPD1     H 3352   2.986   2.519   8.776  1.0692  0.6823  0.4551
  217MPD1    H1 3353   3.339   2.288   8.726 -0.0739 -1.9491  0.1985
  217MPD1    H2 3354   2.971   2.096   8.723  1.4194 -0.0703 -0.7907
  217MPD1    H3 3355   3.203   2.095   8.679 -1.5332 -1.9256  0.8553
  217MPD1     N 3356   3.271   2.532   8.797  0.3546  0.1546 -0.1623
  217MPD1    H5 3357   3.369   2.517   8.776  0.7991  2.0628  0.5240
  217MPD1    N1 3358   2.828   2.314   8.758 -1.3259  0.4288  0.1533
  217MPD1    H6 3359   2.789   2.402   8.724  0.1144  0.6266 -0.9930
  217MPD1    H7 3360   2.792   2.248   8.689 -0.3492 -0.7788  0.7990
  218MPD1     C 3361   1.475   4.251  11.851 -0.8131 -0.1796 -0.4435
  218MPD1    C1 3362   1.558   4.215  11.752 -0.3442  0.2506 -0.3563
  218MPD1    C2 3363   1.690   4.193  11.789  0.2117  0.3577  0.7159
  218MPD1    C3 3364   1.730   4.191  11.917  0.3411  0.2371 -0.4362
  218MPD1    C4 3365   1.641   4.221  12.010 -0.3058  0.4435  0.4143
  218MPD1    C5 3366   1.517   4.253  11.977  0.3445 -0.2300 -0.0953
  218MPD1     H 3367   1.775   4.180  11.723 -0.0513 -0.9663  0.6454
  218MPD1    H1 3368   1.663   4.206  12.116  0.3951 -1.2935  0.0194
  218MPD1    H2 3369   1.374   4.280  11.822 -0.0511  0.1758 -2.7631
  218MPD1    H3 3370   1.441   4.281  12.049 -0.7404 -1.9734 -0.5428
  218MPD1     N 3371   1.854   4.139  11.952 -0.2908  0.3487 -0.3474
  218MPD1    H5 3372   1.909   4.090  11.882 -0.2210  1.8581 -1.3602
  218MPD1    N1 3373   1.518   4.225  11.620 -0.4424  0.5150 -0.0139
  218MPD1    H6 3374   1.421   4.196  11.609  0.9144 -3.0506 -2.6931
  218MPD1    H7 3375   1.584   4.182  11.556 -0.8735 -0.7712  0.4165
  219MPD1     C 3376   2.601   3.490  11.834 -0.1003 -0.1956 -0.3652
  219MPD1    C1 3377   2.478   3.502  11.791 -0.6970  0.0374  0.5271
  219MPD1    C2 3378   2.408   3.613  11.833 -0.6588 -0.1124 -0.8090
  219MPD1    C3 3379   2.457   3.694  11.930 -0.3661 -0.2131 -0.3197
  219MPD1    C4 3380   2.582   3.668  11.982  0.1830  0.2136 -0.5035
  219MPD1    C5 3381   2.659   3.569  11.925  0.3540  0.9361 -0.6143
  219MPD1     H 3382   2.314   3.625  11.780 -1.0090  1.8624  0.2564
  219MPD1    H1 3383   2.633   3.724  12.059 -1.0629  0.4297  0.1668
  219MPD1    H2 3384   2.664   3.416  11.786  2.2205  0.9439  0.9221
  219MPD1    H3 3385   2.757   3.560  11.969 -0.6234 -3.8701  0.5479
  219MPD1     N 3386   2.383   3.797  11.993  0.2092 -0.2150 -0.5152
  219MPD1    H5 3387   2.429   3.843  12.071 -0.1537  0.5233 -0.7338
  219MPD1    N1 3388   2.429   3.434  11.675 -0.1044 -0.0618  0.7781
  219MPD1    H6 3389   2.329   3.426  11.660  0.2610 -1.3553 -1.0905
  219MPD1    H7 3390   2.473   3.342  11.667 -0.6770 -0.2134 -0.5991
  220MPD1     C 3391   1.404   3.569   9.305  0.3670 -0.6852  0.0125
  220MPD1    C1 3392   1.275   3.573   9.354  0.1061  0.0053  0.6085
  220MPD1    C2 3393   1.243   3.678   9.441 -0.3936  0.5722 -0.2881
  220MPD1    C3 3394   1.336   3.774   9.483  0.0911 -0.2880  0.0811
  220MPD1    C4 3395   1.456   3.775   9.423  0.4603 -0.3376 -0.8916
  220MPD1    C5 3396   1.493   3.670   9.340  0.2737 -0.5069 -0.5328
  220MPD1     H 3397   1.145   3.672   9.487  0.0581  0.4538  0.6603
  220MPD1    H1 3398   1.531   3.848   9.452 -0.9764  0.1929  1.4725
  220MPD1    H2 3399   1.433   3.500   9.227  0.5480  1.2169 -1.6037
  220MPD1    H3 3400   1.590   3.670   9.291 -0.5520  0.8295 -2.1543
  220MPD1     N 3401   1.286   3.877   9.564  0.2038 -0.2955  0.4638
  220MPD1    H5 3402   1.191   3.870   9.599 -0.3330 -1.8041 -1.2708
  220MPD1    N1 3403   1.178   3.474   9.328  0.2423  0.2570  0.2259
  220MPD1    H6 3404   1.188   3.422   9.241 -1.1441 -0.6523  0.5972
  220MPD1    H7 3405   1.080   3.501   9.340  0.4477  1.1727 -0.1653
  221MPD1     C 3406   3.519   3.677  16.587  0.1134  0.4393  0.0181
  221MPD1    C1 3407   3.522   3.578  16.487  0.0047 -0.4313  0.7317
  221MPD1    C2 3408   3.647   3.552  16.423  0.5226 -0.3482  0.3368
  221MPD1    C3 3409   3.762   3.611  16.473  0.1536  0.3874 -0.4844
  221MPD1    C4 3410   3.755   3.696  16.583 -0.4544  0.1980  0.6824
  221MPD1    C5 3411   3.636   3.727  16.642 -0.2934  0.2115  0.1007
  221MPD1     H 3412   3.653   3.477  16.344  2.2045 -0.6393  0.7367
  221MPD1    H1 3413   3.843   3.749  16.617 -1.1311  1.5337  0.3522
  221MPD1    H2 3414   3.423   3.692  16.636  0.0762 -1.2574  0.4725
  221MPD1    H3 3415   3.633   3.789  16.731 -2.5185 -1.8482  1.4157
  221MPD1     N 3416   3.892   3.579  16.419 -0.2266 -0.2055  0.0527
  221MPD1    H5 3417   3.974   3.621  16.462 -0.0885  0.6686 -1.0709
  221MPD1    N1 3418   3.407   3.532  16.429 -0.0854  0.1450 -0.3220
  221MPD1    H6 3419   3.416   3.443  16.381 -0.4374  0.7529 -1.5218
  221MPD1    H7 3420   3.325   3.532  16.489  1.5275  1.4508  1.8942
  222MPD1     C 3421   3.009   2.193  17.706  0.3983  0.6420 -0.9164
  222MPD1    C1 3422   3.009   2.322  17.649  1.2285  0.3495 -0.7708
  222MPD1    C2 3423   2.971   2.425  17.726 -0.0202 -0.8230 -0.4475
  222MPD1    C3 3424   2.903   2.412   0.102 -0.5663  0.3033 -0.2457
  222MPD1    C4 3425   2.902   2.285   0.155 -0.6952  0.9555 -0.5415
  222MPD1    C5 3426   2.958   2.179   0.083 -0.5555 -0.0623  0.1704
  222MPD1     H 3427   2.991   2.523  17.683  0.9804 -0.5908  0.5386
  222MPD1    H1 3428   2.865   2.279   0.256 -1.3107  1.5624 -0.7281
  222MPD1    H2 3429   3.050   2.107  17.655 -0.3886  0.8315 -1.8596
  222MPD1    H3 3430   2.963   2.087   0.139 -1.2953  1.6211  3.0294
  222MPD1     N 3431   2.872   2.520   0.184 -0.3630 -0.5955 -0.1099
  222MPD1    H5 3432   2.859   2.508   0.284 -0.2969  0.6689  0.0422
  222MPD1    N1 3433   3.074   2.339  17.527  0.3656  0.8892 -0.1844
  222MPD1    H6 3434   3.061   2.421  17.468  0.4606  2.3634  1.8564
  222MPD1    H7 3435   3.060   2.259  17.465  1.2554  0.5667  0.0380
  223MPD1     C 3436   2.704   3.008   1.055 -0.2880  0.4097  0.6434
  223MPD1    C1 3437   2.636   3.093   0.966  0.4213 -0.1616  0.1012
  223MPD1    C2 3438   2.633   3.058   0.829 -0.2606  0.1961 -0.1081
  223MPD1    C3 3439   2.703   2.941   0.789 -0.2889 -0.9586 -0.8148
  223MPD1    C4 3440   2.783   2.868   0.876 -0.2872  0.2864 -0.3612
  223MPD1    C5 3441   2.780   2.904   1.004 -0.3063  0.3414 -0.3093
  223MPD1     H 3442   2.567   3.114   0.764 -0.9431  1.1194  1.3812
  223MPD1    H1 3443   2.852   2.788   0.851  0.3362  0.1235  1.8643
  223MPD1    H2 3444   2.703   3.011   1.163  0.7642 -0.9363  0.6965
  223MPD1    H3 3445   2.839   2.845   1.074  1.8887  4.5910  1.3948
  223MPD1     N 3446   2.701   2.918   0.648 -0.5584 -0.0640  0.4778
  223MPD1    H5 3447   2.648   2.985   0.592  1.6768  0.8953 -0.5053
  223MPD1    N1 3448   2.567   3.204   1.016  0.4477  0.5178  0.0004
  223MPD1    H6 3449   2.616   3.252   1.092 -2.4535  2.5721  0.5701
  223MPD1    H7 3450   2.525   3.272   0.952  1.1870  2.2998  1.3813
  224MPD1     C 3451   4.580   3.313   8.113 -0.3631 -0.2737  0.4269
  224MPD1    C1 3452   4.495   3.416   8.123  0.3212  0.9446  0.2904
  224MPD1    C2 3453   4.418   3.416   8.242 -0.2341  0.2353 -0.6721
  224MPD1    C3 3454   4.430   3.323   8.345  0.0678 -0.4678 -0.3194
  224MPD1    C4 3455   4.516   3.222   8.330  0.4492  0.4917  0.1225
  224MPD1    C5 3456   4.591   3.217   8.211  0.2126  0.2201  0.2577
  224MPD1     H 3457   4.343   3.495   8.243 -0.0288  0.4540 -1.8300
  224MPD1    H1 3458   4.533   3.144   8.403 -1.1970 -0.3686 -0.3968
  224MPD1    H2 3459   4.645   3.306   8.026  0.8769 -2.0710  1.5099
  224MPD1    H3 3460   4.667   3.141   8.203  0.8422  0.8860 -0.1036
  224MPD1     N 3461   4.373   3.334   8.471  0.4478  0.1186 -0.1561
  224MPD1    H5 3462   4.412   3.268   8.537 -0.7323  0.5311  0.9687
  224MPD1    N1 3463   4.472   3.492   8.003  0.4527 -0.1431 -0.5087
  224MPD1    H6 3464   4.425   3.581   8.018  1.5333  0.5428 -1.2297
  224MPD1    H7 3465   4.565   3.516   7.971  0.4040  0.5680 -0.1030
  225MPD1     C 3466   1.246   4.335  12.385  0.2052  0.1790 -0.3616
  225MPD1    C1 3467   1.207   4.422  12.485 -0.4237 -0.0898 -0.9079
  225MPD1    C2 3468   1.081   4.471  12.467 -0.2139  0.3683 -0.2397
  225MPD1    C3 3469   1.004   4.439  12.354 -0.4390 -0.0318 -0.1505
  225MPD1    C4 3470   1.053   4.358  12.254  0.1995  0.3962 -0.1174
  225MPD1    C5 3471   1.178   4.314  12.264 -0.1764 -0.2639  0.7299
  225MPD1     H 3472   1.036   4.522  12.552 -1.9531 -1.4513 -0.0740
  225MPD1    H1 3473   0.999   4.341  12.161  0.1484  0.3015 -0.0701
  225MPD1    H2 3474   1.340   4.281  12.392  0.5886  1.0849  1.4554
  225MPD1    H3 3475   1.228   4.267  12.180  0.0728  0.4918  0.4610
  225MPD1     N 3476   0.867   4.485  12.338  0.0388  0.2764  0.6630
  225MPD1    H5 3477   0.809   4.445  12.264  0.1309  0.7589  0.3303
  225MPD1    N1 3478   1.280   4.425  12.609 -0.1273  0.4857  0.1292
  225MPD1    H6 3479   1.379   4.404  12.604 -0.3642 -1.4833  3.5992
  225MPD1    H7 3480   1.267   4.512  12.660  1.4047  1.8567 -1.8188
  226MPD1     C 3481   4.137   0.203   9.618  0.4951  0.0921  0.2090
  226MPD1    C1 3482   4.225   0.276   9.698 -0.9593  0.1546  0.3727
  226MPD1    C2 3483   4.358   0.241   9.696 -0.3619 -0.4590  0.4202
  226MPD1    C3 3484   4.403   0.141   9.618  0.6541  0.3470 -0.0090
  226MPD1    C4 3485   4.318   0.070   9.539  0.0437 -0.0745 -0.5102
  226MPD1    C5 3486   4.182   0.099   9.546  0.2242 -0.3336 -0.2251
  226MPD1     H 3487   4.431   0.287   9.762 -2.2821  0.7855  1.7045
  226MPD1    H1 3488   4.348   4.714   9.491 -0.7353  0.3598 -1.8384
  226MPD1    H2 3489   4.029   0.217   9.614  0.1864 -2.4762 -0.6462
  226MPD1    H3 3490   4.109   0.038   9.494  0.3444  0.5158 -1.3987
  226MPD1     N 3491   4.544   0.124   9.613  0.1871  0.1669 -0.0770
  226MPD1    H5 3492   4.599   0.199   9.654  0.8346 -0.7888  0.8135
  226MPD1    N1 3493   4.171   0.359   9.789 -0.0378 -0.5182  0.7508
  226MPD1    H6 3494   4.249   0.415   9.822 -0.4451  0.9172 -0.7027
  226MPD1    H7 3495   4.100   0.417   9.746  0.3714 -0.8969 -0.4622
  227MPD1     C 3496   0.727   0.400   9.906 -0.4954  0.2372  0.8276
  227MPD1    C1 3497   0.746   0.276   9.845 -0.0927 -0.0069 -1.0364
  227MPD1    C2 3498   0.643   0.210   9.777  0.0423 -0.5835  0.3936
  227MPD1    C3 3499   0.517   0.262   9.767  0.7175  0.5187  0.9428
  227MPD1    C4 3500   0.500   0.389   9.826  0.2361 -0.7570 -0.2193
  227MPD1    C5 3501   0.604   0.455   9.887 -0.5320  0.8971 -0.6373
  227MPD1     H 3502   0.664   0.116   9.728 -1.0645 -0.5084 -0.2031
  227MPD1    H1 3503   0.400   0.431   9.824  0.8058  0.5722 -0.7377
  227MPD1    H2 3504   0.810   0.448   9.958 -1.5643  0.7009  2.0863
  227MPD1    H3 3505   0.586   0.543   9.947  1.3097  0.3016  0.7790
  227MPD1     N 3506   0.417   0.191   9.695 -0.6495 -0.5582  0.2504
  227MPD1    H5 3507   0.450   0.099   9.668 -0.1341 -0.5432  0.8199
  227MPD1    N1 3508   0.873   0.217   9.842 -0.2046  0.2348  0.4747
  227MPD1    H6 3509   0.894   0.193   9.745 -0.1124 -0.6145  0.7124
  227MPD1    H7 3510   0.941   0.286   9.874  0.2658 -0.5579  1.1622
  228MPD1     C 3511   3.243   3.020  13.373  0.3808  0.1017  0.1206
  228MPD1    C1 3512   3.290   2.890  13.385 -0.0556  0.0839  0.0268
  228MPD1    C2 3513   3.187   2.790  13.378 -0.4931 -0.0076 -0.1616
  228MPD1    C3 3514   3.047   2.820  13.389  0.0985  0.0732 -0.4906
  228MPD1    C4 3515   3.010   2.957  13.409  0.5535 -0.6017  0.2364
  228MPD1    C5 3516   3.113   3.052  13.391 -0.0062 -0.1844 -0.6786
  228MPD1     H 3517   3.212   2.686  13.359 -0.2506 -0.3542  1.9729
  228MPD1    H1 3518   2.912   2.990  13.444  1.7885  0.4124  2.7488
  228MPD1    H2 3519   3.318   3.096  13.357  2.4403 -2.4590 -2.3615
  228MPD1    H3 3520   3.074   3.151  13.407 -0.4538 -0.2791 -1.2179
  228MPD1     N 3521   2.948   2.722  13.369  0.0406  0.3068 -0.2518
  228MPD1    H5 3522   2.987   2.634  13.336  0.5174  0.9374 -1.3951
  228MPD1    N1 3523   3.418   2.859  13.337  0.5743  0.1535  0.0134
  228MPD1    H6 3524   3.454   2.766  13.359 -1.2726 -0.4082  0.6822
  228MPD1    H7 3525   3.488   2.932  13.344 -1.1992  1.6351  2.5131
  229MPD1     C 3526   2.172   1.059  15.369  0.0785  0.8903  0.0778
  229MPD1    C1 3527   2.229   0.935  15.352 -0.6836 -0.1915  0.2744
  229MPD1    C2 3528   2.366   0.935  15.326 -0.2111 -0.1477 -0.0376
  229MPD1    C3 3529   2.446   1.051  15.343  0.2798 -0.6591  0.2145
  229MPD1    C4 3530   2.383   1.171  15.370 -0.2989  0.0577 -0.2899
  229MPD1    C5 3531   2.246   1.173  15.370  0.3899 -0.5708 -0.8922
  229MPD1     H 3532   2.399   0.834  15.306  0.6041 -0.0196  0.6595
  229MPD1    H1 3533   2.452   1.254  15.369 -0.5241  0.2350 -2.5390
  229MPD1    H2 3534   2.069   1.073  15.400 -0.6251 -3.3641 -0.3921
  229MPD1    H3 3535   2.201   1.270  15.381  2.2572  0.1749  0.2188
  229MPD1     N 3536   2.588   1.056  15.335  0.1550  0.1065 -0.1978
  229MPD1    H5 3537   2.635   1.145  15.352 -1.2476  1.1130 -1.6266
  229MPD1    N1 3538   2.159   0.814  15.354 -0.2478  0.7051  0.1964
  229MPD1    H6 3539   2.222   0.733  15.355 -1.3039 -0.1440 -1.4714
  229MPD1    H7 3540   2.105   0.802  15.439  0.9318 -0.2860  0.8133
  230MPD1     C 3541   3.435   1.325  15.768 -0.1654  0.9510 -0.0646
  230MPD1    C1 3542   3.498   1.231  15.685  0.1387 -0.2615  0.1468
  230MPD1    C2 3543   3.415   1.148  15.610  0.2244  0.8715  0.1680
  230MPD1    C3 3544   3.279   1.174  15.591 -1.6229  0.1582 -0.0756
  230MPD1    C4 3545   3.225   1.272  15.675 -0.4157  0.4004 -0.1800
  230MPD1    C5 3546   3.297   1.343  15.765  0.3515  0.2864 -0.1353
  230MPD1     H 3547   3.464   1.063  15.564 -0.3054  0.8625 -0.3698
  230MPD1    H1 3548   3.119   1.283  15.693 -0.2034  0.3853  1.0465
  230MPD1    H2 3549   3.492   1.389  15.835  0.1947 -0.8842  1.3801
  230MPD1    H3 3550   3.248   1.401  15.842 -1.2950 -0.0996 -0.8990
  230MPD1     N 3551   3.197   1.084  15.513  0.1367 -0.4074  0.5220
  230MPD1    H5 3552   3.237   0.994  15.488  1.7297  0.7246 -1.0480
  230MPD1    N1 3553   3.631   1.197  15.698  0.3210  0.3652 -0.4105
  230MPD1    H6 3554   3.680   1.166  15.614  0.9058 -0.8515  0.3717
  230MPD1    H7 3555   3.684   1.275  15.734  1.6477 -0.5594 -0.3637
  231MPD1     C 3556   1.071   3.388  15.116  0.1023  0.2459 -0.3017
  231MPD1    C1 3557   1.064   3.361  14.980  0.6815 -0.3892 -0.7292
  231MPD1    C2 3558   1.128   3.454  14.897  0.8088 -0.3495  0.0872
  231MPD1    C3 3559   1.195   3.566  14.940 -0.0943 -0.1835  0.4568
  231MPD1    C4 3560   1.201   3.590  15.076 -0.0333  0.5188  0.2825
  231MPD1    C5 3561   1.133   3.502  15.161  0.0029  0.1701 -1.7310
  231MPD1     H 3562   1.128   3.426  14.793 -1.8064  0.4768 -0.1392
  231MPD1    H1 3563   1.270   3.661  15.120 -1.2376  1.7132  0.2130
  231MPD1    H2 3564   1.023   3.325  15.190 -0.3922  2.6380  1.4218
  231MPD1    H3 3565   1.133   3.516  15.269 -1.9457  1.6565 -1.9315
  231MPD1     N 3566   1.270   3.636  14.843 -0.1662 -0.3593  0.1022
  231MPD1    H5 3567   1.244   3.612  14.748 -0.1960  3.0946 -0.7566
  231MPD1    N1 3568   1.046   3.227  14.936 -0.2022 -0.1184 -0.2689
  231MPD1    H6 3569   0.998   3.162  14.999 -0.9294  0.9222  0.2533
  231MPD1    H7 3570   1.023   3.204  14.840  0.2286  0.6081 -0.5427
  232MPD1     C 3571   2.694   1.594  17.539 -0.0954  0.1151 -0.0687
  232MPD1    C1 3572   2.572   1.617  17.610  0.2138 -0.0750  0.1462
  232MPD1    C2 3573   2.459   1.536  17.572 -0.5806 -0.5598  0.1131
  232MPD1    C3 3574   2.459   1.450  17.466  1.0525 -0.0719 -0.3533
  232MPD1    C4 3575   2.578   1.435  17.403  0.3237  0.2742  0.2302
  232MPD1    C5 3576   2.689   1.500  17.439  0.3122  0.5010 -0.3092
  232MPD1     H 3577   2.369   1.551  17.632 -2.0052 -2.2269 -1.6032
  232MPD1    H1 3578   2.585   1.383  17.308  0.1837 -0.1976  0.4781
  232MPD1    H2 3579   2.787   1.647  17.553 -0.6416  0.5268  1.9965
  232MPD1    H3 3580   2.773   1.481  17.372  0.0818 -1.5459 -0.0347
  232MPD1     N 3581   2.346   1.375  17.428 -0.0890 -0.8566  0.3524
  232MPD1    H5 3582   2.269   1.377  17.495 -2.4185 -1.1951 -2.3239
  232MPD1    N1 3583   2.569   1.688  17.727 -0.7564 -0.2151 -0.7925
  232MPD1    H6 3584   2.479   1.735  17.731  0.4983  2.3069 -2.2501
  232MPD1    H7 3585   2.631   1.768  17.724 -0.2010 -0.6264 -0.4544
  233MPD1     C 3586   3.106   3.846   1.196  0.2617 -0.2838 -0.0604
  233MPD1    C1 3587   3.108   3.837   1.329 -0.1918  0.3188 -0.6615
  233MPD1    C2 3588   3.203   3.767   1.394 -0.7962 -0.1461 -0.5141
  233MPD1    C3 3589   3.315   3.726   1.329 -0.2149  0.3043  0.6764
  233MPD1    C4 3590   3.319   3.733   1.185 -0.2294 -0.4139 -0.4395
  233MPD1    C5 3591   3.222   3.805   1.124  0.8551 -0.0585 -0.3372
  233MPD1     H 3592   3.187   3.741   1.498  0.9215  0.8120 -0.0047
  233MPD1    H1 3593   3.402   3.686   1.133 -0.4779 -1.1480 -0.1763
  233MPD1    H2 3594   3.024   3.904   1.155  0.2178  0.4858  1.0877
  233MPD1    H3 3595   3.242   3.833   1.021 -0.3996  1.8260 -0.0612
  233MPD1     N 3596   3.428   3.668   1.397  0.3084 -0.1084 -0.1298
  233MPD1    H5 3597   3.514   3.654   1.346  1.2641 -2.3097  2.0761
  233MPD1    N1 3598   2.988   3.873   1.395  0.5596 -0.7234  0.0750
  233MPD1    H6 3599   3.000   3.886   1.495 -2.2969  2.6294 -0.0308
  233MPD1    H7 3600   2.953   3.960   1.356  0.7463  1.0548  3.8429
  234MPD1     C 3601   0.049   2.226   9.883 -0.0917 -0.6907 -0.0133
  234MPD1    C1 3602   0.016   2.343   9.942  0.4694 -0.3234 -0.7301
  234MPD1    C2 3603   4.665   2.428   9.877  0.0839 -0.1852  0.8086
  234MPD1    C3 3604   4.616   2.398   9.754 -0.1890 -0.1399 -0.2070
  234MPD1    C4 3605   4.661   2.285   9.694 -0.3129 -0.3504  0.1017
  234MPD1    C5 3606   0.010   2.203   9.754  0.1491 -0.0792  0.6331
  234MPD1     H 3607   4.645   2.522   9.927 -0.3823  0.5596 -0.7781
  234MPD1    H1 3608   4.630   2.260   9.593  1.7336 -0.9004 -0.3879
  234MPD1    H2 3609   0.117   2.148   9.917 -0.4784 -2.0174 -2.3145
  234MPD1    H3 3610   0.039   2.108   9.711  1.1297  1.3068 -1.7604
  234MPD1     N 3611   4.521   2.487   9.694  0.8297  0.5892  0.0889
  234MPD1    H5 3612   4.507   2.580   9.731  0.0427  0.0078  1.2706
  234MPD1    N1 3613   0.059   2.369  10.076  0.7580  0.1314  0.2773
  234MPD1    H6 3614   0.036   2.465  10.101  0.6183  0.4813 -1.2158
  234MPD1    H7 3615   0.158   2.349  10.085  0.7786 -0.4582 -1.3680
  235MPD1     C 3616   1.313   0.017   9.545  0.3994 -0.2024 -0.1499
  235MPD1    C1 3617   1.331   0.143   9.603 -0.0473  0.7031 -0.4988
  235MPD1    C2 3618   1.454   0.203   9.603  0.4479  0.2348  1.3106
  235MPD1    C3 3619   1.569   0.137   9.561  0.0451 -0.3057  0.0233
  235MPD1    C4 3620   1.555   0.006   9.520 -0.1270  0.3799 -0.2696
  235MPD1    C5 3621   1.429   4.686   9.509 -0.2119 -0.3877  0.0321
  235MPD1     H 3622   1.470   0.303   9.641 -0.6700  0.7403  0.4509
  235MPD1    H1 3623   1.634   4.675   9.489  1.0094  1.6325 -0.0959
  235MPD1    H2 3624   1.216   4.706   9.532  0.4141  0.1794 -1.7206
  235MPD1    H3 3625   1.422   4.580   9.485  0.8919 -0.4396 -0.0836
  235MPD1     N 3626   1.686   0.217   9.566 -0.6315  0.6002 -0.0343
  235MPD1    H5 3627   1.686   0.315   9.594 -1.4363  0.4471  0.5232
  235MPD1    N1 3628   1.212   0.210   9.636 -0.7182  0.2855  0.1150
  235MPD1    H6 3629   1.235   0.294   9.690 -0.8519  1.8541 -2.2824
  235MPD1    H7 3630   1.138   0.153   9.677  2.0893 -2.2889  1.6323
  236MPD1     C 3631   1.043   0.749   9.394  0.2201 -0.3519 -0.1156
  236MPD1    C1 3632   1.049   0.868   9.452  0.0205  0.0148 -0.4065
  236MPD1    C2 3633   1.095   0.878   9.586  0.0949 -0.5065  0.1599
  236MPD1    C3 3634   1.137   0.764   9.657  0.1955 -0.2168 -0.0219
  236MPD1    C4 3635   1.143   0.647   9.588  0.4997  0.0591 -0.8782
  236MPD1    C5 3636   1.094   0.639   9.458  0.3683 -0.2697 -0.1510
  236MPD1     H 3637   1.111   0.975   9.631 -0.1074 -1.1657  1.6623
  236MPD1    H1 3638   1.179   0.565   9.649  1.7965  0.7681 -0.6972
  236MPD1    H2 3639   1.020   0.736   9.289  1.2452  1.0287 -0.5166
  236MPD1    H3 3640   1.094   0.546   9.401 -1.4004  0.0295 -0.6129
  236MPD1     N 3641   1.205   0.769   9.777 -0.0849 -0.0011 -0.0814
  236MPD1    H5 3642   1.242   0.677   9.802 -1.6159 -0.3550  0.8883
  236MPD1    N1 3643   1.022   0.987   9.383  0.3744  0.2186  0.5714
  236MPD1    H6 3644   0.947   0.984   9.313  1.2423 -0.1460 -0.3428
  236MPD1    H7 3645   0.980   1.058   9.442  0.8360 -0.0103  1.1733
  237MPD1     C 3646   1.456   0.048  15.660  0.1797  0.0697 -0.6006
  237MPD1    C1 3647   1.438   4.699  15.553  0.1871 -0.3364  0.4090
  237MPD1    C2 3648   1.313   4.647  15.533 -0.4211  0.0754  0.7886
  237MPD1    C3 3649   1.200   4.690  15.593 -0.1538  0.2006 -0.5314
  237MPD1    C4 3650   1.218   0.057  15.685  0.1476  0.2294 -0.8702
  237MPD1    C5 3651   1.343   0.094  15.717 -0.1910 -0.1173  0.5490
  237MPD1     H 3652   1.302   4.578  15.450 -1.2702  0.3207  0.7024
  237MPD1    H1 3653   1.141   0.113  15.736  0.7516 -0.4146  0.7461
  237MPD1    H2 3654   1.558   0.069  15.691 -0.3469  1.9594 -0.1631
  237MPD1    H3 3655   1.355   0.159  15.803 -1.9573  0.6689  0.1958
  237MPD1     N 3656   1.066   4.645  15.564  0.1615 -0.6374  0.5996
  237MPD1    H5 3657   0.997   4.683  15.629 -0.5819  0.6067 -0.9117
  237MPD1    N1 3658   1.553   4.642  15.499  0.1591 -0.3144 -0.3795
  237MPD1    H6 3659   1.546   4.617  15.401  0.8797  4.5900 -1.6594
  237MPD1    H7 3660   1.630   4.707  15.514  1.5364 -2.6226  2.5776
  238MPD1     C 3661   2.701   3.322  15.820  0.9487 -0.1114  0.7847
  238MPD1    C1 3662   2.766   3.316  15.699  0.3550 -0.0016  0.1768
  238MPD1    C2 3663   2.695   3.318  15.579  0.2410 -0.2452  0.7239
  238MPD1    C3 3664   2.556   3.299  15.577 -0.1481 -0.4965 -0.0127
  238MPD1    C4 3665   2.492   3.294  15.694  0.1319  0.4895 -0.2417
  238MPD1    C5 3666   2.565   3.311  15.808 -0.1723  0.5323  0.5266
  238MPD1     H 3667   2.750   3.342  15.489 -0.0382 -0.7772  0.4086
  238MPD1    H1 3668   2.387   3.265  15.696  0.6972 -1.4072  1.1633
  238MPD1    H2 3669   2.743   3.349  15.916  1.6398 -2.2427  1.0866
  238MPD1    H3 3670   2.501   3.323  15.894  0.6322 -3.6509  1.7308
  238MPD1     N 3671   2.485   3.284  15.459 -0.1696  0.7224 -0.4478
  238MPD1    H5 3672   2.387   3.259  15.471 -0.5838  2.3113 -0.4984
  238MPD1    N1 3673   2.905   3.338  15.700 -0.8139 -0.1121  0.1326
  238MPD1    H6 3674   2.961   3.335  15.615  1.0218 -1.6728  1.3801
  238MPD1    H7 3675   2.964   3.299  15.774  0.0151 -0.8971 -0.9508
  239MPD1     C 3676   3.147   4.350  15.346  0.2011 -0.6354 -0.2956
  239MPD1    C1 3677   3.172   4.239  15.268 -0.8935  0.4403  0.4990
  239MPD1    C2 3678   3.167   4.249  15.130  0.5926 -0.3085 -0.7181
  239MPD1    C3 3679   3.149   4.375  15.066  0.2830 -0.7288  0.1276
  239MPD1    C4 3680   3.148   4.485  15.141  0.0017  0.3154 -0.1601
  239MPD1    C5 3681   3.137   4.471  15.281  0.0539  0.5734 -0.6192
  239MPD1     H 3682   3.175   4.155  15.077 -2.1748 -1.5181  1.0520
  239MPD1    H1 3683   3.134   4.581  15.092 -0.6657  0.1902 -0.2182
  239MPD1    H2 3684   3.144   4.338  15.454 -0.4898  0.1516 -0.2300
  239MPD1    H3 3685   3.116   4.565  15.330  1.3491 -0.2937  1.5686
  239MPD1     N 3686   3.120   4.389  14.931  0.2158  0.4943 -0.1343
  239MPD1    H5 3687   3.112   4.484  14.898 -1.8546 -0.0724 -1.2570
  239MPD1    N1 3688   3.187   4.112  15.325 -0.0563 -0.7338  0.0772
  239MPD1    H6 3689   3.222   4.126  15.420 -0.8270 -2.7398  0.6553
  239MPD1    H7 3690   3.253   4.055  15.272 -0.3104 -1.7260  0.8328
  240MPD1     C 3691   2.319   4.248  13.937  1.1700 -0.0364  0.2717
  240MPD1    C1 3692   2.406   4.144  13.923  0.4694 -0.1510 -0.7026
  240MPD1    C2 3693   2.418   4.058  14.024  0.2246  0.2428  0.6567
  240MPD1    C3 3694   2.329   4.063  14.131  0.4757  0.4200  0.6212
  240MPD1    C4 3695   2.236   4.159  14.139  0.0758  0.0506 -0.0128
  240MPD1    C5 3696   2.246   4.257  14.049 -0.0207  0.2232 -0.0452
  240MPD1     H 3697   2.505   3.994  14.027  0.4122  0.5527  1.6001
  240MPD1    H1 3698   2.168   4.171  14.223  1.3151  3.6852  0.4692
  240MPD1    H2 3699   2.312   4.338  13.877  1.7611 -0.6301 -0.6726
  240MPD1    H3 3700   2.184   4.340  14.082  0.9743  0.8729  0.1915
  240MPD1     N 3701   2.340   3.960  14.222  0.6063  0.6296 -0.1910
  240MPD1    H5 3702   2.407   3.887  14.199  0.8778  0.3204  1.5838
  240MPD1    N1 3703   2.507   4.157  13.832 -0.5748 -0.2156  0.2434
  240MPD1    H6 3704   2.556   4.069  13.819 -0.1325 -0.2593  2.1938
  240MPD1    H7 3705   2.473   4.193  13.743 -0.6017 -2.1126 -0.4981
  241MPD1     C 3706   2.183   4.023  15.216  0.1322  0.5915  0.1590
  241MPD1    C1 3707   2.129   3.906  15.177 -0.3420  0.2569  0.3211
  241MPD1    C2 3708   2.164   3.844  15.052 -0.8773  0.1975 -0.8280
  241MPD1    C3 3709   2.271   3.903  14.978  0.0811  0.1202  0.1803
  241MPD1    C4 3710   2.332   4.024  15.025  0.1002 -0.4234  0.7013
  241MPD1    C5 3711   2.288   4.079  15.139 -0.3747  0.3133  0.0307
  241MPD1     H 3712   2.114   3.755  15.018 -1.4892  0.1397  0.2103
  241MPD1    H1 3713   2.406   4.084  14.974 -0.8742 -1.2672 -1.6748
  241MPD1    H2 3714   2.158   4.078  15.306 -0.1496  2.5323 -1.0968
  241MPD1    H3 3715   2.331   4.170  15.179 -1.0236  1.2926 -1.5492
  241MPD1     N 3716   2.307   3.863  14.840  0.1969  0.3875  0.2235
  241MPD1    H5 3717   2.377   3.909  14.783 -0.8680  2.6123  0.7121
  241MPD1    N1 3718   2.031   3.853  15.263 -0.2536  0.3639  0.2458
  241MPD1    H6 3719   2.003   3.756  15.250 -1.1838  0.5004  1.1976
  241MPD1    H7 3720   2.039   3.884  15.360 -0.9683 -1.6764  0.9731
  242MPD1     C 3721   2.026   2.508  15.549  0.0211 -0.0171 -0.1042
  242MPD1    C1 3722   1.917   2.444  15.495  0.6022 -0.1171 -0.7195
  242MPD1    C2 3723   1.955   2.342  15.402  0.4716 -0.5287  0.6323
  242MPD1    C3 3724   2.085   2.298  15.379 -0.7943  0.4818 -0.0102
  242MPD1    C4 3725   2.181   2.365  15.445 -0.3619  0.1342 -0.3598
  242MPD1    C5 3726   2.153   2.469  15.523  0.4594 -0.2946  1.4935
  242MPD1     H 3727   1.878   2.296  15.342 -0.2991  0.2569  1.0210
  242MPD1    H1 3728   2.285   2.334  15.438 -0.3283  0.5178 -1.5665
  242MPD1    H2 3729   2.022   2.603  15.600  0.5206  0.4373 -0.9024
  242MPD1    H3 3730   2.233   2.529  15.564 -0.2821  1.7169 -0.0043
  242MPD1     N 3731   2.118   2.184  15.299 -0.3153  0.3623  1.0706
  242MPD1    H5 3732   2.218   2.171  15.284 -0.5620  0.7510 -0.8161
  242MPD1    N1 3733   1.786   2.481  15.499  0.2299 -0.0499 -0.1184
  242MPD1    H6 3734   1.722   2.404  15.478  0.5924 -0.6328  0.9155
  242MPD1    H7 3735   1.775   2.521  15.592 -0.2884  0.4658 -0.4023
  243MPD1     C 3736   3.608   1.166   0.511 -0.7459 -0.2829 -0.7662
  243MPD1    C1 3737   3.598   1.191   0.377  0.2444  0.0075 -0.5842
  243MPD1    C2 3738   3.642   1.105   0.280  0.2863  0.3879  0.3616
  243MPD1    C3 3739   3.671   0.972   0.313  0.3968 -0.7583  0.1679
  243MPD1    C4 3740   3.680   0.945   0.450 -0.2599  0.1063  0.5620
  243MPD1    C5 3741   3.653   1.042   0.545 -0.0597  0.3101  0.1852
  243MPD1     H 3742   3.642   1.135   0.176  0.1343 -0.8253  0.0110
  243MPD1    H1 3743   3.715   0.850   0.489 -1.5302 -0.9910 -0.9913
  243MPD1    H2 3744   3.590   1.241   0.588 -0.4995  1.0589 -2.0029
  243MPD1    H3 3745   3.659   1.012   0.649  1.9233 -0.2658 -0.0910
  243MPD1     N 3746   3.697   0.886   0.204  0.6716  0.0802 -0.1539
  243MPD1    H5 3747   3.678   0.917   0.109  0.1537  0.9073  0.2140
  243MPD1    N1 3748   3.556   1.323   0.336  0.5712  0.0771  0.6946
  243MPD1    H6 3749   3.489   1.364   0.402 -2.6476 -1.9268 -1.3227
  243MPD1    H7 3750   3.508   1.327   0.246 -0.7302 -0.0331  1.3739
  244MPD1     C 3751   3.775   4.629   0.135 -0.2683  0.5991 -0.4449
  244MPD1    C1 3752   3.779   4.720   0.238 -0.2603  0.2191 -0.5330
  244MPD1    C2 3753   3.720   0.106   0.218 -0.2518 -0.1037 -0.6269
  244MPD1    C3 3754   3.687   0.146   0.088 -0.1100 -0.0681 -0.0290
  244MPD1    C4 3755   3.691   0.057  17.731  0.1884  0.0859 -0.3757
  244MPD1    C5 3756   3.727   4.666   0.013  0.0623  0.3683 -0.2974
  244MPD1     H 3757   3.706   0.169   0.305 -0.5740 -2.8105  1.2427
  244MPD1    H1 3758   3.656   0.081  17.631  0.1658  2.2130  0.1414
  244MPD1    H2 3759   3.799   4.524   0.148 -0.9229  0.8436  2.6735
  244MPD1    H3 3760   3.721   4.588  17.681 -1.1618 -0.0032  0.1924
  244MPD1     N 3761   3.663   0.288   0.065 -0.3739 -0.3414  0.0018
  244MPD1    H5 3762   3.673   0.351   0.144  0.3491  0.7696 -0.9751
  244MPD1    N1 3763   3.823   4.687   0.365  0.4372 -0.7618  0.4137
  244MPD1    H6 3764   3.842   0.033   0.422 -3.1717 -0.2933  0.9720
  244MPD1    H7 3765   3.883   4.606   0.371  2.2623  0.7028  2.0284
  245MPD1     C 3766   0.310   1.153  13.494 -0.6423  0.4839  0.3965
  245MPD1    C1 3767   0.423   1.121  13.568 -0.1719  0.7045 -0.7043
  245MPD1    C2 3768   0.549   1.161  13.521  0.2567 -0.6323  0.4066
  245MPD1    C3 3769   0.556   1.238  13.407 -0.5178 -0.6286 -0.5450
  245MPD1    C4 3770   0.449   1.266  13.327  0.3113  0.2285 -0.7942
  245MPD1    C5 3771   0.330   1.217  13.374 -0.0895  0.7156  0.3455
  245MPD1     H 3772   0.640   1.128  13.569 -0.1270  0.3896  1.8208
  245MPD1    H1 3773   0.457   1.306  13.227  2.7361  2.0070  0.0853
  245MPD1    H2 3774   0.206   1.144  13.522 -0.9009  0.0370 -0.7073
  245MPD1    H3 3775   0.245   1.237  13.310  1.2498  0.2674 -1.5565
  245MPD1     N 3776   0.687   1.280  13.377  0.4953 -0.3842  0.4865
  245MPD1    H5 3777   0.749   1.258  13.455  2.6039 -1.8159 -1.5924
  245MPD1    N1 3778   0.411   1.039  13.678 -0.3158 -0.2947 -0.3495
  245MPD1    H6 3779   0.481   1.056  13.750  0.3248  0.8187 -1.2467
  245MPD1    H7 3780   0.317   1.046  13.717 -0.1585 -1.2749  0.2212
  246MPD1     C 3781   2.066   2.555  10.696 -0.4385 -0.8575 -0.5976
  246MPD1    C1 3782   2.052   2.423  10.736  0.1160 -0.9858  0.3116
  246MPD1    C2 3783   2.005   2.327  10.636 -0.2570 -0.2522 -0.0547
  246MPD1    C3 3784   1.982   2.362  10.504  0.0316  0.4184  0.2691
  246MPD1    C4 3785   2.016   2.490  10.471 -0.5452  1.0261  0.3512
  246MPD1    C5 3786   2.052   2.585  10.567  0.0997 -0.6217  0.9250
  246MPD1     H 3787   1.990   2.226  10.672 -0.5641  0.7873  2.7121
  246MPD1    H1 3788   2.028   2.517  10.367 -1.0528  2.3487  0.6376
  246MPD1    H2 3789   2.109   2.634  10.756 -0.2686 -0.3527 -1.3938
  246MPD1    H3 3790   2.089   2.678  10.525 -1.9135  0.2119  1.0147
  246MPD1     N 3791   1.933   2.265  10.414  0.2349  0.2749 -0.0414
  246MPD1    H5 3792   1.938   2.169  10.447  1.0880 -0.4407 -2.2888
  246MPD1    N1 3793   2.100   2.372  10.853  0.4441 -0.7065  1.0264
  246MPD1    H6 3794   2.100   2.446  10.923 -3.9787 -0.3246  0.6453
  246MPD1    H7 3795   2.059   2.283  10.881  0.5871 -1.5372 -1.3684
  247MPD1     C 3796   0.377   2.287  15.203  0.4804 -0.3983 -0.2102
  247MPD1    C1 3797   0.304   2.321  15.315 -0.1689 -0.6799 -0.4240
  247MPD1    C2 3798   0.290   2.230  15.417  0.0710 -0.5126 -0.0777
  247MPD1    C3 3799   0.358   2.107  15.402  0.4726 -0.0789 -0.5606
  247MPD1    C4 3800   0.441   2.085  15.294  0.4853  0.2960  0.1003
  247MPD1    C5 3801   0.445   2.167  15.191 -0.3865  0.1129 -0.1078
  247MPD1     H 3802   0.239   2.258  15.508  0.4579  2.0675 -0.6510
  247MPD1    H1 3803   0.494   1.991  15.285 -0.3122 -0.3714  2.3919
  247MPD1    H2 3804   0.398   2.351  15.118 -1.2302  1.1510  0.5044
  247MPD1    H3 3805   0.505   2.149  15.102  2.6878  0.6987  1.8588
  247MPD1     N 3806   0.339   2.003  15.489  0.0106  0.4058 -0.4651
  247MPD1    H5 3807   0.403   1.926  15.478 -0.9026 -0.1704 -1.6822
  247MPD1    N1 3808   0.209   2.423  15.305  0.0384  0.3421 -0.2216
  247MPD1    H6 3809   0.181   2.475  15.388  1.1237 -2.4088  1.8654
  247MPD1    H7 3810   0.239   2.495  15.240  0.0576 -0.3942 -1.0367
  248MPD1     C 3811   0.822   4.072  17.432 -1.0339 -0.3165 -0.2803
  248MPD1    C1 3812   0.804   4.196  17.477  0.4382  0.2842  0.0251
  248MPD1    C2 3813   0.725   4.210  17.592 -0.7826 -0.4595  0.0305
  248MPD1    C3 3814   0.666   4.105  17.657  0.8440 -0.4354 -0.2205
  248MPD1    C4 3815   0.693   3.977  17.612 -0.3265  0.4162 -0.3014
  248MPD1    C5 3816   0.759   3.969  17.493  0.7955 -0.2335 -0.2000
  248MPD1     H 3817   0.713   4.309  17.633  0.3972 -1.2670  2.3017
  248MPD1    H1 3818   0.646   3.888  17.653  1.2455 -1.3402 -2.3034
  248MPD1    H2 3819   0.890   4.041  17.354 -1.4625 -0.1849 -0.7070
  248MPD1    H3 3820   0.773   3.870  17.453  0.9245 -1.2195  2.2682
  248MPD1     N 3821   0.591   4.136   0.024 -0.8164 -0.9436  0.1356
  248MPD1    H5 3822   0.574   4.235   0.038 -1.6514 -0.8975 -1.2121
  248MPD1    N1 3823   0.881   4.300  17.429  0.0180  0.1645  0.2036
  248MPD1    H6 3824   0.842   4.393  17.444  0.6568  0.5679 -0.5903
  248MPD1    H7 3825   0.906   4.291  17.331 -0.2436 -2.0577  0.3407
  249MPD1     C 3826   1.089   3.484  10.358  0.1475  0.4475 -0.5847
  249MPD1    C1 3827   1.112   3.497  10.231 -0.8735 -1.1877 -0.2292
  249MPD1    C2 3828   1.244   3.496  10.188  0.5443 -0.2182 -0.6254
  249MPD1    C3 3829   1.352   3.489  10.270  0.5419 -0.6625  0.0784
  249MPD1    C4 3830   1.322   3.483  10.401 -1.0374  0.0261  0.4594
  249MPD1    C5 3831   1.197   3.484  10.448 -0.3421  0.0681  0.1334
  249MPD1     H 3832   1.258   3.513  10.081  0.9023  1.6376 -0.2794
  249MPD1    H1 3833   1.403   3.480  10.473 -0.0181  0.4234 -0.6764
  249MPD1    H2 3834   0.993   3.481  10.408  0.4377  3.3197  0.1173
  249MPD1    H3 3835   1.175   3.487  10.554  1.8362  1.5624  0.5551
  249MPD1     N 3836   1.482   3.503  10.220 -0.8006  0.5489 -0.1258
  249MPD1    H5 3837   1.484   3.517  10.119  2.2305 -1.6593 -0.3537
  249MPD1    N1 3838   1.007   3.528  10.150 -0.1185 -0.0641 -0.3864
  249MPD1    H6 3839   1.009   3.472  10.065 -0.6391  0.4320 -0.7320
  249MPD1    H7 3840   0.922   3.509  10.201  0.7961  0.4202  1.3087
  250MPD2     C 3841   4.297   4.475  12.574 -0.7347  0.5836  0.7976
  250MPD2    C1 3842   4.171   4.516  12.580  0.6169 -0.0883  0.9043
  250MPD2    C2 3843   4.068   4.439  12.523  0.3197 -0.7538 -0.4615
  250MPD2    C3 3844   4.094   4.319  12.463 -0.0799  0.0946 -0.1573
  250MPD2    C4 3845   4.224   4.279  12.450  0.4733 -0.0872 -0.0467
  250MPD2    C5 3846   4.324   4.353  12.511  0.0427 -0.5709  0.0742
  250MPD2     H 3847   3.967   4.474  12.540 -0.3691 -2.0078 -2.0087
  250MPD2    H1 3848   4.255   4.183  12.410  0.3960  0.3703 -1.2131
  250MPD2    H2 3849   4.372   4.516  12.640  1.3677 -0.1885 -1.1174
  250MPD2    H3 3850   4.422   4.307  12.521  0.0137 -0.8962 -1.1593
  250MPD2     N 3851   4.002   4.242  12.396 -0.3228 -0.5930  0.0567
  250MPD2    H5 3852   4.028   4.149  12.364  1.4762 -0.2219  0.4311
  250MPD2    N1 3853   4.140   4.645  12.628  0.1351 -0.3429  0.2750
  250MPD2    H7 3854   4.221   4.705  12.644 -0.5118  0.9757 -1.3926
  251TMC3    C1 3855   4.035   0.103  12.701  0.0327  0.3765 -1.0166
  251TMC3    C2 3856   3.951   0.148  12.806 -0.2120 -0.2171 -0.0033
  251TMC3    C3 3857   3.966   0.277  12.854  0.9418 -0.1672  0.4409
  251TMC3    C4 3858   4.129   0.177  12.641 -0.3924 -0.5774 -0.3735
  251TMC3    C5 3859   4.149   0.303  12.699  0.7098  0.2359 -0.7707
  251TMC3    C6 3860   4.069   0.350  12.803 -0.3920 -0.5123  0.8464
  251TMC3     C 3861   4.021   4.693  12.669 -0.9029  0.1420  0.4283
  251TMC3     O 3862   3.916   4.641  12.704  0.0644 -0.3963  0.0803
  251TMC3     H 3863   3.867   0.085  12.833 -0.8348 -0.2290 -1.9943
  251TMC3    H1 3864   4.180   0.155  12.549 -1.0691 -0.8629 -0.6858
  251TMC3    H2 3865   4.089   0.444  12.853  0.9224 -0.9035  1.0419
  251TMC3    C7 3866   4.280   0.360  12.681 -0.0308  0.5468 -0.4605
  251TMC3    C8 3867   3.887   0.331  12.960 -0.0159  0.9522  0.8344
  251TMC3    O1 3868   4.355   0.280  12.632  0.2680  0.4634  0.1954
  251TMC3    O2 3869   3.921   0.432  13.026  0.0696  0.1551 -0.5720
  252TMC3    C1 3870   3.607   4.514   9.280  0.0254 -0.0647 -0.7370
  252TMC3    C2 3871   3.746   4.510   9.270  0.3382 -0.6274 -0.1726
  252TMC3    C3 3872   3.795   4.408   9.195 -0.1834  1.6431 -0.0739
  252TMC3    C4 3873   3.527   4.415   9.227  0.8464 -0.2555 -0.2718
  252TMC3    C5 3874   3.590   4.312   9.169 -0.3000 -1.0851 -0.5999
  252TMC3    C6 3875   3.724   4.311   9.138 -0.3045 -0.1851 -0.0886
  252TMC3     C 3876   3.554   4.628   9.355  0.7318  0.1324  0.1723
  252TMC3     O 3877   3.635   4.696   9.422 -0.0614 -0.5794  0.1022
  252TMC3     H 3878   3.802   4.596   9.306 -2.9868  1.1041  0.8357
  252TMC3    H1 3879   3.420   4.413   9.245  1.0503 -2.2005  0.8027
  252TMC3    H2 3880   3.773   4.223   9.098  0.1990  0.4390 -0.8483
  252TMC3    C7 3881   3.518   4.191   9.137  0.1531  0.1299  0.2146
  252TMC3    C8 3882   3.943   4.391   9.186  0.6259 -0.1683 -0.6949
  252TMC3    O1 3883   3.566   4.125   9.046  0.2286 -0.0285 -0.0443
  252TMC3    O2 3884   3.994   4.284   9.156  0.1517 -0.8975 -0.0226
  253MPD2     C 3885   0.667   0.122  15.417  0.5668  0.4394  0.2673
  253MPD2    C1 3886   0.541   0.081  15.388  0.2965 -0.8150 -0.6040
  253MPD2    C2 3887   0.459   0.048  15.493  0.9521 -0.3532  0.2226
  253MPD2    C3 3888   0.499   0.057  15.624 -0.0227  0.0796  0.1482
  253MPD2    C4 3889   0.625   0.107  15.651 -0.1729 -0.0230  0.0576
  253MPD2    C5 3890   0.709   0.129  15.554  1.0678  0.7120  0.0425
  253MPD2     H 3891   0.360   0.007  15.475  0.5403  0.6342  0.2321
  253MPD2    H1 3892   0.655   0.133  15.752 -2.1910 -1.0926  0.9382
  253MPD2    H2 3893   0.738   0.151  15.341 -0.0651  0.8345 -0.1658
  253MPD2    H3 3894   0.813   0.156  15.564  1.6689 -1.8101  0.6030
  253MPD2     N 3895   0.413   0.029  15.737  0.4873  0.1383  0.6227
  253MPD2    H5 3896   0.456   0.043  15.828 -0.1384  0.5592  0.8505
  253MPD2    N1 3897   0.480   0.074  15.261  0.3233 -0.2569 -1.0941
  253MPD2    H7 3898   0.383   0.046  15.250 -0.1212  0.7380  0.3187
  254TMC3    C1 3899   0.237   4.691  15.876 -0.6235 -0.6294  0.5155
  254TMC3    C2 3900   0.105   4.702  15.903  0.3785  0.1207  0.0682
  254TMC3    C3 3901   0.060   4.655  16.023 -0.2437 -0.4697 -0.2843
  254TMC3    C4 3902   0.333   4.652  15.969  0.5847  0.2842  1.0713
  254TMC3    C5 3903   0.280   4.618  16.090 -0.8869  0.2814 -0.1929
  254TMC3    C6 3904   0.144   4.618  16.116  0.3866  0.6006  0.5934
  254TMC3     C 3905   0.277   4.728  15.737 -1.1513 -0.2882  0.4984
  254TMC3     O 3906   0.203   4.694  15.645  0.3069  0.0812  0.0023
  254TMC3     H 3907   0.038   0.012  15.832 -2.2978  0.0078  2.5293
  254TMC3    H1 3908   0.440   4.641  15.953  0.5607  0.4886  0.7746
  254TMC3    H2 3909   0.119   4.590  16.218 -1.1891  0.6715  0.2308
  254TMC3    C7 3910   0.358   4.583  16.205  0.0602 -0.3196 -0.4170
  254TMC3    C8 3911   4.665   4.697  16.059  0.6013 -1.3860 -0.1541
  254TMC3    O1 3912   0.307   4.503  16.280 -0.2673 -0.0120  0.0114
  254TMC3    O2 3913   4.667   0.002  16.173 -0.2335  0.1853  0.3920
  255MPD2     C 3914   3.273   1.798  10.499  0.1843 -0.0844 -0.1017
  255MPD2    C1 3915   3.374   1.867  10.425 -0.1730 -0.0750  0.0253
  255MPD2    C2 3916   3.382   1.834  10.292 -0.9771 -0.1141  0.2289
  255MPD2    C3 3917   3.303   1.740  10.233 -0.9369  0.5000 -0.8876
  255MPD2    C4 3918   3.209   1.670  10.305 -0.3486 -1.0344  0.3568
  255MPD2    C5 3919   3.205   1.695  10.441 -0.9646 -0.9304 -0.3595
  255MPD2     H 3920   3.463   1.878  10.235 -0.0350  1.5898  2.8985
  255MPD2    H1 3921   3.137   1.596  10.271  1.5673 -2.8750  0.3474
  255MPD2    H2 3922   3.258   1.827  10.602 -2.2578  1.3753 -0.8715
  255MPD2    H3 3923   3.124   1.648  10.496  0.1407 -2.1142  0.2591
  255MPD2     N 3924   3.316   1.716  10.094  0.2886 -0.3185 -0.1248
  255MPD2    H5 3925   3.393   1.765  10.050 -0.8121  0.5163 -1.1093
  255MPD2    N1 3926   3.459   1.955  10.487  0.2031  0.1244  0.4094
  255MPD2    H7 3927   3.430   1.992  10.578 -2.5991  0.5509 -0.6755
  256TMC3    C1 3928   3.615   2.139  10.460  0.2554 -0.0637  0.4293
  256TMC3    C2 3929   3.663   2.206  10.350  0.4160  0.4501  0.0683
  256TMC3    C3 3930   3.621   2.332  10.324  0.3264 -0.7331  0.3656
  256TMC3    C4 3931   3.559   2.201  10.565  0.0575 -0.1328  0.5355
  256TMC3    C5 3932   3.523   2.329  10.543 -0.2450 -0.1593 -0.1774
  256TMC3    C6 3933   3.565   2.398  10.433  0.1900 -0.0022 -0.0672
  256TMC3     C 3934   3.571   2.006  10.423 -0.2012 -0.5592 -0.1741
  256TMC3     O 3935   3.653   1.947  10.349 -0.0522 -0.5341  0.4664
  256TMC3     H 3936   3.722   2.165  10.269 -0.0377 -2.1943  1.1075
  256TMC3    H1 3937   3.536   2.142  10.652 -0.9912 -1.6247 -0.7528
  256TMC3    H2 3938   3.517   2.496  10.426 -1.8733 -1.0882 -1.0506
  256TMC3    C7 3939   3.385   2.341  10.587 -0.0779  0.4089 -0.5195
  256TMC3    C8 3940   3.536   2.339  10.203  0.1639 -0.4130  1.1783
  256TMC3    O1 3941   3.324   2.239  10.618 -0.3514 -0.0059  0.2425
  256TMC3    O2 3942   3.518   2.230  10.152  0.0373 -0.0926 -0.5841
  257MPD2     C 3943   2.767   4.339  13.122  0.4902 -0.1431  0.3429
  257MPD2    C1 3944   2.770   4.261  13.006 -0.3676  0.3449  0.1791
  257MPD2    C2 3945   2.765   4.126  13.013  0.1620 -0.3071  0.3959
  257MPD2    C3 3946   2.772   4.058  13.136 -0.0030 -1.2649 -1.0073
  257MPD2    C4 3947   2.754   4.136  13.252 -0.2465  0.0193 -0.3689
  257MPD2    C5 3948   2.745   4.272  13.238  0.0786  0.5582 -0.4725
  257MPD2     H 3949   2.783   4.073  12.921 -0.4593  2.4328 -1.2781
  257MPD2    H1 3950   2.745   4.089  13.349 -1.3437  0.3471 -0.3135
  257MPD2    H2 3951   2.777   4.447  13.131 -0.4440 -0.2161  2.2877
  257MPD2    H3 3952   2.731   4.327  13.330 -0.2128  0.5202 -0.4948
  257MPD2     N 3953   2.797   3.916  13.134 -0.2790 -0.7849  0.3337
  257MPD2    H5 3954   2.804   3.883  13.038 -0.1421  0.6830 -0.1738
  257MPD2    N1 3955   2.776   4.335  12.888 -0.0191  0.7032 -0.2335
  257MPD2    H7 3956   2.781   4.435  12.905 -0.0970  0.5976  0.4097
  258TMC3    C1 3957   2.809   3.686  13.212 -0.0470 -0.1312 -0.0058
  258TMC3    C2 3958   2.807   3.626  13.087  0.3512 -0.0602 -0.0144
  258TMC3    C3 3959   2.804   3.489  13.071 -0.6103 -0.2885 -0.1831
  258TMC3    C4 3960   2.799   3.602  13.321  0.9259 -0.2854 -0.2815
  258TMC3    C5 3961   2.808   3.465  13.296 -0.8270  0.0500 -0.7674
  258TMC3    C6 3962   2.794   3.404  13.175 -0.5582  0.3197 -0.0355
  258TMC3     C 3963   2.792   3.827  13.238  0.3285  0.5183  0.0893
  258TMC3     O 3964   2.785   3.850  13.359 -0.4162 -0.3175  0.0329
  258TMC3     H 3965   2.816   3.678  12.992 -1.9922  1.1594  0.4236
  258TMC3    H1 3966   2.801   3.637  13.424  1.8541 -1.8467  0.2354
  258TMC3    H2 3967   2.797   3.297  13.163 -0.8885 -0.1327  4.2278
  258TMC3    C7 3968   2.859   3.371  13.393 -0.2693 -0.5691 -0.0191
  258TMC3    C8 3969   2.879   3.446  12.957  0.0333 -0.2346  0.4077
  258TMC3    O1 3970   2.844   3.254  13.376  0.8145  0.1776  0.1421
  258TMC3    O2 3971   2.975   3.518  12.931 -0.0789  0.2536 -0.3882
  259MPD2     C 3972   1.381   1.607   0.943  0.8182  0.1280 -0.1382
  259MPD2    C1 3973   1.385   1.470   0.920  0.2739 -0.2285  0.5556
  259MPD2    C2 3974   1.344   1.422   0.791  0.1025 -0.2638  1.1888
  259MPD2    C3 3975   1.303   1.504   0.688  0.8062  0.4723 -0.0766
  259MPD2    C4 3976   1.296   1.640   0.721  0.3626 -0.3061  0.1017
  259MPD2    C5 3977   1.338   1.692   0.845  1.4211  0.5761 -0.2771
  259MPD2     H 3978   1.352   1.316   0.768  0.0539  0.0688 -0.3073
  259MPD2    H1 3979   1.281   1.718   0.647  2.7441  1.0914  1.0951
  259MPD2    H2 3980   1.407   1.654   1.037  1.1734  2.5422 -1.4545
  259MPD2    H3 3981   1.325   1.797   0.867  1.1633  0.2732  1.0391
  259MPD2     N 3982   1.291   1.445   0.558  0.1175 -0.0614 -0.5252
  259MPD2    H5 3983   1.313   1.346   0.553  2.1961  0.3087  1.2660
  259MPD2    N1 3984   1.423   1.391   1.030 -0.3648 -0.0156  0.5042
  259MPD2    H7 3985   1.454   1.437   1.116  1.0312 -2.4799  1.3385
  260TMC3    C1 3986   1.280   1.431   0.318 -0.4712  0.7807  1.2087
  260TMC3    C2 3987   1.273   1.497   0.202 -0.0672 -0.2227 -0.5723
  260TMC3    C3 3988   1.249   1.425   0.089 -0.2710  0.1209 -0.8249
  260TMC3    C4 3989   1.263   1.293   0.326 -0.0915 -0.0044  0.5031
  260TMC3    C5 3990   1.237   1.227   0.204 -1.3070 -0.4613 -0.2500
  260TMC3    C6 3991   1.232   1.289   0.087 -0.0815  1.1203  0.7912
  260TMC3     C 3992   1.282   1.518   0.440  0.5534 -0.1564 -0.2377
  260TMC3     O 3993   1.260   1.637   0.431  0.0351 -0.4829 -0.2216
  260TMC3     H 3994   1.291   1.603   0.186 -1.3668 -0.2938 -2.5135
  260TMC3    H1 3995   1.286   1.243   0.419 -0.9450  0.6740  1.0765
  260TMC3    H2 3996   1.218   1.232  17.740 -2.0869  0.1558  1.6794
  260TMC3    C7 3997   1.232   1.079   0.199 -0.7659 -0.4958 -0.4736
  260TMC3    C8 3998   1.310   1.483  17.715 -0.1475 -0.6263  0.1021
  260TMC3    O1 3999   1.283   1.037   0.097  0.0373  0.0108 -0.3232
  260TMC3    O2 4000   1.270   1.599  17.693  0.1134 -1.0108 -0.8240
  261MPD2     C 4001   3.163   4.337  12.373 -0.3183  0.1851  0.3279
  261MPD2    C1 4002   3.280   4.399  12.338  1.1129  0.5561  0.7307
  261MPD2    C2 4003   3.267   4.535  12.321  0.1338  0.4270  0.2222
  261MPD2    C3 4004   3.149   4.602  12.325  0.9568  0.7844 -0.4563
  261MPD2    C4 4005   3.031   4.535  12.361  0.6794 -0.1302 -0.2607
  261MPD2    C5 4006   3.043   4.399  12.381 -0.2276 -1.0080  0.3093
  261MPD2     H 4007   3.357   4.595  12.310  0.7654 -0.6245 -0.2804
  261MPD2    H1 4008   2.932   4.578  12.356  1.2505  1.3141  0.9830
  261MPD2    H2 4009   3.153   4.230  12.380 -2.4778  0.2913 -0.8456
  261MPD2    H3 4010   2.954   4.344  12.408 -2.4966  1.4273 -2.2078
  261MPD2     N 4011   3.145   0.011  12.295 -0.2372  0.2372  0.2231
  261MPD2    H5 4012   3.226   0.057  12.256  0.2966 -0.6238  0.3321
  261MPD2    N1 4013   3.399   4.333  12.320 -0.6190 -0.0559 -0.8972
  261MPD2    H7 4014   3.469   4.387  12.270  1.1809 -1.1885  0.3738
  262TMC3    C1 4015   3.054   0.227  12.275 -0.7553  0.4663  0.4412
  262TMC3    C2 4016   2.982   0.331  12.337  0.1300  0.3875 -0.6345
  262TMC3    C3 4017   3.007   0.460  12.302 -0.6855 -0.3500  0.4279
  262TMC3    C4 4018   3.140   0.245  12.168 -0.5095 -0.4229  0.2214
  262TMC3    C5 4019   3.141   0.376  12.119  0.1237  0.0842  0.0081
  262TMC3    C6 4020   3.090   0.480  12.190 -0.0929  0.2160 -0.6900
  262TMC3     C 4021   3.038   0.093  12.328  0.3712 -0.6141 -0.0197
  262TMC3     O 4022   2.946   0.075  12.402 -0.2188  0.9987 -0.3270
  262TMC3     H 4023   2.914   0.309  12.419  2.1155  1.5970  1.3443
  262TMC3    H1 4024   3.197   0.165  12.122  0.2008  0.1386  0.1273
  262TMC3    H2 4025   3.116   0.584  12.174  0.1052  0.2997  0.1622
  262TMC3    C7 4026   3.227   0.413  12.001  0.7512  0.6852 -0.4263
  262TMC3    C8 4027   2.924   0.575  12.341 -0.8377 -0.1189  0.1357
  262TMC3    O1 4028   3.311   0.332  11.966 -0.5359 -0.3150 -0.4079
  262TMC3    O2 4029   2.983   0.683  12.335 -0.1618  0.0517 -0.1358
  263MPD2     C 4030   3.938   3.304  11.224  0.0769  0.2367  0.3939
  263MPD2    C1 4031   4.070   3.295  11.187 -0.4217  0.1288  0.4870
  263MPD2    C2 4032   4.101   3.348  11.061  0.2892  0.8595 -0.7224
  263MPD2    C3 4033   4.004   3.396  10.985 -0.7659 -0.5392 -0.3444
  263MPD2    C4 4034   3.871   3.404  11.026  0.3207  0.2902 -0.0780
  263MPD2    C5 4035   3.839   3.360  11.149 -0.0708  0.4397  0.0453
  263MPD2     H 4036   4.198   3.323  11.021  0.0321 -1.6372  0.1836
  263MPD2    H1 4037   3.787   3.446  10.972 -1.3071 -1.7978  0.8363
  263MPD2    H2 4038   3.912   3.282  11.327  2.0036  0.2950  0.8946
  263MPD2    H3 4039   3.734   3.354  11.174  0.6808  1.6599  3.5150
  263MPD2     N 4040   4.038   3.435  10.851  0.4658 -0.2084  0.0301
  263MPD2    H5 4041   4.135   3.426  10.823  0.4598  0.9393 -0.3462
  263MPD2    N1 4042   4.162   3.226  11.276  0.5394 -0.0066 -0.2112
  263MPD2    H7 4043   4.124   3.179  11.357  2.7804  0.6413  1.2217
  264TMC3    C1 4044   3.994   3.536  10.640 -0.5670  0.9974 -0.7192
  264TMC3    C2 4045   3.903   3.570  10.547 -1.1075  0.2749  0.0449
  264TMC3    C3 4046   3.946   3.587  10.417 -0.1107  0.2142 -0.2750
  264TMC3    C4 4047   4.129   3.540  10.605 -0.7409  0.4890 -0.0562
  264TMC3    C5 4048   4.166   3.562  10.484 -0.4499 -0.1112  0.4337
  264TMC3    C6 4049   4.076   3.573  10.385  0.5529  0.2413 -0.1389
  264TMC3     C 4050   3.948   3.499  10.770  0.1476 -0.6918 -0.0839
  264TMC3     O 4051   3.827   3.511  10.773  0.1979 -0.2070 -0.7903
  264TMC3     H 4052   3.799   3.580  10.575 -1.4414 -1.7070 -0.4628
  264TMC3    H1 4053   4.211   3.538  10.677  0.0045 -1.8899 -0.9552
  264TMC3    H2 4054   4.116   3.608  10.290  0.5620 -0.7961 -0.5179
  264TMC3    C7 4055   4.288   3.630  10.463  0.7814 -0.1355 -0.5599
  264TMC3    C8 4056   3.915   3.722  10.387  0.3199 -0.6639 -0.7115
  264TMC3    O1 4057   4.354   3.592  10.365  0.2315  0.2515 -0.4412
  264TMC3    O2 4058   3.949   3.754  10.275 -0.6268 -0.2910  0.1307
  265MPD2     C 4059   1.603   4.099  15.544 -0.1107  0.2243 -1.1057
  265MPD2    C1 4060   1.639   4.222  15.491 -0.5780 -1.2060 -0.1536
  265MPD2    C2 4061   1.732   4.236  15.386 -0.2206 -0.1881  0.4662
  265MPD2    C3 4062   1.769   4.123  15.316 -0.1102 -0.6201 -0.3423
  265MPD2    C4 4063   1.726   3.994  15.361 -0.0517  0.0160  0.2138
  265MPD2    C5 4064   1.642   3.989  15.468 -0.2747 -0.5388  0.0564
  265MPD2     H 4065   1.771   4.334  15.360 -0.9763  0.1409  0.5437
  265MPD2    H1 4066   1.759   3.897  15.325  1.8073  0.8496 -0.3591
  265MPD2    H2 4067   1.548   4.078  15.635 -2.3876  0.7699 -2.3767
  265MPD2    H3 4068   1.613   3.891  15.503 -0.0920 -0.6310 -0.0549
  265MPD2     N 4069   1.857   4.120  15.209  0.2699 -0.7446 -0.2060
  265MPD2    H5 4070   1.887   4.031  15.170  0.7515 -1.1172  1.0321
  265MPD2    N1 4071   1.610   4.336  15.561 -0.7886 -0.0539  0.6128
  265MPD2    H7 4072   1.662   4.420  15.541  0.0036 -0.2954  1.6433
  266TMC3    C1 4073   1.538   4.456  15.756 -0.0590  0.0409 -0.2488
  266TMC3    C2 4074   1.669   4.493  15.783  0.5026 -0.8952  0.3310
  266TMC3    C3 4075   1.690   4.570  15.896  0.0241  0.7035 -0.5238
  266TMC3    C4 4076   1.431   4.506  15.831 -0.3268 -0.5707  0.3990
  266TMC3    C5 4077   1.462   4.569  15.950 -0.5016 -0.0046  0.1812
  266TMC3    C6 4078   1.585   4.605  15.978 -0.3072 -0.0828  0.1476
  266TMC3     C 4079   1.524   4.335  15.670  0.4072 -0.3245 -0.6598
  266TMC3     O 4080   1.419   4.272  15.688 -0.0181 -0.2264 -0.5771
  266TMC3     H 4081   1.749   4.442  15.730 -1.0444 -1.2782 -1.6218
  266TMC3    H1 4082   1.329   4.492  15.797 -1.0272  2.0152  1.4569
  266TMC3    H2 4083   1.597   4.654  16.075 -2.1302 -0.6858  0.6740
  266TMC3    C7 4084   1.341   4.639  16.003  0.0286 -0.8041 -0.3889
  266TMC3    C8 4085   1.827   4.602  15.925 -0.0520  0.4168 -0.1885
  266TMC3    O1 4086   1.230   4.579  15.997 -0.8738  0.0072  0.2283
  266TMC3    O2 4087   1.917   4.524  15.892 -0.7375 -0.1218 -0.1198
  267MPD2     C 4088   4.160   1.001   0.566 -0.3858 -0.2840  0.0003
  267MPD2    C1 4089   4.264   1.080   0.521 -0.3940  0.0821  0.2645
  267MPD2    C2 4090   4.232   1.194   0.444  0.0906 -0.7787 -1.0199
  267MPD2    C3 4091   4.105   1.230   0.413 -0.7025 -0.4623  0.0212
  267MPD2    C4 4092   3.999   1.157   0.464  0.7257 -0.3247 -0.6606
  267MPD2    C5 4093   4.029   1.043   0.543  0.1659 -0.4750 -0.3869
  267MPD2     H 4094   4.312   1.262   0.413 -0.1184 -0.1625 -0.2035
  267MPD2    H1 4095   3.895   1.186   0.453  0.1009 -1.2437  2.9335
  267MPD2    H2 4096   4.184   0.914   0.625  0.2346  0.1715  0.4155
  267MPD2    H3 4097   3.950   0.976   0.574 -0.4583 -0.3496 -1.6906
  267MPD2     N 4098   4.067   1.344   0.336 -0.2768  0.6158  0.1142
  267MPD2    H5 4099   3.968   1.367   0.338  0.4877  4.1445 -1.3319
  267MPD2    N1 4100   4.398   1.050   0.561 -0.4303 -1.1682  0.8799
  267MPD2    H7 4101   4.416   0.990   0.641 -0.3938  0.3033  1.9748
  268TMC3    C1 4102   4.620   1.070   0.589  0.0854  0.4777 -0.1533
  268TMC3    C2 4103   4.729   1.152   0.584  0.0470 -0.0419  0.4045
  268TMC3    C3 4104   0.112   1.106   0.639 -0.5030  0.6180  0.6998
  268TMC3    C4 4105   4.629   0.933   0.603  0.2668 -0.6438 -0.1397
  268TMC3    C5 4106   0.020   0.892   0.647  0.1944 -0.3015  0.7336
  268TMC3    C6 4107   0.124   0.976   0.670 -0.2850 -0.9167  0.3479
  268TMC3     C 4108   4.505   1.120   0.524  1.1882 -1.0904 -1.4766
  268TMC3     O 4109   4.526   1.220   0.457  0.1769 -0.0125 -0.2575
  268TMC3     H 4110   4.711   1.258   0.576 -0.3603 -0.1429 -0.0783
  268TMC3    H1 4111   4.544   0.867   0.588  0.3711 -1.2822  2.2087
  268TMC3    H2 4112   0.220   0.939   0.704  0.6792  1.2981  0.0227
  268TMC3    C7 4113   0.045   0.748   0.669  0.2421 -0.0825 -0.7357
  268TMC3    C8 4114   0.234   1.182   0.610  0.5678 -0.7828 -0.0659
  268TMC3    O1 4115   0.135   0.715   0.744 -0.2774  0.0510 -0.5187
  268TMC3    O2 4116   0.334   1.155   0.679 -0.3323 -0.0107  0.0298
  269MPD2     C 4117   4.395   0.043  15.458 -0.8032 -0.4240  0.4084
  269MPD2    C1 4118   4.263   0.066  15.488  0.0203  0.2655 -0.3073
  269MPD2    C2 4119   4.217   0.197  15.495  0.3426 -0.0352  0.2794
  269MPD2    C3 4120   4.310   0.302  15.470  0.2355  0.0579 -0.0536
  269MPD2    C4 4121   4.430   0.269  15.411  0.2390 -0.0412 -0.3630
  269MPD2    C5 4122   4.474   0.142  15.411 -0.6563  0.6606 -0.2086
  269MPD2     H 4123   4.122   0.233  15.531  0.3224 -1.3473  1.5171
  269MPD2    H1 4124   4.498   0.343  15.372 -0.0186  0.2231 -0.3044
  269MPD2    H2 4125   4.426   4.675  15.453  1.3632  0.3211 -1.5044
  269MPD2    H3 4126   4.575   0.121  15.379 -0.4767  1.7636 -0.3624
  269MPD2     N 4127   4.267   0.439  15.476 -0.2519  0.7367 -0.6656
  269MPD2    H5 4128   4.179   0.455  15.524  0.1884  1.9832 -0.2767
  269MPD2    N1 4129   4.180   4.696  15.519 -0.5847  0.6082 -0.4061
  269MPD2    H7 4130   4.222   4.604  15.509  0.6803  1.5113 -3.1485
  270TMC3    C1 4131   3.990   4.571  15.572 -0.3350  0.6034 -0.1348
  270TMC3    C2 4132   3.871   4.541  15.503  0.1332 -0.1084 -0.8098
  270TMC3    C3 4133   3.844   4.413  15.483 -0.3212 -0.0335  0.2300
  270TMC3    C4 4134   4.067   4.471  15.624  0.9662 -0.1070 -0.5652
  270TMC3    C5 4135   4.024   4.342  15.618 -0.8178 -0.8906  0.0111
  270TMC3    C6 4136   3.912   4.313  15.542 -0.4251 -0.5306  0.0761
  270TMC3     C 4137   4.048   4.702  15.538  0.7532 -0.0280  0.1689
  270TMC3     O 4138   3.974   0.058  15.511  0.7771 -0.0646  0.7679
  270TMC3     H 4139   3.816   4.624  15.459  0.0349 -0.4791 -1.3703
  270TMC3    H1 4140   4.165   4.495  15.665  0.7814  0.4886 -0.4612
  270TMC3    H2 4141   3.872   4.212  15.542 -1.4808 -0.0884 -2.9636
  270TMC3    C7 4142   4.131   4.249  15.626  0.1516  0.2921 -1.0434
  270TMC3    C8 4143   3.795   4.392  15.357 -0.9099 -0.9917  0.2694
  270TMC3    O1 4144   4.222   4.281  15.705  0.2104  0.0173 -0.0110
  270TMC3    O2 4145   3.821   4.470  15.268 -0.4158  0.2393 -0.2966
  271MPD2     C 4146   3.630   4.254  13.777 -0.1543 -0.2971 -0.1730
  271MPD2    C1 4147   3.625   4.339  13.880  0.1525  0.1527  0.2999
  271MPD2    C2 4148   3.581   4.468  13.855  1.1542 -0.4300 -0.4458
  271MPD2    C3 4149   3.520   4.507  13.735 -0.4716  0.0215  0.0663
  271MPD2    C4 4150   3.519   4.415  13.633 -0.1225  0.9088  0.2200
  271MPD2    C5 4151   3.573   4.288  13.654 -0.8710 -0.5338  0.0293
  271MPD2     H 4152   3.592   4.537  13.938 -0.4759 -0.3103 -0.3324
  271MPD2    H1 4153   3.487   4.440  13.533  1.7142  1.3286 -0.2705
  271MPD2    H2 4154   3.652   4.148  13.786  0.0397 -0.0751  1.8523
  271MPD2    H3 4155   3.570   4.213  13.576 -1.4246  0.1568 -0.6183
  271MPD2     N 4156   3.461   4.637  13.706  0.0791  0.0519  0.1689
  271MPD2    H5 4157   3.404   4.637  13.622 -2.7375  0.7650  2.0870
  271MPD2    N1 4158   3.662   4.294  14.004 -0.3212 -0.0725 -0.9615
  271MPD2    H7 4159   3.685   4.195  14.014  0.3451  0.1683 -0.1122
  272TMC3    C1 4160   3.711   4.271  14.231 -0.3322  0.0856 -0.4369
  272TMC3    C2 4161   3.775   4.158  14.202 -0.3841  0.9338 -0.6645
  272TMC3    C3 4162   3.771   4.056  14.291  0.6169 -0.0010 -0.2074
  272TMC3    C4 4163   3.639   4.281  14.349 -0.0767 -0.7483 -0.0321
  272TMC3    C5 4164   3.620   4.170  14.426 -0.5866 -0.3337  0.9475
  272TMC3    C6 4165   3.690   4.054  14.400  0.1946 -0.9102 -0.8866
  272TMC3     C 4166   3.656   4.355  14.126  0.4042  0.5282  0.2974
  272TMC3     O 4167   3.613   4.465  14.155  0.7075  0.6405  0.2450
  272TMC3     H 4168   3.837   4.152  14.113 -0.8743  1.5624 -1.0499
  272TMC3    H1 4169   3.581   4.371  14.367  1.6729  0.7985 -2.0081
  272TMC3    H2 4170   3.688   3.970  14.468  2.0610  1.0195  1.5798
  272TMC3    C7 4171   3.577   4.179  14.558 -0.1357  0.6850 -0.3480
  272TMC3    C8 4172   3.889   3.965  14.284 -0.6730 -0.9349 -0.0073
  272TMC3    O1 4173   3.540   4.079  14.615  0.0390  0.0497  0.1271
  272TMC3    O2 4174   3.941   3.944  14.179 -0.0477 -0.2399 -0.5710
  273MPD2     C 4175   4.366   2.070  11.562  0.4275 -0.1567  0.6951
  273MPD2    C1 4176   4.501   2.039  11.590 -0.8937 -0.3261 -0.0544
  273MPD2    C2 4177   4.596   2.080  11.490 -0.0263 -0.5304  0.6699
  273MPD2    C3 4178   4.553   2.130  11.364 -0.1608 -0.6970  0.1615
  273MPD2    C4 4179   4.420   2.148  11.346 -0.3588 -0.0278  0.6053
  273MPD2    C5 4180   4.327   2.120  11.442  0.0203 -0.4614  1.1141
  273MPD2     H 4181   4.702   2.069  11.513  0.2441  1.1299  0.2095
  273MPD2    H1 4182   4.382   2.185  11.250  1.0652 -0.3917 -0.0887
  273MPD2    H2 4183   4.290   2.044  11.635 -0.7269  0.1441 -0.3930
  273MPD2    H3 4184   4.223   2.138  11.415  0.4663  1.0939  0.4388
  273MPD2     N 4185   4.642   2.161  11.253  0.5837  0.3841  0.0691
  273MPD2    H5 4186   4.599   2.197  11.168  1.0694  3.1287  0.9931
  273MPD2    N1 4187   4.534   1.983  11.717 -0.3731 -0.0225 -0.0201
  273MPD2    H7 4188   4.458   1.980  11.785  0.3328 -0.6811  0.7558
  274TMC3    C1 4189   0.098   2.213  11.139  0.2135 -0.4778 -0.3600
  274TMC3    C2 4190   0.034   2.221  11.024 -0.6049 -0.8507 -0.8495
  274TMC3    C3 4191   0.064   2.310  10.929  0.2183  0.2438  0.2135
  274TMC3    C4 4192   0.211   2.294  11.157 -0.4519  0.6996 -0.1888
  274TMC3    C5 4193   0.231   2.398  11.073 -0.4365 -0.0631 -0.1595
  274TMC3    C6 4194   0.161   2.403  10.951 -1.0229  0.5743 -0.0522
  274TMC3     C 4195   0.036   2.171  11.259  0.4833 -0.5169 -0.6579
  274TMC3     O 4196   0.101   2.168  11.365  0.4498  0.3594  0.0557
  274TMC3     H 4197   4.682   2.159  11.014 -0.1139 -1.7751  0.4980
  274TMC3    H1 4198   0.245   2.307  11.259 -2.3585 -1.3041  0.7114
  274TMC3    H2 4199   0.162   2.502  10.905  1.1466  0.7957  0.4511
  274TMC3    C7 4200   0.230   2.523  11.138 -0.9102 -0.0845 -0.2157
  274TMC3    C8 4201   4.694   2.346  10.836 -0.3815 -0.4577 -0.4334
  274TMC3    O1 4202   0.181   2.531  11.251 -0.1879 -0.1819  0.4455
  274TMC3    O2 4203   4.578   2.311  10.862 -0.0616  1.0404  0.2660
  275MPD2     C 4204   0.413   0.533  14.370 -0.4745 -0.2927  0.6644
  275MPD2    C1 4205   0.308   0.623  14.374  0.8273  1.3326 -0.1483
  275MPD2    C2 4206   0.180   0.577  14.364  0.2596 -0.1604 -0.1100
  275MPD2    C3 4207   0.157   0.443  14.334  0.5254 -0.5755  0.3353
  275MPD2    C4 4208   0.262   0.357  14.331 -0.1268 -0.1120  0.4518
  275MPD2    C5 4209   0.389   0.402  14.345 -0.1993 -0.3660  0.4225
  275MPD2     H 4210   0.100   0.650  14.367  1.4218  1.0972  0.5734
  275MPD2    H1 4211   0.261   0.254  14.295 -0.4995  0.6690 -1.7722
  275MPD2    H2 4212   0.515   0.570  14.376 -0.1616 -1.2770  1.2633
  275MPD2    H3 4213   0.479   0.341  14.346 -0.5680 -0.8670  1.8719
  275MPD2     N 4214   0.028   0.391  14.301 -0.4441  0.2758 -0.3763
  275MPD2    H5 4215   0.008   0.291  14.304 -2.0054  0.5569 -1.5808
  275MPD2    N1 4216   0.320   0.767  14.388  1.0623 -0.5691 -0.2218
  275MPD2    H7 4217   0.233   0.820  14.385  1.0717 -0.5409  0.0612
  276TMC3    C1 4218   0.411   0.975  14.450  0.1004  0.0230 -0.2397
  276TMC3    C2 4219   0.283   0.987  14.505 -1.4453  0.2352  0.6592
  276TMC3    C3 4220   0.272   1.018  14.638 -0.3682 -0.0649 -0.0711
  276TMC3    C4 4221   0.520   1.025  14.512 -0.0659  0.3791  0.4322
  276TMC3    C5 4222   0.506   1.063  14.643 -1.1210  0.0497 -0.6039
  276TMC3    C6 4223   0.380   1.064  14.707  0.0434 -0.3210 -0.4665
  276TMC3     C 4224   0.435   0.840  14.399  0.7030  0.0973  0.1580
  276TMC3     O 4225   0.553   0.805  14.399 -0.2901  0.0740 -0.6083
  276TMC3     H 4226   0.196   0.950  14.451 -2.2592  1.0966  1.3838
  276TMC3    H1 4227   0.622   1.006  14.480 -0.3066 -0.7034  0.3031
  276TMC3    H2 4228   0.353   1.092  14.808 -0.7089  0.7169 -0.9589
  276TMC3    C7 4229   0.619   1.078  14.727  0.5344 -0.6978  1.0498
  276TMC3    C8 4230   0.238   0.893  14.706  0.5524  0.2407 -0.2690
  276TMC3    O1 4231   0.599   1.064  14.849  0.6512 -0.2377 -0.0980
  276TMC3    O2 4232   0.323   0.834  14.767 -0.0366 -0.5128  0.5520
  277MPD2     C 4233   1.936   0.352  13.113  0.5408 -0.0772 -0.3727
  277MPD2    C1 4234   1.856   0.422  13.197 -0.0541  0.7332  0.0886
  277MPD2    C2 4235   1.808   0.359  13.309 -0.5436  0.3740  0.6141
  277MPD2    C3 4236   1.830   0.228  13.334 -0.6741  0.4883 -0.3939
  277MPD2    C4 4237   1.916   0.155  13.248  0.2907 -0.3811  0.0381
  277MPD2    C5 4238   1.968   0.219  13.141 -0.2496 -0.8885  0.2939
  277MPD2     H 4239   1.738   0.408  13.377 -1.9445  0.0181 -0.5626
  277MPD2    H1 4240   1.946   0.054  13.274  0.7024 -0.2582  0.0397
  277MPD2    H2 4241   1.975   0.395  13.021 -1.6403  3.0447  0.1599
  277MPD2    H3 4242   2.027   0.163  13.069  0.0452 -1.2632  0.8350
  277MPD2     N 4243   1.765   0.164  13.450 -1.0297 -0.7457  0.6913
  277MPD2    H5 4244   1.684   0.212  13.488  0.8059  2.1183  0.9688
  277MPD2    N1 4245   1.826   0.557  13.159  0.0526  0.9323  0.6295
  277MPD2    H7 4246   1.828   0.576  13.060  2.1386 -0.8678  0.3227
  278TMC3    C1 4247   1.714   4.718  13.587 -0.3257  0.4685  0.1905
  278TMC3    C2 4248   1.706   4.584  13.559 -0.6304 -0.0118  0.2275
  278TMC3    C3 4249   1.578   4.539  13.563  0.1653 -0.3328  0.4038
  278TMC3    C4 4250   1.609   0.059  13.644 -0.0474 -0.6382 -0.1903
  278TMC3    C5 4251   1.481   0.005  13.649 -0.7863 -0.0774  0.5350
  278TMC3    C6 4252   1.465   4.612  13.603 -0.0966 -0.1599  0.1090
  278TMC3     C 4253   1.813   0.046  13.507  0.0758 -0.0790 -0.3962
  278TMC3     O 4254   1.918   4.719  13.481  0.3357 -0.1304 -0.0371
  278TMC3     H 4255   1.792   4.543  13.507  0.1590  1.5215  0.2934
  278TMC3    H1 4256   1.613   0.165  13.669  0.6772 -1.1558  1.8632
  278TMC3    H2 4257   1.363   4.575  13.593 -0.1329 -0.0205 -0.0521
  278TMC3    C7 4258   1.371   0.086  13.705  0.0760 -0.3373  0.1933
  278TMC3    C8 4259   1.563   4.407  13.518  0.1660 -0.7477  0.8005
  278TMC3    O1 4260   1.383   0.209  13.690  0.0373  0.5088 -0.2550
  278TMC3    O2 4261   1.460   4.347  13.540  0.5225  0.4948 -0.1696
  279MPD2     C 4262   0.770   3.441  17.518 -0.4771 -0.2809  0.0434
  279MPD2    C1 4263   0.751   3.527  17.618 -0.2306  0.3832  0.0534
  279MPD2    C2 4264   0.844   3.629  17.625 -0.0790  0.0156  0.1343
  279MPD2    C3 4265   0.938   3.652  17.525  0.3468  0.1474  0.3507
  279MPD2    C4 4266   0.946   3.566  17.414 -0.0445  0.3400  0.4484
  279MPD2    C5 4267   0.856   3.468  17.413 -0.3059 -0.7760 -0.2195
  279MPD2     H 4268   0.835   3.695  17.710  1.7975  0.3088  0.1134
  279MPD2    H1 4269   1.018   3.575  17.333  1.5130 -3.3727  1.4302
  279MPD2    H2 4270   0.702   3.357  17.505  0.4500 -1.0885  0.4417
  279MPD2    H3 4271   0.855   3.400  17.329 -2.4258 -0.9504 -0.0635
  279MPD2     N 4272   1.029   3.758  17.525  0.7108  1.0029 -0.4874
  279MPD2    H5 4273   1.071   3.768  17.433 -0.7943  1.0048 -1.1782
  279MPD2    N1 4274   0.639   3.516  17.701 -0.5277 -0.4240 -0.2550
  279MPD2    H7 4275   0.556   3.470  17.666 -1.1367 -0.0189  0.6843
  280TMC3    C1 4276   0.477   3.541   0.120  0.1072 -0.6979  0.1647
  280TMC3    C2 4277   0.397   3.460   0.043  0.9495 -0.5241 -0.2934
  280TMC3    C3 4278   0.262   3.487   0.047 -0.4191 -0.1694  0.0787
  280TMC3    C4 4279   0.418   3.642   0.198 -0.9901  0.3196  0.6248
  280TMC3    C5 4280   0.289   3.669   0.184 -0.5485  0.3452  0.0749
  280TMC3    C6 4281   0.204   3.592   0.109 -0.7067 -0.5071 -0.0495
  280TMC3     C 4282   0.612   3.572   0.078  0.1320  0.0344  0.3489
  280TMC3     O 4283   0.680   3.635   0.158 -0.3880 -0.5808  0.4480
  280TMC3     H 4284   0.434   3.367   0.002  0.1764 -2.5571  3.6648
  280TMC3    H1 4285   0.480   3.718   0.244 -0.1867  1.3219 -2.1154
  280TMC3    H2 4286   0.100   3.622   0.095  0.5508  3.4830 -0.8094
  280TMC3    C7 4287   0.244   3.777   0.263 -0.1770 -0.7138 -0.1296
  280TMC3    C8 4288   0.188   3.417  17.693 -0.4686 -0.1278 -0.1856
  280TMC3    O1 4289   0.305   3.784   0.371  0.5847 -0.5031 -0.1906
  280TMC3    O2 4290   0.243   3.365  17.597  0.4242  0.2913 -0.5365
  281TMC3    C1 4291   0.346   0.320  12.999  0.6001  0.2477 -0.1044
  281TMC3    C2 4292   0.260   0.320  12.892 -0.0366  0.6104  0.2767
  281TMC3    C3 4293   0.169   0.225  12.867  0.4894  0.1690  0.2079
  281TMC3    C4 4294   0.339   0.214  13.082 -0.0575 -0.1868  0.2306
  281TMC3    C5 4295   0.244   0.111  13.051 -0.1219  1.0344 -0.2037
  281TMC3    C6 4296   0.159   0.112  12.941  0.1986  0.2058  0.5787
  281TMC3     C 4297   0.348   0.443  13.072  0.0621 -0.3158 -0.0766
  281TMC3     O 4298   0.445   0.516  13.047 -0.3474 -0.6626 -0.3053
  281TMC3     H 4299   0.282   0.404  12.828 -0.7092  1.8377  1.6343
  281TMC3    H1 4300   0.403   0.201  13.168 -0.0913  2.4450  0.6708
  281TMC3    H2 4301   0.084   0.036  12.923 -0.7528  0.6891  2.4593
  281TMC3    C7 4302   0.261   4.729  13.139  0.2394 -0.3079  0.1405
  281TMC3    C8 4303   0.043   0.285  12.828  0.2248  0.4163 -0.7528
  281TMC3    O1 4304   0.372   4.726  13.192  0.4177  0.1809  0.4867
  281TMC3    O2 4305   4.695   0.200  12.810 -0.1438 -0.3985 -0.1117
  282MPD2     C 4306   1.522   0.940  14.988  0.0396 -0.1542 -0.3420
  282MPD2    C1 4307   1.525   1.075  14.998  0.3319 -0.1457  0.8549
  282MPD2    C2 4308   1.485   1.153  14.886 -0.4736  0.4373  0.6658
  282MPD2    C3 4309   1.445   1.094  14.771 -0.0980 -0.0015  0.4758
  282MPD2    C4 4310   1.446   0.955  14.762 -0.2504 -0.0248  0.3243
  282MPD2    C5 4311   1.486   0.877  14.871 -0.7084  0.1145  0.3396
  282MPD2     H 4312   1.483   1.261  14.894  0.0432  0.3413  2.0886
  282MPD2    H1 4313   1.427   0.896  14.673 -0.9880  2.0435 -0.8653
  282MPD2    H2 4314   1.535   0.877  15.076 -1.9152 -0.5527 -0.3302
  282MPD2    H3 4315   1.466   0.772  14.853  0.3913  0.4118 -2.6833
  282MPD2     N 4316   1.407   1.170  14.663 -0.3434  0.0183  0.2697
  282MPD2    H5 4317   1.412   1.270  14.680  4.7142 -0.1010 -0.2746
  282MPD2    N1 4318   1.538   1.129  15.134 -0.0192  0.3031 -0.1424
  282MPD2    H7 4319   1.555   1.062  15.208 -0.8446 -0.4608 -0.6557
  283TMC3    C1 4320   1.541   1.296  15.304 -0.2845 -0.1141 -0.1302
  283TMC3    C2 4321   1.575   1.425  15.333 -0.3807 -0.3642  0.0637
  283TMC3    C3 4322   1.559   1.465  15.463 -0.2901  0.1893 -0.2229
  283TMC3    C4 4323   1.495   1.202  15.397  0.1768 -0.2387  0.1263
  283TMC3    C5 4324   1.498   1.241  15.526 -0.2167  0.6813 -0.0422
  283TMC3    C6 4325   1.526   1.368  15.561  0.0531 -0.0339 -0.4803
  283TMC3     C 4326   1.537   1.261  15.161  1.2116  0.1502  0.0062
  283TMC3     O 4327   1.539   1.357  15.081  0.4547 -0.5341 -0.2289
  283TMC3     H 4328   1.603   1.490  15.250 -0.6902  1.1876  1.1883
  283TMC3    H1 4329   1.449   1.114  15.353  1.3350 -0.4413 -0.6938
  283TMC3    H2 4330   1.521   1.404  15.664  2.0828 -2.1873  0.3834
  283TMC3    C7 4331   1.392   1.181  15.609 -0.0662  0.0404 -0.1870
  283TMC3    C8 4332   1.537   1.609  15.502 -0.0671 -0.8554  0.0295
  283TMC3    O1 4333   1.360   1.238  15.714  0.6441 -0.1266  0.1444
  283TMC3    O2 4334   1.509   1.626  15.619  0.5423  0.5381 -0.2068
  284MPD2     C 4335   4.071   0.435  11.273 -0.5846  0.6687  0.7052
  284MPD2    C1 4336   4.074   0.356  11.159 -0.0572 -0.2178 -0.2798
  284MPD2    C2 4337   4.001   0.238  11.170 -0.4253 -0.0877  0.3415
  284MPD2    C3 4338   3.924   0.198  11.277 -0.1625 -0.7529  0.4113
  284MPD2    C4 4339   3.907   0.286  11.377 -0.3304 -0.2785  0.8110
  284MPD2    C5 4340   3.982   0.402  11.375  0.4643 -0.1347  0.6935
  284MPD2     H 4341   4.007   0.185  11.076 -1.2099  1.4787 -0.5971
  284MPD2    H1 4342   3.834   0.274  11.456  0.0527 -0.3758  1.1547
  284MPD2    H2 4343   4.128   0.527  11.283 -0.6015  0.9612 -1.8268
  284MPD2    H3 4344   3.972   0.462  11.465 -2.4439  0.8143 -0.2415
  284MPD2     N 4345   3.853   0.076  11.281 -0.2044  0.2019 -0.1839
  284MPD2    H5 4346   3.780   0.068  11.351  0.1022  0.3362  0.1521
  284MPD2    N1 4347   4.141   0.385  11.028  0.3567 -0.7773  0.0562
  284MPD2    H7 4348   4.165   0.310  10.965 -0.2972 -2.1711  1.4590
  285TMC3    C1 4349   4.237   0.523  10.855  0.2672  0.1081  0.4742
  285TMC3    C2 4350   4.229   0.421  10.761 -0.3642 -0.3841 -0.0193
  285TMC3    C3 4351   4.318   0.429  10.658 -0.0267 -0.1982  0.3662
  285TMC3    C4 4352   4.310   0.639  10.827  0.1270 -0.3260  0.0832
  285TMC3    C5 4353   4.369   0.651  10.706  0.3001  0.1927  0.9360
  285TMC3    C6 4354   4.391   0.542  10.632  0.7140 -0.0956 -0.5280
  285TMC3     C 4355   4.189   0.509  10.995  1.2480 -0.2103 -0.0713
  285TMC3     O 4356   4.208   0.607  11.066  0.4508  0.2341 -0.1134
  285TMC3     H 4357   4.159   0.340  10.774  0.8447 -1.3874  0.2660
  285TMC3    H1 4358   4.301   0.723  10.895 -1.8525  1.2486 -2.1309
  285TMC3    H2 4359   4.460   0.559  10.551 -0.5503  1.6832 -1.2441
  285TMC3    C7 4360   4.493   0.721  10.718  0.2484 -0.8042  0.4650
  285TMC3    C8 4361   4.362   0.306  10.600  0.0810 -0.3147  0.1895
  285TMC3    O1 4362   4.542   0.723  10.832  0.1373 -0.3059  0.2833
  285TMC3    O2 4363   4.276   0.218  10.592 -0.5865 -0.2156  0.4530
  286MPD2     C 4364   0.817   3.894   1.700  0.5550  0.1758  0.4629
  286MPD2    C1 4365   0.705   3.869   1.620 -0.0816  0.8547 -0.0851
  286MPD2    C2 4366   0.710   3.776   1.513  0.1370 -0.1480 -0.7818
  286MPD2    C3 4367   0.827   3.696   1.502 -0.2040 -0.4355 -0.0900
  286MPD2    C4 4368   0.938   3.724   1.585  0.2592  0.5692 -0.6265
  286MPD2    C5 4369   0.931   3.828   1.674  0.2405 -0.5534  0.3690
  286MPD2     H 4370   0.629   3.765   1.442  0.2499  1.0482 -1.1048
  286MPD2    H1 4371   1.031   3.668   1.580 -1.1015 -1.8032  0.5560
  286MPD2    H2 4372   0.820   3.969   1.778 -0.1656  2.6665 -1.8921
  286MPD2    H3 4373   1.017   3.845   1.737  0.5369 -0.1070 -0.1526
  286MPD2     N 4374   0.847   3.600   1.400 -0.2256  0.0457  0.0706
  286MPD2    H5 4375   0.938   3.555   1.402 -0.8444 -1.1441  1.4638
  286MPD2    N1 4376   0.588   3.948   1.626  0.3028 -0.1245  0.6654
  286MPD2    H7 4377   0.524   3.924   1.550  0.2356 -0.3878  0.8060
  287TMC3    C1 4378   0.804   3.445   1.226 -0.1058 -0.1948  0.6646
  287TMC3    C2 4379   0.721   3.400   1.125  0.4168 -0.3249  0.1648
  287TMC3    C3 4380   0.777   3.329   1.022 -0.7019 -0.7197  0.2517
  287TMC3    C4 4381   0.934   3.410   1.228 -0.7613 -1.0344 -0.1449
  287TMC3    C5 4382   0.983   3.329   1.131 -0.1807  0.1220  0.2215
  287TMC3    C6 4383   0.909   3.295   1.018  0.3997  0.1896 -0.0914
  287TMC3     C 4384   0.752   3.551   1.316 -0.4337  0.3138 -0.2693
  287TMC3     O 4385   0.631   3.580   1.301  0.0729 -1.2294  0.8058
  287TMC3     H 4386   0.613   3.408   1.136  0.2579  1.8650 -2.9912
  287TMC3    H1 4387   0.994   3.434   1.315 -1.0410  1.2763 -0.5691
  287TMC3    H2 4388   0.975   3.272   0.935 -0.5050  0.6501 -0.9355
  287TMC3    C7 4389   1.114   3.273   1.157 -0.2601  0.5209  0.3347
  287TMC3    C8 4390   0.686   3.268   0.920  0.6947 -0.2932  0.1416
  287TMC3    O1 4391   1.177   3.329   1.245 -0.5899 -0.1349  0.6280
  287TMC3    O2 4392   0.567   3.303   0.925  0.0380 -0.2335  0.0708
  288TMC3    C1 4393   2.544   4.298  14.328 -0.2297  0.0684 -0.3980
  288TMC3    C2 4394   2.420   4.305  14.386  0.0579 -0.1638 -0.0571
  288TMC3    C3 4395   2.335   4.407  14.345 -0.5899  0.7154 -0.1302
  288TMC3    C4 4396   2.589   4.393  14.243  0.7148  0.2364  0.7602
  288TMC3    C5 4397   2.512   4.498  14.219 -0.0767  0.0500 -0.3851
  288TMC3    C6 4398   2.380   4.501  14.256 -0.2933  0.2936  0.4064
  288TMC3     C 4399   2.638   4.198  14.371 -0.6259  0.9118  0.0501
  288TMC3     O 4400   2.616   4.143  14.480  0.2078 -0.4676 -0.0960
  288TMC3     H 4401   2.389   4.233  14.461  1.2886 -0.4344  0.1896
  288TMC3    H1 4402   2.695   4.395  14.219  0.3577  1.4338 -0.6537
  288TMC3    H2 4403   2.317   4.583  14.224  0.5508  0.8522  0.1797
  288TMC3    C7 4404   2.566   4.617  14.157 -0.2617 -0.1092  0.2888
  288TMC3    C8 4405   2.197   4.431  14.393  0.0856  0.1734 -0.0911
  288TMC3    O1 4406   2.494   4.713  14.147  0.1152 -0.2699 -0.6204
  288TMC3    O2 4407   2.155   4.544  14.388  0.5188 -0.5226  0.5227
  289MPD2     C 4408   2.090   3.211  14.525 -0.5967  0.1985 -0.0844
  289MPD2    C1 4409   2.148   3.276  14.419 -0.0864 -0.4344  0.2175
  289MPD2    C2 4410   2.122   3.243  14.287 -0.9788 -0.3424 -0.1968
  289MPD2    C3 4411   2.025   3.148  14.263 -0.5578 -0.1642 -0.0709
  289MPD2    C4 4412   1.970   3.076  14.372 -0.5684  0.4542 -0.2643
  289MPD2    C5 4413   1.999   3.109  14.502  0.0184  0.4528  0.2504
  289MPD2     H 4414   2.169   3.292  14.203  0.2879 -0.8438  0.2160
  289MPD2    H1 4415   1.891   3.004  14.350  0.1834  0.0327 -1.6059
  289MPD2    H2 4416   2.106   3.249  14.626 -1.9483 -1.9380  0.9355
  289MPD2    H3 4417   1.949   3.051  14.578  2.4821 -0.2534  1.3220
  289MPD2     N 4418   1.964   3.129  14.138 -0.2516 -0.2961 -0.2138
  289MPD2    H5 4419   1.908   3.045  14.134  0.7457 -0.9639 -0.3335
  289MPD2    N1 4420   2.214   3.391  14.463 -0.7232  0.1362 -0.2803
  289MPD2    H7 4421   2.235   3.407  14.561 -0.4433  1.6032 -0.5820
  290TMC3    C1 4422   1.877   3.217  13.931  0.3081 -0.0901 -0.3180
  290TMC3    C2 4423   1.884   3.312  13.835  0.6631  0.1660 -0.5082
  290TMC3    C3 4424   1.789   3.327  13.740 -0.2738  0.0264  0.3484
  290TMC3    C4 4425   1.777   3.125  13.925 -0.5734  0.4973 -0.6415
  290TMC3    C5 4426   1.681   3.140  13.828  0.6015 -0.1363  0.0324
  290TMC3    C6 4427   1.682   3.241  13.735  0.6392  0.1675 -0.3149
  290TMC3     C 4428   1.976   3.223  14.037 -0.1896 -0.6364 -0.1729
  290TMC3     O 4429   2.037   3.333  14.035 -0.2176 -0.2926  0.2132
  290TMC3     H 4430   1.959   3.390  13.839  1.0666 -0.3267  1.6292
  290TMC3    H1 4431   1.781   3.045  13.997 -1.2133  1.4200  0.4103
  290TMC3    H2 4432   1.593   3.260  13.675 -0.4541  1.4312  1.7051
  290TMC3    C7 4433   1.555   3.075  13.851  0.5665  0.5432 -0.0925
  290TMC3    C8 4434   1.751   3.468  13.728 -0.1899 -0.1532 -0.1958
  290TMC3    O1 4435   1.453   3.140  13.819  0.2992 -0.0974 -0.3039
  290TMC3    O2 4436   1.843   3.547  13.696 -0.4523 -0.2297  0.1912
  291MPD2     C 4437   0.621   2.996   0.183 -0.3731  0.7226  0.1286
  291MPD2    C1 4438   0.742   2.953   0.151 -0.4873 -0.3906 -0.6111
  291MPD2    C2 4439   0.852   3.038   0.137  0.1478 -0.2749  0.4057
  291MPD2    C3 4440   0.843   3.165   0.179 -0.7301  0.4191 -0.2985
  291MPD2    C4 4441   0.719   3.208   0.217 -0.4175  0.4048 -0.8625
  291MPD2    C5 4442   0.602   3.133   0.212 -1.0686 -0.0834 -0.5367
  291MPD2     H 4443   0.950   2.995   0.119  0.1930  1.3216 -3.2384
  291MPD2    H1 4444   0.711   3.309   0.257  1.1136  0.3654 -0.4672
  291MPD2    H2 4445   0.535   2.934   0.205  0.4972  0.0205  1.5105
  291MPD2    H3 4446   0.513   3.165   0.265 -1.5610  0.3087 -1.6014
  291MPD2     N 4447   0.952   3.253   0.178 -0.5890  0.0716  0.5046
  291MPD2    H5 4448   0.947   3.342   0.226 -2.1641  0.3416 -0.1634
  291MPD2    N1 4449   0.769   2.811   0.122 -0.0883  0.9919  0.3418
  291MPD2    H7 4450   0.865   2.785   0.102  0.0520  1.0322  0.9513
  292TMC3    C1 4451   0.722   2.594   0.040  0.0993 -0.3325  0.2897
  292TMC3    C2 4452   0.833   2.551   0.104  0.8037  0.0588 -0.6224
  292TMC3    C3 4453   0.904   2.453   0.042 -0.0108 -0.6645 -0.0550
  292TMC3    C4 4454   0.683   2.543  17.662  0.2934  0.1208  0.1876
  292TMC3    C5 4455   0.769   2.451  17.596  0.3766 -0.5474 -0.5617
  292TMC3    C6 4456   0.886   2.408  17.654 -0.0590  0.0530  0.5111
  292TMC3     C 4457   0.673   2.725   0.074 -0.3256 -0.3723 -0.7336
  292TMC3     O 4458   0.554   2.741   0.048 -0.0476 -0.2255  0.0209
  292TMC3     H 4459   0.865   2.584   0.202  1.8786  0.2468 -1.0437
  292TMC3    H1 4460   0.605   2.593  17.606  1.0256 -0.2453 -1.1662
  292TMC3    H2 4461   0.953   2.340  17.602  1.3491  1.5599  0.3455
  292TMC3    C7 4462   0.724   2.381  17.472  0.2463  0.1448  0.5968
  292TMC3    C8 4463   0.992   2.389   0.130 -0.6471  0.4360 -0.3620
  292TMC3    O1 4464   0.811   2.358  17.383 -0.0426 -0.2152 -0.3485
  292TMC3    O2 4465   1.064   2.462   0.192 -0.1643 -0.2684  0.1125
  293MPD2     C 4466   3.318   3.804  12.972  0.5101  0.3287 -0.4824
  293MPD2    C1 4467   3.201   3.863  12.942 -0.1635 -0.1358 -0.5757
  293MPD2    C2 4468   3.149   3.966  13.022  0.4019  1.0702 -0.0070
  293MPD2    C3 4469   3.232   4.003  13.129  0.5374 -0.2118  0.4316
  293MPD2    C4 4470   3.351   3.937  13.156 -0.2167 -0.2083  0.4900
  293MPD2    C5 4471   3.401   3.844  13.071 -0.0647 -0.0537 -0.6485
  293MPD2     H 4472   3.054   4.015  13.003 -0.8356 -0.5030  2.1545
  293MPD2    H1 4473   3.413   3.960  13.241 -0.5162 -0.9276  0.9006
  293MPD2    H2 4474   3.342   3.719  12.910 -1.6551 -1.8466  1.6305
  293MPD2    H3 4475   3.498   3.798  13.086  0.6048  0.8146 -2.2727
  293MPD2     N 4476   3.190   4.099  13.224  0.3619 -0.8855  0.7306
  293MPD2    H5 4477   3.217   4.105  13.322  0.2640 -0.6926  0.7465
  293MPD2    N1 4478   3.136   3.807  12.832 -0.8478  0.2754  0.1445
  293MPD2    H7 4479   3.190   3.758  12.761 -2.2370 -1.0199 -0.0331
  294TMC3    C1 4480   2.960   3.767  12.683 -0.6230  0.2288  0.1103
  294TMC3    C2 4481   2.856   3.681  12.687 -0.0631  0.3038 -0.2798
  294TMC3    C3 4482   2.809   3.638  12.563  0.8341 -0.3557 -0.7772
  294TMC3    C4 4483   3.038   3.790  12.576 -0.1650  0.1334  0.2130
  294TMC3    C5 4484   2.972   3.768  12.462 -0.1794 -0.1326 -0.6981
  294TMC3    C6 4485   2.861   3.691  12.447 -0.0383  0.0357 -0.4705
  294TMC3     C 4486   3.000   3.828  12.809  0.8141 -0.4046 -0.3537
  294TMC3     O 4487   2.907   3.859  12.888  0.0507  0.8364  0.1532
  294TMC3     H 4488   2.801   3.666  12.779 -1.3458  1.5282 -0.8319
  294TMC3    H1 4489   3.126   3.852  12.574 -0.1797  0.1762  0.7729
  294TMC3    H2 4490   2.807   3.699  12.354 -0.5092  1.0325 -0.1121
  294TMC3    C7 4491   2.989   3.884  12.370  0.1041 -0.5823  0.8617
  294TMC3    C8 4492   2.673   3.594  12.559  0.6305  0.0850  0.7053
  294TMC3    O1 4493   3.000   3.992  12.427 -0.0974 -0.0418  0.0566
  294TMC3    O2 4494   2.606   3.606  12.663 -0.0401  0.0255  0.5087
  295MPD2     C 4495   3.488   3.606   0.604 -0.1493  0.3420 -0.4854
  295MPD2    C1 4496   3.361   3.649   0.615 -0.0441  0.2497 -0.5145
  295MPD2    C2 4497   3.286   3.620   0.729  0.5718  0.2645  0.0648
  295MPD2    C3 4498   3.342   3.546   0.836  0.0578  0.8711  0.3268
  295MPD2    C4 4499   3.476   3.508   0.828  0.2321 -0.2210 -0.1606
  295MPD2    C5 4500   3.542   3.531   0.709 -0.6557  0.8403  0.6080
  295MPD2     H 4501   3.180   3.641   0.725  0.7005  0.2990 -3.5061
  295MPD2    H1 4502   3.515   3.435   0.898 -0.3663 -0.1181  0.2804
  295MPD2    H2 4503   3.545   3.644   0.519  0.8470  0.7939  0.3890
  295MPD2    H3 4504   3.643   3.490   0.711 -1.9571 -2.5092 -2.5986
  295MPD2     N 4505   3.271   3.499   0.946  0.3029 -0.5009  0.0704
  295MPD2    H5 4506   3.317   3.448   1.021  1.3895  0.1284 -0.1549
  295MPD2    N1 4507   3.289   3.692   0.502 -0.4238  0.0730 -0.2714
  295MPD2    H7 4508   3.191   3.703   0.524 -0.3445  1.6748 -0.6872
  296TMC3    C1 4509   3.115   3.436   1.096 -0.0487 -0.3447 -0.5802
  296TMC3    C2 4510   3.216   3.420   1.190 -0.3019 -0.0924 -0.3004
  296TMC3    C3 4511   3.179   3.386   1.320 -0.2226 -0.5304  0.8969
  296TMC3    C4 4512   2.984   3.413   1.132 -0.0216 -0.4627  0.0309
  296TMC3    C5 4513   2.954   3.367   1.258  0.0002 -0.2717 -0.1574
  296TMC3    C6 4514   3.051   3.357   1.354  0.0593 -0.3493  0.6704
  296TMC3     C 4515   3.138   3.504   0.971  0.2001 -0.5465 -0.0009
  296TMC3     O 4516   3.041   3.564   0.920  0.0302 -0.0089  0.1013
  296TMC3     H 4517   3.321   3.445   1.180 -0.2955  0.6853  1.6562
  296TMC3    H1 4518   2.912   3.413   1.051  2.7753  0.9620 -2.4781
  296TMC3    H2 4519   3.032   3.320   1.454  0.8621  1.9564  1.6620
  296TMC3    C7 4520   2.829   3.303   1.286 -0.6167  0.0616 -0.3667
  296TMC3    C8 4521   3.273   3.313   1.397 -0.2230  0.2671 -0.6419
  296TMC3    O1 4522   2.723   3.330   1.225 -0.1218 -0.3650  0.2868
  296TMC3    O2 4523   3.381   3.289   1.342  0.0432  0.3621 -0.1526
  297MPD2     C 4524   0.742   0.302  16.518 -0.1992 -0.3309  0.5243
  297MPD2    C1 4525   0.660   0.367  16.438 -0.1198 -0.3501 -0.7326
  297MPD2    C2 4526   0.711   0.470  16.360  0.4250 -0.1949  0.2572
  297MPD2    C3 4527   0.837   0.519  16.374  0.1528  1.2526  0.8568
  297MPD2    C4 4528   0.907   0.464  16.475 -0.0548 -0.0124 -0.2621
  297MPD2    C5 4529   0.869   0.346  16.538  0.3448 -0.1684  0.5370
  297MPD2     H 4530   0.648   0.525  16.290  1.3662  1.7491  0.9379
  297MPD2    H1 4531   1.005   0.503  16.500  0.9305 -1.5659 -1.7051
  297MPD2    H2 4532   0.715   0.212  16.571 -1.0685 -1.0314 -1.0985
  297MPD2    H3 4533   0.939   0.291  16.599  0.5797  0.6631  1.0212
  297MPD2     N 4534   0.886   0.627  16.294 -0.0764 -0.2736  0.5796
  297MPD2    H5 4535   0.822   0.657  16.222 -0.2384  0.1794  0.9113
  297MPD2    N1 4536   0.537   0.308  16.411 -0.4334 -0.2526  0.0897
  297MPD2    H7 4537   0.480   0.341  16.333 -0.1263  1.8259  0.7482
  298TMC3    C1 4538   0.343   0.175  16.443 -0.7902  0.3597  0.8333
  298TMC3    C2 4539   0.322   0.198  16.312 -0.7712  0.1897 -0.9250
  298TMC3    C3 4540   0.195   0.227  16.270  0.2423 -0.5645 -0.0742
  298TMC3    C4 4541   0.241   0.183  16.534  0.5341  0.2121 -0.3232
  298TMC3    C5 4542   0.115   0.216  16.489 -0.7480  0.9390  0.3574
  298TMC3    C6 4543   0.088   0.239  16.359  0.9013  0.1430 -0.8283
  298TMC3     C 4544   0.470   0.220  16.499 -0.2537  0.0014  0.2136
  298TMC3     O 4545   0.492   0.195  16.617 -0.1687  0.1190  0.4862
  298TMC3     H 4546   0.396   0.166  16.240 -1.0622 -1.2892 -0.5704
  298TMC3    H1 4547   0.242   0.164  16.640  0.4447  0.4961 -0.2726
  298TMC3    H2 4548   4.723   0.260  16.327  0.0063 -1.8494  0.7193
  298TMC3    C7 4549   0.039   0.298  16.577  0.7203 -0.4964  0.0552
  298TMC3    C8 4550   0.185   0.252  16.127  0.2808 -0.0943 -0.5143
  298TMC3    O1 4551   0.097   0.351  16.669 -0.2957  0.1771 -0.0863
  298TMC3    O2 4552   0.290   0.250  16.062 -0.1649 -0.4588 -0.7594
  299MPD2     C 4553   1.243   4.358   9.518  0.7803 -0.3404  0.2191
  299MPD2    C1 4554   1.173   4.411   9.626  0.3082 -0.3163  0.0955
  299MPD2    C2 4555   1.032   4.413   9.626  0.3157  0.0208  0.2070
  299MPD2    C3 4556   0.967   4.339   9.529 -0.3660 -0.1559  0.4202
  299MPD2    C4 4557   1.030   4.269   9.432  0.1520 -0.0352 -0.3713
  299MPD2    C5 4558   1.173   4.275   9.430  0.4519  0.8136  1.3839
  299MPD2     H 4559   0.977   4.465   9.704  1.9585  1.7170  0.2546
  299MPD2    H1 4560   0.978   4.214   9.354 -1.1285 -0.0997  0.5085
  299MPD2    H2 4561   1.351   4.369   9.515  0.7611 -0.5617 -1.3666
  299MPD2    H3 4562   1.223   4.209   9.360 -0.8391 -0.0987  1.3254
  299MPD2     N 4563   0.824   4.343   9.524 -0.0148  0.0465 -0.2751
  299MPD2    H5 4564   0.770   4.396   9.592  0.9341 -0.5517  0.9504
  299MPD2    N1 4565   1.243   4.474   9.732  0.4948 -0.4935 -0.4519
  299MPD2    H7 4566   1.343   4.487   9.720  0.0402  0.8421 -2.8394
  300TMC3    C1 4567   0.605   4.283   9.500 -0.1186 -0.0013 -0.5810
  300TMC3    C2 4568   0.572   4.401   9.550  0.5976 -0.3486  0.7451
  300TMC3    C3 4569   0.468   4.420   9.640 -0.1854  0.6938  0.0657
  300TMC3    C4 4570   0.525   4.172   9.526 -0.1356 -0.4049  0.2551
  300TMC3    C5 4571   0.432   4.189   9.625 -0.2552  0.1336  0.3513
  300TMC3    C6 4572   0.407   4.309   9.689 -0.0764 -0.4483  0.0102
  300TMC3     C 4573   0.739   4.253   9.466 -1.2625 -0.2696 -0.5414
  300TMC3     O 4574   0.761   4.143   9.418 -0.1156  0.3461 -0.5220
  300TMC3     H 4575   0.619   4.491   9.513 -1.6551  0.5012 -0.0592
  300TMC3    H1 4576   0.550   4.072   9.493  3.0975  0.6236 -0.3481
  300TMC3    H2 4577   0.339   4.312   9.773  0.9021 -0.0229  0.7879
  300TMC3    C7 4578   0.337   4.076   9.648  0.5058 -0.4745  0.0105
  300TMC3    C8 4579   0.444   4.551   9.701  0.0938 -0.6708 -0.6662
  300TMC3    O1 4580   0.357   3.971   9.588 -0.6606 -0.4147  0.1124
  300TMC3    O2 4581   0.526   4.640   9.673 -0.1343 -0.0008  0.0242
  301MPD2     C 4582   3.423   1.569   1.088  0.6462 -0.8683 -0.3478
  301MPD2    C1 4583   3.290   1.529   1.087  0.1032  0.3081 -0.2951
  301MPD2    C2 4584   3.264   1.395   1.079  0.0348 -0.1972 -0.2633
  301MPD2    C3 4585   3.364   1.304   1.095  0.5427 -0.0741 -0.4890
  301MPD2    C4 4586   3.491   1.345   1.121  0.1224 -0.0778  0.0682
  301MPD2    C5 4587   3.525   1.477   1.111 -0.0267 -0.9217 -0.1942
  301MPD2     H 4588   3.160   1.364   1.070  0.2059 -0.8984  0.1635
  301MPD2    H1 4589   3.566   1.269   1.137 -0.4292 -0.1351  2.3966
  301MPD2    H2 4590   3.455   1.671   1.104 -3.6499  0.2261  1.3802
  301MPD2    H3 4591   3.626   1.510   1.127 -0.6409  0.1103  1.5911
  301MPD2     N 4592   3.342   1.167   1.103  0.5480  0.4167 -0.7083
  301MPD2    H5 4593   3.420   1.105   1.087 -0.3572 -1.1568  0.9193
  301MPD2    N1 4594   3.183   1.620   1.072 -0.2518 -0.1424 -0.2326
  301MPD2    H7 4595   3.091   1.578   1.085 -0.7195  0.4294 -1.7528
  302TMC3    C1 4596   3.226   0.965   1.117  0.1349 -0.0645 -0.1280
  302TMC3    C2 4597   3.339   0.895   1.143 -0.1701 -0.1937 -0.4377
  302TMC3    C3 4598   3.329   0.758   1.137 -0.2441 -0.4215 -0.0434
  302TMC3    C4 4599   3.110   0.908   1.067 -0.0839  0.5452 -0.4344
  302TMC3    C5 4600   3.110   0.773   1.072 -0.5315 -0.4698 -0.3482
  302TMC3    C6 4601   3.218   0.694   1.105  0.3647 -0.4398  0.0592
  302TMC3     C 4602   3.226   1.111   1.117 -0.1028  0.1962 -0.0032
  302TMC3     O 4603   3.124   1.159   1.157 -0.1043  0.5743 -0.5625
  302TMC3     H 4604   3.429   0.940   1.185  0.6480 -0.6944 -1.6448
  302TMC3    H1 4605   3.028   0.971   1.035 -1.9971 -0.9988  1.4177
  302TMC3    H2 4606   3.212   0.587   1.096 -1.6425 -0.3603  0.4540
  302TMC3    C7 4607   2.985   0.703   1.046  0.4082  0.1558  0.1381
  302TMC3    C8 4608   3.442   0.679   1.165  0.3773  0.9956 -0.0255
  302TMC3    O1 4609   2.990   0.581   1.030 -0.3526  0.5694  0.4062
  302TMC3    O2 4610   3.427   0.570   1.222 -0.5306 -0.0870 -0.6186
  303MPD2     C 4611   2.644   3.640  10.571  0.0271 -0.4718  0.5937
  303MPD2    C1 4612   2.549   3.564  10.632 -0.3337  0.1456 -0.6933
  303MPD2    C2 4613   2.445   3.512  10.554 -0.2714  0.4416  0.5898
  303MPD2    C3 4614   2.442   3.538  10.417 -0.2459 -0.6187  0.5541
  303MPD2    C4 4615   2.534   3.611  10.359  0.3389  0.5434 -0.7743
  303MPD2    C5 4616   2.638   3.657  10.437  0.1227  0.3101 -0.5495
  303MPD2     H 4617   2.361   3.460  10.599  0.5960 -2.5524 -1.2118
  303MPD2    H1 4618   2.535   3.621  10.251 -0.6686  2.3601 -0.6165
  303MPD2    H2 4619   2.728   3.681  10.627 -0.8716  2.5702 -0.3159
  303MPD2    H3 4620   2.711   3.722  10.390  0.2488  0.4467 -0.1608
  303MPD2     N 4621   2.342   3.478  10.334  0.5073 -0.2349 -0.5479
  303MPD2    H5 4622   2.353   3.483  10.233 -0.6956 -0.0456 -0.6652
  303MPD2    N1 4623   2.555   3.531  10.766 -0.8777 -0.0901  0.1155
  303MPD2    H7 4624   2.614   3.593  10.820 -1.4506 -0.2864  0.9736
  304TMC3    C1 4625   2.487   3.445  10.969 -0.4310 -0.2639 -0.3783
  304TMC3    C2 4626   2.460   3.565  11.012 -0.7147 -0.3861  0.3096
  304TMC3    C3 4627   2.431   3.569  11.146  0.2993  0.3051  0.3923
  304TMC3    C4 4628   2.488   3.328  11.037 -0.3863 -0.0701 -0.1527
  304TMC3    C5 4629   2.461   3.333  11.165 -0.1669 -0.1415  0.1205
  304TMC3    C6 4630   2.432   3.453  11.220 -0.0404 -0.3320  0.9840
  304TMC3     C 4631   2.487   3.427  10.825 -0.7396  0.4739 -0.2037
  304TMC3     O 4632   2.447   3.318  10.782 -0.2624 -0.3811 -0.1711
  304TMC3     H 4633   2.434   3.652  10.951  2.0349 -0.1627 -0.5594
  304TMC3    H1 4634   2.525   3.243  10.980  0.3449 -1.3591  2.2623
  304TMC3    H2 4635   2.409   3.465  11.326 -2.2438  0.0147  0.4611
  304TMC3    C7 4636   2.362   3.240  11.204  0.0289  0.4758  0.2933
  304TMC3    C8 4637   2.309   3.634  11.171 -0.4808 -0.4555 -0.0463
  304TMC3    O1 4638   2.292   3.271  11.296  0.2332  0.3390  0.0112
  304TMC3    O2 4639   2.298   3.750  11.129 -0.2037 -0.3601  0.2170
  305MPD2     C 4640   1.471   1.272  13.574 -0.0268 -0.0551 -0.2255
  305MPD2    C1 4641   1.568   1.359  13.614  0.0987 -0.5827  0.4076
  305MPD2    C2 4642   1.654   1.407  13.520 -0.0246  0.3274 -0.0989
  305MPD2    C3 4643   1.634   1.394  13.383 -0.0231  1.0282  0.3126
  305MPD2    C4 4644   1.530   1.307  13.349  0.3664 -0.1780  0.2784
  305MPD2    C5 4645   1.448   1.253  13.437  0.3129 -0.2647 -0.2611
  305MPD2     H 4646   1.740   1.467  13.548 -0.4070  0.1371  1.4677
  305MPD2    H1 4647   1.520   1.273  13.247  2.0054  0.2017 -0.0117
  305MPD2    H2 4648   1.414   1.229  13.655  1.9060 -0.0386  1.1485
  305MPD2    H3 4649   1.376   1.180  13.402  0.5358  0.4383 -2.1670
  305MPD2     N 4650   1.711   1.456  13.287 -0.0456 -0.2346 -0.1482
  305MPD2    H5 4651   1.679   1.436  13.192  1.5522 -1.4384 -0.4275
  305MPD2    N1 4652   1.581   1.367  13.753  0.0140 -1.3113  0.3262
  305MPD2    H7 4653   1.502   1.334  13.807  2.1181 -3.9942  1.7652
  306TMC3    C1 4654   1.646   1.442  13.968  0.1359 -0.0435 -0.5827
  306TMC3    C2 4655   1.632   1.326  14.039  0.3787 -0.8555  0.2088
  306TMC3    C3 4656   1.666   1.328  14.172 -0.5759  0.8329 -0.2898
  306TMC3    C4 4657   1.693   1.556  14.023 -0.0979 -0.2590  0.8882
  306TMC3    C5 4658   1.735   1.550  14.156 -0.4583  0.3968  0.0245
  306TMC3    C6 4659   1.718   1.438  14.229  0.0369  0.1639 -0.5385
  306TMC3     C 4660   1.664   1.448  13.824 -0.2952 -0.3586 -0.1000
  306TMC3     O 4661   1.751   1.522  13.779  0.1866 -0.3048  0.5164
  306TMC3     H 4662   1.588   1.242  13.985 -1.9585 -0.3210  1.2962
  306TMC3    H1 4663   1.692   1.652  13.971 -1.7940 -0.6067  0.2908
  306TMC3    H2 4664   1.757   1.428  14.330 -0.2487  0.5149 -0.3884
  306TMC3    C7 4665   1.746   1.678  14.233  0.2961  0.9162 -0.3122
  306TMC3    C8 4666   1.649   1.220  14.259  0.0071 -0.0697  0.6501
  306TMC3    O1 4667   1.682   1.772  14.188 -0.6776 -0.2861 -0.4289
  306TMC3    O2 4668   1.631   1.251  14.375  0.5211  0.5014  0.0796
  307MPD2     C 4669   3.747   3.971   1.544 -0.6859 -0.7345 -1.1127
  307MPD2    C1 4670   3.726   4.019   1.419  0.7017 -1.1337  0.5240
  307MPD2    C2 4671   3.603   4.071   1.377  0.5014  0.7963 -0.3590
  307MPD2    C3 4672   3.501   4.077   1.465  0.1185 -0.2158 -0.0444
  307MPD2    C4 4673   3.513   4.023   1.592  0.5971 -0.5456  0.3548
  307MPD2    C5 4674   3.641   3.973   1.626  0.2726  0.0342 -0.2880
  307MPD2     H 4675   3.592   4.118   1.280 -2.1970  0.9864  0.0329
  307MPD2    H1 4676   3.440   4.011   1.671  1.0036  0.2429  0.8422
  307MPD2    H2 4677   3.845   3.934   1.571 -0.7062 -1.2002 -1.6712
  307MPD2    H3 4678   3.660   3.928   1.722 -1.9644  1.0769  0.6325
  307MPD2     N 4679   3.381   4.135   1.422  0.0739  0.5915  0.4307
  307MPD2    H5 4680   3.380   4.178   1.331 -0.8167  0.4204  0.3572
  307MPD2    N1 4681   3.834   4.036   1.326  0.4804 -0.7855 -0.1315
  307MPD2    H7 4682   3.812   4.101   1.251 -0.2977 -0.9911 -0.0818
  308TMC3    C1 4683   3.155   4.274   1.189 -0.2551  0.0815  0.7932
  308TMC3    C2 4684   3.116   4.396   1.234  1.2235  0.1299  0.2295
  308TMC3    C3 4685   3.101   4.417   1.368 -0.1632  0.1103 -0.1370
  308TMC3    C4 4686   3.193   4.180   1.279 -0.1804  0.4618  0.4028
  308TMC3    C5 4687   3.167   4.198   1.408 -0.6984  0.1501 -0.1307
  308TMC3    C6 4688   3.111   4.315   1.452 -0.3876  0.5524  0.0707
  308TMC3     C 4689   3.193   4.251   1.052 -0.5645 -0.6123  0.4813
  308TMC3     O 4690   3.285   4.173   1.028 -0.3481 -0.2390 -0.7239
  308TMC3     H 4691   3.094   4.475   1.163 -0.2401  0.4305  1.0237
  308TMC3    H1 4692   3.231   4.086   1.241 -1.4190 -0.5425  1.6420
  308TMC3    H2 4693   3.100   4.339   1.557  1.6508 -0.2690  0.4698
  308TMC3    C7 4694   3.267   4.145   1.493 -0.4248  0.0860 -0.1882
  308TMC3    C8 4695   3.119   4.553   1.416 -0.5190  0.1872 -0.0446
  308TMC3    O1 4696   3.242   4.117   1.613  0.9001  0.1109 -0.5997
  308TMC3    O2 4697   3.068   4.582   1.526  0.0054  0.5238 -0.1841
  309MPD2     C 4698   3.428   0.187  17.270  0.3070 -0.3254  0.2269
  309MPD2    C1 4699   3.364   0.223  17.155  0.3085  0.2204 -0.1908
  309MPD2    C2 4700   3.262   0.318  17.156  0.4530 -0.0151 -0.1764
  309MPD2    C3 4701   3.217   0.369  17.275  0.2222 -0.4148 -0.3462
  309MPD2    C4 4702   3.297   0.351  17.386 -0.1484 -1.2516 -0.4195
  309MPD2    C5 4703   3.404   0.262  17.377 -0.2365  0.4304 -0.1775
  309MPD2     H 4704   3.214   0.353  17.065 -0.0220 -3.2652 -1.1548
  309MPD2    H1 4705   3.253   0.379  17.482 -0.7550 -0.2646 -0.9916
  309MPD2    H2 4706   3.499   0.105  17.275  1.3516  0.5710  0.0402
  309MPD2    H3 4707   3.458   0.234  17.466 -3.8926  1.8681  2.5062
  309MPD2     N 4708   3.109   0.463  17.286  0.4225 -0.1992 -1.0088
  309MPD2    H5 4709   3.100   0.519  17.371 -0.2156 -0.4412 -0.9167
  309MPD2    N1 4710   3.390   0.167  17.029 -0.2263 -0.4113 -0.1374
  309MPD2    H7 4711   3.350   0.208  16.945 -1.0143 -0.5157  0.1818
  310TMC3    C1 4712   3.506   0.053  16.857  0.9265 -0.6406 -0.5155
  310TMC3    C2 4713   3.493   0.159  16.774  0.3682  0.5114  0.0687
  310TMC3    C3 4714   3.517   0.139  16.645  0.3455 -0.0449  0.1814
  310TMC3    C4 4715   3.558   4.668  16.820  0.0096  0.2841 -0.7002
  310TMC3    C5 4716   3.599   4.658  16.690  0.0918 -0.6565  0.6363
  310TMC3    C6 4717   3.567   0.020  16.601  0.4637  0.2846  0.1847
  310TMC3     C 4718   3.463   0.058  16.998 -0.0157 -0.7626  0.4064
  310TMC3     O 4719   3.503   4.708  17.077 -0.2643  0.4330 -0.6007
  310TMC3     H 4720   3.455   0.255  16.805 -1.1578  0.2282 -0.9269
  310TMC3    H1 4721   3.564   4.584  16.889 -0.3183 -0.8183 -1.9988
  310TMC3    H2 4722   3.614   0.019  16.504 -0.2512  0.8013 -0.1641
  310TMC3    C7 4723   3.701   4.565  16.648 -0.0433 -0.3965 -0.0505
  310TMC3    C8 4724   3.550   0.250  16.564  0.2880 -0.4974  0.0134
  310TMC3    O1 4725   3.709   4.534  16.532 -0.5249  0.4052 -0.4826
  310TMC3    O2 4726   3.458   0.327  16.537 -0.1095  0.6482 -0.2556
  311MPD2     C 4727   0.763   1.307  12.889 -0.4325 -0.9054  0.5606
  311MPD2    C1 4728   0.744   1.430  12.830  0.1802  0.5618  0.3705
  311MPD2    C2 4729   0.621   1.475  12.806 -0.4096  0.0765  0.6764
  311MPD2    C3 4730   0.507   1.398  12.838  0.8372 -0.0877 -0.2195
  311MPD2    C4 4731   0.527   1.270  12.894  0.3167 -0.2819  0.7919
  311MPD2    C5 4732   0.655   1.231  12.921  0.6187 -0.1339 -0.1248
  311MPD2     H 4733   0.604   1.567  12.752 -1.4566  1.4698  3.3957
  311MPD2    H1 4734   0.452   1.195  12.917 -0.9697  1.5266  2.4300
  311MPD2    H2 4735   0.860   1.262  12.911 -0.0979 -0.8567 -0.8094
  311MPD2    H3 4736   0.669   1.134  12.966 -1.9162  0.0555  1.0534
  311MPD2     N 4737   0.384   1.451  12.810 -0.5041 -0.5666 -0.8630
  311MPD2    H5 4738   0.370   1.548  12.782  0.8867 -0.2509 -0.4511
  311MPD2    N1 4739   0.854   1.507  12.794 -0.4417 -0.3782  0.7180
  311MPD2    H7 4740   0.841   1.593  12.740 -1.5015 -1.8187 -1.3330
  312TMC3    C1 4741   0.153   1.481  12.808  0.1712  0.0114 -1.1611
  312TMC3    C2 4742   0.043   1.432  12.756  0.4276  0.7201  1.0101
  312TMC3    C3 4743   4.666   1.496  12.785 -0.0173  0.1770 -0.0889
  312TMC3    C4 4744   0.163   1.599  12.875  0.4980  0.1790 -0.1621
  312TMC3    C5 4745   0.040   1.662  12.901 -0.4856  0.7173  0.0584
  312TMC3    C6 4746   4.654   1.620  12.846 -0.3949  0.0716 -0.5521
  312TMC3     C 4747   0.259   1.389  12.820  0.4202  0.1321  0.5568
  312TMC3     O 4748   0.237   1.268  12.821 -0.5696  0.5444  0.0478
  312TMC3     H 4749   0.046   1.336  12.705 -1.8490  0.5107  1.2665
  312TMC3    H1 4750   0.250   1.618  12.938  0.0546 -0.8593  0.7716
  312TMC3    H2 4751   4.566   1.673  12.880 -0.8992 -2.5341  2.2080
  312TMC3    C7 4752   0.046   1.789  12.959  0.3714  0.1918  0.7906
  312TMC3    C8 4753   4.540   1.425  12.752  0.0507 -0.2670  0.7120
  312TMC3    O1 4754   4.707   1.876  12.915 -0.3579 -0.2642 -0.1468
  312TMC3    O2 4755   4.541   1.308  12.722  0.3605  0.5992  0.3822
  313MPD2     C 4756   4.460   0.188  10.169 -0.0385 -0.4627 -0.1961
  313MPD2    C1 4757   4.339   0.187  10.106 -0.0798  0.5251 -0.0888
  313MPD2    C2 4758   4.324   0.089  10.004 -0.1283  0.1255 -0.2653
  313MPD2    C3 4759   4.428   0.008   9.957  0.8011  1.0605 -1.1208
  313MPD2    C4 4760   4.551   0.036  10.003 -0.1284 -0.2298 -0.3306
  313MPD2    C5 4761   4.563   0.121  10.109 -0.3723  0.2026 -0.5472
  313MPD2     H 4762   4.222   0.068   9.974  0.0988 -0.6717 -0.4907
  313MPD2    H1 4763   4.640   4.718   9.975 -0.2250  0.2503 -1.5641
  313MPD2    H2 4764   4.483   0.250  10.254 -1.3494 -0.9124  0.4862
  313MPD2    H3 4765   4.664   0.136  10.145 -0.1814 -0.9622 -0.5672
  313MPD2     N 4766   4.399   4.646   9.862  1.0157  0.1503  0.3201
  313MPD2    H5 4767   4.303   4.639   9.829  0.9638 -0.3391  0.5781
  313MPD2    N1 4768   4.232   0.270  10.141  0.2021 -0.4203 -0.1737
  313MPD2    H7 4769   4.146   0.258  10.089  0.0661  1.5400 -0.4192
  314TMC3    C1 4770   4.110   0.454  10.227 -0.9165  0.2836  0.0562
  314TMC3    C2 4771   4.072   0.527  10.335  0.5591 -0.7247  0.0662
  314TMC3    C3 4772   3.992   0.637  10.317 -0.4467  0.6229  0.4711
  314TMC3    C4 4773   4.081   0.504  10.098 -0.2651 -0.5959 -0.5138
  314TMC3    C5 4774   4.001   0.615  10.081  0.3249  0.0339  0.0341
  314TMC3    C6 4775   3.949   0.677  10.191 -0.7134  0.4560 -0.5106
  314TMC3     C 4776   4.238   0.372  10.236  0.3306  0.1240 -0.1329
  314TMC3     O 4777   4.315   0.391  10.331 -0.2513 -0.2528  0.5705
  314TMC3     H 4778   4.109   0.500  10.433  2.5962 -0.0583 -0.5225
  314TMC3    H1 4779   4.108   0.443  10.012  2.1629  1.0493 -0.8979
  314TMC3    H2 4780   3.896   0.771  10.175  0.3572  1.1093 -0.1891
  314TMC3    C7 4781   3.968   0.669   9.945 -0.2985  0.8464 -0.2621
  314TMC3    C8 4782   4.023   0.749  10.403 -0.1462  0.3566 -0.2801
  314TMC3    O1 4783   3.867   0.734   9.927  0.0307 -0.3967 -0.2254
  314TMC3    O2 4784   4.062   0.850  10.350 -0.2720 -0.2721  0.3555
  315MPD2     C 4785   4.413   4.186  17.115 -0.3203  0.4909  0.1341
  315MPD2    C1 4786   4.397   4.118  17.234  0.3427 -0.4773 -0.7098
  315MPD2    C2 4787   4.379   4.188  17.350  0.3974 -0.2397 -0.0893
  315MPD2    C3 4788   4.376   4.326  17.359  0.2925  0.1685 -0.9231
  315MPD2    C4 4789   4.377   4.396  17.240 -0.5387  0.0850 -0.2627
  315MPD2    C5 4790   4.392   4.320  17.123  0.4379 -0.3240 -0.2380
  315MPD2     H 4791   4.370   4.130  17.441  1.3719  1.7906  1.3169
  315MPD2    H1 4792   4.343   4.499  17.238  0.4727  0.4089 -0.5438
  315MPD2    H2 4793   4.419   4.146  17.014 -0.6807  1.0997 -0.1302
  315MPD2    H3 4794   4.392   4.383  17.035 -4.0135 -0.2734 -0.2046
  315MPD2     N 4795   4.366   4.378  17.491  0.1426  0.0172  0.6624
  315MPD2    H5 4796   4.362   4.319  17.573 -0.8035 -0.4451  0.2838
  315MPD2    N1 4797   4.413   3.980  17.229 -0.0544 -0.1042 -0.1990
  315MPD2    H7 4798   4.394   3.937  17.319  1.5640 -0.4630 -0.0319
  316TMC3    C1 4799   4.396   4.543  17.655  0.9998  0.6130  0.1537
  316TMC3    C2 4800   4.456   4.446  17.740  0.1114 -0.5381  0.2275
  316TMC3    C3 4801   4.494   4.488   0.119  0.3141 -0.2807  0.3855
  316TMC3    C4 4802   4.398   4.678  17.686 -0.0677 -0.5044  0.3422
  316TMC3    C5 4803   4.444   4.707   0.064 -0.2985 -0.7880 -1.0445
  316TMC3    C6 4804   4.489   4.619   0.156 -0.8946  0.6394  0.9352
  316TMC3     C 4805   4.365   4.510  17.515 -0.0104 -0.4893 -0.0408
  316TMC3     O 4806   4.362   4.601  17.437  0.7701  0.3430  0.0343
  316TMC3     H 4807   4.429   4.343  17.721 -0.3917 -0.5213  0.8734
  316TMC3    H1 4808   4.363   0.014  17.613  2.7850 -0.5775 -1.0892
  316TMC3    H2 4809   4.526   4.657   0.251  0.2682  0.2468  0.6386
  316TMC3    C7 4810   4.419   0.107   0.103  0.6373 -0.1290  0.1494
  316TMC3    C8 4811   4.553   4.392   0.218 -0.1918  0.2298  0.6423
  316TMC3    O1 4812   4.410   0.134   0.220 -0.1370  0.0905 -0.0818
  316TMC3    O2 4813   4.558   4.423   0.337  0.0456  0.2540  0.3331
  317MPD2     C 4814   1.906   3.356  13.272  0.2723  0.7324 -0.0631
  317MPD2    C1 4815   1.963   3.242  13.218 -0.0326  0.6315 -0.1543
  317MPD2    C2 4816   2.085   3.198  13.275 -0.2228  0.0084  0.6783
  317MPD2    C3 4817   2.142   3.260  13.386  0.2065 -0.3909 -0.4223
  317MPD2    C4 4818   2.075   3.370  13.442 -0.6391  0.4844  0.2731
  317MPD2    C5 4819   1.965   3.411  13.382  0.2161 -0.2391 -0.4539
  317MPD2     H 4820   2.146   3.119  13.234  1.0099  0.0197  2.4817
  317MPD2    H1 4821   2.117   3.432  13.521 -1.3974  1.4239 -0.0664
  317MPD2    H2 4822   1.830   3.407  13.213  1.1239  0.1290 -1.6729
  317MPD2    H3 4823   1.917   3.500  13.421 -0.5725 -0.9496  0.1967
  317MPD2     N 4824   2.259   3.206  13.441 -0.4142 -0.6122  0.2123
  317MPD2    H5 4825   2.301   3.130  13.388  1.1749 -0.1399  0.7974
  317MPD2    N1 4826   1.920   3.169  13.104  0.1476 -0.1477 -0.1656
  317MPD2    H7 4827   1.971   3.086  13.075 -2.0402 -1.3925 -0.4643
  318TMC3    C1 4828   2.442   3.152  13.578  0.0856 -0.0803 -0.5186
  318TMC3    C2 4829   2.421   3.024  13.546  0.2799  0.7922  0.2669
  318TMC3    C3 4830   2.504   2.931  13.592  0.2246 -0.2276 -0.5737
  318TMC3    C4 4831   2.538   3.190  13.673 -0.0803 -0.0582 -0.2442
  318TMC3    C5 4832   2.623   3.089  13.713 -0.4667  0.4528 -0.0938
  318TMC3    C6 4833   2.617   2.959  13.664 -0.2048  0.1252  0.1954
  318TMC3     C 4834   2.329   3.239  13.561  0.4115 -0.3619  0.2338
  318TMC3     O 4835   2.304   3.314  13.651 -0.4148 -0.2041 -0.4061
  318TMC3     H 4836   2.339   2.991  13.484  1.1209 -0.7221 -0.0265
  318TMC3    H1 4837   2.542   3.296  13.694  0.1511 -0.2385  0.6014
  318TMC3    H2 4838   2.681   2.880  13.701  1.0875  1.0820  0.0114
  318TMC3    C7 4839   2.703   3.127  13.827  0.5264 -0.1053  1.1164
  318TMC3    C8 4840   2.456   2.791  13.603  0.0034  0.2302 -0.2557
  318TMC3    O1 4841   2.695   3.239  13.872  1.0534 -0.2591  0.0049
  318TMC3    O2 4842   2.504   2.720  13.688  0.2264  0.0447 -0.0959
  319MPD2     C 4843   2.869   0.176  16.384 -0.2435  0.1284  0.2156
  319MPD2    C1 4844   2.749   0.110  16.414 -0.5657 -0.1525 -0.2099
  319MPD2    C2 4845   2.713   0.001  16.339  0.2971  0.0156  0.4606
  319MPD2    C3 4846   2.801   4.691  16.239  0.4580  0.4497  0.1004
  319MPD2    C4 4847   2.925   0.013  16.221  0.4046  0.4970  0.4326
  319MPD2    C5 4848   2.962   0.117  16.303  0.2236 -0.0121 -0.4364
  319MPD2     H 4849   2.623   4.685  16.369  1.5225 -1.2773  1.8810
  319MPD2    H1 4850   2.996   4.706  16.151 -1.1035 -1.6758  0.2627
  319MPD2    H2 4851   2.901   0.265  16.435 -0.1382  0.4026 -0.3322
  319MPD2    H3 4852   3.060   0.164  16.297  1.0603 -1.6927 -0.0111
  319MPD2     N 4853   2.764   4.591  16.146  0.0714  0.9033  0.8298
  319MPD2    H5 4854   2.823   4.578  16.064 -1.8448 -0.7711 -0.3095
  319MPD2    N1 4855   2.653   0.159  16.510 -0.2841 -0.6165  0.0334
  319MPD2    H7 4856   2.574   0.101  16.534  1.2985 -2.1878  1.4230
  320TMC3    C1 4857   2.626   4.431  16.050  0.4110  0.1977 -0.3766
  320TMC3    C2 4858   2.606   4.502  15.931  0.0511 -0.1678  0.0930
  320TMC3    C3 4859   2.532   4.440  15.831 -0.3352 -0.2432  0.7490
  320TMC3    C4 4860   2.556   4.320  16.079 -0.0360  0.3235  0.3124
  320TMC3    C5 4861   2.481   4.269  15.980 -0.2696 -0.2566  0.7682
  320TMC3    C6 4862   2.458   4.326  15.856 -0.0023 -0.5290  0.1257
  320TMC3     C 4863   2.647   4.517  16.157  0.0200  0.1350  0.3046
  320TMC3     O 4864   2.563   4.506  16.242  0.4493 -0.0417  0.2968
  320TMC3     H 4865   2.633   4.606  15.918 -3.2333  0.7527  0.6701
  320TMC3    H1 4866   2.583   4.272  16.172 -0.5879 -0.4767  0.0667
  320TMC3    H2 4867   2.402   4.267  15.784  0.0361 -0.1329 -0.2254
  320TMC3    C7 4868   2.416   4.146  16.006  0.3248 -0.2082  0.3080
  320TMC3    C8 4869   2.457   4.521  15.733 -0.4955  0.3364  0.3631
  320TMC3    O1 4870   2.375   4.081  15.912  0.2843 -0.0710 -0.0522
  320TMC3    O2 4871   2.466   4.638  15.765  0.0631 -0.0487  0.8474
  321TMC3    C1 4872   2.542   0.320  16.648  0.2453  0.1977  0.0094
  321TMC3    C2 4873   2.466   0.226  16.702  0.6611 -0.4232  0.4993
  321TMC3    C3 4874   2.382   0.255  16.804 -0.3763 -0.0658 -0.6428
  321TMC3    C4 4875   2.544   0.449  16.696  0.9804 -0.6237 -0.0511
  321TMC3    C5 4876   2.475   0.472  16.809  0.3366 -0.2819 -0.2291
  321TMC3    C6 4877   2.378   0.385  16.845  0.3051 -0.2070  0.8081
  321TMC3     C 4878   2.661   0.280  16.572 -0.6699  0.0493  0.6019
  321TMC3     O 4879   2.727   0.376  16.535  0.4267  0.4254 -0.4368
  321TMC3     H 4880   2.466   0.128  16.657 -0.0939 -0.2431  0.0936
  321TMC3    H1 4881   2.632   0.510  16.681  0.5539  0.0350  0.1272
  321TMC3    H2 4882   2.320   0.409  16.934  3.0130 -0.0650  2.5250
  321TMC3    C7 4883   2.570   0.468  16.924 -0.4418 -0.2267 -0.7713
  321TMC3    C8 4884   2.382   0.151  16.906  0.9151 -0.4046 -0.2620
  321TMC3    O1 4885   2.679   0.417  16.890 -0.0136 -0.4991 -0.0306
  321TMC3    O2 4886   2.391   0.188  17.023  0.6140 -0.6430 -0.2609
  322MPD2     C 4887   1.952   1.169  13.172  0.1638  0.9351  0.2054
  322MPD2    C1 4888   1.952   1.112  13.296 -0.1176  1.0598 -0.0699
  322MPD2    C2 4889   2.001   0.986  13.312 -0.3109 -0.0008  0.4281
  322MPD2    C3 4890   2.049   0.913  13.204 -0.1985 -0.3475 -0.0743
  322MPD2    C4 4891   2.049   0.972  13.083  0.7098 -0.3683  1.3236
  322MPD2    C5 4892   2.004   1.102  13.064  0.2223  0.0173 -0.2201
  322MPD2     H 4893   1.990   0.937  13.408 -0.7739  1.5984  1.2005
  322MPD2    H1 4894   2.093   0.929  12.994 -2.5283 -1.1201  0.0864
  322MPD2    H2 4895   1.910   1.269  13.166 -2.0652  0.0105  0.3824
  322MPD2    H3 4896   1.998   1.146  12.966  3.4314 -1.8020 -1.2248
  322MPD2     N 4897   2.108   0.780  13.213  0.3713 -0.1701 -0.2634
  322MPD2    H5 4898   2.103   0.739  13.306  0.8690 -2.2947 -1.1756
  322MPD2    N1 4899   1.918   1.186  13.411  0.4366  0.0570  0.2445
  322MPD2    H7 4900   1.913   1.287  13.406  1.1138  0.1384  1.4649
  323TMC3    C1 4901   1.878   1.217  13.649  0.2123 -0.5087  0.1588
  323TMC3    C2 4902   1.980   1.307  13.657  0.1225 -0.2372 -0.1317
  323TMC3    C3 4903   2.063   1.322  13.768 -0.1310 -0.2249 -0.7676
  323TMC3    C4 4904   1.846   1.141  13.761  0.1167 -0.1202  0.3729
  323TMC3    C5 4905   1.924   1.165  13.872  0.0880  0.2450 -0.7275
  323TMC3    C6 4906   2.032   1.250  13.875  0.4574 -0.2547  0.7694
  323TMC3     C 4907   1.869   1.130  13.532 -0.6644  0.0931 -0.0233
  323TMC3     O 4908   1.824   1.017  13.544  0.2415  0.0729 -0.5160
  323TMC3     H 4909   2.004   1.363  13.567  0.0104  1.3547  0.8242
  323TMC3    H1 4910   1.780   1.055  13.753  2.0170 -1.4338 -1.3481
  323TMC3    H2 4911   2.094   1.259  13.963 -0.4121  0.7760  1.2742
  323TMC3    C7 4912   1.893   1.094  14.004 -0.7235 -0.3580 -0.3829
  323TMC3    C8 4913   2.186   1.403  13.773  0.7713  0.3262  0.0176
  323TMC3    O1 4914   1.823   0.995  13.993 -0.6461 -0.0808 -0.1740
  323TMC3    O2 4915   2.237   1.411  13.884  0.3588 -0.0451 -0.2917
  324MPD2     C 4916   3.659   1.799  14.215  0.0898 -0.7315  0.5117
  324MPD2    C1 4917   3.720   1.920  14.239 -0.0385  0.1981 -0.0937
  324MPD2    C2 4918   3.636   2.022  14.284  0.3470 -0.1251 -0.0838
  324MPD2    C3 4919   3.506   2.002  14.332 -0.0033  0.4073  0.8145
  324MPD2    C4 4920   3.450   1.876  14.315 -0.6773 -0.0189 -0.1900
  324MPD2    C5 4921   3.529   1.776  14.250 -0.1401  0.5641  0.6934
  324MPD2     H 4922   3.678   2.122  14.288 -1.9252  0.8934 -1.4871
  324MPD2    H1 4923   3.348   1.849  14.339 -0.8690  3.0318  2.4750
  324MPD2    H2 4924   3.711   1.719  14.163 -0.6595  0.4992 -2.1132
  324MPD2    H3 4925   3.482   1.681  14.227  1.4020 -0.1450  0.4907
  324MPD2     N 4926   3.427   2.104  14.386  0.3929  0.0733  0.5299
  324MPD2    H5 4927   3.332   2.080  14.410 -0.2803  2.5347  0.2575
  324MPD2    N1 4928   3.853   1.958  14.205 -0.1919  0.7350  0.5189
  324MPD2    H7 4929   3.885   2.052  14.227  1.1361  0.4237 -0.0752
  325TMC3    C1 4930   3.370   2.298  14.483  0.4524 -0.3952  0.0742
  325TMC3    C2 4931   3.305   2.222  14.574  0.7405  0.3458 -0.0883
  325TMC3    C3 4932   3.185   2.273  14.613  0.6485  0.2084 -0.1326
  325TMC3    C4 4933   3.329   2.422  14.446  0.0218  0.0635  0.2089
  325TMC3    C5 4934   3.220   2.477  14.511  0.0493  0.9700  0.1183
  325TMC3    C6 4935   3.131   2.391  14.573 -0.3330 -0.4676  0.6230
  325TMC3     C 4936   3.473   2.234  14.403  0.4127 -0.8733  0.6645
  325TMC3     O 4937   3.558   2.303  14.347  0.3210 -0.1020 -0.3480
  325TMC3     H 4938   3.337   2.123  14.604 -1.1018 -0.1196  0.2999
  325TMC3    H1 4939   3.387   2.482  14.378 -1.8248  0.3586 -1.1182
  325TMC3    H2 4940   3.025   2.412  14.579  0.1279  1.6613  1.5851
  325TMC3    C7 4941   3.180   2.609  14.469  0.3301 -0.2077  0.2499
  325TMC3    C8 4942   3.092   2.174  14.670 -0.5694  0.2540  0.8112
  325TMC3    O1 4943   3.243   2.670  14.383 -0.4769 -0.3224 -0.3384
  325TMC3    O2 4944   3.117   2.061  14.632 -0.0622  1.1360 -0.4475
  326MPD2     C 4945   4.282   2.493  11.077  0.1378  0.0285  0.0136
  326MPD2    C1 4946   4.193   2.586  11.033 -0.0542  0.1217  0.7762
  326MPD2    C2 4947   4.238   2.708  10.992  0.1126 -0.0124  0.0612
  326MPD2    C3 4948   4.377   2.727  10.969  0.3661  0.4920  0.2142
  326MPD2    C4 4949   4.464   2.632  11.009 -0.0331 -0.3462  0.3849
  326MPD2    C5 4950   4.414   2.512  11.065 -0.2958 -0.2265 -0.0018
  326MPD2     H 4951   4.169   2.789  10.969 -1.0885 -0.5992  1.6128
  326MPD2    H1 4952   4.570   2.634  10.987  0.0767 -0.4314  0.9144
  326MPD2    H2 4953   4.248   2.398  11.116  0.3168  0.6711  1.7721
  326MPD2    H3 4954   4.479   2.427  11.082 -3.6260 -2.3041  2.3227
  326MPD2     N 4955   4.432   2.840  10.911 -0.3644  0.0878 -0.0122
  326MPD2    H5 4956   4.529   2.827  10.884 -0.4061  0.9087 -0.5626
  326MPD2    N1 4957   4.055   2.549  11.040 -0.4206  0.5028  0.8783
  326MPD2    H7 4958   4.035   2.479  11.111  0.1050 -1.3233 -0.7973
  327TMC3    C1 4959   3.966   2.667  10.845 -0.1971 -0.5113 -0.5964
  327TMC3    C2 4960   3.886   2.777  10.830 -0.5135 -0.1310 -0.3443
  327TMC3    C3 4961   3.918   2.858  10.722  1.1087  0.0533 -0.0293
  327TMC3    C4 4962   4.065   2.633  10.747 -0.6716  0.2569  0.2198
  327TMC3    C5 4963   4.087   2.720  10.644 -0.1390  0.0637 -0.2203
  327TMC3    C6 4964   4.024   2.840  10.634  0.6878 -0.1040  0.1836
  327TMC3     C 4965   3.946   2.596  10.969  0.4860 -0.1040  0.4570
  327TMC3     O 4966   3.825   2.580  10.991 -0.8262 -0.0339  0.0174
  327TMC3     H 4967   3.813   2.803  10.905 -0.5117 -1.8405  0.2499
  327TMC3    H1 4968   4.123   2.543  10.764 -0.5736  0.2914  0.0678
  327TMC3    H2 4969   4.026   2.896  10.541 -0.8385 -1.5616 -0.7291
  327TMC3    C7 4970   4.216   2.719  10.578 -0.0116 -0.3278 -0.7690
  327TMC3    C8 4971   3.829   2.966  10.692 -0.2839  0.3924  0.1827
  327TMC3    O1 4972   4.222   2.792  10.476  0.4547 -0.5637  0.4956
  327TMC3    O2 4973   3.861   3.036  10.595  0.5850 -0.2793 -0.4316
  328MPD2     C 4974   2.271   3.191  16.908  0.1881  0.4386  0.8539
  328MPD2    C1 4975   2.154   3.126  16.873  0.4460 -0.0992  0.0815
  328MPD2    C2 4976   2.073   3.181  16.782 -0.0293 -0.1814  0.5386
  328MPD2    C3 4977   2.093   3.310  16.738 -1.2385  0.0861  1.1719
  328MPD2    C4 4978   2.214   3.371  16.772 -0.0847  1.0270  0.2750
  328MPD2    C5 4979   2.305   3.314  16.853  0.1291  0.9259  0.1224
  328MPD2     H 4980   1.982   3.129  16.755  0.7897 -0.7313 -1.1815
  328MPD2    H1 4981   2.233   3.474  16.744  0.9638  1.0384  1.0466
  328MPD2    H2 4982   2.338   3.146  16.980  0.4140 -1.2453 -0.4174
  328MPD2    H3 4983   2.388   3.368  16.898 -0.3644 -0.8129  3.1210
  328MPD2     N 4984   2.004   3.387  16.657  0.0018 -0.2978 -0.6911
  328MPD2    H5 4985   2.025   3.486  16.647  2.4923 -0.5820  1.6604
  328MPD2    N1 4986   2.132   3.005  16.936 -0.1637  0.6378 -0.2957
  328MPD2    H7 4987   2.203   2.983  17.005 -1.3366  0.1164  0.7551
  329TMC3    C1 4988   1.990   2.839  17.028  0.5252 -0.0194  0.3223
  329TMC3    C2 4989   2.019   2.895  17.149 -0.3423  0.5307 -0.1558
  329TMC3    C3 4990   1.922   2.901  17.245  0.0223 -0.0581 -0.2427
  329TMC3    C4 4991   1.867   2.775  17.011 -0.4345 -0.1122 -0.4635
  329TMC3    C5 4992   1.776   2.776  17.112 -0.0739  0.2521  0.4672
  329TMC3    C6 4993   1.804   2.838  17.234  0.6578  0.1189 -0.1678
  329TMC3     C 4994   2.020   2.926  16.915  0.4789  0.0112 -0.1933
  329TMC3     O 4995   1.938   2.919  16.825  0.1099  0.9388 -0.5827
  329TMC3     H 4996   2.109   2.955  17.164 -0.3150  0.1724  1.1554
  329TMC3    H1 4997   1.850   2.740  16.910  0.9349  0.3630 -0.8540
  329TMC3    H2 4998   1.735   2.825  17.316  1.9484  0.4364  0.9515
  329TMC3    C7 4999   1.649   2.706  17.088 -0.4043  0.1964  0.8030
  329TMC3    C8 5000   1.957   2.964  17.371 -0.9188  0.4852  0.0272
  329TMC3    O1 5001   1.654   2.634  16.991  0.1030 -0.5330  0.6250
  329TMC3    O2 5002   2.074   2.990  17.389  0.1163 -0.1613 -0.1024
  330TMC3    C1 5003   3.914   1.816   9.138 -0.3651 -0.0140  0.8836
  330TMC3    C2 5004   3.799   1.752   9.099  0.5956  0.1865 -0.1997
  330TMC3    C3 5005   3.774   1.628   9.151 -0.3385 -1.1697 -0.4430
  330TMC3    C4 5006   4.012   1.756   9.212  0.5915  0.0661  0.0802
  330TMC3    C5 5007   3.977   1.634   9.270  0.0621  0.2389  0.2311
  330TMC3    C6 5008   3.863   1.569   9.236 -0.2183  0.3973  1.1525
  330TMC3     C 5009   3.901   1.959   9.165 -0.0792 -1.3004 -0.1603
  330TMC3     O 5010   3.996   2.025   9.200 -0.1072 -0.0939  0.0866
  330TMC3     H 5011   3.733   1.791   9.023  1.0814 -0.8217 -1.1390
  330TMC3    H1 5012   4.088   1.824   9.249  0.7834  0.0327 -0.2533
  330TMC3    H2 5013   3.843   1.466   9.263  0.9683 -0.0166  0.4721
  330TMC3    C7 5014   4.079   1.577   9.359 -0.4970  0.0792 -0.6151
  330TMC3    C8 5015   3.657   1.560   9.109  0.2198 -1.2027 -0.8774
  330TMC3    O1 5016   4.168   1.652   9.398 -0.1059  0.1109 -0.9626
  330TMC3    O2 5017   3.616   1.591   8.996  0.4436  0.5637 -0.5669
  331MPD2     C 5018   2.846   1.423  13.405 -0.6959  0.1625 -0.0887
  331MPD2    C1 5019   2.969   1.379  13.363 -0.0209 -0.6007 -0.2904
  331MPD2    C2 5020   2.968   1.270  13.276  0.2732 -0.0352 -0.2328
  331MPD2    C3 5021   2.855   1.201  13.229 -0.0548  0.0465  0.5906
  331MPD2    C4 5022   2.735   1.250  13.277  0.6407  0.2858  0.3393
  331MPD2    C5 5023   2.732   1.359  13.364 -0.3369 -0.7792 -0.3857
  331MPD2     H 5024   3.065   1.235  13.240  0.7187  0.2290  0.7278
  331MPD2    H1 5025   2.638   1.215  13.243 -0.2396  2.3840  0.6861
  331MPD2    H2 5026   2.841   1.500  13.481 -2.2223 -1.0941  1.0918
  331MPD2    H3 5027   2.638   1.400  13.399  0.4393  1.2943 -0.7372
  331MPD2     N 5028   2.866   1.102  13.128 -0.0917  0.2242 -0.2045
  331MPD2    H5 5029   2.958   1.084  13.088 -0.4239 -1.2510 -0.3258
  331MPD2    N1 5030   3.079   1.471  13.363  0.2507  0.6860 -0.9195
  331MPD2    H7 5031   3.051   1.566  13.384  1.1835  0.5013  1.2094
  332TMC3    C1 5032   2.798   0.979  12.940 -0.2917 -0.8904  0.4387
  332TMC3    C2 5033   2.742   1.005  12.818 -0.0973  1.1233  0.1992
  332TMC3    C3 5034   2.793   0.948  12.707  0.3432  0.0799 -0.3317
  332TMC3    C4 5035   2.903   0.896  12.953  0.8600  0.2026 -0.6317
  332TMC3    C5 5036   2.961   0.858  12.836  0.1072  0.3437 -0.2288
  332TMC3    C6 5037   2.906   0.874  12.713  0.0461 -0.5514  0.7099
  332TMC3     C 5038   2.757   1.063  13.048 -0.0578 -0.0167 -0.6980
  332TMC3     O 5039   2.638   1.101  13.040  0.5784 -0.0319 -0.2588
  332TMC3     H 5040   2.666   1.081  12.803 -1.4660 -0.4476 -0.8849
  332TMC3    H1 5041   2.948   0.867  13.047  1.5741  1.2174 -0.6535
  332TMC3    H2 5042   2.955   0.837  12.624 -0.4500 -1.3495  0.7613
  332TMC3    C7 5043   3.070   0.766  12.849 -0.2481  0.3571  0.0209
  332TMC3    C8 5044   2.781   1.036  12.589  0.0036 -0.0910 -0.6543
  332TMC3    O1 5045   3.127   0.745  12.741  0.3850 -0.1407  0.1419
  332TMC3    O2 5046   2.890   1.059  12.540  0.5059  0.0133  0.2820
  333MPD2     C 5047   2.887   1.205  11.071  0.1105 -0.1267  0.8529
  333MPD2    C1 5048   3.019   1.176  11.074 -0.2742  0.9305  0.9991
  333MPD2    C2 5049   3.066   1.054  11.125  0.1419  0.6173 -0.1129
  333MPD2    C3 5050   2.979   0.972  11.193  0.5088  0.5790  0.0394
  333MPD2    C4 5051   2.846   1.010  11.197 -0.4733 -0.5473  0.2255
  333MPD2    C5 5052   2.798   1.124  11.136 -0.0639  0.0313  0.0251
  333MPD2     H 5053   3.173   1.038  11.117  0.0955 -0.0115  0.6291
  333MPD2    H1 5054   2.770   0.953  11.250  2.4272 -2.4377  2.3573
  333MPD2    H2 5055   2.850   1.298  11.030  3.1837  0.2960 -0.8849
  333MPD2    H3 5056   2.695   1.157  11.131  0.3218  1.3898  0.8505
  333MPD2     N 5057   3.034   0.848  11.246 -0.0028  0.6039  0.0862
  333MPD2    H5 5058   3.132   0.835  11.223 -0.0379  0.8480 -0.2055
  333MPD2    N1 5059   3.108   1.269  11.015  0.7540 -0.2422 -0.0003
  333MPD2    H7 5060   3.063   1.357  10.993 -1.3262 -1.5087 -0.8404
  334TMC3    C1 5061   3.295   1.364  10.911 -0.4072 -0.0498 -0.0516
  334TMC3    C2 5062   3.379   1.333  10.808 -0.4672  0.1200 -0.0536
  334TMC3    C3 5063   3.434   1.437  10.743 -0.4335 -0.4443  0.2228
  334TMC3    C4 5064   3.250   1.489  10.936  0.1208 -0.3832  0.5047
  334TMC3    C5 5065   3.306   1.586  10.865 -0.7420  0.2094  0.0997
  334TMC3    C6 5066   3.410   1.569  10.778 -0.3226 -0.1250  0.3986
  334TMC3     C 5067   3.239   1.248  10.973  0.1516  0.6870 -0.1735
  334TMC3     O 5068   3.303   1.147  10.979  0.2968 -0.4196  0.4983
  334TMC3     H 5069   3.404   1.230  10.783  0.3594  0.1118  0.8089
  334TMC3    H1 5070   3.163   1.515  10.995 -0.6630 -0.8458 -0.4482
  334TMC3    H2 5071   3.436   1.660  10.725 -2.6576 -1.2156 -2.6209
  334TMC3    C7 5072   3.223   1.704  10.846  0.2291  0.1355  0.0790
  334TMC3    C8 5073   3.459   1.397  10.607 -0.5066  0.0118  0.3894
  334TMC3    O1 5074   3.280   1.816  10.855 -0.5661 -0.2478 -0.0916
  334TMC3    O2 5075   3.393   1.305  10.564 -0.0054 -0.7185 -0.0723
  335TMC3    C1 5076   2.986   3.250  17.151 -0.1867 -0.3092 -0.8844
  335TMC3    C2 5077   2.937   3.139  17.086 -0.0363  0.2102 -0.5054
  335TMC3    C3 5078   3.026   3.041  17.065 -0.1839 -0.2451 -0.1753
  335TMC3    C4 5079   3.113   3.261  17.205  0.7218  0.0587  0.5134
  335TMC3    C5 5080   3.196   3.162  17.161  0.2346  0.3162  0.2302
  335TMC3    C6 5081   3.155   3.048  17.099  0.5333 -0.0418 -0.3032
  335TMC3     C 5082   2.894   3.361  17.146 -0.1829 -0.0073 -0.4983
  335TMC3     O 5083   2.787   3.354  17.083  0.2905 -0.2796  0.5195
  335TMC3     H 5084   2.844   3.138  17.031 -1.0411  1.2720  1.1610
  335TMC3    H1 5085   3.147   3.362  17.222  0.2440  0.8595 -3.3907
  335TMC3    H2 5086   3.228   2.976  17.065 -0.2944 -0.9991 -0.0650
  335TMC3    C7 5087   3.333   3.208  17.149  0.1553  0.2063 -0.0924
  335TMC3    C8 5088   2.989   2.940  16.964 -0.2254  0.7216 -0.9635
  335TMC3    O1 5089   3.390   3.180  17.044 -0.0701  0.2874 -0.5356
  335TMC3    O2 5090   3.062   2.908  16.873  0.6913 -0.1067 -0.5135
  336MPD2     C 5091   2.476   1.185  16.007 -0.7461  0.9172 -0.8014
  336MPD2    C1 5092   2.451   1.060  15.952  0.5182 -0.0198  0.1067
  336MPD2    C2 5093   2.548   0.959  15.967  0.2650 -0.2033  0.8885
  336MPD2    C3 5094   2.669   0.988  16.040  0.2527 -0.3927  0.1709
  336MPD2    C4 5095   2.690   1.116  16.087  0.0597 -0.5259  0.6850
  336MPD2    C5 5096   2.592   1.214  16.067  0.1316  0.4301 -0.7993
  336MPD2     H 5097   2.523   0.863  15.923  0.2128  0.6816 -1.0046
  336MPD2    H1 5098   2.784   1.146  16.134  0.0116  1.6387 -0.5840
  336MPD2    H2 5099   2.426   1.277  15.980 -1.8119  0.9876  1.3425
  336MPD2    H3 5100   2.602   1.319  16.091  1.0529  0.1294  0.1473
  336MPD2     N 5101   2.766   0.892  16.077 -0.2826  0.1983  0.0804
  336MPD2    H5 5102   2.836   0.915  16.147  0.9782  0.8040 -1.3763
  336MPD2    N1 5103   2.341   1.041  15.864  1.1158  0.6179 -0.1055
  336MPD2    H7 5104   2.346   0.959  15.805  1.0401  0.7197 -0.2550
  337TMC3    C1 5105   2.155   1.111  15.732  0.1737 -0.8546  0.5223
  337TMC3    C2 5106   2.107   0.985  15.714 -0.2426 -0.2000  0.2728
  337TMC3    C3 5107   1.988   0.977  15.647  0.1677  0.2243  0.3551
  337TMC3    C4 5108   2.093   1.226  15.687 -0.4584 -0.1182 -0.0023
  337TMC3    C5 5109   1.974   1.211  15.618  0.2007  0.2073  0.5093
  337TMC3    C6 5110   1.925   1.091  15.599  0.4286  0.2845 -0.0434
  337TMC3     C 5111   2.240   1.134  15.845  0.1611  0.4699  0.1412
  337TMC3     O 5112   2.210   1.221  15.923  0.1479 -0.4736 -0.4202
  337TMC3     H 5113   2.150   0.905  15.772 -0.9979 -0.2770  0.7236
  337TMC3    H1 5114   2.136   1.325  15.701 -0.3628 -0.4174  1.8045
  337TMC3    H2 5115   1.829   1.077  15.549  0.9082 -1.1607 -0.5399
  337TMC3    C7 5116   1.907   1.309  15.529 -0.1954 -0.4114  0.2083
  337TMC3    C8 5117   1.934   0.848  15.623  0.6937 -0.8244  0.0913
  337TMC3    O1 5118   1.854   1.269  15.433  0.6012 -0.2419  0.1605
  337TMC3    O2 5119   2.008   0.757  15.605 -0.1885 -0.7249  0.2661
  338MPD2     C 5120   2.417   0.313   0.831  0.2454 -0.8512  0.3912
  338MPD2    C1 5121   2.443   0.330   0.701  0.3407  0.2200  0.3677
  338MPD2    C2 5122   2.332   0.355   0.623 -0.7036  0.2405 -0.3867
  338MPD2    C3 5123   2.200   0.366   0.667  0.8976 -0.3719  0.4452
  338MPD2    C4 5124   2.188   0.351   0.802  0.2915  0.3688  0.3264
  338MPD2    C5 5125   2.292   0.321   0.884 -0.6537 -0.9146  0.0933
  338MPD2     H 5126   2.353   0.376   0.519 -0.2575  0.9646 -0.1506
  338MPD2    H1 5127   2.093   0.364   0.853 -0.9444 -0.1238 -1.8501
  338MPD2    H2 5128   2.501   0.298   0.898 -0.8245 -1.2451  1.6490
  338MPD2    H3 5129   2.274   0.314   0.990  0.4141  0.9938  0.4015
  338MPD2     N 5130   2.090   0.401   0.586 -0.6151 -0.2977 -0.3150
  338MPD2    H5 5131   2.105   0.406   0.486 -2.5586  0.2645 -0.5698
  338MPD2    N1 5132   2.571   0.328   0.641 -0.0343 -1.0501  0.0168
  338MPD2    H7 5133   2.568   0.352   0.543  1.2096  0.6651  0.4025
  339TMC3    C1 5134   1.863   0.424   0.508 -0.1559 -0.5446  0.6754
  339TMC3    C2 5135   1.725   0.393   0.519  0.0502  0.0940  0.0604
  339TMC3    C3 5136   1.639   0.407   0.411 -0.1942 -0.4448 -0.3879
  339TMC3    C4 5137   1.908   0.477   0.388 -0.3824  0.1890  0.4759
  339TMC3    C5 5138   1.811   0.500   0.284 -0.4037  0.5314  0.1448
  339TMC3    C6 5139   1.681   0.463   0.292  0.2498 -0.1880 -0.8169
  339TMC3     C 5140   1.951   0.388   0.616 -0.8808 -0.7282  0.3923
  339TMC3     O 5141   1.900   0.329   0.708 -0.0112  0.1055  0.5943
  339TMC3     H 5142   1.678   0.341   0.602 -2.1510 -0.3984 -1.4615
  339TMC3    H1 5143   2.005   0.524   0.387  0.2722 -1.1635  0.6410
  339TMC3    H2 5144   1.611   0.455   0.210 -0.9327 -1.3045  0.3151
  339TMC3    C7 5145   1.856   0.543   0.148 -1.0691  0.2086  0.6774
  339TMC3    C8 5146   1.535   0.308   0.403  0.0658 -0.0726 -0.2681
  339TMC3    O1 5147   1.780   0.602   0.076  0.2259 -0.0426 -0.5410
  339TMC3    O2 5148   1.429   0.336   0.347 -0.4052  0.3425  0.0860
  340MPD2     C 5149   2.967   2.623  10.587  0.3750  0.2518 -0.1879
  340MPD2    C1 5150   2.987   2.493  10.563 -0.5619  1.1676  0.2171
  340MPD2    C2 5151   3.113   2.438  10.572  0.5687 -0.0005  0.6807
  340MPD2    C3 5152   3.214   2.514  10.618  0.6169  0.4667  0.0457
  340MPD2    C4 5153   3.195   2.645  10.646 -0.6056 -0.1898  0.8303
  340MPD2    C5 5154   3.075   2.703  10.625 -0.2784  0.0056 -0.7568
  340MPD2     H 5155   3.129   2.332  10.550 -1.0840 -0.2690  0.8131
  340MPD2    H1 5156   3.274   2.712  10.678 -0.1199  0.2076 -1.1783
  340MPD2    H2 5157   2.874   2.667  10.553  1.1673  2.1335  0.1036
  340MPD2    H3 5158   3.058   2.810  10.626  1.6332  0.2844  0.3102
  340MPD2     N 5159   3.347   2.468  10.606  0.2636 -0.3262  0.1762
  340MPD2    H5 5160   3.421   2.534  10.628  0.7766 -0.5397 -0.9267
  340MPD2    N1 5161   2.871   2.422  10.525  0.1453  0.1976  0.3741
  340MPD2    H7 5162   2.791   2.476  10.495  1.8245  1.0701 -2.5749
  341TMC3    C1 5163   2.735   2.254  10.429 -0.3164  0.0382 -0.1687
  341TMC3    C2 5164   2.710   2.123  10.411 -0.3953 -0.1147  1.2968
  341TMC3    C3 5165   2.639   2.081  10.300  0.2999 -0.3583 -0.7859
  341TMC3    C4 5166   2.693   2.345  10.327 -0.3864 -0.0672  0.0160
  341TMC3    C5 5167   2.620   2.289  10.221  0.7707  0.6792 -0.5139
  341TMC3    C6 5168   2.585   2.162  10.206  0.0958 -0.2681 -0.3024
  341TMC3     C 5169   2.858   2.285  10.501  0.5009  0.0650  0.8146
  341TMC3     O 5170   2.935   2.191  10.527  0.4908 -0.4060  0.2635
  341TMC3     H 5171   2.736   2.061  10.496 -0.5238 -0.9371  0.7402
  341TMC3    H1 5172   2.751   2.436  10.311  0.4333 -0.4132  1.0085
  341TMC3    H2 5173   2.523   2.136  10.122 -3.0924 -0.2212  2.0176
  341TMC3    C7 5174   2.601   2.379  10.105  0.5400  0.3605 -0.2365
  341TMC3    C8 5175   2.609   1.934  10.287 -0.3558 -0.6117 -0.2165
  341TMC3    O1 5176   2.576   2.330   9.993  0.2078 -0.3175 -0.1330
  341TMC3    O2 5177   2.501   1.902  10.243 -0.6571 -0.0365 -0.8565
  342MPD2     C 5178   0.544   1.033  16.769 -0.1822  0.4016 -0.6516
  342MPD2    C1 5179   0.636   1.053  16.873  0.2049  0.3336 -0.0681
  342MPD2    C2 5180   0.647   1.178  16.939 -0.1576  0.5525 -0.7849
  342MPD2    C3 5181   0.566   1.280  16.903 -0.5723 -0.0816 -0.2612
  342MPD2    C4 5182   0.479   1.265  16.804  0.1751 -0.2059 -0.2291
  342MPD2    C5 5183   0.476   1.144  16.730  0.1533  0.5372  0.3356
  342MPD2     H 5184   0.717   1.188  17.022 -0.3223 -1.6789 -0.3941
  342MPD2    H1 5185   0.416   1.349  16.778  1.9161  1.4297  0.7965
  342MPD2    H2 5186   0.548   0.942  16.711  1.4686 -0.3991  0.6979
  342MPD2    H3 5187   0.413   1.143  16.641  0.3233 -2.1311  0.2578
  342MPD2     N 5188   0.580   1.408  16.954 -0.9341 -0.0284 -0.4612
  342MPD2    H5 5189   0.517   1.480  16.921 -2.3310 -0.6474  0.8908
  342MPD2    N1 5190   0.728   0.948  16.906 -0.4933  0.3731 -0.1447
  342MPD2    H7 5191   0.714   0.859  16.861 -0.7530 -0.1615  0.9968
  343TMC3    C1 5192   0.935   0.848  16.963 -0.2815  0.3479 -0.5506
  343TMC3    C2 5193   1.062   0.878  16.960 -0.3584 -0.6166  0.6356
  343TMC3    C3 5194   1.154   0.782  16.941 -0.0503  0.2557 -0.1044
  343TMC3    C4 5195   0.893   0.721  16.935  0.3294 -0.1630 -0.2669
  343TMC3    C5 5196   0.983   0.619  16.916  0.0335  0.4172 -0.7244
  343TMC3    C6 5197   1.116   0.647  16.933  0.4960  0.1960 -0.0857
  343TMC3     C 5198   0.849   0.965  16.969 -0.2919  0.0198  0.3540
  343TMC3     O 5199   0.906   1.063  17.007  0.4278 -0.4533 -0.3494
  343TMC3     H 5200   1.100   0.976  16.986  0.7457 -0.3567 -1.8885
  343TMC3    H1 5201   0.788   0.700  16.918  0.6010 -1.4099 -0.4108
  343TMC3    H2 5202   1.193   0.572  16.925  2.0365  1.8251 -0.5740
  343TMC3    C7 5203   0.918   0.488  16.899 -0.2813  0.0183 -0.0996
  343TMC3    C8 5204   1.294   0.822  16.925 -0.0225 -1.0156 -0.2009
  343TMC3    O1 5205   0.798   0.479  16.926  0.1704  0.3287  0.1364
  343TMC3    O2 5206   1.314   0.940  16.951 -0.2326 -0.0159  1.1707
  344MPD2     C 5207   1.861   0.113   9.928  0.3048  0.3166 -0.0705
  344MPD2    C1 5208   1.743   0.177   9.954  0.3505  0.6838  0.3852
  344MPD2    C2 5209   1.753   0.315   9.964 -0.4890 -0.5055  0.3885
  344MPD2    C3 5210   1.872   0.380   9.941  0.7271  0.2160  0.3036
  344MPD2    C4 5211   1.989   0.310   9.920 -0.6814 -0.0234 -0.0800
  344MPD2    C5 5212   1.981   0.172   9.913  0.1198 -0.5698  0.6330
  344MPD2     H 5213   1.666   0.371   9.996  0.0195  1.3019 -1.4153
  344MPD2    H1 5214   2.086   0.359   9.920 -0.2801 -0.7976 -0.9778
  344MPD2    H2 5215   1.863   0.007   9.906  1.3259  0.2111  0.5401
  344MPD2    H3 5216   2.072   0.116   9.896  1.4198  1.9464 -0.6850
  344MPD2     N 5217   1.875   0.517   9.931  0.3188 -0.3121  0.4696
  344MPD2    H5 5218   1.958   0.569   9.903 -0.9907  0.9172 -1.1331
  344MPD2    N1 5219   1.621   0.112   9.988 -0.4284 -0.3850 -0.1029
  344MPD2    H7 5220   1.547   0.175  10.017  0.2848  0.5864 -0.3745
  345TMC3    C1 5221   1.823   0.727   9.950  0.5963  0.5187 -0.6910
  345TMC3    C2 5222   1.919   0.740  10.050 -0.8497 -0.0582 -0.3446
  345TMC3    C3 5223   1.948   0.866  10.090  0.2481 -0.6471  0.1927
  345TMC3    C4 5224   1.756   0.837   9.900  0.4716  0.1342 -0.4811
  345TMC3    C5 5225   1.783   0.964   9.956 -0.5104 -0.9610  0.3301
  345TMC3    C6 5226   1.880   0.984  10.051 -0.6887  0.0114  0.1184
  345TMC3     C 5227   1.768   0.600   9.928  0.8499  0.3707  0.2364
  345TMC3     O 5228   1.645   0.586   9.911 -0.0274  0.2644  0.2398
  345TMC3     H 5229   1.963   0.659  10.107 -0.4684  0.7484  0.4942
  345TMC3    H1 5230   1.676   0.817   9.829  0.3217  0.2281 -0.3362
  345TMC3    H2 5231   1.911   1.072  10.105  0.0864  0.3237 -0.8336
  345TMC3    C7 5232   1.712   1.085   9.911 -0.8100  0.4865  0.5221
  345TMC3    C8 5233   2.016   0.872  10.220 -0.2780 -0.1399  0.1944
  345TMC3    O1 5234   1.752   1.192   9.955  0.6593  0.3268  0.1987
  345TMC3    O2 5235   1.946   0.920  10.313 -0.6000  0.3121 -0.6570
  346MPD2     C 5236   1.903   2.644  14.552  0.3261 -0.5258  0.0269
  346MPD2    C1 5237   2.029   2.617  14.506 -0.5355  0.0546 -0.2118
  346MPD2    C2 5238   2.138   2.659  14.582  0.0823 -0.0690  0.2493
  346MPD2    C3 5239   2.121   2.725  14.707  0.3233  0.4533 -0.4161
  346MPD2    C4 5240   1.988   2.752  14.747  0.3375  0.1401  0.1622
  346MPD2    C5 5241   1.881   2.723  14.666 -0.5850  0.0315  0.1671
  346MPD2     H 5242   2.242   2.648  14.555  0.4226  2.1882  0.6162
  346MPD2    H1 5243   1.970   2.817  14.832 -1.7481 -0.8336  0.4620
  346MPD2    H2 5244   1.812   2.612  14.503 -0.7471 -0.1163  1.7811
  346MPD2    H3 5245   1.780   2.755  14.690 -0.9221  0.9296 -2.4124
  346MPD2     N 5246   2.235   2.772  14.773  0.5186  0.0126  0.4340
  346MPD2    H5 5247   2.328   2.756  14.735  1.0596  0.2776  1.6490
  346MPD2    N1 5248   2.055   2.558  14.378  0.0503 -0.7118 -0.2815
  346MPD2    H7 5249   2.151   2.526  14.363  0.1685 -0.0050 -1.0251
  347TMC3    C1 5250   2.365   2.861  14.946 -0.1665  0.6294 -0.4004
  347TMC3    C2 5251   2.473   2.890  14.854 -0.3580  0.5071  0.4375
  347TMC3    C3 5252   2.594   2.937  14.908 -0.2686  0.2049 -0.6569
  347TMC3    C4 5253   2.386   2.887  15.080  0.4522 -0.0418 -0.0998
  347TMC3    C5 5254   2.512   2.922  15.124 -0.4119 -0.3971 -0.3114
  347TMC3    C6 5255   2.614   2.948  15.043 -0.1230  0.2457 -1.0578
  347TMC3     C 5256   2.235   2.810  14.904  1.1153 -0.6209  0.8912
  347TMC3     O 5257   2.149   2.802  14.988  0.8015  0.6424 -0.6259
  347TMC3     H 5258   2.460   2.872  14.748 -2.4373  1.2101  0.5716
  347TMC3    H1 5259   2.300   2.874  15.145  0.3001 -1.4732 -0.5933
  347TMC3    H2 5260   2.716   2.957  15.078 -0.5510  2.0793 -0.2587
  347TMC3    C7 5261   2.540   2.950  15.264 -0.1286  0.1296  0.0347
  347TMC3    C8 5262   2.714   2.904  14.835  0.1923  0.9411  1.0488
  347TMC3    O1 5263   2.624   3.032  15.284  0.8892  0.0494  0.0310
  347TMC3    O2 5264   2.803   2.863  14.909 -0.1940 -0.3772 -0.1272
  348MPD2     C 5265   4.629   1.355  11.909 -0.5211 -0.2170  0.6770
  348MPD2    C1 5266   4.724   1.331  11.812  0.2710  0.0936  0.5119
  348MPD2    C2 5267   4.721   1.399  11.698  0.9704 -1.0176  0.5195
  348MPD2    C3 5268   4.622   1.495  11.671  0.5401 -0.4986 -0.0810
  348MPD2    C4 5269   4.530   1.518  11.765 -0.4381  0.3167 -0.4485
  348MPD2    C5 5270   4.528   1.442  11.882 -0.7371 -0.3738  0.7664
  348MPD2     H 5271   0.056   1.379  11.619  1.5012  0.7990  0.5295
  348MPD2    H1 5272   4.455   1.593  11.745  1.1612  2.4394  1.4814
  348MPD2    H2 5273   4.633   1.314  12.010 -0.5669 -2.0139 -0.0451
  348MPD2    H3 5274   4.442   1.457  11.946 -1.1022  0.9529 -0.0198
  348MPD2     N 5275   4.618   1.558  11.544 -0.1900 -0.4669  0.0485
  348MPD2    H5 5276   4.698   1.543  11.482 -0.6358  1.7963 -1.0517
  348MPD2    N1 5277   0.098   1.242  11.834  0.1615  0.0943 -0.3744
  348MPD2    H7 5278   0.171   1.227  11.765  0.7450 -1.1828  0.5067
  349TMC3    C1 5279   0.228   1.066  11.924 -0.0160 -0.2103  0.0124
  349TMC3    C2 5280   0.301   1.033  12.029  0.4312 -0.2059 -0.5665
  349TMC3    C3 5281   0.411   0.953  12.014 -0.1025 -0.0821  0.3214
  349TMC3    C4 5282   0.254   1.014  11.801  0.0219 -0.1204 -0.1202
  349TMC3    C5 5283   0.369   0.943  11.789 -0.0502  0.0553  0.2706
  349TMC3    C6 5284   0.448   0.906  11.889  0.1233 -0.1934  0.2138
  349TMC3     C 5285   0.115   1.163  11.943  0.4329  0.1664  0.6159
  349TMC3     O 5286   0.048   1.157  12.045 -0.7243  0.1711  0.0417
  349TMC3     H 5287   0.270   1.074  12.124 -1.0009 -1.6007 -0.4320
  349TMC3    H1 5288   0.196   1.042  11.714 -5.1714  1.0586  3.7299
  349TMC3    H2 5289   0.542   0.857  11.864  1.2003  0.7765  2.3919
  349TMC3    C7 5290   0.381   0.881  11.657 -0.8400 -0.2412 -0.1957
  349TMC3    C8 5291   0.530   0.977  12.101  0.1179  0.0049  0.0764
  349TMC3    O1 5292   0.373   0.952  11.560  0.2001  0.4118 -0.8518
  349TMC3    O2 5293   0.642   0.966  12.061  0.0779 -0.0170 -0.4794
  350MPD2     C 5294   3.574   4.291   9.544 -0.5067 -0.0429 -0.1860
  350MPD2    C1 5295   3.656   4.195   9.486  0.3128 -0.5266  0.2433
  350MPD2    C2 5296   3.793   4.212   9.486  0.1811 -0.2201  0.2812
  350MPD2    C3 5297   3.849   4.317   9.549  0.6671  0.7230  0.3900
  350MPD2    C4 5298   3.768   4.415   9.597  0.1887 -0.4642  0.7376
  350MPD2    C5 5299   3.635   4.406   9.598  0.9582 -0.3125 -0.3680
  350MPD2     H 5300   3.855   4.147   9.425  1.1970 -0.8211  1.9367
  350MPD2    H1 5301   3.807   4.512   9.623  1.5191 -0.2012 -2.2421
  350MPD2    H2 5302   3.466   4.286   9.546 -0.4957 -1.0393 -1.9606
  350MPD2    H3 5303   3.575   4.482   9.646  1.2371 -1.2969  1.5593
  350MPD2     N 5304   3.992   4.325   9.548  0.7140  0.2624  0.5594
  350MPD2    H5 5305   4.049   4.252   9.507 -0.6309 -0.3439 -0.2401
  350MPD2    N1 5306   3.596   4.076   9.435  0.3635  0.3276 -0.2176
  350MPD2    H7 5307   3.657   4.015   9.382  1.2296  2.0379 -1.1843
  351TMC3    C1 5308   3.454   3.897   9.426 -0.0846 -0.9124  0.1458
  351TMC3    C2 5309   3.518   3.861   9.311 -0.6673 -0.0336 -0.5741
  351TMC3    C3 5310   3.484   3.748   9.248  0.5346  0.2493 -0.2899
  351TMC3    C4 5311   3.350   3.825   9.477 -0.0326 -0.1986 -0.0612
  351TMC3    C5 5312   3.328   3.703   9.415  0.7068  0.1385  0.4601
  351TMC3    C6 5313   3.396   3.659   9.299  0.2666 -0.0549  0.3116
  351TMC3     C 5314   3.479   4.023   9.478  0.3981 -0.6277  0.0257
  351TMC3     O 5315   3.397   4.060   9.559  0.2632 -0.3103 -0.3482
  351TMC3     H 5316   3.564   3.940   9.253  3.8237  0.7444  4.0093
  351TMC3    H1 5317   3.304   3.872   9.563  0.0110 -1.2879  0.5511
  351TMC3    H2 5318   3.391   3.556   9.266  1.6242 -1.0945  3.3470
  351TMC3    C7 5319   3.214   3.630   9.456 -0.0314 -0.0328  0.0477
  351TMC3    C8 5320   3.541   3.723   9.117  1.3022 -0.4635 -0.5757
  351TMC3    O1 5321   3.174   3.545   9.374 -0.3477  0.1001  0.3878
  351TMC3    O2 5322   3.639   3.795   9.087 -0.1645 -0.1458 -0.2318
  352MPD2     C 5323   2.873   2.582   1.238 -0.5525 -0.0434  0.0070
  352MPD2    C1 5324   2.789   2.524   1.149 -0.1763 -0.0990 -0.0987
  352MPD2    C2 5325   2.808   2.395   1.099 -0.0803  0.0159 -0.3530
  352MPD2    C3 5326   2.919   2.327   1.137  0.2626  0.3190 -0.4581
  352MPD2    C4 5327   3.013   2.390   1.221 -0.4295  0.6012 -0.2588
  352MPD2    C5 5328   2.984   2.511   1.279  0.1477  0.3038  0.1176
  352MPD2     H 5329   2.732   2.355   1.033 -1.2168  0.8369  0.4563
  352MPD2    H1 5330   3.102   2.345   1.263 -1.5780 -0.1632  1.3050
  352MPD2    H2 5331   2.859   2.689   1.254 -0.6734  0.1103 -1.1254
  352MPD2    H3 5332   3.063   2.561   1.334  1.6236  0.0116 -1.7217
  352MPD2     N 5333   2.959   2.198   1.097 -0.0478 -0.2001 -0.1808
  352MPD2    H5 5334   3.045   2.161   1.135  0.3458  0.5852 -0.2842
  352MPD2    N1 5335   2.676   2.599   1.104  0.6407  0.0039 -0.1897
  352MPD2    H7 5336   2.657   2.685   1.156  2.6313  1.0116 -1.1137
  353TMC3    C1 5337   2.910   1.978   0.992 -0.2100  0.5122 -0.4861
  353TMC3    C2 5338   3.030   1.927   1.035 -0.4698  0.3975  0.0074
  353TMC3    C3 5339   3.060   1.798   1.017  0.5340  0.4983 -0.5837
  353TMC3    C4 5340   2.815   1.890   0.945 -0.1233  0.0180 -0.7643
  353TMC3    C5 5341   2.847   1.758   0.939 -0.0187 -0.5768  0.9418
  353TMC3    C6 5342   2.968   1.704   0.975 -0.7561  0.3837  0.2110
  353TMC3     C 5343   2.875   2.114   1.015 -0.1530 -0.3766 -0.8355
  353TMC3     O 5344   2.771   2.145   0.962 -0.3862  0.9054  0.4484
  353TMC3     H 5345   3.107   1.992   1.073  0.9291 -2.2072  1.5901
  353TMC3    H1 5346   2.726   1.930   0.897  0.6915 -1.3885 -3.4743
  353TMC3    H2 5347   2.994   1.605   0.939 -2.2947  0.4008 -0.9513
  353TMC3    C7 5348   2.730   1.675   0.934  0.1512  0.1403 -0.1625
  353TMC3    C8 5349   3.185   1.754   1.055  0.6514 -0.0648 -0.6862
  353TMC3    O1 5350   2.748   1.563   0.892  0.5592 -0.1079  0.0220
  353TMC3    O2 5351   3.284   1.824   1.055 -0.3619  0.1904  0.1478
  354TMC3    C1 5352   0.032   3.191  13.305 -0.2262  0.2361 -0.2491
  354TMC3    C2 5353   0.012   3.321  13.279 -0.0564 -0.0472 -0.1806
  354TMC3    C3 5354   4.695   3.361  13.161 -0.3634 -0.5183 -0.0843
  354TMC3    C4 5355   4.733   3.092  13.218  0.3129  0.0039 -0.6319
  354TMC3    C5 5356   4.688   3.136  13.101  0.6153  0.4951  0.1463
  354TMC3    C6 5357   4.660   3.268  13.067  0.2660 -0.0220 -0.5405
  354TMC3     C 5358   0.050   3.145  13.444 -0.9445 -0.7921  0.5254
  354TMC3     O 5359   4.729   3.188  13.539  0.2016 -0.6260 -0.5091
  354TMC3     H 5360   0.027   3.402  13.350  1.5121 -0.2486 -0.2858
  354TMC3    H1 5361   0.035   2.992  13.231  1.4162  0.7536  1.8917
  354TMC3    H2 5362   4.606   3.300  12.978 -0.5025  1.3469  0.3990
  354TMC3    C7 5363   4.649   3.038  13.006  0.2615 -0.3213 -0.0836
  354TMC3    C8 5364   4.670   3.503  13.148 -0.3854 -0.2607  0.1207
  354TMC3    O1 5365   4.624   2.924  13.045  0.4683  0.3925 -0.0024
  354TMC3    O2 5366   4.655   3.573  13.249  0.0496  0.3891  0.1454
  355MPD2     C 5367   4.216   3.688  11.330  0.0314 -0.5262  0.1678
  355MPD2    C1 5368   4.174   3.815  11.342 -0.3727 -0.6174 -0.7610
  355MPD2    C2 5369   4.264   3.910  11.391 -0.0740 -0.8092  0.0481
  355MPD2    C3 5370   4.394   3.873  11.410 -0.0647  0.6070 -0.0145
  355MPD2    C4 5371   4.442   3.745  11.397  0.9118  0.3610  0.0422
  355MPD2    C5 5372   4.348   3.657  11.354  0.2258  0.2401 -0.0922
  355MPD2     H 5373   4.223   4.009  11.411  0.7262  0.0116 -2.3309
  355MPD2    H1 5374   4.543   3.713  11.420  0.3635 -0.8188  0.8265
  355MPD2    H2 5375   4.154   3.609  11.289 -1.6905  0.2936  1.1764
  355MPD2    H3 5376   4.377   3.553  11.348  2.8403  0.8451  2.2139
  355MPD2     N 5377   4.495   3.969  11.447 -0.0882  0.9988  0.4510
  355MPD2    H5 5378   4.591   3.937  11.455 -0.2827  0.8580  2.1295
  355MPD2    N1 5379   4.039   3.843  11.307 -0.3834 -0.5210  0.7453
  355MPD2    H7 5380   3.973   3.766  11.308 -0.2769 -0.6165 -0.3063
  356TMC3    C1 5381   4.603   4.178  11.474  0.4908  0.4509 -0.1693
  356TMC3    C2 5382   4.636   4.285  11.396  0.2430  0.3903 -0.2047
  356TMC3    C3 5383   0.032   4.337  11.416 -0.0454  0.3081  0.4270
  356TMC3    C4 5384   4.683   4.121  11.566 -0.0408  0.4938  1.1445
  356TMC3    C5 5385   0.073   4.174  11.582 -1.0871  0.6137  0.7051
  356TMC3    C6 5386   0.117   4.283  11.511 -0.1726  0.0137  0.5025
  356TMC3     C 5387   4.479   4.107  11.446 -0.1729 -0.4391 -0.0317
  356TMC3     O 5388   4.375   4.177  11.428  0.7113 -0.2481  0.7029
  356TMC3     H 5389   4.570   4.323  11.319 -0.3042 -1.0166 -0.4224
  356TMC3    H1 5390   4.649   4.036  11.624 -1.2827  0.1946 -0.0142
  356TMC3    H2 5391   0.223   4.306  11.516 -0.3086  0.5484  0.8594
  356TMC3    C7 5392   0.150   4.108  11.680 -0.4671 -0.2493  0.1266
  356TMC3    C8 5393   0.087   4.413  11.302  1.3718  0.0016 -0.3192
  356TMC3    O1 5394   0.144   3.985  11.678 -0.3469  0.1386 -0.3022
  356TMC3    O2 5395   0.024   4.389  11.202 -0.2922 -0.1948  0.4815
  357MPD2     C 5396   3.719   2.862   1.225 -0.5323  0.1813  0.2455
  357MPD2    C1 5397   3.596   2.928   1.215  1.2608  0.1673 -0.2056
  357MPD2    C2 5398   3.603   3.057   1.267  0.4083 -0.5015  0.0067
  357MPD2    C3 5399   3.706   3.112   1.344  0.6339  0.7199  0.0533
  357MPD2    C4 5400   3.818   3.038   1.349 -0.1168  1.2537 -0.6432
  357MPD2    C5 5401   3.828   2.918   1.283  0.2887 -0.0025  0.2550
  357MPD2     H 5402   3.513   3.116   1.257  1.4316  0.9661 -0.5358
  357MPD2    H1 5403   3.910   3.074   1.394  0.6693 -2.3112  0.6530
  357MPD2    H2 5404   3.726   2.756   1.203  1.2454  0.6196 -1.2571
  357MPD2    H3 5405   3.922   2.865   1.272  1.4512  2.5395 -2.3272
  357MPD2     N 5406   3.686   3.237   1.402 -0.3907  0.2644 -0.5621
  357MPD2    H5 5407   3.594   3.279   1.394 -0.4621  0.5729  1.9704
  357MPD2    N1 5408   3.492   2.854   1.161  0.6072  0.5259 -0.2785
  357MPD2    H7 5409   3.507   2.755   1.141  0.3173  0.7596 -1.5839
  358TMC3    C1 5410   3.278   2.821   1.059  0.8470 -0.1676  0.5606
  358TMC3    C2 5411   3.206   2.883   0.959 -0.1472  0.0845 -0.1075
  358TMC3    C3 5412   3.157   2.817   0.851  0.7278 -0.3268  0.5563
  358TMC3    C4 5413   3.294   2.687   1.049  0.1218 -0.0762 -0.0388
  358TMC3    C5 5414   3.236   2.618   0.946  0.0448  0.7274  0.7296
  358TMC3    C6 5415   3.157   2.683   0.855 -0.5052 -0.4996 -0.2950
  358TMC3     C 5416   3.375   2.908   1.128  0.0846 -0.0531 -0.2675
  358TMC3     O 5417   3.340   3.029   1.142  0.1056  0.2606 -0.3294
  358TMC3     H 5418   3.231   2.988   0.948 -2.1943  0.3764 -2.2059
  358TMC3    H1 5419   3.349   2.627   1.120  0.7144 -0.1044 -0.5314
  358TMC3    H2 5420   3.123   2.633   0.765 -0.9700 -0.9798  0.1542
  358TMC3    C7 5421   3.263   2.471   0.928  0.0515  0.6288 -0.1640
  358TMC3    C8 5422   3.127   2.881   0.720 -0.1808 -0.0278  0.7635
  358TMC3    O1 5423   3.350   2.425   0.996 -0.1008  0.0938 -0.0995
  358TMC3    O2 5424   3.105   2.808   0.623 -0.2442  0.2847 -0.4892
  359MPD2     C 5425   4.531   2.176  12.451 -0.2500 -0.2288  0.0866
  359MPD2    C1 5426   4.484   2.177  12.319  0.9057 -0.0871 -0.4102
  359MPD2    C2 5427   4.376   2.259  12.303  0.2484 -0.3724 -0.3946
  359MPD2    C3 5428   4.311   2.338  12.397 -0.0912 -0.1684 -0.3942
  359MPD2    C4 5429   4.359   2.331  12.527 -0.3857  0.2179 -0.2329
  359MPD2    C5 5430   4.473   2.257  12.548  0.6264  0.5733 -0.0192
  359MPD2     H 5431   4.330   2.255  12.205 -1.0040 -1.7941  0.2610
  359MPD2    H1 5432   4.329   2.403  12.602  0.8080  1.1105 -0.6087
  359MPD2    H2 5433   4.619   2.120  12.478  0.2022  0.5728  0.2627
  359MPD2    H3 5434   4.514   2.266  12.648 -1.6576  1.4796  0.8318
  359MPD2     N 5435   4.195   2.422  12.372 -0.0448  0.0948  0.2285
  359MPD2    H5 5436   4.172   2.491  12.443  1.2326  2.4730 -1.6591
  359MPD2    N1 5437   4.527   2.083  12.219 -0.5351 -0.7800  0.3011
  359MPD2    H7 5438   4.470   2.089  12.136  0.9628  1.8483 -0.5745
  360TMC3    C1 5439   4.661   1.911  12.112 -0.2667 -0.1689  0.6549
  360TMC3    C2 5440   0.015   1.813  12.137 -0.3149  0.2251  0.2501
  360TMC3    C3 5441   0.041   1.735  12.034 -0.7354  1.2017  0.7533
  360TMC3    C4 5442   4.607   1.934  11.986 -0.3430  0.7368  0.3011
  360TMC3    C5 5443   4.659   1.867  11.880  0.5142  0.6247 -0.4299
  360TMC3    C6 5444   4.735   1.759  11.906 -0.1475 -0.1140 -0.0141
  360TMC3     C 5445   4.630   1.990  12.234 -0.1558  0.0400 -0.1498
  360TMC3     O 5446   4.713   1.990  12.323  0.2488 -0.0838 -0.5595
  360TMC3     H 5447   0.030   1.775  12.237 -4.6628 -0.6753  0.5356
  360TMC3    H1 5448   4.550   2.023  11.963 -2.3227 -0.5998  0.0921
  360TMC3    H2 5449   0.027   1.698  11.821  0.6785 -0.3629  0.4336
  360TMC3    C7 5450   4.656   1.923  11.748 -0.1118  0.8160  0.0336
  360TMC3    C8 5451   0.150   1.641  12.061 -0.2154  0.1752 -0.0268
  360TMC3    O1 5452   0.019   1.899  11.677 -0.2412 -0.1868  0.4749
  360TMC3    O2 5453   0.160   1.604  12.178 -0.1734  0.1949  0.4809
  361MPD2     C 5454   1.524   1.466  16.447  0.2232  0.2223 -0.0366
  361MPD2    C1 5455   1.538   1.599  16.493  0.6653  0.2717 -0.0559
  361MPD2    C2 5456   1.661   1.632  16.553 -0.3788  0.2837 -0.3030
  361MPD2    C3 5457   1.763   1.532  16.566 -0.0860  0.5395 -0.1903
  361MPD2    C4 5458   1.743   1.407  16.513 -0.3626 -0.1907  1.0941
  361MPD2    C5 5459   1.625   1.373  16.462  0.1620  0.2752 -0.2700
  361MPD2     H 5460   1.659   1.728  16.603 -1.2228  1.3978 -2.5099
  361MPD2    H1 5461   1.821   1.331  16.519  0.2339  0.3196 -0.2673
  361MPD2    H2 5462   1.430   1.433  16.406  1.4644 -1.3866 -1.5457
  361MPD2    H3 5463   1.614   1.276  16.415  0.1978 -0.2083  0.7191
  361MPD2     N 5464   1.883   1.555  16.642  0.0851 -0.7296 -0.1504
  361MPD2    H5 5465   1.953   1.481  16.646  0.2548 -0.3819  3.1339
  361MPD2    N1 5466   1.433   1.686  16.472 -0.2913 -0.3696 -0.2157
  361MPD2    H7 5467   1.449   1.786  16.475  2.0668 -0.6967 -2.6118
  362TMC3    C1 5468   1.214   1.763  16.465  0.3707 -0.3009  1.0336
  362TMC3    C2 5469   1.100   1.754  16.528  0.0592  0.0513  0.4538
  362TMC3    C3 5470   1.014   1.853  16.507 -0.0298  0.4419 -0.4704
  362TMC3    C4 5471   1.237   1.848  16.363  0.5399  0.3256 -0.1282
  362TMC3    C5 5472   1.140   1.944  16.335 -0.0818  0.4435  0.2989
  362TMC3    C6 5473   1.028   1.953  16.415 -0.7953 -0.1086 -0.1508
  362TMC3     C 5474   1.300   1.645  16.465 -0.9762 -0.0741 -0.4205
  362TMC3     O 5475   1.251   1.546  16.513  0.0267  0.4918 -0.1513
  362TMC3     H 5476   1.087   1.681  16.607  2.4388  1.1677  1.8965
  362TMC3    H1 5477   1.326   1.845  16.301  0.2123  1.2262 -0.6279
  362TMC3    H2 5478   0.952   2.030  16.412  0.6921  1.3141 -1.3684
  362TMC3    C7 5479   1.142   2.019  16.218  0.0922  0.0562  0.6751
  362TMC3    C8 5480   0.896   1.850  16.593 -0.3272  0.0616 -0.5805
  362TMC3    O1 5481   1.247   2.073  16.187  0.2524 -0.3323 -0.4082
  362TMC3    O2 5482   0.866   1.738  16.629  0.3322  0.0759 -0.2663
  363TMC3    C1 5483   4.690   3.633   9.197  0.4446  0.4126 -0.0848
  363TMC3    C2 5484   4.636   3.579   9.309  0.6395  0.2209 -0.2758
  363TMC3    C3 5485   4.613   3.665   9.408 -0.5258 -0.5765 -0.4220
  363TMC3    C4 5486   0.000   3.763   9.198  0.3404  0.1701 -0.8081
  363TMC3    C5 5487   4.717   3.844   9.307  1.0089  0.1643 -0.8511
  363TMC3    C6 5488   4.649   3.797   9.416 -0.3808  0.2990 -0.5089
  363TMC3     C 5489   4.701   3.555   9.074  0.4567 -0.4157  0.4427
  363TMC3     O 5490   4.730   3.435   9.086  0.0261 -0.0405  0.1321
  363TMC3     H 5491   4.624   3.472   9.310 -1.5347  0.4709 -0.8103
  363TMC3    H1 5492   0.057   3.788   9.109  1.1485  2.2155  0.3064
  363TMC3    H2 5493   4.635   3.857   9.506  1.2559 -0.8107  0.4866
  363TMC3    C7 5494   0.051   3.975   9.318 -0.5865 -0.0685 -0.3502
  363TMC3    C8 5495   4.615   3.610   9.543 -1.0359 -0.4121 -0.2964
  363TMC3    O1 5496   4.732   4.049   9.397  0.4195  0.2388  0.5310
  363TMC3    O2 5497   4.572   3.687   9.630  0.5213  0.5771  0.5484
  364MPD2     C 5498   3.519   3.355  10.848  0.2132 -0.2349  0.2920
  364MPD2    C1 5499   3.574   3.320  10.725 -0.0308  0.8395  0.5792
  364MPD2    C2 5500   3.654   3.211  10.706  0.3138  0.2938  0.2217
  364MPD2    C3 5501   3.674   3.124  10.811 -0.5145  0.2649  0.0022
  364MPD2    C4 5502   3.601   3.152  10.927 -0.3199  0.3636  0.0858
  364MPD2    C5 5503   3.533   3.262  10.945  0.0748 -0.0255  0.2745
  364MPD2     H 5504   3.708   3.192  10.614 -3.0097 -0.1158 -1.6251
  364MPD2    H1 5505   3.604   3.098  11.021 -0.2835 -0.6467 -0.4966
  364MPD2    H2 5506   3.464   3.446  10.867  0.8582 -0.2369  2.1819
  364MPD2    H3 5507   3.494   3.277  11.046 -0.1164  0.6118  0.1078
  364MPD2     N 5508   3.760   3.009  10.803  0.5740  0.4194 -0.5078
  364MPD2    H5 5509   3.751   2.966  10.894 -0.3279  2.5088  0.3815
  364MPD2    N1 5510   3.554   3.410  10.617 -0.2728 -0.1061 -0.5098
  364MPD2    H7 5511   3.508   3.496  10.645 -0.1368  0.0506 -0.7614
  365TMC3    C1 5512   3.576   3.512  10.410 -0.7677  0.4907 -0.5452
  365TMC3    C2 5513   3.593   3.500  10.273 -0.1485 -0.3518  0.3047
  365TMC3    C3 5514   3.587   3.612  10.199  0.6162  0.1533 -0.2029
  365TMC3    C4 5515   3.543   3.628  10.466 -0.0231 -0.7857  0.5403
  365TMC3    C5 5516   3.512   3.740  10.391  0.1067  0.4664 -0.5210
  365TMC3    C6 5517   3.539   3.732  10.255 -0.5726 -0.1786 -0.2057
  365TMC3     C 5518   3.601   3.393  10.486  0.1839  0.2256 -1.2227
  365TMC3     O 5519   3.644   3.293  10.426  0.3191 -0.3436  0.3994
  365TMC3     H 5520   3.613   3.399  10.238 -0.9431 -0.2039 -0.5534
  365TMC3    H1 5521   3.527   3.635  10.572 -0.2796 -1.0382  0.5179
  365TMC3    H2 5522   3.538   3.820  10.192  0.1933  0.2567  0.3885
  365TMC3    C7 5523   3.494   3.875  10.446  0.4998  0.3774  0.4081
  365TMC3    C8 5524   3.637   3.610  10.066 -0.3452 -0.8066  0.3218
  365TMC3    O1 5525   3.515   3.962  10.365 -0.1030 -0.0194 -0.1340
  365TMC3    O2 5526   3.677   3.718  10.025 -0.2169 -0.3697 -0.1531
  366MPD2     C 5527   3.067   0.218  15.529 -0.0157  0.1198 -0.0978
  366MPD2    C1 5528   2.943   0.206  15.468 -0.5361  0.1600  0.1250
  366MPD2    C2 5529   2.933   0.147  15.342 -0.5590  0.0355 -0.2582
  366MPD2    C3 5530   3.046   0.103  15.276 -0.2209 -0.8292  0.2734
  366MPD2    C4 5531   3.173   0.105  15.339 -0.0536 -0.1414  0.5925
  366MPD2    C5 5532   3.173   0.142  15.471 -0.3146 -0.1428 -0.7392
  366MPD2     H 5533   2.838   0.142  15.289 -0.1707 -1.3598 -0.8211
  366MPD2    H1 5534   3.261   0.053  15.304 -0.0674 -0.3198  0.8253
  366MPD2    H2 5535   3.079   0.260  15.628  2.4320 -0.5384 -0.1207
  366MPD2    H3 5536   3.263   0.140  15.531  0.1489 -0.8285 -1.4713
  366MPD2     N 5537   3.030   0.070  15.136 -1.0112 -0.1990 -0.2394
  366MPD2    H5 5538   2.932   0.051  15.114 -1.2815 -0.1522  0.9120
  366MPD2    N1 5539   2.825   0.277  15.507  0.1677 -0.2259 -0.3533
  366MPD2    H7 5540   2.739   0.264  15.454 -0.0009 -0.3277 -0.0540
  367TMC3    C1 5541   2.709   0.443  15.601  0.2631 -0.0882  0.3290
  367TMC3    C2 5542   2.724   0.561  15.662  0.3800  0.0980  0.3691
  367TMC3    C3 5543   2.667   0.672  15.603 -0.3366  0.0184  0.3834
  367TMC3    C4 5544   2.630   0.431  15.492 -0.6949 -0.5220 -0.2116
  367TMC3    C5 5545   2.576   0.545  15.437 -0.1731  0.0135 -0.0239
  367TMC3    C6 5546   2.584   0.667  15.497 -0.2055 -1.1581  0.2750
  367TMC3     C 5547   2.817   0.364  15.618  0.5859 -0.0491 -0.0637
  367TMC3     O 5548   2.892   0.381  15.713  0.0770 -0.0140 -0.1889
  367TMC3     H 5549   2.793   0.577  15.744  2.2564 -1.0224 -0.9856
  367TMC3    H1 5550   2.597   0.331  15.464 -0.1185 -0.9517  0.6140
  367TMC3    H2 5551   2.535   0.758  15.466 -2.0094 -1.9122  0.8973
  367TMC3    C7 5552   2.485   0.513  15.320  0.0312 -0.0311  0.0559
  367TMC3    C8 5553   2.701   0.804  15.655  0.4258 -0.5732  0.3394
  367TMC3    O1 5554   2.445   0.395  15.307 -0.1565  0.0409  0.0431
  367TMC3    O2 5555   2.619   0.892  15.654  0.0044  0.0348  0.8610
  368MPD2     C 5556   3.464   1.579  13.576 -0.2220 -0.6270 -0.4372
  368MPD2    C1 5557   3.462   1.715  13.585 -0.2791 -1.0761 -1.0644
  368MPD2    C2 5558   3.539   1.796  13.504 -0.0447  0.1422  0.1193
  368MPD2    C3 5559   3.636   1.737  13.423 -0.1911  0.2745  0.5671
  368MPD2    C4 5560   3.640   1.600  13.418  0.6741  0.1640  0.1609
  368MPD2    C5 5561   3.553   1.528  13.489  0.3335 -0.2736 -0.8311
  368MPD2     H 5562   3.527   1.903  13.516  1.2068  0.4565 -1.3567
  368MPD2    H1 5563   3.715   1.544  13.363  0.2226 -1.0731  0.7904
  368MPD2    H2 5564   3.391   1.518  13.628  0.7883  1.3220  3.2528
  368MPD2    H3 5565   3.550   1.420  13.494  1.7496 -0.1956  2.2094
  368MPD2     N 5566   3.721   1.816  13.331 -0.2498  0.1775  1.0027
  368MPD2    H5 5567   3.794   1.765  13.283  0.1340 -1.6389  3.5215
  368MPD2    N1 5568   3.359   1.774  13.660  0.0752 -0.1280 -0.1365
  368MPD2    H7 5569   3.296   1.706  13.702 -1.8603  0.8123 -1.4868
  369TMC3    C1 5570   3.216   1.953  13.740  0.2454  0.0967  0.1450
  369TMC3    C2 5571   3.203   2.090  13.719  0.1446 -0.6890 -0.4237
  369TMC3    C3 5572   3.086   2.134  13.658  0.0797 -0.4507  0.4207
  369TMC3    C4 5573   3.112   1.866  13.716  0.2444 -0.1985  0.2106
  369TMC3    C5 5574   2.993   1.918  13.661  0.9331 -0.7142 -0.2273
  369TMC3    C6 5575   2.985   2.045  13.624  0.2700 -0.1200 -0.0641
  369TMC3     C 5576   3.335   1.910  13.671 -0.2542  0.2552  0.7372
  369TMC3     O 5577   3.401   2.010  13.647 -0.0820  0.2435  0.3321
  369TMC3     H 5578   3.275   2.167  13.743 -0.8239 -0.3333  1.3536
  369TMC3    H1 5579   3.125   1.758  13.723  1.9518 -0.0486 -0.6714
  369TMC3    H2 5580   2.905   2.084  13.562  0.4837 -1.2263 -1.0401
  369TMC3    C7 5581   2.885   1.862  13.729  0.4797 -0.0097 -0.1978
  369TMC3    C8 5582   3.106   2.235  13.558 -0.1864  0.5943 -0.4562
  369TMC3    O1 5583   2.898   1.757  13.795  0.0209 -0.4096  0.4200
  369TMC3    O2 5584   3.013   2.310  13.535 -0.3580  0.0828  0.1044
  370TMC3    C1 5585   2.812   2.252  16.305 -0.1852  0.0554 -0.5133
  370TMC3    C2 5586   2.772   2.194  16.419  0.4163 -0.6689 -0.4800
  370TMC3    C3 5587   2.730   2.061  16.404 -0.1433  0.3273  0.7643
  370TMC3    C4 5588   2.832   2.183  16.192 -1.0074  0.6822  0.1898
  370TMC3    C5 5589   2.790   2.054  16.179  0.4889 -0.7670  0.0332
  370TMC3    C6 5590   2.748   1.988  16.290  0.7416 -0.2728 -0.2839
  370TMC3     C 5591   2.868   2.389  16.317 -0.3562 -0.8496 -0.4690
  370TMC3     O 5592   2.898   2.430  16.426 -0.3508 -0.4989  0.4032
  370TMC3     H 5593   2.755   2.259  16.504  0.4489 -0.0613 -0.9430
  370TMC3    H1 5594   2.869   2.227  16.100  0.7376 -0.7746  0.1892
  370TMC3    H2 5595   2.708   1.889  16.272 -3.3174  1.6816 -2.1409
  370TMC3    C7 5596   2.811   1.993  16.049 -0.0177  0.7960  0.0052
  370TMC3    C8 5597   2.729   1.973  16.513  0.2941  0.3948 -0.1294
  370TMC3    O1 5598   2.803   2.058  15.944 -0.4348 -0.2591 -0.6160
  370TMC3    O2 5599   2.765   1.860  16.493  0.8100 -1.1730  0.3653
  371TMC3    C1 5600   4.281   0.680  15.473  0.6711 -0.1252  0.0358
  371TMC3    C2 5601   4.204   0.684  15.593 -0.3775  0.0768  0.2599
  371TMC3    C3 5602   4.174   0.807  15.641  0.4641  0.4754 -0.7332
  371TMC3    C4 5603   4.329   0.793  15.413  0.4425 -0.1584 -0.0326
  371TMC3    C5 5604   4.289   0.916  15.470  0.0334 -0.2873 -0.5214
  371TMC3    C6 5605   4.210   0.926  15.581  0.0076 -0.0223 -0.3694
  371TMC3     C 5606   4.328   0.553  15.420 -0.9730 -0.8138  0.1530
  371TMC3     O 5607   4.418   0.557  15.336  0.1300  0.1709 -0.1248
  371TMC3     H 5608   4.156   0.600  15.641  0.1237 -1.7566 -2.4692
  371TMC3    H1 5609   4.385   0.785  15.321 -2.1928 -1.3328 -1.5219
  371TMC3    H2 5610   4.198   1.025  15.624 -0.7862 -0.4184  0.3055
  371TMC3    C7 5611   4.333   1.043  15.407 -0.3337 -0.3395  0.5470
  371TMC3    C8 5612   4.100   0.823  15.770 -0.3762 -0.1225  0.1492
  371TMC3    O1 5613   4.290   1.144  15.465  0.2422  0.1528  0.1788
  371TMC3    O2 5614   4.101   0.723  15.841  0.3375 -0.3493  0.0916
  372MPD2     C 5615   3.909   2.338  13.634 -0.0745 -0.0464  0.2713
  372MPD2    C1 5616   4.024   2.263  13.656 -0.4543 -0.0955  0.4152
  372MPD2    C2 5617   4.011   2.126  13.687  0.2709  0.0038  0.2358
  372MPD2    C3 5618   3.893   2.068  13.719  0.3239  0.3098 -0.4123
  372MPD2    C4 5619   3.784   2.150  13.709  0.0576 -0.4281 -1.1952
  372MPD2    C5 5620   3.788   2.274  13.652 -0.0407 -0.2237 -0.2348
  372MPD2     H 5621   4.096   2.061  13.701  0.7921  0.8973  1.2455
  372MPD2    H1 5622   3.683   2.111  13.717 -0.1258  0.2275 -0.3725
  372MPD2    H2 5623   3.905   2.435  13.586  0.9133 -0.6934 -1.1283
  372MPD2    H3 5624   3.698   2.329  13.626  0.3135  0.4907  0.0201
  372MPD2     N 5625   3.888   1.932  13.747 -0.5368  0.4007 -0.0983
  372MPD2    H5 5626   3.961   1.865  13.728  0.4270  1.4689 -0.1329
  372MPD2    N1 5627   4.153   2.322  13.643 -0.3740 -0.1282  0.1169
  372MPD2    H7 5628   4.229   2.268  13.684 -0.6526 -2.0495 -1.8806
  373TMC3    C1 5629   3.787   1.728  13.798 -1.3945  0.3029 -0.5294
  373TMC3    C2 5630   3.705   1.662  13.886 -0.1365  0.0749 -0.7230
  373TMC3    C3 5631   3.705   1.527  13.881  0.5893 -0.0894 -0.6006
  373TMC3    C4 5632   3.855   1.672  13.695 -0.1835  0.0194  0.2632
  373TMC3    C5 5633   3.849   1.537  13.684  0.2565  0.5762  0.9167
  373TMC3    C6 5634   3.776   1.462  13.777 -0.2149 -0.3435 -0.3675
  373TMC3     C 5635   3.776   1.869  13.806 -0.5819  0.4184  0.1130
  373TMC3     O 5636   3.681   1.913  13.872  0.4599  0.2676  0.1699
  373TMC3     H 5637   3.640   1.713  13.956 -0.4303 -0.5034 -0.5697
  373TMC3    H1 5638   3.881   1.726  13.605  1.8036  2.2703  2.1876
  373TMC3    H2 5639   3.774   1.354  13.766  0.4292 -0.3671 -0.2279
  373TMC3    C7 5640   3.929   1.476  13.573 -0.1984 -0.6709  0.0781
  373TMC3    C8 5641   3.620   1.460  13.972  0.4802  0.0875 -0.0072
  373TMC3    O1 5642   3.868   1.392  13.506  0.3676 -0.8730  0.0570
  373TMC3    O2 5643   3.511   1.515  13.984 -0.1197  0.2911  0.2075
  374TMC3    C1 5644   4.144   1.922   9.582 -0.2035 -0.6308  1.0591
  374TMC3    C2 5645   4.168   2.056   9.564  0.4243  0.4777  0.6629
  374TMC3    C3 5646   4.071   2.145   9.521  0.8389  0.4628  0.4981
  374TMC3    C4 5647   4.023   1.873   9.565 -0.4323 -0.1126  0.6182
  374TMC3    C5 5648   3.931   1.959   9.518  0.2950 -0.6104 -0.0572
  374TMC3    C6 5649   3.945   2.097   9.508  0.1019  0.2589  0.7822
  374TMC3     C 5650   4.248   1.850   9.652 -0.2975  0.1636  0.6827
  374TMC3     O 5651   4.349   1.909   9.692  0.4704 -0.1106 -0.4356
  374TMC3     H 5652   4.273   2.083   9.558  0.7602 -1.0012 -0.0647
  374TMC3    H1 5653   4.001   1.768   9.576 -2.2181 -0.2408 -4.2122
  374TMC3    H2 5654   3.870   2.164   9.470 -0.6104 -0.7996  0.3175
  374TMC3    C7 5655   3.801   1.905   9.469  0.0914 -0.4012  0.1245
  374TMC3    C8 5656   4.077   2.278   9.566  0.6667 -0.0327  0.4681
  374TMC3    O1 5657   3.798   1.785   9.445  0.7461 -0.0309 -0.5100
  374TMC3    O2 5658   3.985   2.355   9.534  0.4754  0.1990 -0.7985
  375MPD2     C 5659   4.613   3.096  16.988 -0.1135 -0.2212  0.3918
  375MPD2    C1 5660   4.510   3.041  16.918  0.2642 -0.2168 -0.6977
  375MPD2    C2 5661   4.541   2.916  16.877  0.8097  0.0258 -0.1642
  375MPD2    C3 5662   4.666   2.857  16.886 -0.0939 -0.6367 -0.1403
  375MPD2    C4 5663   0.026   2.921  16.953  0.4974 -0.5612 -0.2009
  375MPD2    C5 5664   0.008   3.049  17.003 -0.6040  0.0723  0.3891
  375MPD2     H 5665   4.458   2.861  16.834 -0.6403  2.0628  0.0222
  375MPD2    H1 5666   0.127   2.879  16.957  0.6000 -0.4211 -1.5356
  375MPD2    H2 5667   4.600   3.197  17.026  2.5359 -0.4998  2.0314
  375MPD2    H3 5668   0.090   3.104  17.046  0.3647 -1.1830  0.1425
  375MPD2     N 5669   4.699   2.736  16.828 -0.0557  0.2073  0.0613
  375MPD2    H5 5670   0.056   2.699  16.844 -0.1667 -0.1002  0.0170
  375MPD2    N1 5671   4.383   3.101  16.885 -0.4557  0.4416 -0.2648
  375MPD2    H7 5672   4.321   3.049  16.823  0.6421 -0.6305 -0.4777
  376TMC3    C1 5673   4.688   2.555  16.649  0.2943  0.0189  0.0877
  376TMC3    C2 5674   0.085   2.541  16.648 -0.3675 -0.1291  0.0150
  376TMC3    C3 5675   0.138   2.438  16.582 -0.1376  0.1190  0.6478
  376TMC3    C4 5676   4.606   2.473  16.571  0.1885  0.3402 -0.4558
  376TMC3    C5 5677   4.666   2.378  16.500 -0.2092 -0.6019  0.1540
  376TMC3    C6 5678   0.064   2.357  16.497 -0.1237 -0.3254 -0.0600
  376TMC3     C 5679   4.622   2.668  16.731  0.2922 -0.4006 -1.2603
  376TMC3     O 5680   4.511   2.692  16.688  0.4502  0.1800 -0.2962
  376TMC3     H 5681   0.148   2.609  16.705 -1.6496  1.7813 -0.8306
  376TMC3    H1 5682   4.499   2.477  16.586  0.1366  1.3352 -1.0783
  376TMC3    H2 5683   0.107   2.277  16.438 -2.2623 -0.6092 -1.2140
  376TMC3    C7 5684   4.591   2.366  16.374  0.7061 -1.5596  0.1534
  376TMC3    C8 5685   0.284   2.410  16.596  0.2969 -0.1335 -0.0085
  376TMC3    O1 5686   4.510   2.453  16.354  0.1963  0.1233 -0.0648
  376TMC3    O2 5687   0.328   2.298  16.603  0.1339  0.0877 -0.2883
  377MPD2     C 5688   2.086   2.567  11.768  0.1216  0.5350  0.4552
  377MPD2    C1 5689   2.116   2.444  11.828  0.5153 -0.2776 -0.0747
  377MPD2    C2 5690   2.128   2.440  11.965  0.4830  0.0431  0.3801
  377MPD2    C3 5691   2.110   2.554  12.035 -0.5852 -0.2149  0.2011
  377MPD2    C4 5692   2.071   2.671  11.976  0.0096 -0.6992 -0.3996
  377MPD2    C5 5693   2.063   2.676  11.842 -0.0150  0.0732 -0.5473
  377MPD2     H 5694   2.170   2.350  12.008  3.5729  1.2077 -0.1868
  377MPD2    H1 5695   2.052   2.763  12.031  0.4956 -0.4392 -0.6698
  377MPD2    H2 5696   2.079   2.573  11.660  0.0362 -0.5520  0.4037
  377MPD2    H3 5697   2.043   2.768  11.788 -1.7303 -0.2042 -0.3912
  377MPD2     N 5698   2.120   2.554  12.178 -0.5164 -0.1661 -0.0385
  377MPD2    H5 5699   2.132   2.648  12.214  0.8279 -0.2866 -0.1528
  377MPD2    N1 5700   2.146   2.331  11.751 -0.3375  0.4090  0.4850
  377MPD2    H7 5701   2.134   2.344  11.651 -0.6553 -3.7726  0.0114
  378TMC3    C1 5702   2.154   1.884  11.636  0.0038  0.0611  0.3978
  378TMC3    C2 5703   2.140   1.980  11.734 -0.4860  0.2411 -0.4788
  378TMC3    C3 5704   2.193   2.097  11.701 -0.6066 -0.6646  0.1961
  378TMC3    C4 5705   2.197   1.900  11.510 -0.7285 -0.9052 -0.6962
  378TMC3    C5 5706   2.253   2.026  11.482 -1.1439 -1.2254  0.6370
  378TMC3    C6 5707   2.260   2.121  11.583 -0.2636  0.0387 -0.4137
  378TMC3     C 5708   2.112   1.755  11.671 -0.0477 -0.2378  0.2926
  378TMC3     O 5709   2.026   1.705  11.600  0.4442 -0.9938 -0.1046
  378TMC3     H 5710   2.081   1.966  11.824  2.6601  0.8442  1.6574
  378TMC3    H1 5711   2.203   1.811  11.448 -1.1704 -0.8067 -0.8805
  378TMC3    H2 5712   2.313   2.212  11.558 -0.2966  0.1049 -0.2461
  378TMC3    C7 5713   2.342   2.031  11.365 -0.2803  0.8849 -0.1743
  378TMC3    C8 5714   2.172   2.206  11.799 -0.1392 -0.1152 -0.4351
  378TMC3    O1 5715   2.286   2.008  11.260 -0.2993 -0.5174  0.0245
  378TMC3    O2 5716   2.174   2.164  11.914  0.4906 -0.1473 -0.1519
  379MPD2     C 5717   3.924   0.480  16.300 -0.6697  0.4082  0.5467
  379MPD2    C1 5718   3.790   0.510  16.301  0.2269  0.5364  0.1176
  379MPD2    C2 5719   3.702   0.434  16.383 -0.2728  0.0392  0.3241
  379MPD2    C3 5720   3.762   0.340  16.463 -0.0432 -0.0198 -0.1422
  379MPD2    C4 5721   3.896   0.313  16.459  0.0093 -0.2427  0.0166
  379MPD2    C5 5722   3.980   0.379  16.374 -0.5676  0.1077 -0.3970
  379MPD2     H 5723   3.598   0.463  16.390 -0.1544  0.1854  1.4943
  379MPD2    H1 5724   3.927   0.231  16.522  2.9353  0.6653 -0.2334
  379MPD2    H2 5725   3.994   0.534  16.237  0.2597  0.9175  2.0287
  379MPD2    H3 5726   4.084   0.351  16.366  0.5393  3.2298  3.0696
  379MPD2     N 5727   3.687   0.250  16.543  0.5841 -0.2683 -0.2722
  379MPD2    H5 5728   3.741   0.184  16.598  2.7340  0.0092 -2.0490
  379MPD2    N1 5729   3.752   0.609  16.205 -0.0361  0.6294  0.2372
  379MPD2    H7 5730   3.824   0.635  16.138 -1.5722 -0.2911 -1.7681
  380TMC3    C1 5731   3.608   0.761  16.073 -0.4015  1.1838 -0.4196
  380TMC3    C2 5732   3.672   0.729  15.961 -0.1315 -0.4277 -0.4695
  380TMC3    C3 5733   3.641   0.796  15.850  0.6427  0.2359  0.3554
  380TMC3    C4 5734   3.500   0.850  16.072 -0.8027 -0.4711  0.1978
  380TMC3    C5 5735   3.469   0.906  15.950 -0.4618 -0.4916 -0.6251
  380TMC3    C6 5736   3.542   0.886  15.839  0.0822  0.3830 -0.1553
  380TMC3     C 5737   3.625   0.678  16.196  0.8988 -0.7016 -0.2949
  380TMC3     O 5738   3.531   0.675  16.271  0.2717  0.2433 -0.1270
  380TMC3     H 5739   3.756   0.660  15.966 -1.2137 -1.6383  1.0470
  380TMC3    H1 5740   3.458   0.880  16.167 -0.8126  1.3622 -0.3867
  380TMC3    H2 5741   3.524   0.952  15.755 -3.9155  0.1194  0.4801
  380TMC3    C7 5742   3.350   0.986  15.938 -0.0531  0.7015 -0.5197
  380TMC3    C8 5743   3.716   0.770  15.729  0.5221 -0.0385 -0.0305
  380TMC3    O1 5744   3.335   1.080  16.017  0.0573 -0.4562  0.4690
  380TMC3    O2 5745   3.731   0.859  15.649 -0.0037 -0.1362 -0.2029
  381TMC3    C1 5746   2.972   1.290  16.536  0.0258  0.7585 -0.2432
  381TMC3    C2 5747   3.037   1.385  16.460 -0.8700  0.3357  0.4937
  381TMC3    C3 5748   3.017   1.513  16.477  0.1305 -0.6744  0.9251
  381TMC3    C4 5749   2.878   1.324  16.626  0.2721 -0.0615 -0.0322
  381TMC3    C5 5750   2.842   1.456  16.633 -0.1249  0.2378 -1.1820
  381TMC3    C6 5751   2.914   1.554  16.563 -0.0875 -0.3445 -0.0611
  381TMC3     C 5752   2.993   1.146  16.515 -0.0224 -0.0879 -0.5263
  381TMC3     O 5753   2.954   1.080  16.611  0.3523  0.0888 -0.3255
  381TMC3     H 5754   3.106   1.362  16.380 -2.9312  2.3072 -1.8480
  381TMC3    H1 5755   2.821   1.246  16.676  0.9661  0.8055  2.0990
  381TMC3    H2 5756   2.890   1.656  16.593  2.5846  0.1229  0.4331
  381TMC3    C7 5757   2.772   1.489  16.749 -0.1167  0.0024 -0.3837
  381TMC3    C8 5758   3.107   1.613  16.419  0.2020 -1.0558 -0.0931
  381TMC3    O1 5759   2.807   1.422  16.844 -0.6040 -0.0286  0.1245
  381TMC3    O2 5760   3.193   1.586  16.337 -0.1573 -0.5393 -0.4728
  382MPD2     C 5761   2.020   4.382  16.591  0.0272 -0.7904 -0.2378
  382MPD2    C1 5762   2.030   4.378  16.733  1.0486  0.3261 -0.0773
  382MPD2    C2 5763   2.039   4.252  16.796 -0.4167  0.4404  0.1101
  382MPD2    C3 5764   2.038   4.136  16.726 -0.9923 -0.0274 -0.5374
  382MPD2    C4 5765   2.027   4.146  16.586 -0.3663  0.6521 -0.2677
  382MPD2    C5 5766   2.020   4.266  16.525 -0.1927 -0.0648  0.4599
  382MPD2     H 5767   2.048   4.251  16.904  0.1151  3.0298  0.1095
  382MPD2    H1 5768   2.017   4.055  16.527 -0.0566  0.0271  0.6580
  382MPD2    H2 5769   2.011   4.468  16.525  1.3293 -0.8599 -0.5093
  382MPD2    H3 5770   2.004   4.265  16.417  0.7177  0.9739  0.3088
  382MPD2     N 5771   2.039   4.005  16.784  0.3599  0.2086 -0.4682
  382MPD2    H5 5772   2.001   3.924  16.735 -1.3112 -0.8462  2.5337
  382MPD2    N1 5773   2.002   4.489  16.812  0.1803 -0.4955  0.0404
  382MPD2    H7 5774   1.987   4.471  16.911  0.7513 -2.6885 -0.2745
  383TMC3    C1 5775   2.069   3.839  16.942  0.4242  0.0123 -0.1109
  383TMC3    C2 5776   1.952   3.772  16.919 -0.1430 -0.2294 -0.1932
  383TMC3    C3 5777   1.945   3.637  16.955  0.1149  0.0308 -0.0571
  383TMC3    C4 5778   2.181   3.779  17.004  0.1068  0.6657  1.1280
  383TMC3    C5 5779   2.166   3.648  17.045  0.7714  0.1290  0.0001
  383TMC3    C6 5780   2.052   3.575  17.012  0.5257 -0.0464  0.9375
  383TMC3     C 5781   2.086   3.980  16.909 -0.1589 -0.3879 -0.9122
  383TMC3     O 5782   2.150   4.053  16.979  0.4567  0.3004  0.3780
  383TMC3     H 5783   1.865   3.819  16.875 -1.9649 -0.8020  2.7839
  383TMC3    H1 5784   2.273   3.834  17.019 -0.4340  2.3453 -1.5931
  383TMC3    H2 5785   2.043   3.470  17.035 -0.1274  0.0561  1.1578
  383TMC3    C7 5786   2.280   3.580  17.113  0.2745  0.5382  0.3802
  383TMC3    C8 5787   1.823   3.567  16.921 -0.4429 -0.0722  0.0068
  383TMC3    O1 5788   2.395   3.587  17.073 -0.1317  0.5927  0.6542
  383TMC3    O2 5789   1.733   3.631  16.872  0.3188 -0.2426 -0.3331
  384MPD2     C 5790   3.717   0.734  12.190  0.1158  0.4307  0.2355
  384MPD2    C1 5791   3.626   0.638  12.206 -0.1110  0.2807 -0.3416
  384MPD2    C2 5792   3.635   0.516  12.137 -0.4676  0.1449  0.7678
  384MPD2    C3 5793   3.752   0.492  12.063  0.7229  0.7412  0.1262
  384MPD2    C4 5794   3.835   0.598  12.035  0.3085 -0.4440 -0.3958
  384MPD2    C5 5795   3.809   0.722  12.088 -0.1286 -0.0799  0.1862
  384MPD2     H 5796   3.561   0.439  12.155 -0.7061 -0.1523 -1.5254
  384MPD2    H1 5797   3.919   0.589  11.967  0.6731 -0.8627  0.1033
  384MPD2    H2 5798   3.703   0.835  12.227  1.2617  1.7962 -3.0298
  384MPD2    H3 5799   3.865   0.811  12.062  1.3750 -0.8659  0.7850
  384MPD2     N 5800   3.787   0.364  12.012  0.0409  0.2033  0.3277
  384MPD2    H5 5801   3.880   0.353  11.973 -0.8819 -3.3283 -0.8614
  384MPD2    N1 5802   3.544   0.652  12.322 -0.0728  0.4052 -0.0736
  384MPD2    H7 5803   3.550   0.745  12.362 -0.3045  0.4479 -0.1348
  385TMC3    C1 5804   3.788   0.128  12.009 -1.0927  0.7708 -0.4236
  385TMC3    C2 5805   3.706   0.023  11.981  0.3193  0.5165 -0.4304
  385TMC3    C3 5806   3.720   4.640  12.052  0.0987 -0.6487 -0.1187
  385TMC3    C4 5807   3.880   0.124  12.114 -0.2561 -0.0200 -0.3335
  385TMC3    C5 5808   3.874   0.019  12.197 -0.4161  0.8130  0.6843
  385TMC3    C6 5809   3.796   4.647  12.166  1.3539  0.4927  0.6278
  385TMC3     C 5810   3.709   0.251  12.017 -0.2712  0.5441 -0.6332
  385TMC3     O 5811   3.589   0.234  12.037  0.4775 -0.1510 -0.0999
  385TMC3     H 5812   3.641   0.031  11.894 -2.6832  1.1777  1.8946
  385TMC3    H1 5813   3.933   0.210  12.155  0.2280 -0.6874  0.4506
  385TMC3    H2 5814   3.792   4.557  12.228  1.6546  0.3724  0.4752
  385TMC3    C7 5815   3.847   0.066  12.334  0.3656 -0.4263 -0.3490
  385TMC3    C8 5816   3.625   4.534  12.044 -0.0693 -0.4460  0.5311
  385TMC3    O1 5817   3.868   0.182  12.361 -0.2950 -0.1122 -0.0871
  385TMC3    O2 5818   3.585   4.484  12.148  0.6118 -0.5010  0.1464
  386TMC3    C1 5819   3.576   2.205  11.958  0.1781 -0.4653  0.6934
  386TMC3    C2 5820   3.538   2.216  11.826  0.1276 -0.4330 -0.6829
  386TMC3    C3 5821   3.423   2.285  11.810  0.2965 -0.2776 -0.9005
  386TMC3    C4 5822   3.502   2.244  12.059 -0.7239 -0.1170  0.0279
  386TMC3    C5 5823   3.386   2.303  12.041 -0.2032 -0.3739 -0.1489
  386TMC3    C6 5824   3.339   2.324  11.914 -0.3323  0.5047 -0.1496
  386TMC3     C 5825   3.700   2.147  11.985  1.2132  0.1670 -0.1905
  386TMC3     O 5826   3.766   2.192  12.077 -0.1264 -0.3544 -0.0523
  386TMC3     H 5827   3.616   2.203  11.752 -0.0006  0.8620 -1.0312
  386TMC3    H1 5828   3.533   2.213  12.158  1.4169 -0.2772 -0.6943
  386TMC3    H2 5829   3.245   2.376  11.897  0.3400  0.9487 -2.4029
  386TMC3    C7 5830   3.288   2.325  12.150 -0.7526 -0.9965  0.4605
  386TMC3    C8 5831   3.375   2.330  11.688 -0.0606 -0.2649 -0.3500
  386TMC3    O1 5832   3.339   2.351  12.254  0.4558  0.7856  0.3613
  386TMC3    O2 5833   3.269   2.391  11.684 -0.6993  0.4239  0.5179
  387MPD2     C 5834   1.078   2.533  10.105  0.3052  0.1601  0.0652
  387MPD2    C1 5835   1.111   2.453  10.210 -0.1298  0.5062 -0.3608
  387MPD2    C2 5836   1.123   2.316  10.184 -0.7933 -0.5560  0.4143
  387MPD2    C3 5837   1.104   2.260  10.058  0.3371  0.0463 -0.5213
  387MPD2    C4 5838   1.081   2.340   9.951 -0.1254  0.0289 -0.4982
  387MPD2    C5 5839   1.075   2.473   9.976  0.4503  0.2570 -0.4294
  387MPD2     H 5840   1.129   2.253  10.272 -0.3403 -0.4260  0.4785
  387MPD2    H1 5841   1.079   2.300   9.850  0.6426 -0.4102 -0.3461
  387MPD2    H2 5842   1.077   2.641  10.118 -0.5579  0.2853 -1.0515
  387MPD2    H3 5843   1.070   2.543   9.893  0.6031  0.3480 -0.3613
  387MPD2     N 5844   1.138   2.124  10.048 -0.8279 -0.0021  0.2579
  387MPD2    H5 5845   1.170   2.083  10.134 -1.5709  0.7663  0.9057
  387MPD2    N1 5846   1.155   2.503  10.332 -0.0782  0.1815 -0.3325
  387MPD2    H7 5847   1.190   2.424  10.385 -0.0855 -0.0526 -0.6830
  388TMC3    C1 5848   1.251   2.623  10.509 -0.0756 -0.6558 -0.4382
  388TMC3    C2 5849   1.215   2.685  10.624 -0.0209 -0.2219 -0.3257
  388TMC3    C3 5850   1.292   2.675  10.732 -0.1810  0.1997 -0.1202
  388TMC3    C4 5851   1.364   2.540  10.500  0.4678  1.0863  0.3947
  388TMC3    C5 5852   1.432   2.522  10.620  0.0175  0.1124  0.2337
  388TMC3    C6 5853   1.404   2.599  10.731  0.3368 -0.6356  0.3277
  388TMC3     C 5854   1.168   2.626  10.391 -0.2001  0.5513 -0.7175
  388TMC3     O 5855   1.117   2.730  10.350  0.6097 -0.4998 -0.4301
  388TMC3     H 5856   1.126   2.746  10.635  0.1361  0.0480 -0.5560
  388TMC3    H1 5857   1.390   2.491  10.407  1.8077  1.4347  0.5918
  388TMC3    H2 5858   1.467   2.594  10.819  2.7270  3.1227 -1.1668
  388TMC3    C7 5859   1.517   2.407  10.641 -0.1146  0.1359  0.3888
  388TMC3    C8 5860   1.264   2.764  10.837  0.0581 -0.1902  0.1921
  388TMC3    O1 5861   1.577   2.396  10.747  0.0790 -0.4648 -0.4890
  388TMC3    O2 5862   1.186   2.853  10.817  0.0671  0.4145 -0.8213
  389MPD2     C 5863   0.511   0.285  10.887  0.0798 -0.0790  0.8005
  389MPD2    C1 5864   0.453   0.221  10.783 -0.9369 -0.8393  0.5571
  389MPD2    C2 5865   0.328   0.160  10.810 -0.1275 -0.1396  0.0151
  389MPD2    C3 5866   0.262   0.169  10.934 -0.0155  0.4118 -0.6182
  389MPD2    C4 5867   0.320   0.245  11.035  0.3891  0.4350 -0.4290
  389MPD2    C5 5868   0.441   0.296  11.006 -0.3683  0.2052 -0.1825
  389MPD2     H 5869   0.287   0.098  10.731 -0.7525 -1.8097  1.6691
  389MPD2    H1 5870   0.270   0.255  11.130 -0.8554 -1.2797 -0.8946
  389MPD2    H2 5871   0.612   0.324  10.895 -0.0596  0.1203  1.6712
  389MPD2    H3 5872   0.479   0.356  11.088 -1.0643 -0.3331  0.5352
  389MPD2     N 5873   0.135   0.107  10.955 -0.7786 -0.5630  0.0205
  389MPD2    H5 5874   0.077   0.143  11.030 -0.3397 -1.1367  0.6377
  389MPD2    N1 5875   0.525   0.207  10.662  0.3025 -0.4476  0.2261
  389MPD2    H7 5876   0.495   0.138  10.594  0.7431  2.0772 -2.5162
  390TMC3    C1 5877   4.683   4.729  10.884  0.2936  0.9104  0.7291
  390TMC3    C2 5878   4.596   0.086  10.940 -0.6380  0.0497 -0.1659
  390TMC3    C3 5879   4.475   0.095  10.881  0.0465 -0.4035  0.7271
  390TMC3    C4 5880   4.635   4.633  10.797  0.4357 -0.1438 -0.0790
  390TMC3    C5 5881   4.499   4.632  10.762 -0.0235  0.2858  0.2490
  390TMC3    C6 5882   4.427   0.004  10.799  0.3861  0.1625  0.4816
  390TMC3     C 5883   0.089   0.005  10.877  0.8250  0.2978 -0.7517
  390TMC3     O 5884   0.150   4.666  10.803  0.9947 -0.1627 -0.1362
  390TMC3     H 5885   4.633   0.159  11.011 -0.8493 -1.5394  1.5774
  390TMC3    H1 5886   4.696   4.552  10.760  2.0098  1.4298 -0.9305
  390TMC3    H2 5887   4.332   0.026  10.751  0.0214  3.9746  3.0004
  390TMC3    C7 5888   4.429   4.507  10.737 -0.0717  0.0907 -0.5679
  390TMC3    C8 5889   4.372   0.147  10.959 -0.5622  0.5037  1.2658
  390TMC3    O1 5890   4.491   4.404  10.693  0.4332  0.3756 -0.3458
  390TMC3    O2 5891   4.254   0.133  10.929 -0.1149  0.6564  0.3230
  391MPD2     C 5892   4.143   2.084  11.071 -0.6148  0.4793  0.5458
  391MPD2    C1 5893   4.266   2.045  11.036 -0.7547 -0.8184 -0.1226
  391MPD2    C2 5894   4.325   2.114  10.932  0.1988  0.1374 -0.2531
  391MPD2    C3 5895   4.255   2.198  10.851  0.1709 -0.3523  0.2215
  391MPD2    C4 5896   4.125   2.228  10.879  0.0919 -0.1615 -0.1453
  391MPD2    C5 5897   4.073   2.176  10.995  0.0141  0.0521  0.0621
  391MPD2     H 5898   4.426   2.083  10.906  0.4516 -0.3008  1.2356
  391MPD2    H1 5899   4.065   2.291  10.814  0.7882  3.7934  3.0355
  391MPD2    H2 5900   4.102   2.047  11.164 -0.2158  0.2202  0.6185
  391MPD2    H3 5901   3.976   2.206  11.032 -0.7544 -0.9953 -1.1056
  391MPD2     N 5902   4.330   2.249  10.742 -0.5162  0.4416 -0.0140
  391MPD2    H5 5903   4.431   2.242  10.744 -0.4600  1.6729  1.1940
  391MPD2    N1 5904   4.331   1.944  11.109  0.9201 -0.0514  0.1300
  391MPD2    H7 5905   4.275   1.908  11.186  0.1708 -2.1096 -1.3680
  392TMC3    C1 5906   4.378   2.307  10.513  0.2541  0.1717  0.2390
  392TMC3    C2 5907   4.320   2.356  10.396  0.0201  0.2715  0.3872
  392TMC3    C3 5908   4.397   2.329  10.283 -0.2033  0.5274  0.6028
  392TMC3    C4 5909   4.504   2.249  10.523 -0.4178  0.3167 -0.1659
  392TMC3    C5 5910   4.567   2.216  10.409  0.0498 -0.0886  0.1860
  392TMC3    C6 5911   4.512   2.259  10.289 -0.7075  0.1951 -0.0673
  392TMC3     C 5912   4.282   2.310  10.629 -0.4222 -0.1095 -0.0313
  392TMC3     O 5913   4.169   2.353  10.610 -0.0241 -0.0301  0.5180
  392TMC3     H 5914   4.226   2.410  10.390 -0.7353 -0.8430  2.3462
  392TMC3    H1 5915   4.555   2.226  10.616  0.7707  0.8683 -0.6880
  392TMC3    H2 5916   4.569   2.239  10.199 -0.1405 -1.2289  0.6041
  392TMC3    C7 5917   4.708   2.188  10.423 -0.5725  0.1460 -0.4855
  392TMC3    C8 5918   4.338   2.317  10.150  0.1429  0.1065  0.4991
  392TMC3    O1 5919   4.736   2.140  10.530 -0.1240  0.3132 -0.0058
  392TMC3    O2 5920   4.363   2.222  10.079 -0.4055  0.3396 -0.6881
  393TMC3    C1 5921   3.671   4.178   9.852  0.7042  0.0347  0.2078
  393TMC3    C2 5922   3.541   4.159   9.862  0.1100  0.2285 -0.7724
  393TMC3    C3 5923   3.496   4.028   9.844  0.6296 -0.5565  0.2926
  393TMC3    C4 5924   3.757   4.087   9.800 -0.2926 -0.0147  0.2691
  393TMC3    C5 5925   3.712   3.956   9.780 -0.6409  0.7148 -0.2997
  393TMC3    C6 5926   3.582   3.926   9.802  0.1668 -0.4289 -0.2046
  393TMC3     C 5927   3.719   4.298   9.917  0.1121  0.0017 -0.1812
  393TMC3     O 5928   3.635   4.387   9.927  0.0973 -0.7398  0.3143
  393TMC3     H 5929   3.472   4.238   9.891  1.4980  1.1383  0.0345
  393TMC3    H1 5930   3.853   4.121   9.762  0.6744 -3.6822 -0.5258
  393TMC3    H2 5931   3.543   3.825   9.796  3.1451 -1.7038  2.1364
  393TMC3    C7 5932   3.786   3.852   9.714 -0.2390 -0.0721  0.0267
  393TMC3    C8 5933   3.392   3.990   9.943 -0.3332 -0.6266 -0.3145
  393TMC3    O1 5934   3.741   3.809   9.608 -0.2594 -0.9048 -0.3409
  393TMC3    O2 5935   3.352   4.081  10.012  0.1816 -0.2042  0.3738
  394TMC3    C1 5936   0.661   0.261  10.487 -0.1147  0.7037  0.0545
  394TMC3    C2 5937   0.555   0.275  10.401 -0.5916  0.0097 -0.4296
  394TMC3    C3 5938   0.577   0.275  10.268  0.3608 -0.4251  1.2647
  394TMC3    C4 5939   0.790   0.261  10.451 -0.2309 -0.1071 -0.6893
  394TMC3    C5 5940   0.801   0.242  10.313 -0.2731  0.3727 -0.8003
  394TMC3    C6 5941   0.699   0.246  10.218  0.2917 -0.1160  0.1844
  394TMC3     C 5942   0.632   0.277  10.630 -0.2674 -0.4702  0.0627
  394TMC3     O 5943   0.692   0.370  10.687  1.1490 -0.4880 -0.3466
  394TMC3     H 5944   0.452   0.277  10.432 -1.2371 -0.0785 -2.5239
  394TMC3    H1 5945   0.868   0.266  10.526 -0.6020  1.6348 -0.4215
  394TMC3    H2 5946   0.709   0.221  10.113  0.6165  1.5957 -0.1994
  394TMC3    C7 5947   0.928   0.256  10.246 -0.5405 -0.2127 -0.3901
  394TMC3    C8 5948   0.462   0.244  10.181 -0.3408 -0.0244 -0.9025
  394TMC3    O1 5949   0.930   0.301  10.130 -0.1116 -0.1968 -0.0798
  394TMC3    O2 5950   0.355   0.294  10.220  0.0780 -0.3011 -0.2980
  395TMC3    C1 5951   0.964   2.828  14.529  0.3666 -0.6514 -0.6537
  395TMC3    C2 5952   0.924   2.776  14.412  0.1682  0.1772  0.7467
  395TMC3    C3 5953   0.983   2.825  14.296  0.1995  0.1311  0.0679
  395TMC3    C4 5954   1.059   2.921  14.542 -0.0667  0.5534  0.3330
  395TMC3    C5 5955   1.111   2.967  14.427  0.2455  0.5307 -0.2751
  395TMC3    C6 5956   1.073   2.925  14.297  0.1412  0.1653 -0.1427
  395TMC3     C 5957   0.941   2.756  14.650  0.3152 -0.2022  0.5675
  395TMC3     O 5958   0.939   2.823  14.754  0.0155  0.3500 -0.2836
  395TMC3     H 5959   0.847   2.700  14.403 -0.3793  0.6312  1.5774
  395TMC3    H1 5960   1.091   2.954  14.640  0.1429  2.0493 -0.2250
  395TMC3    H2 5961   1.110   2.972  14.206 -1.9515  2.0006 -0.0470
  395TMC3    C7 5962   1.198   3.077  14.440  0.6758 -0.2083  0.2043
  395TMC3    C8 5963   0.916   2.804  14.162  0.7760  0.2287 -0.4692
  395TMC3    O1 5964   1.166   3.169  14.515 -0.5567 -0.1160  0.4303
  395TMC3    O2 5965   0.927   2.895  14.079  0.2069  0.1752 -0.1948
  396MPD2     C 5966   0.174   3.523  16.973 -0.4161  0.3405 -0.7898
  396MPD2    C1 5967   0.288   3.560  17.043 -0.4939  0.9195 -0.3274
  396MPD2    C2 5968   0.360   3.670  17.006 -0.2768  0.7858  0.0750
  396MPD2    C3 5969   0.320   3.747  16.896 -0.0021 -0.0123  0.7323
  396MPD2    C4 5970   0.203   3.710  16.831  0.2538 -0.0468  0.2398
  396MPD2    C5 5971   0.132   3.602  16.869 -0.6462  0.4681 -0.3081
  396MPD2     H 5972   0.450   3.703  17.058 -1.3733  2.5582  0.8564
  396MPD2    H1 5973   0.169   3.771  16.748 -3.0469 -1.1141  0.8145
  396MPD2    H2 5974   0.129   3.429  17.002 -2.5861  0.3750 -4.0942
  396MPD2    H3 5975   0.047   3.578  16.807 -0.3858  4.3448 -2.1879
  396MPD2     N 5976   0.402   3.857  16.851  0.1601 -0.0609 -0.3021
  396MPD2    H5 5977   0.485   3.886  16.903 -1.3887  1.9323  1.0664
  396MPD2    N1 5978   0.324   3.475  17.142  0.3841  0.1988  0.2334
  396MPD2    H7 5979   0.256   3.405  17.166  1.1292 -1.3816 -2.2694
  397TMC3    C1 5980   0.465   3.349  17.298  0.1989  0.4497 -0.2534
  397TMC3    C2 5981   0.579   3.292  17.246 -0.1555 -1.0314  0.0218
  397TMC3    C3 5982   0.569   3.172  17.180 -0.2618  0.5469  0.4357
  397TMC3    C4 5983   0.351   3.276  17.293  0.0012 -0.7381  0.1642
  397TMC3    C5 5984   0.343   3.156  17.232  0.3367  0.2993  0.7123
  397TMC3    C6 5985   0.449   3.103  17.168 -0.2741 -0.2024  0.0958
  397TMC3     C 5986   0.450   3.469  17.211 -0.0221 -0.1026 -0.4216
  397TMC3     O 5987   0.546   3.545  17.201  0.1508 -0.2086  0.2985
  397TMC3     H 5988   0.659   3.360  17.218  0.2233 -1.7391 -0.5955
  397TMC3    H1 5989   0.259   3.322  17.325 -0.7508 -2.3007  0.2393
  397TMC3    H2 5990   0.440   3.001  17.133  0.5070 -0.0647 -0.4972
  397TMC3    C7 5991   0.233   3.071  17.275  0.3946  0.3706 -0.1367
  397TMC3    C8 5992   0.689   3.090  17.139 -0.4347  0.4194  0.3634
  397TMC3    O1 5993   0.204   2.968  17.208  0.1200  0.2730  0.8118
  397TMC3    O2 5994   0.675   2.969  17.126 -0.0367  0.6016 -0.3731
  398MPD2     C 5995   3.317   0.509   0.246 -0.1722  0.0570 -0.3050
  398MPD2    C1 5996   3.383   0.390   0.258 -0.2247  0.1012  0.5807
  398MPD2    C2 5997   3.459   0.373   0.368 -0.0905  0.1360 -0.0827
  398MPD2    C3 5998   3.476   0.475   0.461 -0.0345  0.3336 -0.5136
  398MPD2    C4 5999   3.402   0.593   0.446  0.2951 -0.2250  0.1733
  398MPD2    C5 6000   3.324   0.617   0.333  0.0552  0.8297  0.1130
  398MPD2     H 6001   3.517   0.282   0.382  1.4106  1.1069 -0.0118
  398MPD2    H1 6002   3.429   0.676   0.511  1.0474  0.0036 -0.4361
  398MPD2    H2 6003   3.242   0.510   0.168 -0.0880 -2.7523 -0.4380
  398MPD2    H3 6004   3.269   0.709   0.319  0.1343  0.7825 -0.5019
  398MPD2     N 6005   3.545   0.447   0.583 -0.2224  0.5892  0.5030
  398MPD2    H5 6006   3.600   0.361   0.578 -0.8423  0.4295 -3.2312
  398MPD2    N1 6007   3.362   0.275   0.173 -0.2196 -0.4838  0.3751
  398MPD2    H7 6008   3.401   0.186   0.200 -0.9738 -0.0703  2.8594
  399TMC3    C1 6009   3.249   0.123   0.046  0.3822 -0.2749 -0.8115
  399TMC3    C2 6010   3.327   0.022   0.091  0.0411 -0.1783 -0.1115
  399TMC3    C3 6011   3.274   4.635   0.091  0.1424  0.1187  0.6771
  399TMC3    C4 6012   3.109   0.103   0.039 -0.6097 -0.6811  0.3516
  399TMC3    C5 6013   3.066   4.710   0.038 -0.1120 -0.2359  1.0341
  399TMC3    C6 6014   3.142   4.598   0.058  0.0362 -0.3266 -1.0508
  399TMC3     C 6015   3.289   0.264   0.057  0.2056  0.5164  0.6438
  399TMC3     O 6016   3.228   0.352   0.000 -0.9197  0.0416 -0.0371
  399TMC3     H 6017   3.433   0.037   0.109 -0.0790  1.9663 -1.0989
  399TMC3    H1 6018   3.050   0.191   0.019 -1.9180 -1.6843 -0.1702
  399TMC3    H2 6019   3.098   4.499   0.056  0.5121 -0.4826 -3.9357
  399TMC3    C7 6020   2.926   4.677   0.052  0.9363  0.3325 -0.3769
  399TMC3    C8 6021   3.358   4.534   0.158 -0.2767  0.1088  0.7306
  399TMC3    O1 6022   2.877   4.567   0.062 -0.5886  0.3148  0.4745
  399TMC3    O2 6023   3.471   4.569   0.192  0.1234 -0.2653  0.5060
  400TMC3    C1 6024   1.801   3.457  16.561 -0.2185 -0.8024  0.7405
  400TMC3    C2 6025   1.679   3.417  16.511  0.5446  0.3013 -0.2002
  400TMC3    C3 6026   1.584   3.509  16.473  0.6679  0.2148 -0.5102
  400TMC3    C4 6027   1.846   3.586  16.546 -0.0638 -1.1784 -0.7114
  400TMC3    C5 6028   1.757   3.678  16.489 -0.2069  0.2386  0.3850
  400TMC3    C6 6029   1.629   3.639  16.453  0.8381  0.4103 -0.4713
  400TMC3     C 6030   1.879   3.350  16.610  0.0827  0.2469  0.1812
  400TMC3     O 6031   1.845   3.231  16.594 -0.2213  0.6817 -0.1618
  400TMC3     H 6032   1.643   3.323  16.551  4.2023 -0.0604  2.2635
  400TMC3    H1 6033   1.951   3.610  16.563 -0.6264 -0.4149  1.6529
  400TMC3    H2 6034   1.569   3.714  16.403 -0.6392 -1.2488 -1.1946
  400TMC3    C7 6035   1.779   3.818  16.533  0.2365 -0.3548 -0.0799
  400TMC3    C8 6036   1.469   3.460  16.394 -0.1365 -0.0535  0.7117
  400TMC3    O1 6037   1.880   3.839  16.597  0.3245 -0.2325 -0.1429
  400TMC3    O2 6038   1.382   3.550  16.380 -0.7132 -0.6031  0.1566
  401MPD2     C 6039   0.402   1.221   0.087 -0.3265  0.3609  0.3769
  401MPD2    C1 6040   0.483   1.172   0.188 -0.1684 -0.3933 -0.6467
  401MPD2    C2 6041   0.456   1.060   0.270  0.2971  0.0088 -0.5858
  401MPD2    C3 6042   0.344   0.992   0.242  0.5443 -0.2229 -0.0952
  401MPD2    C4 6043   0.264   1.039   0.144 -0.9396  0.1751 -0.4612
  401MPD2    C5 6044   0.285   1.153   0.071  0.2159  0.4866  0.1373
  401MPD2     H 6045   0.517   1.035   0.356 -1.6155 -1.7724  0.2334
  401MPD2    H1 6046   0.169   0.992   0.123 -0.6288 -1.5489  2.0027
  401MPD2    H2 6047   0.417   1.312   0.029  1.2727 -0.4969 -0.5381
  401MPD2    H3 6048   0.207   1.195   0.009  0.8029  2.4654  0.7401
  401MPD2     N 6049   0.315   0.871   0.316 -0.0359 -0.4313  0.0530
  401MPD2    H5 6050   0.382   0.845   0.387  0.8036  1.4214 -0.0799
  401MPD2    N1 6051   0.603   1.241   0.218  0.3688 -0.2035  0.3074
  401MPD2    H7 6052   0.653   1.207   0.299 -0.6811  0.8736  1.4132
  402TMC3    C1 6053   0.222   0.640   0.336 -0.1956 -0.3854 -0.1356
  402TMC3    C2 6054   0.270   0.617   0.461  0.2652 -0.3115  0.2357
  402TMC3    C3 6055   0.300   0.488   0.503 -0.8906  0.1287  0.1640
  402TMC3    C4 6056   0.188   0.537   0.257  0.3178 -0.8308 -0.1561
  402TMC3    C5 6057   0.208   0.409   0.302  0.8656 -0.0832  0.3483
  402TMC3    C6 6058   0.276   0.381   0.419 -0.3390 -0.4098 -0.7321
  402TMC3     C 6059   0.215   0.776   0.280  0.1730 -0.1682  0.0250
  402TMC3     O 6060   0.128   0.785   0.195  0.0792  0.0087  0.3522
  402TMC3     H 6061   0.278   0.705   0.523  0.2875 -0.0503 -0.1420
  402TMC3    H1 6062   0.138   0.554   0.163  1.0169 -0.9190 -0.5393
  402TMC3    H2 6063   0.296   0.282   0.459 -1.6494 -0.0796  0.7549
  402TMC3    C7 6064   0.159   0.307   0.208  0.6054  0.0812 -0.5806
  402TMC3    C8 6065   0.361   0.460   0.633 -0.0579 -0.4530 -0.4680
  402TMC3    O1 6066   0.106   0.344   0.103  0.4419 -0.1280 -0.3328
  402TMC3    O2 6067   0.417   0.349   0.640 -0.3380 -0.1957 -0.1519
  403MPD2     C 6068   3.430   4.547  13.040 -0.2519 -1.2385  1.2999
  403MPD2    C1 6069   3.418   4.579  13.173 -0.2760 -0.0774  0.3593
  403MPD2    C2 6070   3.514   4.652  13.239  0.5429 -0.0339  0.2529
  403MPD2    C3 6071   3.641   4.656  13.175 -0.0940  0.3126 -0.0931
  403MPD2    C4 6072   3.654   4.622  13.044  0.7195  0.8763 -0.9718
  403MPD2    C5 6073   3.548   4.562  12.981 -0.1048  0.3120 -0.0444
  403MPD2     H 6074   3.496   4.697  13.336  0.2618 -1.8128  1.0374
  403MPD2    H1 6075   3.744   4.632  12.984  2.0121 -1.0279  0.6639
  403MPD2    H2 6076   3.346   4.509  12.982 -0.2074  0.7201 -0.0366
  403MPD2    H3 6077   3.557   4.544  12.874 -3.2119 -1.9762  0.0634
  403MPD2     N 6078   3.747   4.714  13.245 -0.0248 -0.1201 -0.0702
  403MPD2    H5 6079   3.719   0.015  13.336 -2.3620 -0.9357 -0.4484
  403MPD2    N1 6080   3.294   4.544  13.238  0.0524 -0.9040 -0.8519
  403MPD2    H7 6081   3.236   4.488  13.178 -1.0805 -3.2943  2.4769
  404TMC3    C1 6082   3.143   4.465  13.404  0.0318 -0.0179 -0.5674
  404TMC3    C2 6083   3.171   4.403  13.527  0.0517 -0.0213  0.0648
  404TMC3    C3 6084   3.141   4.272  13.537 -0.4654  0.2045  0.5275
  404TMC3    C4 6085   3.078   4.402  13.297 -0.0213  0.2872 -0.7167
  404TMC3    C5 6086   3.060   4.270  13.312 -0.7808  0.2910  0.7541
  404TMC3    C6 6087   3.094   4.205  13.429  0.5768  1.1778  0.7746
  404TMC3     C 6088   3.257   4.555  13.369 -0.3831  0.7450 -0.5879
  404TMC3     O 6089   3.323   4.602  13.461  0.0225  0.1514  0.0889
  404TMC3     H 6090   3.229   4.458  13.601 -1.1984 -0.0935  1.0820
  404TMC3    H1 6091   3.062   4.455  13.203 -2.8338  1.1240  0.2120
  404TMC3    H2 6092   3.073   4.100  13.442 -1.0868  1.3305 -0.6807
  404TMC3    C7 6093   3.099   4.199  13.188  0.5164 -0.2490  0.0377
  404TMC3    C8 6094   3.192   4.197  13.648 -0.1633 -0.3171 -0.0258
  404TMC3    O1 6095   3.089   4.260  13.078 -0.6256 -0.2245  0.0225
  404TMC3    O2 6096   3.227   4.080  13.623 -0.2900 -0.0122 -0.3311
  405MPD2     C 6097   3.571   0.608  14.552  0.5516  0.2113 -0.4413
  405MPD2    C1 6098   3.468   0.516  14.566 -0.1200  0.0181 -0.6202
  405MPD2    C2 6099   3.338   0.555  14.527  0.3172  0.4533 -0.2932
  405MPD2    C3 6100   3.309   0.676  14.468 -1.3866  0.2149  0.2392
  405MPD2    C4 6101   3.413   0.763  14.451  0.9267  0.1881 -0.2406
  405MPD2    C5 6102   3.537   0.728  14.497 -0.0409 -0.3588 -0.6213
  405MPD2     H 6103   3.251   0.496  14.555 -0.0479 -0.1957 -2.8096
  405MPD2    H1 6104   3.397   0.861  14.409 -2.3259  0.0780  0.7617
  405MPD2    H2 6105   3.675   0.594  14.582  0.5427 -1.8818 -1.3305
  405MPD2    H3 6106   3.613   0.803  14.476 -2.2803  1.3090 -2.8071
  405MPD2     N 6107   3.173   0.699  14.438 -0.2583 -0.0760  0.4333
  405MPD2    H5 6108   3.112   0.621  14.459 -2.9432  2.0450  0.4042
  405MPD2    N1 6109   3.502   0.384  14.610  0.2750 -0.2909  0.0858
  405MPD2    H7 6110   3.598   0.365  14.637  0.3576 -1.4827 -1.0212
  406TMC3    C1 6111   2.787   0.882  14.530 -0.5897  0.4149 -0.7791
  406TMC3    C2 6112   2.720   0.762  14.524  0.1485  0.1922 -0.4765
  406TMC3    C3 6113   2.787   0.659  14.466 -0.1369 -0.4802 -0.0007
  406TMC3    C4 6114   2.907   0.906  14.480 -0.7183 -0.5541 -0.3444
  406TMC3    C5 6115   2.965   0.802  14.412  0.2127 -1.6592 -0.7146
  406TMC3    C6 6116   2.918   0.675  14.418 -0.0177 -0.0265 -0.2104
  406TMC3     C 6117   2.749   0.980  14.628 -0.0140  0.1356  0.3568
  406TMC3     O 6118   2.835   1.058  14.667 -0.0329  0.2213  0.1227
  406TMC3     H 6119   2.624   0.747  14.574  0.6569 -1.9019 -0.1004
  406TMC3    H1 6120   2.952   1.005  14.478  0.7762 -1.2791 -2.5458
  406TMC3    H2 6121   2.966   0.595  14.365  0.2992  1.2430 -1.8266
  406TMC3    C7 6122   3.109   0.818  14.398 -0.6643  0.3362 -0.4026
  406TMC3    C8 6123   2.751   0.528  14.522 -0.3985  0.4551 -0.4014
  406TMC3    O1 6124   3.146   0.932  14.380  0.0920 -0.6547 -0.1687
  406TMC3    O2 6125   2.633   0.497  14.527  0.3474 -0.5403  0.0210
  407MPD2     C 6126   0.816   1.561   9.499 -0.1671 -0.4685 -0.1540
  407MPD2    C1 6127   0.921   1.607   9.573  0.0437  0.6164 -0.8302
  407MPD2    C2 6128   0.892   1.677   9.685 -0.4733 -0.1292 -0.2209
  407MPD2    C3 6129   0.765   1.682   9.734  0.5709 -0.4853 -0.3559
  407MPD2    C4 6130   0.660   1.654   9.651  0.1779 -0.5601  1.0390
  407MPD2    C5 6131   0.684   1.582   9.539  0.6589 -0.2415  0.4657
  407MPD2     H 6132   0.980   1.702   9.744 -2.5296  2.2242  1.8389
  407MPD2    H1 6133   0.559   1.663   9.688  0.1348  0.6892  0.6349
  407MPD2    H2 6134   0.833   1.501   9.410 -0.4931 -1.9150  0.7537
  407MPD2    H3 6135   0.608   1.525   9.487 -0.0946  1.9798 -0.8994
  407MPD2     N 6136   0.741   1.753   9.853 -0.2367 -0.9206 -0.4745
  407MPD2    H5 6137   0.645   1.781   9.870  0.5537  1.0349  0.7456
  407MPD2    N1 6138   1.057   1.586   9.539  0.5619 -0.1457  0.2149
  407MPD2    H7 6139   1.124   1.627   9.604 -0.2617  2.8181 -0.7976
  408TMC3    C1 6140   1.246   1.536   9.406 -0.2627 -0.6466 -0.1517
  408TMC3    C2 6141   1.328   1.440   9.369  0.8982 -0.9688  0.0636
  408TMC3    C3 6142   1.461   1.472   9.372  0.1123 -0.3612  0.1120
  408TMC3    C4 6143   1.291   1.664   9.438 -0.2713  0.0734  0.5379
  408TMC3    C5 6144   1.420   1.697   9.429 -0.3564  0.8096  0.1010
  408TMC3    C6 6145   1.507   1.600   9.397  0.6303  0.0312  0.3220
  408TMC3     C 6146   1.104   1.511   9.435  0.1720 -0.0788 -0.0253
  408TMC3     O 6147   1.051   1.420   9.370 -0.5933  0.0588  0.0931
  408TMC3     H 6148   1.293   1.341   9.345  0.8483 -0.6078 -1.3674
  408TMC3    H1 6149   1.219   1.745   9.443  1.0564  1.3466 -0.7613
  408TMC3    H2 6150   1.610   1.629   9.381  0.4058  1.1480  0.9609
  408TMC3    C7 6151   1.466   1.798   9.513  0.1086 -0.0893 -0.2304
  408TMC3    C8 6152   1.541   1.357   9.341 -0.2919  0.3603  0.6990
  408TMC3    O1 6153   1.578   1.772   9.552 -0.1784 -0.5413 -0.3794
  408TMC3    O2 6154   1.499   1.253   9.290  0.6994 -0.3972  0.1444
  409MPD2     C 6155   0.429   2.975  16.708  0.2953  0.2866  0.5049
  409MPD2    C1 6156   0.527   2.950  16.801 -0.1209 -0.0832 -0.2829
  409MPD2    C2 6157   0.646   3.017  16.790 -0.4112 -0.5026  0.6601
  409MPD2    C3 6158   0.664   3.114  16.691  0.3668  0.3638 -0.4301
  409MPD2    C4 6159   0.559   3.147  16.611 -0.4678 -0.2878 -0.2559
  409MPD2    C5 6160   0.441   3.081  16.629  0.1022 -0.2483  0.0887
  409MPD2     H 6161   0.724   2.997  16.862  1.0878  1.0614 -0.5498
  409MPD2    H1 6162   0.573   3.220  16.533 -2.4544  1.4699  1.0299
  409MPD2    H2 6163   0.334   2.924  16.708 -0.3112  1.4439  3.2913
  409MPD2    H3 6164   0.356   3.108  16.568  0.2250  1.3423  0.6281
  409MPD2     N 6165   0.780   3.185  16.664 -0.1892 -0.0269 -0.5629
  409MPD2    H5 6166   0.777   3.264  16.600 -0.4020  0.2226 -0.2398
  409MPD2    N1 6167   0.511   2.846  16.902  0.3788 -0.9705 -0.5330
  409MPD2    H7 6168   0.583   2.830  16.972 -0.0455  1.9385  0.5683
  410TMC3    C1 6169   1.009   3.252  16.660 -0.6562 -0.2290 -0.2103
  410TMC3    C2 6170   1.118   3.276  16.740 -0.5404  0.6142 -0.1705
  410TMC3    C3 6171   1.194   3.384  16.701  0.1310 -0.1385  0.4272
  410TMC3    C4 6172   0.975   3.332  16.558  0.6049 -0.0195  0.2342
  410TMC3    C5 6173   1.054   3.432  16.524 -0.2768  0.1938  1.3766
  410TMC3    C6 6174   1.161   3.469  16.603 -0.0261  0.0601 -0.3685
  410TMC3     C 6175   0.910   3.154  16.706  0.3075  0.2357  0.3128
  410TMC3     O 6176   0.943   3.077  16.792 -0.1200  0.1483 -0.5895
  410TMC3     H 6177   1.151   3.211  16.820 -0.7491  0.7254  0.0076
  410TMC3    H1 6178   0.890   3.314  16.493  0.9146  0.2543 -0.2461
  410TMC3    H2 6179   1.233   3.545  16.572 -0.5290  1.1622  1.1886
  410TMC3    C7 6180   1.008   3.504  16.402  0.3231  0.3691  0.1869
  410TMC3    C8 6181   1.326   3.406  16.755  0.2742  0.1766 -0.5549
  410TMC3    O1 6182   0.916   3.461  16.338 -0.2831  0.1380 -0.0406
  410TMC3    O2 6183   1.366   3.525  16.755 -0.2166  0.2352  0.0477
  411MPD2     C 6184   1.511   3.953  14.193  0.5097  0.2080 -0.2388
  411MPD2    C1 6185   1.406   3.920  14.274  0.3498  0.2409  0.4559
  411MPD2    C2 6186   1.347   3.795  14.252 -0.0823 -0.8963  0.9006
  411MPD2    C3 6187   1.396   3.707  14.163  0.2563  0.5855  0.2219
  411MPD2    C4 6188   1.511   3.736  14.088  0.4127 -0.0951  0.2037
  411MPD2    C5 6189   1.567   3.853  14.115  0.0837 -0.0290  0.4043
  411MPD2     H 6190   1.271   3.766  14.323 -0.0290  2.5987  2.4129
  411MPD2    H1 6191   1.563   3.671  14.019  2.4995  0.3156  1.3977
  411MPD2    H2 6192   1.564   4.045  14.212 -4.2388  2.4710  1.9701
  411MPD2    H3 6193   1.651   3.893  14.059 -1.2164 -0.2137 -1.6675
  411MPD2     N 6194   1.345   3.574  14.152  0.9429  0.1899  0.3493
  411MPD2    H5 6195   1.399   3.515  14.089 -0.9011 -1.5719  0.4320
  411MPD2    N1 6196   1.360   4.018  14.363 -0.1178 -0.1361 -0.0064
  411MPD2    H7 6197   1.400   4.112  14.363 -0.6485  0.0889 -0.3871
  412TMC3    C1 6198   1.173   3.398  14.161 -0.5706 -0.0232 -0.7923
  412TMC3    C2 6199   1.074   3.339  14.222 -0.6121  0.1110 -0.3083
  412TMC3    C3 6200   1.012   3.227  14.171 -0.1464  0.1742 -0.0266
  412TMC3    C4 6201   1.221   3.358  14.038 -0.3022  0.6198 -0.6253
  412TMC3    C5 6202   1.167   3.248  13.984 -0.8822  0.1222  0.0551
  412TMC3    C6 6203   1.063   3.189  14.045  0.0601 -0.5529 -0.5201
  412TMC3     C 6204   1.231   3.525  14.219 -0.7754  0.0922  0.2638
  412TMC3     O 6205   1.161   3.578  14.311  0.3772 -0.1393  0.7798
  412TMC3     H 6206   1.017   3.404  14.286 -2.3131 -1.5177 -0.1735
  412TMC3    H1 6207   1.289   3.420  13.981  0.5486  0.3323  0.0789
  412TMC3    H2 6208   1.022   3.102  13.994 -0.1058 -0.6883 -0.1577
  412TMC3    C7 6209   1.119   3.274  13.850  0.6567  0.2372  0.7251
  412TMC3    C8 6210   0.866   3.226  14.163 -0.6107  0.0172  0.2450
  412TMC3    O1 6211   1.005   3.317  13.838  0.2628 -0.2855  0.2336
  412TMC3    O2 6212   0.809   3.218  14.269  0.0299  0.4972  0.0727
  413MPD2     C 6213   2.637   1.909  15.383 -0.2966  0.1661  0.3824
  413MPD2    C1 6214   2.604   1.841  15.269  0.5013  0.7489  0.0410
  413MPD2    C2 6215   2.682   1.741  15.231  0.4457 -0.0804 -0.2756
  413MPD2    C3 6216   2.803   1.711  15.296  0.9077  0.0986 -0.8642
  413MPD2    C4 6217   2.842   1.783  15.403  0.0757  0.5921  0.1360
  413MPD2    C5 6218   2.754   1.880  15.449 -0.6863  0.2202 -0.4331
  413MPD2     H 6219   2.672   1.699  15.132 -2.6665  2.0245 -0.8626
  413MPD2    H1 6220   2.935   1.771  15.458 -0.1510 -2.3887 -0.1628
  413MPD2    H2 6221   2.568   1.976  15.434  0.1806  0.8710  0.0914
  413MPD2    H3 6222   2.775   1.935  15.541  1.6465  1.4740 -1.7288
  413MPD2     N 6223   2.888   1.611  15.232 -0.1736  0.3615 -1.1464
  413MPD2    H5 6224   2.859   1.565  15.146 -2.0061 -0.5435 -0.0206
  413MPD2    N1 6225   2.491   1.890  15.205 -0.0020 -0.7497  0.8142
  413MPD2    H7 6226   2.456   1.972  15.253 -0.1479  0.2153 -0.9390
  414TMC3    C1 6227   3.061   1.448  15.224  0.0481 -0.1111 -0.4238
  414TMC3    C2 6228   3.159   1.379  15.285 -0.2003 -0.7193 -0.7574
  414TMC3    C3 6229   3.190   1.266  15.215 -0.4151 -0.3381 -0.1633
  414TMC3    C4 6230   3.010   1.429  15.093 -0.1039 -0.5803 -0.7299
  414TMC3    C5 6231   3.055   1.322  15.025  0.2223 -0.3601  0.7793
  414TMC3    C6 6232   3.127   1.233  15.097  0.3631 -0.2336  0.8987
  414TMC3     C 6233   3.001   1.551  15.296  0.0596  0.1498  0.0343
  414TMC3     O 6234   3.046   1.578  15.408 -0.1505 -0.9636  0.3685
  414TMC3     H 6235   3.187   1.388  15.390  1.5402  0.0625 -1.2720
  414TMC3    H1 6236   2.954   1.506  15.041 -1.7042 -0.2712  1.4465
  414TMC3    H2 6237   3.163   1.140  15.055  2.3912  1.9700 -2.2020
  414TMC3    C7 6238   2.973   1.291  14.906 -0.1586  0.2141  0.3260
  414TMC3    C8 6239   3.326   1.219  15.225  0.0780  0.1620 -0.0568
  414TMC3    O1 6240   2.856   1.328  14.927 -0.0897  0.2189  0.4326
  414TMC3    O2 6241   3.353   1.113  15.172  0.0652  0.0875  0.0168
  415TMC3    C1 6242   2.145   3.366  10.267 -0.7527 -0.1613  0.3028
  415TMC3    C2 6243   2.174   3.368  10.126 -0.1433  0.0898 -0.1143
  415TMC3    C3 6244   2.092   3.306  10.036  0.1835 -0.0100 -0.3533
  415TMC3    C4 6245   2.022   3.321  10.314 -0.0365 -0.0346 -0.6565
  415TMC3    C5 6246   1.943   3.268  10.215  0.1487  0.5862 -0.3395
  415TMC3    C6 6247   1.973   3.250  10.081 -0.5906 -0.2423 -0.3790
  415TMC3     C 6248   2.231   3.405  10.376  0.4789  1.2821 -0.5272
  415TMC3     O 6249   2.191   3.370  10.482 -0.3186  0.2829 -0.5382
  415TMC3     H 6250   2.277   3.391  10.104 -0.3171  0.8145 -0.1703
  415TMC3    H1 6251   1.985   3.338  10.415 -0.4050 -0.3509 -0.7385
  415TMC3    H2 6252   1.903   3.208  10.010  0.3460 -3.0951  0.3849
  415TMC3    C7 6253   1.809   3.227  10.257  0.0420  0.1473  0.3787
  415TMC3    C8 6254   2.110   3.331   9.895  0.2003 -0.8269  0.3814
  415TMC3    O1 6255   1.727   3.202  10.172  0.3619  0.0429  0.1944
  415TMC3    O2 6256   2.034   3.277   9.816  0.0074  0.0000  0.1428
  416MPD2     C 6257   0.169   3.032  11.083 -0.3084  0.2250  0.1166
  416MPD2    C1 6258   0.102   2.936  11.161 -0.2419  0.8451 -0.1095
  416MPD2    C2 6259   0.144   2.806  11.163  0.1752  0.0972  0.3009
  416MPD2    C3 6260   0.251   2.767  11.076  0.7331  0.2067  0.3957
  416MPD2    C4 6261   0.312   2.862  10.995 -0.4552  0.3283  0.2764
  416MPD2    C5 6262   0.278   2.993  11.002 -0.3523  0.3129 -0.6931
  416MPD2     H 6263   0.087   2.739  11.227  1.8259 -2.7500 -1.2429
  416MPD2    H1 6264   0.398   2.839  10.933  0.7129 -1.3751  2.5244
  416MPD2    H2 6265   0.135   3.134  11.076 -0.1508  0.3428  1.1017
  416MPD2    H3 6266   0.328   3.062  10.936  0.5504  0.5839  0.2736
  416MPD2     N 6267   0.283   2.630  11.065  0.2729  0.1771  0.1718
  416MPD2    H5 6268   0.356   2.609  10.997  0.2448 -0.1799  0.2497
  416MPD2    N1 6269   4.726   2.985  11.233  0.2847  0.5127 -0.1989
  416MPD2    H7 6270   4.698   3.077  11.200  2.3364  1.7666  1.5507
  417TMC3    C1 6271   4.562   3.008  11.398  0.5706 -0.1816  0.2288
  417TMC3    C2 6272   4.539   3.027  11.533 -0.3585  0.0047 -0.6487
  417TMC3    C3 6273   4.437   3.109  11.572  0.5843 -0.0695  0.0271
  417TMC3    C4 6274   4.477   3.063  11.305 -0.5593 -0.3049  0.0877
  417TMC3    C5 6275   4.362   3.133  11.344 -0.0497 -0.4777  0.0883
  417TMC3    C6 6276   4.346   3.166  11.478 -0.1132  0.2733  0.1914
  417TMC3     C 6277   4.677   2.926  11.346 -0.3313 -0.2818 -0.6226
  417TMC3     O 6278   4.713   2.836  11.415  0.2573  0.8635  0.2928
  417TMC3     H 6279   4.616   2.990  11.599  0.6272  2.9548 -0.1377
  417TMC3    H1 6280   4.484   3.044  11.199 -2.1214 -1.0837  0.1235
  417TMC3    H2 6281   4.265   3.232  11.503  1.5483  1.9311  1.2185
  417TMC3    C7 6282   4.292   3.213  11.248 -0.2369 -0.4408  0.0666
  417TMC3    C8 6283   4.432   3.172  11.704  0.0684 -0.4126 -0.7029
  417TMC3    O1 6284   4.362   3.244  11.152  0.1934  0.6316 -0.2134
  417TMC3    O2 6285   4.382   3.283  11.717 -0.1937  0.2052  0.4033
  418TMC3    C1 6286   3.776   0.310   0.869  0.3648 -0.4863 -0.1777
  418TMC3    C2 6287   3.722   0.402   0.780 -0.0758 -0.5091  0.2510
  418TMC3    C3 6288   3.599   0.446   0.804  0.4009  0.1159 -0.1088
  418TMC3    C4 6289   3.703   0.261   0.973 -0.3643  0.1753  0.3420
  418TMC3    C5 6290   3.580   0.318   0.996 -0.3274  0.0265  0.2027
  418TMC3    C6 6291   3.522   0.410   0.914 -0.2070  0.3478  0.1479
  418TMC3     C 6292   3.905   0.255   0.846  0.6087 -0.4496 -0.0085
  418TMC3     O 6293   3.983   0.309   0.772 -0.3547  0.9259 -0.1764
  418TMC3     H 6294   3.792   0.443   0.708 -1.2999  0.3958 -0.4362
  418TMC3    H1 6295   3.756   0.204   1.048 -0.5213 -0.9213 -0.3826
  418TMC3    H2 6296   3.419   0.437   0.929 -0.1870  1.7069 -2.2283
  418TMC3    C7 6297   3.503   0.237   1.092 -0.2847 -1.2140 -0.8655
  418TMC3    C8 6298   3.524   0.511   0.705  0.6037  0.7272  0.4005
  418TMC3    O1 6299   3.553   0.138   1.147 -0.0840  0.0946 -0.0321
  418TMC3    O2 6300   3.445   0.599   0.734  0.1924 -0.3398  0.3094
  419MPD2     C 6301   2.416   2.928  12.481 -0.0785  0.6151 -0.1481
  419MPD2    C1 6302   2.336   3.034  12.443  0.0756 -0.5494 -0.1897
  419MPD2    C2 6303   2.335   3.144  12.530 -0.6968  0.0561 -0.3742
  419MPD2    C3 6304   2.410   3.156  12.639 -0.0840 -0.5518 -0.4794
  419MPD2    C4 6305   2.495   3.049  12.670 -0.4853  0.8834 -0.1753
  419MPD2    C5 6306   2.495   2.938  12.589 -1.1386  0.1559 -0.6024
  419MPD2     H 6307   2.268   3.227  12.510  2.1811  3.1629  3.0235
  419MPD2    H1 6308   2.558   3.051  12.757 -0.0903 -1.4967 -0.3918
  419MPD2    H2 6309   2.425   2.837  12.423 -1.0177  1.0762 -0.9985
  419MPD2    H3 6310   2.545   2.849  12.627 -0.4794  0.6184 -0.3794
  419MPD2     N 6311   2.397   3.273  12.720  0.0378  0.2971  0.1413
  419MPD2    H5 6312   2.329   3.339  12.685  0.5918 -0.2483 -2.0293
  419MPD2    N1 6313   2.269   3.041  12.319 -0.3109 -0.0588 -0.4735
  419MPD2    H7 6314   2.220   3.126  12.292  1.1011  1.5223  1.9172
  420TMC3    C1 6315   2.384   3.398  12.921  0.2050 -0.3451  0.2293
  420TMC3    C2 6316   2.297   3.486  12.864  0.3077  0.3640 -0.3654
  420TMC3    C3 6317   2.249   3.590  12.933 -0.2250  0.8372  0.0400
  420TMC3    C4 6318   2.413   3.407  13.060  0.0435 -0.3688  0.0359
  420TMC3    C5 6319   2.353   3.509  13.130  0.7729  0.6607 -0.3291
  420TMC3    C6 6320   2.273   3.595  13.071 -0.2819  0.7333 -0.9429
  420TMC3     C 6321   2.439   3.283  12.852 -0.1240  0.5749  0.1335
  420TMC3     O 6322   2.524   3.213  12.908  0.5089 -0.0517 -0.6565
  420TMC3     H 6323   2.304   3.496  12.756 -1.3861 -2.2174 -0.7254
  420TMC3    H1 6324   2.478   3.337  13.112  0.9808 -0.3444 -1.1050
  420TMC3    H2 6325   2.212   3.656  13.136 -2.5206 -3.2157  0.6829
  420TMC3    C7 6326   2.389   3.520  13.269 -0.3387  1.0817 -0.6041
  420TMC3    C8 6327   2.187   3.692  12.851  0.3085  0.4557  0.0722
  420TMC3    O1 6328   2.419   3.416  13.328  0.4689 -0.2113 -0.0333
  420TMC3    O2 6329   2.138   3.662  12.743 -0.5518 -0.4876 -0.7792
  421TMC3    C1 6330   3.962   4.736  13.316 -0.6952  0.7090  0.3097
  421TMC3    C2 6331   3.937   0.124  13.377 -0.9202  0.2996  0.4015
  421TMC3    C3 6332   4.037   0.168  13.463  0.6936  0.2927  0.0867
  421TMC3    C4 6333   4.081   4.664  13.337  0.5888 -0.3909  0.2697
  421TMC3    C5 6334   4.168   4.719  13.431 -0.6441 -0.7112 -0.4267
  421TMC3    C6 6335   4.149   0.098  13.498 -0.1677 -0.4759  0.5843
  421TMC3     C 6336   3.879   4.695  13.207  0.2131 -0.1771 -0.0953
  421TMC3     O 6337   3.923   4.614  13.126 -0.0588 -0.2441 -0.0011
  421TMC3     H 6338   3.855   0.189  13.348 -1.5697  0.4783  2.6561
  421TMC3    H1 6339   4.111   4.581  13.273 -1.6891 -1.3728  0.4861
  421TMC3    H2 6340   4.211   0.120  13.584  0.0755  1.3547 -0.0579
  421TMC3    C7 6341   4.212   4.629  13.526  0.0750  0.5073 -0.6246
  421TMC3    C8 6342   4.005   0.252  13.575  0.4282  1.1326 -0.1480
  421TMC3    O1 6343   4.330   4.638  13.566  0.2580 -0.1141  0.0636
  421TMC3    O2 6344   4.095   0.325  13.609 -0.0135  0.6770  0.2897
  422TMC3    C1 6345   1.093   1.686  12.548  0.0097 -0.2021 -0.3151
  422TMC3    C2 6346   1.207   1.741  12.590  0.0774  0.5198 -0.7329
  422TMC3    C3 6347   1.250   1.704  12.719  0.2776 -0.5683  0.2606
  422TMC3    C4 6348   1.023   1.593  12.622  0.1863  0.4118  0.2027
  422TMC3    C5 6349   1.074   1.558  12.739  0.1387  0.4296  0.0303
  422TMC3    C6 6350   1.191   1.604  12.797 -0.1873  0.7999 -0.3088
  422TMC3     C 6351   1.076   1.688  12.402 -0.3126 -0.6428 -0.5036
  422TMC3     O 6352   1.176   1.723  12.338 -0.1573 -0.3403 -0.1410
  422TMC3     H 6353   1.242   1.820  12.525  1.9066 -0.3783 -0.8439
  422TMC3    H1 6354   0.934   1.549  12.577  1.3382  1.0270 -2.6612
  422TMC3    H2 6355   1.228   1.567  12.892  1.2784  2.1779 -0.3448
  422TMC3    C7 6356   0.989   1.478  12.825  0.4559  0.5270  0.2721
  422TMC3    C8 6357   1.365   1.764  12.772  0.0213 -1.1406  0.4683
  422TMC3    O1 6358   1.040   1.405  12.911 -0.7368  0.1081 -0.6128
  422TMC3    O2 6359   1.382   1.763  12.892 -0.0322  0.3208 -0.2851
  423MPD2     C 6360   2.383   2.832   0.373  0.2110  0.0673  0.6211
  423MPD2    C1 6361   2.408   2.718   0.439 -0.0663 -0.7525  0.7839
  423MPD2    C2 6362   2.460   2.605   0.371  0.3928  0.2484  0.1444
  423MPD2    C3 6363   2.500   2.621   0.240  0.3028 -0.2200 -0.3978
  423MPD2    C4 6364   2.485   2.748   0.183  0.1596 -0.1670  0.3791
  423MPD2    C5 6365   2.425   2.848   0.246 -0.0810  0.3581  0.6065
  423MPD2     H 6366   2.476   2.513   0.425  1.5460 -0.1175 -0.8174
  423MPD2    H1 6367   2.490   2.758   0.075 -0.0567 -0.0548  0.3783
  423MPD2    H2 6368   2.337   2.921   0.415  0.2643  0.2544  0.2762
  423MPD2    H3 6369   2.404   2.943   0.198  1.0232 -0.9016 -2.3186
  423MPD2     N 6370   2.542   2.508   0.154 -0.2700 -0.0548  0.1248
  423MPD2    H5 6371   2.554   2.519   0.054 -0.0478 -0.1227  0.1428
  423MPD2    N1 6372   2.391   2.692   0.573 -0.5449 -0.2594 -0.4156
  423MPD2    H7 6373   2.420   2.601   0.610 -1.4142 -0.0816  0.6803
  424TMC3    C1 6374   2.364   2.755   0.794 -0.9905  0.4698 -0.6372
  424TMC3    C2 6375   2.472   2.680   0.821  0.0547 -0.5639  0.1192
  424TMC3    C3 6376   2.504   2.662   0.952  0.0124  0.3519 -0.4072
  424TMC3    C4 6377   2.282   2.812   0.891  0.0811 -0.0679 -0.7077
  424TMC3    C5 6378   2.309   2.778   1.022 -0.3294  0.1975 -0.0290
  424TMC3    C6 6379   2.420   2.698   1.052  0.1305 -0.2648  0.2634
  424TMC3     C 6380   2.333   2.783   0.660 -0.2824 -0.5768  0.7109
  424TMC3     O 6381   2.256   2.877   0.640  0.3353 -0.0173 -0.3205
  424TMC3     H 6382   2.547   2.662   0.745  1.4932  1.5872  1.0420
  424TMC3    H1 6383   2.188   2.860   0.863  0.0682 -0.3958 -1.2325
  424TMC3    H2 6384   2.438   2.686   1.158  1.6379 -1.1429 -0.0932
  424TMC3    C7 6385   2.193   2.755   1.108  0.0833  0.9432  0.9675
  424TMC3    C8 6386   2.615   2.572   0.984  0.3555 -0.1923  0.6889
  424TMC3    O1 6387   2.210   2.714   1.222  0.2351  0.3171  0.3434
  424TMC3    O2 6388   2.652   2.503   0.886 -0.1741 -0.3084  0.0488
  425MPD2     C 6389   1.475   1.820  16.828  0.1874 -0.6208  0.1731
  425MPD2    C1 6390   1.438   1.698  16.883 -0.2409 -0.6112  0.4528
  425MPD2    C2 6391   1.304   1.671  16.907  0.1471 -0.0558  0.1070
  425MPD2    C3 6392   1.209   1.773  16.889  0.1115  0.3801 -0.1749
  425MPD2    C4 6393   1.243   1.883  16.823 -0.7895  0.2580 -0.0151
  425MPD2    C5 6394   1.372   1.910  16.793 -0.4290 -0.1667  0.2654
  425MPD2     H 6395   1.266   1.580  16.952  0.2808  1.2815  2.9250
  425MPD2    H1 6396   1.173   1.957  16.784  2.1659  1.3394 -3.2937
  425MPD2    H2 6397   1.576   1.848  16.802  0.5455 -2.1897 -0.1085
  425MPD2    H3 6398   1.402   1.992  16.729  0.0515  1.2746  2.3541
  425MPD2     N 6399   1.076   1.749  16.932 -0.1041 -0.2703  0.4188
  425MPD2    H5 6400   1.050   1.658  16.968 -0.9077 -0.2208 -0.0299
  425MPD2    N1 6401   1.541   1.609  16.914  0.0692  0.2736 -0.1863
  425MPD2    H7 6402   1.631   1.627  16.871  0.7916  0.5323  1.4442
  426TMC3    C1 6403   1.631   1.409  17.003  0.5092 -0.3992  0.8350
  426TMC3    C2 6404   1.694   1.392  16.887 -0.6325  0.1435  0.4328
  426TMC3    C3 6405   1.791   1.298  16.890 -0.2539  0.4143  0.4917
  426TMC3    C4 6406   1.641   1.333  17.114  0.1167  0.4356  0.3689
  426TMC3    C5 6407   1.736   1.236  17.102 -0.2464  0.1170  0.1499
  426TMC3    C6 6408   1.827   1.231  16.999  0.2904 -0.3043  0.5904
  426TMC3     C 6409   1.521   1.505  17.004  0.3503 -0.4068 -0.1702
  426TMC3     O 6410   1.434   1.489  17.090 -0.0366 -0.4184  0.0978
  426TMC3     H 6411   1.654   1.426  16.792  0.8422  1.3690  0.2321
  426TMC3    H1 6412   1.585   1.351  17.205 -2.7710 -0.8100 -1.1799
  426TMC3    H2 6413   1.881   1.140  16.976  0.6963  0.7355 -2.5897
  426TMC3    C7 6414   1.718   1.108  17.166 -0.1923 -0.4608  0.4217
  426TMC3    C8 6415   1.792   1.214  16.777  0.4094 -1.0221  0.5786
  426TMC3    O1 6416   1.817   1.038  17.163  0.5363  0.0421  0.5381
  426TMC3    O2 6417   1.900   1.194  16.721 -0.5875  0.3830 -0.2072
  427MPD2     C 6418   0.383   3.807  14.802 -0.3790 -0.0200 -0.0342
  427MPD2    C1 6419   0.356   3.746  14.920  0.2993  0.2081 -0.3150
  427MPD2    C2 6420   0.220   3.739  14.961 -0.2359 -0.2574 -0.9381
  427MPD2    C3 6421   0.117   3.783  14.877  0.8989 -0.0220  0.3616
  427MPD2    C4 6422   0.157   3.856  14.768 -0.5221  0.0102  0.0002
  427MPD2    C5 6423   0.285   3.862  14.722 -1.0899  0.3296  0.0192
  427MPD2     H 6424   0.211   3.692  15.058  1.1404  1.1677 -0.1342
  427MPD2    H1 6425   0.089   3.902  14.698 -1.0170  0.9433  1.0820
  427MPD2    H2 6426   0.484   3.819  14.762 -0.1887  0.2763  0.5379
  427MPD2    H3 6427   0.311   3.912  14.630  0.9975 -0.3362  0.2265
  427MPD2     N 6428   4.720   3.765  14.907  0.1176 -0.3358 -0.1791
  427MPD2    H5 6429   4.660   3.777  14.826  0.4119 -1.5443 -0.5617
  427MPD2    N1 6430   0.447   3.703  15.012  0.8097 -0.1454 -0.7859
  427MPD2    H7 6431   0.411   3.661  15.097  0.5387  0.3455 -0.6610
  428TMC3    C1 6432   0.662   3.666  15.112 -0.0902  0.3493 -0.4193
  428TMC3    C2 6433   0.629   3.537  15.148 -0.8236  0.0882  0.8558
  428TMC3    C3 6434   0.709   3.475  15.235  0.0126 -0.5102 -0.3940
  428TMC3    C4 6435   0.777   3.720  15.156  0.0843  1.1257  0.0072
  428TMC3    C5 6436   0.848   3.664  15.257 -0.0811  0.2381  0.2318
  428TMC3    C6 6437   0.823   3.534  15.291 -0.0844 -0.1128 -0.4867
  428TMC3     C 6438   0.588   3.718  15.000 -0.1882 -1.1279  0.1595
  428TMC3     O 6439   0.655   3.775  14.918  0.5795 -0.4470 -0.5542
  428TMC3     H 6440   0.552   3.478  15.101 -1.8075 -0.3732  3.0285
  428TMC3    H1 6441   0.797   3.821  15.123  0.8880  0.4285 -1.6940
  428TMC3    H2 6442   0.878   3.482  15.369 -0.5264  0.6098  0.2998
  428TMC3    C7 6443   0.948   3.738  15.329 -0.0233  1.0608 -0.1194
  428TMC3    C8 6444   0.660   3.351  15.280 -0.6716  0.8529 -0.8900
  428TMC3    O1 6445   0.985   3.700  15.441 -0.1048  0.1918  0.6751
  428TMC3    O2 6446   0.653   3.260  15.201  0.0073  0.4382 -0.1133
  429MPD2     C 6447   1.423   3.708  17.687  0.2767 -0.7647  0.3814
  429MPD2    C1 6448   1.435   3.680  17.554 -0.0804  0.0578 -0.0679
  429MPD2    C2 6449   1.507   3.768  17.476  0.0094 -0.1393  0.1501
  429MPD2    C3 6450   1.563   3.887  17.521 -0.6537  0.0784 -0.0992
  429MPD2    C4 6451   1.552   3.906  17.654  0.8929  0.2867 -0.0398
  429MPD2    C5 6452   1.487   3.822  17.736 -0.2344 -0.4072  0.0288
  429MPD2     H 6453   1.513   3.740  17.372  2.8343  1.5706 -0.1728
  429MPD2    H1 6454   1.600   3.997  17.689 -1.4133  0.8286  1.7476
  429MPD2    H2 6455   1.370   3.637   0.007  0.1352 -0.0027  1.1167
  429MPD2    H3 6456   1.471   3.840   0.099  0.8092 -0.5449  0.2149
  429MPD2     N 6457   1.629   3.973  17.431 -0.0418 -0.1092  0.1446
  429MPD2    H5 6458   1.621   3.943  17.335  1.1448  0.8329 -0.2462
  429MPD2    N1 6459   1.375   3.565  17.495  0.3056 -0.1285 -0.4361
  429MPD2    H7 6460   1.395   3.549  17.397 -0.8193  0.6723 -0.7978
  430TMC3    C1 6461   1.701   4.182  17.328  0.6396 -0.3757  0.2719
  430TMC3    C2 6462   1.659   4.312  17.309  0.2222 -0.1769 -0.3271
  430TMC3    C3 6463   1.690   4.373  17.194  0.0186  0.7081 -0.2766
  430TMC3    C4 6464   1.757   4.117  17.222  0.1985  0.5185 -0.2907
  430TMC3    C5 6465   1.794   4.191  17.115  0.4078 -0.0739 -0.0566
  430TMC3    C6 6466   1.777   4.321  17.102  0.6420  0.1299  0.2152
  430TMC3     C 6467   1.661   4.108  17.451 -0.1460  0.5190 -0.2251
  430TMC3     O 6468   1.677   4.177  17.549 -0.1417  0.3155  0.1931
  430TMC3     H 6469   1.589   4.338  17.388 -1.0532 -0.3331 -1.4157
  430TMC3    H1 6470   1.799   4.017  17.234 -1.6216 -0.3811 -1.4066
  430TMC3    H2 6471   1.820   4.377  17.020  0.9876  1.3754  1.2453
  430TMC3    C7 6472   1.767   4.123  16.989 -0.0607  0.0682  0.0599
  430TMC3    C8 6473   1.576   4.428  17.118  0.3842 -0.5012 -0.0673
  430TMC3    O1 6474   1.762   4.002  17.001 -0.5226  0.6072  0.3823
  430TMC3    O2 6475   1.600   4.444  17.001 -1.3815  0.0467 -0.0025
  431MPD2     C 6476   2.399   3.591  12.460  0.5569 -0.4111  0.4830
  431MPD2    C1 6477   2.499   3.524  12.396 -0.1552 -0.0903 -0.4335
  431MPD2    C2 6478   2.469   3.462  12.275 -0.5222 -0.4882 -0.0691
  431MPD2    C3 6479   2.336   3.446  12.231  0.4051  0.3150  0.1733
  431MPD2    C4 6480   2.240   3.501  12.312 -0.3060 -0.4600 -0.0442
  431MPD2    C5 6481   2.270   3.585  12.411  0.4458  0.1653 -1.3545
  431MPD2     H 6482   2.550   3.427  12.212  2.2268  3.0363  1.5177
  431MPD2    H1 6483   2.134   3.488  12.291 -0.9674  0.9121  2.4895
  431MPD2    H2 6484   2.419   3.654  12.546 -1.4241  0.8318  0.0253
  431MPD2    H3 6485   2.188   3.636  12.460  0.5258 -1.1375  0.1386
  431MPD2     N 6486   2.290   3.368  12.116 -0.4451  0.1583 -0.3204
  431MPD2    H5 6487   2.192   3.343  12.112 -0.1484 -1.0798  0.0622
  431MPD2    N1 6488   2.637   3.541  12.441  0.1441  0.5544  0.2055
  431MPD2    H7 6489   2.716   3.516  12.382 -0.1279  0.6821 -0.2174
  432TMC3    C1 6490   2.318   3.183  11.970 -0.3175  0.4202  0.0115
  432TMC3    C2 6491   2.418   3.112  11.899 -0.2768 -0.7789 -0.1508
  432TMC3    C3 6492   2.426   2.976  11.921 -0.2234  0.3805 -0.8299
  432TMC3    C4 6493   2.245   3.116  12.065  0.3113 -0.2155 -0.5215
  432TMC3    C5 6494   2.261   2.979  12.089  0.3833  0.5425 -0.2771
  432TMC3    C6 6495   2.356   2.907  12.013 -1.0196 -0.1384  0.1204
  432TMC3     C 6496   2.372   3.302  12.031 -0.7091  0.9719  0.6030
  432TMC3     O 6497   2.491   3.302  12.041 -0.5021  0.3090  0.3753
  432TMC3     H 6498   2.473   3.173  11.828  0.9520  1.2084  2.4709
  432TMC3    H1 6499   2.162   3.161  12.119 -0.1837  0.5121 -1.9046
  432TMC3    H2 6500   2.371   2.801  12.026  1.1475  0.3279  1.3210
  432TMC3    C7 6501   2.263   2.940  12.229  1.3263  0.2692  0.0818
  432TMC3    C8 6502   2.534   2.908  11.865  0.1418 -0.4244  0.2894
  432TMC3    O1 6503   2.281   2.819  12.237 -0.0629  0.1193 -0.2677
  432TMC3    O2 6504   2.531   2.786  11.869 -0.0348 -0.1080  0.5144
  433MPD2     C 6505   0.260   1.629  10.770 -0.5334  0.2265 -0.2309
  433MPD2    C1 6506   0.379   1.559  10.765 -0.0914 -0.6217  0.5331
  433MPD2    C2 6507   0.435   1.511  10.883 -0.1803 -0.2132  0.0078
  433MPD2    C3 6508   0.378   1.526  11.003  0.3382  0.0746 -0.4431
  433MPD2    C4 6509   0.242   1.566  11.002  0.4782 -0.1299  0.4529
  433MPD2    C5 6510   0.191   1.625  10.884  0.3088 -0.0978  0.1481
  433MPD2     H 6511   0.528   1.456  10.879 -0.2065 -0.2225 -0.5638
  433MPD2    H1 6512   0.185   1.561  11.095  0.6559 -1.0941  0.5141
  433MPD2    H2 6513   0.218   1.675  10.681 -0.0942 -0.8001 -0.9684
  433MPD2    H3 6514   0.093   1.671  10.875  1.3270  1.9863 -0.1581
  433MPD2     N 6515   0.437   1.483  11.126  0.8599  0.3004  0.5562
  433MPD2    H5 6516   0.375   1.471  11.205  0.9590 -0.4504  0.5249
  433MPD2    N1 6517   0.443   1.545  10.638 -0.4680  0.4277  0.2226
  433MPD2    H7 6518   0.417   1.609  10.563 -1.2263  0.0536  0.1666
  434TMC3    C1 6519   0.608   1.459  10.477  0.0198 -0.2414  0.3990
  434TMC3    C2 6520   0.729   1.404  10.480  0.3175  0.7540 -0.2522
  434TMC3    C3 6521   0.814   1.418  10.376 -0.1437 -0.6107  0.7603
  434TMC3    C4 6522   0.569   1.541  10.375  0.2741  0.2572 -0.4018
  434TMC3    C5 6523   0.657   1.552  10.264 -0.2262  1.0758 -0.2211
  434TMC3    C6 6524   0.778   1.487  10.261 -0.6760 -0.0402  0.2556
  434TMC3     C 6525   0.540   1.452  10.610 -0.9920  0.2193 -0.3219
  434TMC3     O 6526   0.570   1.354  10.678 -0.1121  0.1644  0.5485
  434TMC3     H 6527   0.770   1.356  10.569 -0.1684 -1.3697 -1.1563
  434TMC3    H1 6528   0.464   1.560  10.355  0.0063  1.2856  1.9736
  434TMC3    H2 6529   0.848   1.489  10.178  1.9399  1.2355  2.4747
  434TMC3    C7 6530   0.589   1.554  10.138 -0.0584 -0.8293 -0.3735
  434TMC3    C8 6531   0.943   1.353  10.377  0.4082 -0.0785 -0.9841
  434TMC3    O1 6532   0.497   1.627  10.117  0.1890 -0.1868 -0.3509
  434TMC3    O2 6533   1.029   1.405  10.305  0.2639  0.2435 -0.3089
  435MPD2     C 6534   2.940   2.262  15.514 -0.1647  0.5386  0.1687
  435MPD2    C1 6535   2.921   2.212  15.637  0.4267 -0.0580  0.4859
  435MPD2    C2 6536   3.027   2.175  15.717 -0.8585  0.1042  0.0441
  435MPD2    C3 6537   3.157   2.183  15.666 -0.1403 -0.1960 -0.5575
  435MPD2    C4 6538   3.175   2.231  15.538 -0.4211 -0.2373  0.5421
  435MPD2    C5 6539   3.064   2.276  15.461 -0.3512  0.0002  0.3548
  435MPD2     H 6540   3.012   2.117  15.807 -0.8550 -1.6623 -1.0913
  435MPD2    H1 6541   3.270   2.239  15.485  0.0685  1.9693  1.7289
  435MPD2    H2 6542   2.855   2.302  15.461  1.5235 -0.2462 -3.1399
  435MPD2    H3 6543   3.072   2.311  15.359 -0.3594  0.8373  0.6408
  435MPD2     N 6544   3.257   2.122  15.744 -0.5555 -0.4024 -0.5787
  435MPD2    H5 6545   3.225   2.084  15.832  1.8347 -0.2146  0.3779
  435MPD2    N1 6546   2.789   2.187  15.689 -0.1274  0.2787 -0.2680
  435MPD2    H7 6547   2.785   2.151  15.784  2.7073 -1.8857 -0.9750
  436TMC3    C1 6548   2.476   2.276  15.921 -0.2454  0.2969 -0.1197
  436TMC3    C2 6549   2.577   2.266  15.831  0.3741  0.0096  0.6342
  436TMC3    C3 6550   2.547   2.218  15.708 -0.2441 -0.4470 -0.6213
  436TMC3    C4 6551   2.345   2.240  15.887  0.1630 -0.7314 -0.2201
  436TMC3    C5 6552   2.323   2.192  15.759  0.4153 -0.8064 -0.0463
  436TMC3    C6 6553   2.427   2.175  15.665 -0.8581  0.1821  0.1053
  436TMC3     C 6554   2.498   2.346  16.048 -0.0297  0.2118 -0.1136
  436TMC3     O 6555   2.611   2.337  16.095  0.0232  0.5121  0.2781
  436TMC3     H 6556   2.674   2.309  15.855 -0.5614  2.4773  0.0382
  436TMC3    H1 6557   2.274   2.238  15.969 -1.1994  0.4263 -1.3724
  436TMC3    H2 6558   2.410   2.136  15.565 -1.2621 -0.6551  0.4991
  436TMC3    C7 6559   2.192   2.145  15.717 -0.1568  0.2410 -0.1351
  436TMC3    C8 6560   2.667   2.201  15.621 -0.1266  0.2616  0.3748
  436TMC3    O1 6561   2.189   2.060  15.632 -0.0455  0.0633  0.4170
  436TMC3    O2 6562   2.641   2.196  15.499 -0.4381 -0.2989 -0.2003
  437TMC3    C1 6563   1.869   4.509  11.794 -0.2952 -0.1450 -0.5807
  437TMC3    C2 6564   1.842   4.514  11.658  0.6701 -0.0558  0.0158
  437TMC3    C3 6565   1.927   4.451  11.573  0.0240  0.5844 -0.3655
  437TMC3    C4 6566   1.990   4.451  11.848  0.1318 -0.0349  0.3034
  437TMC3    C5 6567   2.070   4.385  11.758 -0.0661 -0.8622 -0.0800
  437TMC3    C6 6568   2.036   4.386  11.623  0.1403 -0.5107 -0.0609
  437TMC3     C 6569   1.769   4.551  11.887 -0.5932  0.1270  0.9490
  437TMC3     O 6570   1.657   4.577  11.840 -0.0513 -0.4806 -0.5224
  437TMC3     H 6571   1.759   4.570  11.618 -0.1167 -1.8965 -0.9202
  437TMC3    H1 6572   2.009   4.432  11.953 -0.0399 -0.6679  0.2172
  437TMC3    H2 6573   2.088   4.312  11.564 -0.6109 -0.2846 -1.0153
  437TMC3    C7 6574   2.186   4.303  11.795 -0.6872 -0.2165  0.0671
  437TMC3    C8 6575   1.873   4.397  11.445 -0.4248 -0.8978 -0.6003
  437TMC3    O1 6576   2.231   4.230  11.708  0.1430  0.0448  0.2346
  437TMC3    O2 6577   1.953   4.349  11.367  0.0338 -0.1993 -0.6402
  438MPD2     C 6578   3.773   0.277  17.016 -0.2486 -0.7560 -0.6159
  438MPD2    C1 6579   3.901   0.225  17.041 -0.4846  0.0243 -0.7986
  438MPD2    C2 6580   3.945   0.222  17.172 -0.0400 -0.2553 -0.4603
  438MPD2    C3 6581   3.870   0.262  17.279  0.0472 -0.1768 -0.2800
  438MPD2    C4 6582   3.752   0.326  17.246  0.0858 -0.1872  0.1704
  438MPD2    C5 6583   3.704   0.335  17.118  0.4208  0.0464  0.1469
  438MPD2     H 6584   4.047   0.186  17.177  0.5459  1.0950 -2.7125
  438MPD2    H1 6585   3.692   0.362  17.328  0.3903  0.1645  0.2387
  438MPD2    H2 6586   3.735   0.296  16.916 -0.3905 -0.3090 -0.4780
  438MPD2    H3 6587   3.613   0.393  17.106 -0.9064 -1.7556  1.4679
  438MPD2     N 6588   3.914   0.256  17.416 -0.2548 -0.1162 -0.0724
  438MPD2    H5 6589   3.856   0.298  17.488  0.8913  0.7051  0.3760
  438MPD2    N1 6590   3.985   0.156  16.942  0.1951 -0.0262 -0.1473
  438MPD2    H7 6591   4.078   0.133  16.975 -0.0982 -0.7677  0.1660
  439TMC3    C1 6592   4.070   0.068  16.745 -0.4258  0.3423  0.4174
  439TMC3    C2 6593   4.044   0.010  16.623 -1.1639 -0.2469 -0.3094
  439TMC3    C3 6594   4.147   4.717  16.542  0.0985  0.8419  0.3702
  439TMC3    C4 6595   4.200   0.091  16.789  0.0628 -0.1715 -0.0907
  439TMC3    C5 6596   4.300   0.054  16.702  0.8393 -0.0943  0.1557
  439TMC3    C6 6597   4.279   4.732  16.581 -0.3904 -0.3877 -0.1970
  439TMC3     C 6598   3.951   0.117  16.819 -0.0518 -0.3684 -0.4192
  439TMC3     O 6599   3.847   0.126  16.757  0.5100 -0.1116 -0.3214
  439TMC3     H 6600   3.940   4.731  16.593 -0.7695 -0.7130 -1.4582
  439TMC3    H1 6601   4.219   0.142  16.882  1.7530 -0.9418 -0.0185
  439TMC3    H2 6602   4.372   4.703  16.532 -0.0239  1.0775 -0.3510
  439TMC3    C7 6603   4.439   0.052  16.748  0.1419  0.4981  0.4569
  439TMC3    C8 6604   4.119   4.674  16.410 -0.1120  0.0550  0.2462
  439TMC3    O1 6605   4.515   4.700  16.700 -0.5511 -0.0741  0.1815
  439TMC3    O2 6606   4.005   4.637  16.376  0.1897  0.6292  0.4266
  440MPD2     C 6607   3.269   0.646  14.975  0.5886 -0.6050  0.1589
  440MPD2    C1 6608   3.310   0.769  15.024 -0.2417  0.0939  0.0928
  440MPD2    C2 6609   3.446   0.801  15.038 -0.8601 -0.8260  0.7012
  440MPD2    C3 6610   3.531   0.722  14.967 -0.3348  0.8634 -0.1332
  440MPD2    C4 6611   3.490   0.601  14.912 -0.3403 -0.6891 -0.1900
  440MPD2    C5 6612   3.359   0.568  14.912  1.1915 -0.2312 -0.2887
  440MPD2     H 6613   3.479   0.895  15.080 -0.1216 -1.0227  0.5550
  440MPD2    H1 6614   3.563   0.542  14.857 -1.2927  0.9779 -3.2357
  440MPD2    H2 6615   3.168   0.606  14.977  0.8307 -1.1779  0.6341
  440MPD2    H3 6616   3.332   0.471  14.872 -0.9017  0.1420  0.2027
  440MPD2     N 6617   3.669   0.754  14.950  0.5791 -0.6565  0.0371
  440MPD2    H5 6618   3.726   0.679  14.914  3.7947  1.7784  0.0880
  440MPD2    N1 6619   3.218   0.846  15.100 -0.2355  0.3160 -0.3928
  440MPD2    H7 6620   3.253   0.919  15.160 -0.5170  0.5486 -0.5086
  441TMC3    C1 6621   3.862   0.874  14.960  0.6013  0.4712 -0.6168
  441TMC3    C2 6622   3.909   1.001  14.968 -0.4309  1.0649  0.5330
  441TMC3    C3 6623   4.000   1.025  15.072 -0.1574  0.0521 -0.0373
  441TMC3    C4 6624   3.921   0.767  15.029  0.5753 -0.1544 -0.6123
  441TMC3    C5 6625   4.014   0.794  15.127  1.3422 -0.0278 -0.6075
  441TMC3    C6 6626   4.075   0.921  15.126  0.4327 -0.2836 -0.1419
  441TMC3     C 6627   3.721   0.877  14.962  0.5468  0.5338 -0.5198
  441TMC3     O 6628   3.666   0.987  14.974 -0.1110 -0.2185 -0.1974
  441TMC3     H 6629   3.877   1.083  14.904 -1.6756 -0.2046 -0.4758
  441TMC3    H1 6630   3.879   0.668  15.017 -0.0498 -0.1812  1.8869
  441TMC3    H2 6631   4.138   0.942  15.212 -0.1312 -1.6994  0.6257
  441TMC3    C7 6632   3.976   0.762  15.261  0.6056 -0.6429  0.2773
  441TMC3    C8 6633   3.968   1.127  15.172  0.6077 -0.0597 -0.3073
  441TMC3    O1 6634   3.959   0.859  15.333  0.1679 -0.4561  0.4992
  441TMC3    O2 6635   4.051   1.169  15.250 -0.1193 -0.9353 -0.0640
  442MPD2     C 6636   1.063   1.637  16.158 -0.2223 -0.5265  0.0084
  442MPD2    C1 6637   0.971   1.549  16.214  0.0326  0.1412  0.5105
  442MPD2    C2 6638   0.993   1.417  16.228 -0.0761 -0.3072 -0.2785
  442MPD2    C3 6639   1.119   1.362  16.184  0.7468 -0.8443 -0.1578
  442MPD2    C4 6640   1.218   1.449  16.149  0.8475  0.4056 -0.1337
  442MPD2    C5 6641   1.191   1.580  16.130  0.2234 -0.6133 -0.6494
  442MPD2     H 6642   0.907   1.353  16.243  0.1560 -0.6623 -0.4604
  442MPD2    H1 6643   1.316   1.411  16.120  0.6769 -1.7839  2.1341
  442MPD2    H2 6644   1.045   1.738  16.125  1.2938 -0.2365  0.0620
  442MPD2    H3 6645   1.263   1.648  16.086  0.3273  0.0614  0.5863
  442MPD2     N 6646   1.154   1.221  16.185 -0.0340  0.1301 -0.1753
  442MPD2    H5 6647   1.248   1.195  16.157 -0.2594  1.3321 -2.0660
  442MPD2    N1 6648   0.842   1.590  16.266  0.0268 -0.3365  0.3131
  442MPD2    H7 6649   0.787   1.524  16.319 -2.7832  2.3512  0.7345
  443TMC3    C1 6650   0.662   1.750  16.324  0.1598 -0.0723  0.3713
  443TMC3    C2 6651   0.596   1.859  16.269 -0.9960  0.7103 -0.0710
  443TMC3    C3 6652   0.457   1.857  16.254  0.5361 -0.0087 -0.5045
  443TMC3    C4 6653   0.585   1.658  16.390 -0.3146 -0.1357 -0.0554
  443TMC3    C5 6654   0.450   1.665  16.379  0.0049 -0.8117  0.3129
  443TMC3    C6 6655   0.380   1.762  16.314 -0.0523 -0.5182 -0.6483
  443TMC3     C 6656   0.795   1.721  16.257 -0.0853  0.4011 -0.7546
  443TMC3     O 6657   0.830   1.803  16.174  0.7195  0.2333 -0.2906
  443TMC3     H 6658   0.659   1.926  16.213  0.8717 -0.9860  0.0180
  443TMC3    H1 6659   0.637   1.575  16.437  1.7049  0.6944 -0.8328
  443TMC3    H2 6660   0.272   1.771  16.310 -0.1827  0.4593  4.1357
  443TMC3    C7 6661   0.377   1.542  16.415  0.1624  0.8081 -0.1423
  443TMC3    C8 6662   0.389   1.944  16.159  0.2494 -0.1018  0.2982
  443TMC3    O1 6663   0.414   1.483  16.514  0.0914  0.4100 -0.0606
  443TMC3    O2 6664   0.294   2.014  16.200 -0.0500 -0.8707  0.6172
  444MPD2     C 6665   1.588   0.840  16.899 -0.4635  0.1327  0.2291
  444MPD2    C1 6666   1.514   0.742  16.838  0.7727  0.4465  0.3150
  444MPD2    C2 6667   1.573   0.644  16.758 -0.0652  0.0967  0.5389
  444MPD2    C3 6668   1.711   0.642  16.757 -0.0189  0.1037 -0.1330
  444MPD2    C4 6669   1.787   0.743  16.822 -0.5152 -0.3573  0.1008
  444MPD2    C5 6670   1.725   0.841  16.893  0.2573 -0.5240  0.0651
  444MPD2     H 6671   1.507   0.569  16.715  1.5653 -1.2755  0.4212
  444MPD2    H1 6672   1.895   0.736  16.830 -0.5229  0.0049  0.5200
  444MPD2    H2 6673   1.550   0.922  16.959 -1.0690 -0.2646  0.3902
  444MPD2    H3 6674   1.787   0.916  16.940  0.3342 -2.0911  2.4769
  444MPD2     N 6675   1.775   0.530  16.701  0.2820 -0.3937  0.9944
  444MPD2    H5 6676   1.719   0.445  16.689  1.3399 -0.9036 -0.2787
  444MPD2    N1 6677   1.374   0.739  16.845 -0.4739  0.2342 -0.4967
  444MPD2    H7 6678   1.327   0.670  16.787  1.6600 -0.5925 -1.2329
  445TMC3    C1 6679   1.941   0.402  16.594  0.5808  0.0630 -0.0101
  445TMC3    C2 6680   1.850   0.302  16.576  0.6987  0.2062  0.2728
  445TMC3    C3 6681   1.888   0.188  16.516  0.0823 -0.1316 -0.2077
  445TMC3    C4 6682   2.071   0.386  16.572  0.5174  0.6943 -0.1910
  445TMC3    C5 6683   2.100   0.265  16.511 -0.3496  0.3403  0.7914
  445TMC3    C6 6684   2.012   0.171  16.463  0.7780  0.0008  0.4031
  445TMC3     C 6685   1.906   0.524  16.664  0.0316 -0.7260 -0.2650
  445TMC3     O 6686   1.999   0.600  16.690  0.0742  0.3526 -0.6585
  445TMC3     H 6687   1.745   0.313  16.599  0.3261 -0.4762 -1.1196
  445TMC3    H1 6688   2.147   0.463  16.586 -0.5770  1.2098  2.8892
  445TMC3    H2 6689   2.032   0.070  16.427  0.9549 -1.0766  3.5590
  445TMC3    C7 6690   2.233   0.264  16.446 -0.9389  0.8279  0.7423
  445TMC3    C8 6691   1.785   0.091  16.488 -0.4212  1.1196  0.1214
  445TMC3    O1 6692   2.300   0.366  16.453 -0.5532  0.7001  0.0641
  445TMC3    O2 6693   1.697   0.091  16.575 -0.0432  0.1695 -0.5235
  446MPD2     C 6694   0.197   1.094  11.058  0.4722 -0.3175  0.5169
  446MPD2    C1 6695   0.226   1.166  10.943  0.0317 -0.5032  0.1211
  446MPD2    C2 6696   0.359   1.179  10.891 -0.3196  0.1672  0.1849
  446MPD2    C3 6697   0.467   1.112  10.946  0.8586  0.3604 -0.4772
  446MPD2    C4 6698   0.434   1.033  11.056  0.2294 -0.6692 -0.3697
  446MPD2    C5 6699   0.304   1.029  11.110  0.9589  0.3748 -0.1355
  446MPD2     H 6700   0.377   1.255  10.816 -0.5580  1.0245  0.9985
  446MPD2    H1 6701   0.514   0.978  11.104  1.9723  1.0336 -1.3077
  446MPD2    H2 6702   0.101   1.084  11.109  0.2102 -0.9307 -0.0982
  446MPD2    H3 6703   0.297   0.972  11.202 -0.5672  1.4456  0.4133
  446MPD2     N 6704   0.603   1.141  10.906 -0.1820  0.5598  0.3162
  446MPD2    H5 6705   0.622   1.221  10.847 -0.3771 -0.4760 -1.1550
  446MPD2    N1 6706   0.127   1.249  10.884 -0.3866  0.0042 -0.5778
  446MPD2    H7 6707   0.153   1.299  10.800  2.0022 -1.0842 -0.5022
  447TMC3    C1 6708   0.842   1.140  10.923  0.9729  0.2378  1.3808
  447TMC3    C2 6709   0.841   1.267  10.864 -0.2342 -0.0682  0.2246
  447TMC3    C3 6710   0.969   1.317  10.841  0.5217  0.4998  0.0599
  447TMC3    C4 6711   0.950   1.081  10.972  0.0392  0.5747  0.7236
  447TMC3    C5 6712   1.069   1.141  10.950 -0.0680  0.0058  0.0697
  447TMC3    C6 6713   1.083   1.258  10.880 -0.5759  0.0703  0.5396
  447TMC3     C 6714   0.714   1.079  10.963 -0.0485 -0.0197 -0.5649
  447TMC3     O 6715   0.725   0.981  11.035  0.4601  0.0223 -0.5200
  447TMC3     H 6716   0.744   1.314  10.855  0.4414  1.3742  0.4582
  447TMC3    H1 6717   0.929   0.988  11.024  0.4820  0.8188  1.3330
  447TMC3    H2 6718   1.176   1.314  10.870  0.0275 -0.8605  0.9001
  447TMC3    C7 6719   1.193   1.079  10.996 -1.0037 -0.0275  0.5163
  447TMC3    C8 6720   0.970   1.447  10.778  0.0835  0.0064  0.7473
  447TMC3    O1 6721   1.298   1.113  10.944  0.4417  0.3683 -0.3633
  447TMC3    O2 6722   1.063   1.483  10.709 -0.5315  1.0706  0.5776
  448TMC3    C1 6723   0.236   1.829  17.550  0.6066  0.0634 -0.0847
  448TMC3    C2 6724   0.154   1.731  17.505  0.2804 -0.7792  0.8713
  448TMC3    C3 6725   0.179   1.600  17.538 -0.8088 -0.4360  0.6375
  448TMC3    C4 6726   0.321   1.805  17.649 -0.1670  0.4773 -0.5388
  448TMC3    C5 6727   0.336   1.677  17.695  0.3469 -0.1286  0.2681
  448TMC3    C6 6728   0.267   1.565  17.637  0.2994  0.2430 -0.7770
  448TMC3     C 6729   0.198   1.978  17.534  0.2418  0.4219 -0.2891
  448TMC3     O 6730   0.233   2.053  17.621 -0.2505 -0.3538 -0.6876
  448TMC3     H 6731   0.075   1.761  17.438  2.2339  0.8854 -0.6876
  448TMC3    H1 6732   0.392   1.884  17.670  0.8220 -0.5989  0.1438
  448TMC3    H2 6733   0.287   1.465  17.673  0.2679 -0.2074 -2.0323
  448TMC3    C7 6734   0.397   1.663   0.081 -1.1089  0.0007 -0.2643
  448TMC3    C8 6735   0.096   1.501  17.476  0.0681  0.4540 -0.3633
  448TMC3    O1 6736   0.499   1.726   0.104 -0.5060  0.2616 -0.4133
  448TMC3    O2 6737   0.082   1.393  17.532  0.5177 -0.2012  0.5326
  449MPD2     C 6738   0.903   0.243  13.561  0.3899 -0.3196 -0.3798
  449MPD2    C1 6739   0.798   0.323  13.595 -0.2421 -0.0284  0.1730
  449MPD2    C2 6740   0.677   0.263  13.593  0.9348 -0.3526 -0.4259
  449MPD2    C3 6741   0.648   0.130  13.557  0.1406 -0.3208 -0.1043
  449MPD2    C4 6742   0.757   0.059  13.516  0.3076 -0.7815  0.5095
  449MPD2    C5 6743   0.880   0.109  13.522 -0.6614  0.6639 -0.1194
  449MPD2     H 6744   0.592   0.317  13.636  1.4454  0.1364 -0.0232
  449MPD2    H1 6745   0.746   4.693  13.480  1.9341 -0.8593  0.2247
  449MPD2    H2 6746   1.005   0.273  13.582  0.3228 -0.3473 -0.0094
  449MPD2    H3 6747   0.965   0.041  13.515  0.5407  1.8267  3.1647
  449MPD2     N 6748   0.510   0.086  13.566 -0.0172  0.3139  0.4608
  449MPD2    H5 6749   0.439   0.156  13.588  1.3791  2.1197 -0.7184
  449MPD2    N1 6750   0.810   0.450  13.648 -0.4252  0.0038 -0.0315
  449MPD2    H7 6751   0.720   0.489  13.671 -0.7065  0.3641 -1.7530
  450TMC3    C1 6752   0.869   0.668  13.680  0.2434  0.4269  1.4187
  450TMC3    C2 6753   0.894   0.752  13.574 -0.2394  0.9446  0.8392
  450TMC3    C3 6754   0.790   0.829  13.525  0.8312 -0.5588  0.6593
  450TMC3    C4 6755   0.741   0.668  13.733  0.4501  0.4948  0.1275
  450TMC3    C5 6756   0.639   0.742  13.684 -0.5830  0.7978  0.2777
  450TMC3    C6 6757   0.659   0.823  13.574  0.5259 -0.1965  0.0599
  450TMC3     C 6758   0.917   0.534  13.643 -1.3142  0.1437  0.7456
  450TMC3     O 6759   1.026   0.521  13.585 -0.4493  0.1336 -0.1165
  450TMC3     H 6760   0.991   0.745  13.527  0.1928  3.8699  1.3299
  450TMC3    H1 6761   0.714   0.607  13.818  1.4752  1.9941  1.5157
  450TMC3    H2 6762   0.577   0.875  13.526  1.1906  0.6104 -0.2084
  450TMC3    C7 6763   0.517   0.670  13.698 -0.6049 -0.4840  0.4908
  450TMC3    C8 6764   0.811   0.921  13.416  0.8648 -0.1249  0.3174
  450TMC3    O1 6765   0.523   0.547  13.721 -0.6756  0.3013 -0.4651
  450TMC3    O2 6766   0.717   0.964  13.354 -0.1833 -0.1017 -0.0901
  451MPD2     C 6767   2.766   3.485   0.768  0.2122 -0.3159 -0.1289
  451MPD2    C1 6768   2.703   3.596   0.718  0.1323 -0.2357 -0.0520
  451MPD2    C2 6769   2.660   3.587   0.579 -0.0820  0.0008  0.3456
  451MPD2    C3 6770   2.698   3.487   0.495 -0.2151  0.2788  0.3411
  451MPD2    C4 6771   2.763   3.378   0.550  0.1037  0.0115  0.4028
  451MPD2    C5 6772   2.794   3.383   0.685 -0.0523  0.2266  1.1788
  451MPD2     H 6773   2.591   3.662   0.543 -0.2467 -0.0529  0.5516
  451MPD2    H1 6774   2.800   3.296   0.489 -1.7726  0.2565 -1.0661
  451MPD2    H2 6775   2.788   3.474   0.873  2.5010  0.8909 -0.4876
  451MPD2    H3 6776   2.841   3.293   0.723  0.7242  0.4112  0.6362
  451MPD2     N 6777   2.652   3.475   0.361 -0.0633 -0.5227 -0.1926
  451MPD2    H5 6778   2.667   3.382   0.324 -1.5313 -1.0217  0.4280
  451MPD2    N1 6779   2.669   3.707   0.799  0.0995 -0.5450 -0.2225
  451MPD2    H7 6780   2.670   3.694   0.899 -3.0049  0.5859 -0.0477
  452TMC3    C1 6781   2.516   3.517   0.171 -0.6751 -0.4638 -0.7339
  452TMC3    C2 6782   2.468   3.389   0.176 -0.1368  0.1714  0.3632
  452TMC3    C3 6783   2.389   3.347   0.071 -0.0271  0.1938 -1.0242
  452TMC3    C4 6784   2.508   3.592   0.059 -0.4050  0.4983 -0.2763
  452TMC3    C5 6785   2.436   3.544  17.694  0.2262  1.2424 -0.3620
  452TMC3    C6 6786   2.377   3.416  17.700 -0.3390 -0.6941  0.4679
  452TMC3     C 6787   2.582   3.570   0.294 -0.3055 -0.5692 -0.3806
  452TMC3     O 6788   2.589   3.692   0.303 -0.5778 -0.3826 -0.2100
  452TMC3     H 6789   2.472   3.320   0.260  0.4415 -1.0830 -0.6887
  452TMC3    H1 6790   2.550   3.692   0.064 -0.1143  0.3770 -0.2974
  452TMC3    H2 6791   2.329   3.365  17.617 -2.1071 -0.4586  1.3568
  452TMC3    C7 6792   2.414   3.641  17.596 -0.8629  0.4499 -0.2831
  452TMC3    C8 6793   2.311   3.222   0.078 -0.1220 -0.2625  0.4436
  452TMC3    O1 6794   2.487   3.742  17.593  0.7375  0.5026  0.1182
  452TMC3    O2 6795   2.319   3.151  17.721 -0.5171  0.0114  0.2040
  453TMC3    C1 6796   2.783   1.278  12.042 -0.1887  0.3834  0.8328
  453TMC3    C2 6797   2.727   1.176  12.114 -0.4691  0.2426  0.1589
  453TMC3    C3 6798   2.588   1.161  12.112 -0.4693  0.3701 -0.9746
  453TMC3    C4 6799   2.707   1.352  11.947 -0.7362 -0.2420  0.0268
  453TMC3    C5 6800   2.574   1.326  11.942 -0.6998 -0.6017  0.1263
  453TMC3    C6 6801   2.508   1.232  12.025 -0.0670  0.8893  0.5030
  453TMC3     C 6802   2.924   1.264  12.008 -0.8645  0.0116  0.2359
  453TMC3     O 6803   2.993   1.362  12.000 -0.0477 -0.1172  0.3370
  453TMC3     H 6804   2.789   1.135  12.193  0.9199 -0.5641 -1.3430
  453TMC3    H1 6805   2.760   1.418  11.880 -1.0614 -1.5595 -1.5415
  453TMC3    H2 6806   2.407   1.193  12.012  0.6651 -0.5961 -0.8838
  453TMC3    C7 6807   2.492   1.353  11.825  0.5383  0.3920 -0.0689
  453TMC3    C8 6808   2.528   1.049  12.181  0.1714 -0.1962  0.0217
  453TMC3    O1 6809   2.418   1.259  11.795 -0.1244  0.0099 -0.2573
  453TMC3    O2 6810   2.405   1.045  12.189  0.2906  0.3801 -0.3597
  454MPD2     C 6811   2.378   0.419  15.732  0.3460 -0.0947  0.8507
  454MPD2    C1 6812   2.279   0.515  15.734 -0.9300  0.7481  0.1480
  454MPD2    C2 6813   2.283   0.610  15.834 -0.5284  0.8428  0.1997
  454MPD2    C3 6814   2.367   0.592  15.940  0.1162 -0.1320 -0.3781
  454MPD2    C4 6815   2.466   0.496  15.930 -0.1438  0.3985  0.2450
  454MPD2    C5 6816   2.470   0.403  15.827 -0.2857 -0.8029 -0.6726
  454MPD2     H 6817   2.207   0.687  15.836 -0.4814  0.8911  0.0566
  454MPD2    H1 6818   2.532   0.483  16.015  0.7862 -1.2187 -0.7290
  454MPD2    H2 6819   2.377   0.350  15.648  0.0380 -0.7193  1.3649
  454MPD2    H3 6820   2.546   0.329  15.808  2.0233  0.9274  1.8282
  454MPD2     N 6821   2.356   0.666  16.064 -0.1437  0.7611  0.1839
  454MPD2    H5 6822   2.410   0.638  16.146 -0.7812 -1.5657 -0.1764
  454MPD2    N1 6823   2.172   0.514  15.643  0.5573 -0.2934 -0.2540
  454MPD2    H7 6824   2.108   0.592  15.646  0.0118 -0.6960 -1.5946
  455TMC3    C1 6825   2.228   0.725  16.247 -0.6138  0.3345  0.4070
  455TMC3    C2 6826   2.136   0.815  16.283  0.1809 -0.1511  0.6095
  455TMC3    C3 6827   2.010   0.777  16.335  0.1679 -0.8185  0.2802
  455TMC3    C4 6828   2.196   0.590  16.268  0.2066 -0.1516  0.8396
  455TMC3    C5 6829   2.072   0.555  16.308 -0.2808 -0.1269  0.1689
  455TMC3    C6 6830   1.981   0.647  16.346 -0.0195 -0.2041  0.2458
  455TMC3     C 6831   2.262   0.749  16.110 -0.3347  0.6780 -0.1804
  455TMC3     O 6832   2.184   0.816  16.039  0.1293  0.3043  0.2464
  455TMC3     H 6833   2.146   0.918  16.251  0.9693 -0.2942  0.3865
  455TMC3    H1 6834   2.263   0.511  16.237  0.9508  1.4751 -1.6983
  455TMC3    H2 6835   1.881   0.619  16.377  0.6609 -0.8956  1.7781
  455TMC3    C7 6836   2.010   0.450  16.226  0.5347 -0.1832  1.1892
  455TMC3    C8 6837   1.921   0.876  16.381 -0.1159  0.1876  0.5361
  455TMC3    O1 6838   1.896   0.415  16.259 -0.3456 -0.2320  0.6130
  455TMC3    O2 6839   1.969   0.986  16.417 -0.4422 -0.8417  0.5443
  456MPD2     C 6840   4.418   0.395  16.571 -0.8930 -0.1830  0.7942
  456MPD2    C1 6841   4.546   0.384  16.620  0.8844  0.1423  0.2855
  456MPD2    C2 6842   4.583   0.464  16.724  0.0211  0.6517 -0.4904
  456MPD2    C3 6843   4.491   0.563  16.767 -0.2821  0.1631 -0.2849
  456MPD2    C4 6844   4.367   0.578  16.709  0.2104 -0.2795 -0.1523
  456MPD2    C5 6845   4.331   0.482  16.622 -0.0611  0.3885 -0.8762
  456MPD2     H 6846   4.677   0.470  16.776  0.9549  0.8025 -2.1891
  456MPD2    H1 6847   4.297   0.652  16.747  1.5470  0.1859  1.3671
  456MPD2    H2 6848   4.378   0.327  16.496 -0.8911  0.9925 -0.2617
  456MPD2    H3 6849   4.226   0.488  16.595 -0.7599 -1.9503  1.3224
  456MPD2     N 6850   4.531   0.626  16.888 -0.0577 -0.0644 -0.4063
  456MPD2    H5 6851   4.624   0.609  16.924 -0.8148 -3.1244  0.1056
  456MPD2    N1 6852   4.641   0.301  16.553 -0.0496  0.4333 -0.1968
  456MPD2    H7 6853   4.612   0.242  16.475 -0.3399  0.2082  0.0768
  457TMC3    C1 6854   4.505   0.762  17.073 -0.6239  0.2560 -0.2610
  457TMC3    C2 6855   4.505   0.894  17.113 -0.1652 -0.6967  0.4768
  457TMC3    C3 6856   4.517   0.922  17.245  0.4713  0.5135 -0.3344
  457TMC3    C4 6857   4.523   0.655  17.159  0.2133  0.0044  0.0581
  457TMC3    C5 6858   4.517   0.694  17.293  0.5450 -0.4088 -0.4961
  457TMC3    C6 6859   4.534   0.824  17.340 -0.2090 -0.5942 -0.2314
  457TMC3     C 6860   4.466   0.740  16.936  0.0734  0.2818  0.5734
  457TMC3     O 6861   4.392   0.824  16.883 -0.1461  0.2353  0.1915
  457TMC3     H 6862   4.509   0.962  17.029 -0.4446 -2.1842 -0.7284
  457TMC3    H1 6863   4.507   0.554  17.122 -2.8479  1.6073 -2.9916
  457TMC3    H2 6864   4.559   0.846  17.443  0.0214  1.6997 -0.7919
  457TMC3    C7 6865   4.504   0.587  17.387  0.1512  0.2564 -0.5310
  457TMC3    C8 6866   4.562   1.054  17.286 -0.2063  0.1204 -0.3723
  457TMC3    O1 6867   4.504   0.474  17.342 -0.2412  0.1703  0.1000
  457TMC3    O2 6868   4.630   1.061  17.387  0.1103  0.4499 -0.1386
  458MPD2     C 6869   2.571   4.183  12.120  0.1098 -0.1840 -0.3298
  458MPD2    C1 6870   2.496   4.284  12.178  0.1214 -0.4575 -0.1469
  458MPD2    C2 6871   2.391   4.333  12.109 -0.0073  0.8872  0.1684
  458MPD2    C3 6872   2.352   4.277  11.985  0.5270 -0.0151  0.4144
  458MPD2    C4 6873   2.429   4.179  11.925 -0.2111 -0.2449 -0.5104
  458MPD2    C5 6874   2.544   4.137  11.992 -0.1992  0.3947 -0.1706
  458MPD2     H 6875   2.329   4.405  12.162 -2.6393 -1.2031 -0.0200
  458MPD2    H1 6876   2.409   4.130  11.831  0.4605  2.0348 -1.8367
  458MPD2    H2 6877   2.652   4.128  12.165  0.5110  2.0682  1.6925
  458MPD2    H3 6878   2.608   4.064  11.944 -0.5911  0.1839 -0.3717
  458MPD2     N 6879   2.239   4.332  11.925  0.1582 -0.7451  0.0254
  458MPD2    H5 6880   2.196   4.406  11.980  1.0668 -1.8723  2.2601
  458MPD2    N1 6881   2.538   4.330  12.307  0.3260 -0.1240 -0.0523
  458MPD2    H7 6882   2.621   4.286  12.345  0.6662 -0.4083 -1.1218
  459TMC3    C1 6883   2.566   4.470  12.489 -0.1208 -0.1384  0.7714
  459TMC3    C2 6884   2.567   4.594  12.534 -0.0277  0.1943 -0.0748
  459TMC3    C3 6885   2.641   4.622  12.639  0.0508  0.2657  0.2813
  459TMC3    C4 6886   2.623   4.364  12.557 -0.3698 -0.1744  0.1872
  459TMC3    C5 6887   2.710   4.395  12.670  0.5971 -0.4903  0.5075
  459TMC3    C6 6888   2.720   4.529  12.704  0.0750  0.2671  0.7752
  459TMC3     C 6889   2.496   4.446  12.363  0.5049 -0.3970 -0.5343
  459TMC3     O 6890   2.414   4.529  12.326 -0.6971 -0.4636  0.2175
  459TMC3     H 6891   2.508   4.673  12.488  0.3552  0.0882 -0.7491
  459TMC3    H1 6892   2.609   4.260  12.530  1.1282 -0.4884  0.6535
  459TMC3    H2 6893   2.784   4.571  12.781  1.6438  1.3847 -1.1295
  459TMC3    C7 6894   2.743   4.288  12.760 -0.6553 -0.0220  0.0092
  459TMC3    C8 6895   2.637   0.029  12.680  0.9844 -0.3323 -0.2040
  459TMC3    O1 6896   2.732   4.172  12.718  0.4346  0.5403 -0.1950
  459TMC3    O2 6897   2.524   0.069  12.699  0.5530  0.7127  0.1462
  460MPD2     C 6898   0.720   1.707  10.840  0.3564 -0.1553 -0.1376
  460MPD2    C1 6899   0.814   1.637  10.770  0.0792 -0.3751  0.2719
  460MPD2    C2 6900   0.856   1.683  10.640  0.2165  0.3160  0.1635
  460MPD2    C3 6901   0.807   1.806  10.592 -0.0439  0.7896  0.7173
  460MPD2    C4 6902   0.713   1.874  10.670  0.2924 -0.2043 -0.8376
  460MPD2    C5 6903   0.676   1.824  10.787 -0.5865 -0.2054 -1.3208
  460MPD2     H 6904   0.930   1.626  10.585  0.1189  1.4898 -1.1632
  460MPD2    H1 6905   0.674   1.971  10.643  0.3451 -0.2125 -0.9419
  460MPD2    H2 6906   0.683   1.662  10.931 -0.2205  1.4272  0.4068
  460MPD2    H3 6907   0.604   1.881  10.845 -0.5170 -3.6106  2.0923
  460MPD2     N 6908   0.850   1.849  10.465  0.0339  0.4679  0.1004
  460MPD2    H5 6909   0.930   1.805  10.421  1.3102  1.1863  1.6702
  460MPD2    N1 6910   0.859   1.514  10.812 -0.0919 -0.5024 -0.0578
  460MPD2    H7 6911   0.811   1.476  10.893  0.3570 -0.8089  0.0716
  461TMC3    C1 6912   0.865   1.956  10.265  0.6367 -0.3905  0.2528
  461TMC3    C2 6913   0.842   1.844  10.191  0.4249  0.2515 -0.1715
  461TMC3    C3 6914   0.787   1.860  10.064  0.0305 -0.6701  0.0801
  461TMC3    C4 6915   0.844   2.080  10.215 -0.5550  0.4254  0.2427
  461TMC3    C5 6916   0.810   2.097  10.084 -0.4304  0.6865 -0.0933
  461TMC3    C6 6917   0.772   1.987  10.014  0.0680 -0.9598 -0.5588
  461TMC3     C 6918   0.816   1.957  10.403 -0.2832  0.2786  0.3890
  461TMC3     O 6919   0.738   2.045  10.437 -0.8247  0.4888  0.7652
  461TMC3     H 6920   0.864   1.747  10.233  0.1348 -0.0220 -0.6536
  461TMC3    H1 6921   0.879   2.165  10.273 -4.4386  1.3139  1.2641
  461TMC3    H2 6922   0.749   1.994   9.909  2.6468  2.1268 -0.9253
  461TMC3    C7 6923   0.736   2.221  10.049  0.3234 -0.6058 -0.1817
  461TMC3    C8 6924   0.827   1.774   9.960  0.5091  0.4024 -0.0819
  461TMC3    O1 6925   0.696   2.233   9.931 -0.2233  0.2293  0.4318
  461TMC3    O2 6926   0.940   1.729   9.967  0.4029  0.2063 -0.1518
  462TMC3    C1 6927   1.294   3.383   0.363  0.0273  0.4351 -0.0649
  462TMC3    C2 6928   1.416   3.357   0.311  0.5540  0.4758 -0.3515
  462TMC3    C3 6929   1.426   3.304   0.194 -0.7738  0.8815  0.2394
  462TMC3    C4 6930   1.170   3.342   0.316  0.1321 -0.1103  0.2863
  462TMC3    C5 6931   1.185   3.285   0.190  0.6542 -0.4474 -0.6114
  462TMC3    C6 6932   1.309   3.260   0.135 -0.9705 -0.0160  0.5021
  462TMC3     C 6933   1.298   3.488   0.456 -0.2570  0.5877 -0.6803
  462TMC3     O 6934   1.399   3.503   0.521 -0.1980  0.1479  0.2548
  462TMC3     H 6935   1.501   3.415   0.345 -0.7852  1.5766  1.0646
  462TMC3    H1 6936   1.076   3.360   0.367  0.6001 -0.9164  1.4444
  462TMC3    H2 6937   1.315   3.232   0.030 -0.9094  0.1810  0.4532
  462TMC3    C7 6938   1.076   3.230   0.116 -0.3680  0.2733  0.1049
  462TMC3    C8 6939   1.547   3.325   0.115  0.2057 -0.6188 -0.4782
  462TMC3    O1 6940   1.102   3.164   0.014  0.0320 -0.9150 -0.1974
  462TMC3    O2 6941   1.608   3.427   0.138  0.1992 -0.3047  0.3284
  463MPD2     C 6942   3.085   1.740   1.370  0.3699  0.7494  0.3862
  463MPD2    C1 6943   2.963   1.795   1.395 -0.0347 -0.6944  0.0231
  463MPD2    C2 6944   2.953   1.916   1.458  0.0132 -0.4911 -0.2019
  463MPD2    C3 6945   3.062   1.991   1.488 -0.0541  0.3371 -0.0346
  463MPD2    C4 6946   3.182   1.946   1.439  0.0846 -0.6382 -0.1210
  463MPD2    C5 6947   3.192   1.823   1.381  0.6064  0.1553  0.4904
  463MPD2     H 6948   2.852   1.954   1.473  0.0033 -0.1990 -1.0513
  463MPD2    H1 6949   3.261   2.019   1.435 -0.0901 -0.3103  2.4358
  463MPD2    H2 6950   3.097   1.645   1.319  0.8955  1.5565 -0.9828
  463MPD2    H3 6951   3.292   1.797   1.347  1.9501  3.3806  1.9326
  463MPD2     N 6952   3.049   2.127   1.541 -0.3745  0.1739  0.1691
  463MPD2    H5 6953   3.133   2.183   1.550 -0.3513  0.3875 -1.3753
  463MPD2    N1 6954   2.849   1.729   1.367 -0.1422 -0.1992 -0.2649
  463MPD2    H7 6955   2.768   1.786   1.389  0.0668  0.1076 -0.2824
  464TMC3    C1 6956   2.688   1.578   1.289 -0.2043 -0.5035  0.3602
  464TMC3    C2 6957   2.595   1.667   1.333 -0.1327 -0.1652  0.0834
  464TMC3    C3 6958   2.469   1.624   1.357 -0.8301  0.1261  0.2952
  464TMC3    C4 6959   2.653   1.447   1.258  0.6589  0.0083  0.6567
  464TMC3    C5 6960   2.522   1.409   1.280 -0.4975  0.1574 -0.1150
  464TMC3    C6 6961   2.427   1.500   1.326 -0.1089  0.2656 -0.2243
  464TMC3     C 6962   2.831   1.612   1.308  0.3398 -0.1661  0.3353
  464TMC3     O 6963   2.915   1.536   1.258  0.0073 -0.6309 -0.0647
  464TMC3     H 6964   2.619   1.772   1.343 -2.5445  0.6367 -2.6243
  464TMC3    H1 6965   2.724   1.376   1.217  0.1552 -0.1403  0.0406
  464TMC3    H2 6966   2.325   1.478   1.353  0.3001 -1.4086 -0.0401
  464TMC3    C7 6967   2.483   1.281   1.224  0.5744 -1.3878 -0.5961
  464TMC3    C8 6968   2.365   1.717   1.400 -0.1921  0.3079  0.0192
  464TMC3    O1 6969   2.568   1.210   1.169  0.1592  0.1555 -0.0503
  464TMC3    O2 6970   2.251   1.689   1.366 -0.2648  0.2147 -0.1867
  465MPD2     C 6971   4.047   0.740  17.282  1.0316 -0.8629 -0.5445
  465MPD2    C1 6972   3.916   0.697  17.271 -0.2036 -0.0474  0.5610
  465MPD2    C2 6973   3.867   0.650  17.150  0.3997  0.0841  0.3799
  465MPD2    C3 6974   3.940   0.672  17.028  0.1008  0.6141  0.3719
  465MPD2    C4 6975   4.068   0.714  17.041  0.3948  0.4184 -0.1078
  465MPD2    C5 6976   4.117   0.748  17.164 -0.3943 -0.4872  0.0824
  465MPD2     H 6977   3.766   0.612  17.142  1.2172 -1.8528 -0.9588
  465MPD2    H1 6978   4.132   0.727  16.954 -1.1316 -0.5530 -1.3574
  465MPD2    H2 6979   4.092   0.760  17.378  2.7414 -1.9826 -1.1055
  465MPD2    H3 6980   4.222   0.776  17.168  0.2303 -2.5356 -1.6854
  465MPD2     N 6981   3.883   0.633  16.903  0.0136  0.7218  0.7076
  465MPD2    H5 6982   3.788   0.600  16.910  0.6587 -1.8657 -2.8017
  465MPD2    N1 6983   3.829   0.708  17.380  0.2449  0.8153  0.4675
  465MPD2    H7 6984   3.735   0.672  17.373  1.6022 -2.6237 -0.0703
  466TMC3    C1 6985   3.607   0.566  16.691 -0.5082 -0.1022  0.4231
  466TMC3    C2 6986   3.578   0.679  16.607  0.5100 -0.3572 -0.8607
  466TMC3    C3 6987   3.680   0.753  16.553  0.0366  0.5911  0.3565
  466TMC3    C4 6988   3.740   0.537  16.708  0.2046 -0.2969  0.1146
  466TMC3    C5 6989   3.843   0.626  16.672 -0.0904  0.3848  0.4586
  466TMC3    C6 6990   3.814   0.739  16.591  0.4873 -0.2018 -0.4214
  466TMC3     C 6991   3.538   0.558  16.813  0.2967  0.3012 -0.2096
  466TMC3     O 6992   3.611   0.545  16.912 -0.3160 -0.1947  0.0422
  466TMC3     H 6993   3.475   0.708  16.589  1.6745  2.7702 -2.3484
  466TMC3    H1 6994   3.777   0.451  16.764  2.3736  0.6990  0.2339
  466TMC3    H2 6995   3.881   0.821  16.570  2.6976 -2.0169 -0.4737
  466TMC3    C7 6996   3.942   0.647  16.777  0.2565  0.4121  0.2030
  466TMC3    C8 6997   3.639   0.884  16.498 -0.5918  0.0332 -0.2116
  466TMC3    O1 6998   4.054   0.686  16.747  0.3384 -0.2592 -0.2860
  466TMC3    O2 6999   3.718   0.935  16.419 -0.6537  0.1408 -0.2282
  467TMC3    C1 7000   4.420   4.175  13.690 -0.0497  0.2184 -0.6801
  467TMC3    C2 7001   4.489   4.265  13.622  0.1777 -0.0718  0.3095
  467TMC3    C3 7002   4.435   4.312  13.506  0.5848 -0.0169  0.4445
  467TMC3    C4 7003   4.299   4.122  13.652 -0.4734 -0.0348  0.4715
  467TMC3    C5 7004   4.241   4.190  13.542  0.1792 -0.7732 -0.0864
  467TMC3    C6 7005   4.303   4.287  13.470  0.0671 -0.0700  0.0856
  467TMC3     C 7006   4.503   4.114  13.797 -0.1519  0.0387 -0.7469
  467TMC3     O 7007   4.529   4.192  13.885 -0.3656 -0.9144 -0.0748
  467TMC3     H 7008   4.573   4.303  13.677 -1.0962  2.6411  0.3597
  467TMC3    H1 7009   4.250   4.037  13.699 -0.9317  0.2197  0.4550
  467TMC3    H2 7010   4.267   4.321  13.374 -1.6117  2.2581  1.5260
  467TMC3    C7 7011   4.116   4.143  13.482  0.2082 -0.1420 -0.2864
  467TMC3    C8 7012   4.523   4.372  13.417  0.7027  0.5217 -0.2312
  467TMC3    O1 7013   4.097   4.186  13.368  0.2879  0.0565  0.3071
  467TMC3    O2 7014   4.475   4.418  13.314  0.1078  0.2844 -0.5936
  468MPD2     C 7015   2.760   1.896  10.710 -0.1980  0.2856  0.2177
  468MPD2    C1 7016   2.873   1.964  10.758  0.1677 -0.3388 -0.2094
  468MPD2    C2 7017   2.990   1.895  10.767  0.1748 -0.0909  0.2057
  468MPD2    C3 7018   3.004   1.760  10.738  0.2129  0.1606 -0.6421
  468MPD2    C4 7019   2.889   1.695  10.692  0.4898 -0.3778  0.1106
  468MPD2    C5 7020   2.772   1.764  10.670  0.1319  0.1215  0.6304
  468MPD2     H 7021   3.075   1.949  10.808  1.5757  0.0545 -2.9008
  468MPD2    H1 7022   2.885   1.587  10.682 -0.6028 -0.3764  0.4559
  468MPD2    H2 7023   2.667   1.948  10.692 -0.1754  0.4924  0.6810
  468MPD2    H3 7024   2.677   1.715  10.652  0.8341 -1.2928  0.7499
  468MPD2     N 7025   3.106   1.675  10.781 -0.6724  0.2981  0.3927
  468MPD2    H5 7026   3.078   1.580  10.757 -2.2979  0.9178 -0.1857
  468MPD2    N1 7027   2.873   2.092  10.812 -0.4860 -0.4949  0.1778
  468MPD2    H7 7028   2.958   2.118  10.861  0.4121 -1.9344 -0.6126
  469TMC3    C1 7029   2.780   2.290  10.915 -0.8139 -0.5450 -0.2025
  469TMC3    C2 7030   2.911   2.324  10.935 -0.0833 -0.3241  0.1590
  469TMC3    C3 7031   2.950   2.370  11.058  0.5405 -0.5769  0.2963
  469TMC3    C4 7032   2.695   2.278  11.023 -0.1480  0.1954 -0.6290
  469TMC3    C5 7033   2.737   2.318  11.149  0.5187 -0.2628 -0.0316
  469TMC3    C6 7034   2.862   2.380  11.163  0.2989 -0.8667  0.2180
  469TMC3     C 7035   2.764   2.182  10.817 -0.2964 -0.0577  0.0761
  469TMC3     O 7036   2.650   2.159  10.773  0.0851 -0.7714  0.0948
  469TMC3     H 7037   2.977   2.342  10.851 -1.8639  2.4651 -0.6568
  469TMC3    H1 7038   2.593   2.242  11.008 -1.6309  4.4813 -0.7996
  469TMC3    H2 7039   2.889   2.427  11.257 -0.4990  0.3448 -0.1647
  469TMC3    C7 7040   2.632   2.349  11.247  0.0650 -0.2062  0.3754
  469TMC3    C8 7041   3.094   2.380  11.081  0.7001 -0.1001  0.1149
  469TMC3    O1 7042   2.520   2.385  11.205 -0.1421  0.1741  0.4327
  469TMC3    O2 7043   3.160   2.390  10.976  0.4387  0.0357 -0.3604
  470TMC3    C1 7044   0.604   2.611   0.552 -0.3762  0.1271 -0.3940
  470TMC3    C2 7045   0.738   2.620   0.573  0.2855  0.8876 -0.2037
  470TMC3    C3 7046   0.783   2.675   0.694 -0.4716 -1.2091 -0.1916
  470TMC3    C4 7047   0.511   2.648   0.638  0.2250  0.5572 -0.0276
  470TMC3    C5 7048   0.562   2.704   0.750  0.6392  0.2499 -0.9676
  470TMC3    C6 7049   0.694   2.721   0.787 -0.5992  0.4738  0.2622
  470TMC3     C 7050   0.569   2.563   0.419 -0.5957 -0.2876  0.2653
  470TMC3     O 7051   0.651   2.493   0.363  0.0140 -0.0345 -0.0867
  470TMC3     H 7052   0.810   2.589   0.498 -0.1636  0.9248 -0.6502
  470TMC3    H1 7053   0.405   2.650   0.618 -0.0387  0.9908  1.4480
  470TMC3    H2 7054   0.739   2.753   0.881 -2.1687  1.3723  0.6963
  470TMC3    C7 7055   0.474   2.745   0.862  0.4556 -0.3584  0.0023
  470TMC3    C8 7056   0.931   2.699   0.715 -0.0636  0.1117 -0.0507
  470TMC3    O1 7057   0.363   2.694   0.866  0.0828 -0.4069  0.0402
  470TMC3    O2 7058   0.955   2.791   0.791  0.0886  0.7127  0.2707
  471MPD2     C 7059   1.085   4.426  16.974 -0.2488  0.7228 -0.0752
  471MPD2    C1 7060   1.195   4.447  16.896 -0.1080 -0.1673  0.5183
  471MPD2    C2 7061   1.312   4.440  16.970  0.4232 -0.2438 -0.4260
  471MPD2    C3 7062   1.326   4.424  17.101 -0.0210 -0.3328  0.3237
  471MPD2    C4 7063   1.212   4.417  17.176  0.3905  0.2063 -0.7765
  471MPD2    C5 7064   1.089   4.414  17.111  0.8955 -0.0519  0.1702
  471MPD2     H 7065   1.394   4.438  16.899  1.0293  1.2484  0.2387
  471MPD2    H1 7066   1.214   4.391  17.282 -1.0052 -1.4027 -1.1549
  471MPD2    H2 7067   0.990   4.412  16.924 -0.7956  0.9331  0.9213
  471MPD2    H3 7068   0.997   4.393  17.165  0.4441  0.9994 -0.1932
  471MPD2     N 7069   1.448   4.403  17.170  0.4211 -0.0376 -0.2284
  471MPD2    H5 7070   1.432   4.381  17.267 -1.1901  0.5908 -0.3489
  471MPD2    N1 7071   1.201   4.423  16.757  0.1190  0.0922  0.0977
  471MPD2    H7 7072   1.292   4.443  16.717 -0.3300 -0.3597 -1.1504
  472TMC3    C1 7073   1.136   4.370  16.540 -0.1221 -0.2142  0.3437
  472TMC3    C2 7074   1.042   4.407  16.450 -0.3209 -0.2754 -0.4417
  472TMC3    C3 7075   1.070   4.389  16.317 -0.3778 -0.0983  0.0818
  472TMC3    C4 7076   1.245   4.292  16.508 -0.0968  0.2656  0.2943
  472TMC3    C5 7077   1.256   4.258  16.376 -0.3958 -0.1517  0.1935
  472TMC3    C6 7078   1.180   4.320  16.283  0.4236  0.3161 -0.2371
  472TMC3     C 7079   1.096   4.390  16.677 -1.2733 -0.3462  0.5248
  472TMC3     O 7080   0.972   4.388  16.691  0.3520 -0.0815 -0.4841
  472TMC3     H 7081   0.950   4.458  16.473  0.4568  1.2941 -0.8108
  472TMC3    H1 7082   1.308   4.248  16.585  0.8352  1.5541  0.2752
  472TMC3    H2 7083   1.203   4.303  16.178 -2.0273  0.3563 -0.7604
  472TMC3    C7 7084   1.253   4.116  16.365  0.9123  0.2410  0.2097
  472TMC3    C8 7085   0.970   4.345  16.228  0.3681  0.1881 -0.9670
  472TMC3    O1 7086   1.270   4.057  16.468 -0.2480  0.0552  0.2601
  472TMC3    O2 7087   0.982   4.361  16.107 -0.1694  0.0300  0.0349
  473MPD2     C 7088   1.220   1.453  13.816 -0.1914 -0.3420 -0.0905
  473MPD2    C1 7089   1.264   1.524  13.701  0.7473  0.4779  0.6523
  473MPD2    C2 7090   1.356   1.630  13.723  0.0890  0.3026 -0.1744
  473MPD2    C3 7091   1.374   1.682  13.849 -0.5171 -0.0440 -0.3490
  473MPD2    C4 7092   1.345   1.599  13.963 -0.1919 -0.3419  0.1859
  473MPD2    C5 7093   1.270   1.487  13.940  0.2549  0.0974 -0.9618
  473MPD2     H 7094   1.390   1.676  13.631 -0.4146  0.6906 -0.1694
  473MPD2    H1 7095   1.380   1.622  14.063 -2.3207 -1.6511  1.2413
  473MPD2    H2 7096   1.141   1.379  13.809 -0.8012  0.1770  1.1878
  473MPD2    H3 7097   1.253   1.422  14.025  1.0323  0.1269 -0.7861
  473MPD2     N 7098   1.441   1.798  13.872  0.0658 -0.1158 -0.2781
  473MPD2    H5 7099   1.459   1.812  13.971 -1.5246  0.7904 -0.1238
  473MPD2    N1 7100   1.220   1.497  13.567  0.3487  0.6447  0.4373
  473MPD2    H7 7101   1.240   1.567  13.495  1.3516  1.3197  1.3694
  474TMC3    C1 7102   1.511   2.029  13.834 -0.4412  0.6395 -0.7159
  474TMC3    C2 7103   1.437   2.145  13.813  0.1504 -0.2198  0.0104
  474TMC3    C3 7104   1.475   2.248  13.896  0.6547 -0.5442  0.1094
  474TMC3    C4 7105   1.604   2.021  13.927 -0.5671 -0.2937  0.7253
  474TMC3    C5 7106   1.629   2.129  14.006 -0.6849  0.3480  0.6021
  474TMC3    C6 7107   1.568   2.251  13.989 -0.0119 -0.2076  0.4622
  474TMC3     C 7108   1.462   1.899  13.777 -0.6830  0.7625  0.4600
  474TMC3     O 7109   1.430   1.905  13.657 -0.0963  0.6914  0.8937
  474TMC3     H 7110   1.356   2.163  13.743 -0.9572 -1.6250  0.9250
  474TMC3    H1 7111   1.657   1.930  13.951 -1.5767 -1.4528 -1.3836
  474TMC3    H2 7112   1.588   2.328  14.063  0.1791  0.8431 -0.6896
  474TMC3    C7 7113   1.733   2.111  14.099 -0.1422 -0.5805 -0.1005
  474TMC3    C8 7114   1.389   2.367  13.876  0.3747  0.0434  0.3839
  474TMC3    O1 7115   1.838   2.046  14.073  0.3686  0.3650  0.1809
  474TMC3    O2 7116   1.284   2.350  13.821  0.4634  0.3132 -0.3895
  475MPD2     C 7117   4.238   3.845   9.494 -0.6945  0.1013  0.6676
  475MPD2    C1 7118   4.243   3.930   9.597  0.4009  0.3513 -0.4445
  475MPD2    C2 7119   4.149   3.925   9.697 -0.2370  0.2356  0.0377
  475MPD2    C3 7120   4.035   3.850   9.675 -0.2807 -0.2558  0.9577
  475MPD2    C4 7121   4.033   3.755   9.571  0.2857 -0.5585  0.0035
  475MPD2    C5 7122   4.144   3.752   9.489  0.2713  0.6987 -0.9262
  475MPD2     H 7123   4.153   3.992   9.782 -0.9271 -0.0765  0.3192
  475MPD2    H1 7124   3.951   3.685   9.563 -0.5751  0.2559  1.6468
  475MPD2    H2 7125   4.322   3.853   9.426  0.8519 -0.1521  2.5589
  475MPD2    H3 7126   4.147   3.687   9.402  0.0775 -0.1832 -0.2714
  475MPD2     N 7127   3.916   3.881   9.748  0.7470 -0.2013 -0.0291
  475MPD2    H5 7128   3.928   3.946   9.825 -4.2028  1.3559 -0.5626
  475MPD2    N1 7129   4.345   4.025   9.589 -0.2690 -0.5609 -0.5192
  475MPD2    H7 7130   4.373   4.054   9.495 -0.0355 -0.6207 -0.4674
  476TMC3    C1 7131   4.370   4.254   9.645  0.3463  0.5717 -0.1296
  476TMC3    C2 7132   4.261   4.286   9.574  0.4054  0.3785 -0.0935
  476TMC3    C3 7133   4.208   4.412   9.599  0.2449 -0.9534  0.5099
  476TMC3    C4 7134   4.447   4.337   9.720 -0.7049  0.0242 -1.2767
  476TMC3    C5 7135   4.400   4.462   9.741  0.2846  0.0195  0.5000
  476TMC3    C6 7136   4.286   4.504   9.674 -0.1549  0.7402  0.6698
  476TMC3     C 7137   4.367   4.115   9.689 -0.1625  0.3455 -0.2704
  476TMC3     O 7138   4.372   4.104   9.809  0.0746  0.5718 -0.0919
  476TMC3     H 7139   4.210   4.214   9.511 -1.4022  0.6117  1.0659
  476TMC3    H1 7140   4.513   4.305   9.800 -1.0358  2.4243 -0.0555
  476TMC3    H2 7141   4.252   4.607   9.678 -0.5658  0.5985  0.8574
  476TMC3    C7 7142   4.485   4.556   9.807 -0.3616 -0.0347  0.6577
  476TMC3    C8 7143   4.064   4.430   9.605 -0.0832 -0.0247 -0.0642
  476TMC3    O1 7144   4.609   4.548   9.812  0.2283 -0.1777  0.4987
  476TMC3    O2 7145   4.026   4.523   9.669 -0.1046 -0.0552 -0.0368
  477MPD2     C 7146   1.836   0.466  10.977 -0.0254 -0.8070 -0.4229
  477MPD2    C1 7147   1.740   0.479  11.068  0.3516  0.2427 -0.2159
  477MPD2    C2 7148   1.772   0.472  11.203 -0.3364  0.2558 -0.2305
  477MPD2    C3 7149   1.900   0.436  11.246  0.3835  0.4548 -0.3973
  477MPD2    C4 7150   1.993   0.397  11.148 -0.0765 -0.0382 -0.0567
  477MPD2    C5 7151   1.956   0.421  11.020  0.9591  0.2806 -0.7113
  477MPD2     H 7152   1.696   0.491  11.277 -1.6313  2.1906 -2.0614
  477MPD2    H1 7153   2.090   0.352  11.167  0.4979  0.8918 -0.8273
  477MPD2    H2 7154   1.822   0.481  10.871  0.3187  0.4022 -0.2957
  477MPD2    H3 7155   2.030   0.403  10.942 -0.4969  0.7489 -2.1927
  477MPD2     N 7156   1.930   0.431  11.383  0.5503  0.2058 -0.5896
  477MPD2    H5 7157   1.854   0.457  11.445  1.7774 -1.4361  1.6003
  477MPD2    N1 7158   1.621   0.542  11.018 -0.2034 -0.2775  0.4161
  477MPD2    H7 7159   1.618   0.553  10.917 -1.4975 -0.3483  0.4522
  478TMC3    C1 7160   1.388   0.582  11.008  0.1138 -0.5527  0.1092
  478TMC3    C2 7161   1.263   0.559  11.053  0.1024 -0.3939 -0.3927
  478TMC3    C3 7162   1.150   0.618  10.993 -0.0629 -1.3170  0.4741
  478TMC3    C4 7163   1.404   0.673  10.905  0.2923 -0.2413  0.5457
  478TMC3    C5 7164   1.293   0.721  10.840 -0.4934  0.2006 -0.1189
  478TMC3    C6 7165   1.169   0.689  10.881 -0.1487 -0.3198 -0.2723
  478TMC3     C 7166   1.505   0.553  11.090 -0.1107 -0.7018 -0.3792
  478TMC3     O 7167   1.481   0.512  11.207  0.4972 -0.2081 -0.6734
  478TMC3     H 7168   1.256   0.485  11.132 -0.6741 -1.5197 -1.5076
  478TMC3    H1 7169   1.501   0.698  10.863 -0.4590  3.4852  1.0746
  478TMC3    H2 7170   1.080   0.718  10.827  1.1015  0.1386 -2.0674
  478TMC3    C7 7171   1.309   0.830  10.753  0.1648  0.0599  0.2300
  478TMC3    C8 7172   1.046   0.670  11.079 -0.6762  0.0896  0.9456
  478TMC3    O1 7173   1.421   0.885  10.759 -0.2924  0.4983 -0.0672
  478TMC3    O2 7174   0.977   0.758  11.032  0.4176 -0.3977 -0.3598
  479MPD2     C 7175   1.180   3.992  15.197  0.1361 -0.0043  0.0509
  479MPD2    C1 7176   1.101   3.932  15.296  0.4395  0.1363 -0.1181
  479MPD2    C2 7177   1.125   3.961  15.424  0.4088 -0.0250  0.1623
  479MPD2    C3 7178   1.214   4.059  15.466 -0.1284 -0.6600 -0.5409
  479MPD2    C4 7179   1.283   4.124  15.369  0.3327 -0.0397 -1.0329
  479MPD2    C5 7180   1.266   4.095  15.235 -0.1681 -0.6810 -0.0892
  479MPD2     H 7181   1.071   3.904  15.498  0.0781 -0.7982 -0.6699
  479MPD2    H1 7182   1.346   4.204  15.407 -1.1522  0.6310  0.0578
  479MPD2    H2 7183   1.175   3.970  15.091 -1.4036  1.2305 -0.1264
  479MPD2    H3 7184   1.321   4.142  15.154 -0.4029  1.2482  0.8691
  479MPD2     N 7185   1.225   4.100  15.600  0.2936 -0.1970 -0.0525
  479MPD2    H5 7186   1.308   4.153  15.624  1.0360 -2.7205  3.0351
  479MPD2    N1 7187   1.009   3.829  15.249 -0.0408 -0.2879  0.2566
  479MPD2    H7 7188   0.981   3.833  15.152  0.1300  1.7442  0.2807
  480TMC3    C1 7189   0.834   3.902  15.716  0.3374 -0.2825 -0.2019
  480TMC3    C2 7190   0.752   3.959  15.627 -0.4611 -0.0040 -0.6872
  480TMC3    C3 7191   0.796   4.067  15.546  0.0559  0.0632  0.1998
  480TMC3    C4 7192   0.951   3.957  15.739 -0.0824 -0.1804  0.8379
  480TMC3    C5 7193   0.992   4.060  15.665  0.2269  0.2204  0.8463
  480TMC3    C6 7194   0.920   4.122  15.561 -0.3649 -0.7231 -0.2241
  480TMC3     C 7195   0.803   3.781  15.793 -0.2202  0.1858  0.6682
  480TMC3     O 7196   0.894   3.711  15.835  0.2410 -0.1584  0.0958
  480TMC3     H 7197   0.660   3.909  15.600 -0.0607 -0.5687 -1.0184
  480TMC3    H1 7198   1.023   3.932  15.815  1.4129  1.0540 -0.1617
  480TMC3    H2 7199   0.964   4.202  15.502  0.8856 -1.2778 -0.0406
  480TMC3    C7 7200   1.132   4.093  15.698  0.0071 -0.7933 -0.0571
  480TMC3    C8 7201   0.715   4.091  15.424 -0.3235  0.0958 -0.3723
  480TMC3    O1 7202   1.154   4.121  15.814  0.2941  0.1400 -0.1890
  480TMC3    O2 7203   0.595   4.062  15.446 -0.4090  0.0099  0.1680
  481MPD2     C 7204   2.699   3.655  14.544 -0.2446  0.5002 -0.2825
  481MPD2    C1 7205   2.637   3.534  14.514 -0.2764 -0.1525 -0.4783
  481MPD2    C2 7206   2.564   3.468  14.615  0.0646  0.0966  0.3775
  481MPD2    C3 7207   2.556   3.523  14.742  0.1915 -0.0823  0.0254
  481MPD2    C4 7208   2.609   3.645  14.766 -0.0367  0.3985  0.9361
  481MPD2    C5 7209   2.678   3.711  14.668  0.1413  0.1151 -0.1207
  481MPD2     H 7210   2.509   3.378  14.592  0.2192  0.1074 -0.0474
  481MPD2    H1 7211   2.600   3.696  14.862 -2.6052  0.1038  0.8524
  481MPD2    H2 7212   2.766   3.712  14.482  1.0815  0.5288  1.1838
  481MPD2    H3 7213   2.728   3.804  14.692 -1.8320  1.0744  0.2639
  481MPD2     N 7214   2.491   3.458  14.853  0.1446  0.3112 -0.2712
  481MPD2    H5 7215   2.507   3.492  14.947  1.2375 -0.8848 -0.0157
  481MPD2    N1 7216   2.635   3.492  14.376 -0.3924  0.4201 -0.0986
  481MPD2    H7 7217   2.674   3.561  14.313  0.7723 -0.9118 -0.8423
  482TMC3    C1 7218   2.555   3.342  14.199 -0.1436 -0.7538  0.6266
  482TMC3    C2 7219   2.475   3.234  14.179  0.8747  0.2359  0.5263
  482TMC3    C3 7220   2.402   3.230  14.064  0.1439  0.6187 -0.4053
  482TMC3    C4 7221   2.563   3.447  14.112  0.1252  0.6740 -0.5846
  482TMC3    C5 7222   2.483   3.445  14.003 -0.0666 -0.5769 -0.1310
  482TMC3    C6 7223   2.413   3.336  13.968 -0.1546 -0.1112  0.4612
  482TMC3     C 7224   2.597   3.361  14.337  0.3806 -0.5951 -0.5348
  482TMC3     O 7225   2.587   3.266  14.413  0.7398  0.7150  0.0820
  482TMC3     H 7226   2.472   3.151  14.249 -0.0002  0.9074  1.2945
  482TMC3    H1 7227   2.641   3.521  14.128  0.1404  0.6786 -0.6803
  482TMC3    H2 7228   2.336   3.334  13.891  1.2844 -4.3804 -0.8705
  482TMC3    C7 7229   2.487   3.561  13.919  0.0549 -0.3114 -0.8679
  482TMC3    C8 7230   2.339   3.097  14.024  0.4085  0.0494 -0.5652
  482TMC3    O1 7231   2.569   3.643  13.953  0.0642 -1.1143 -0.2714
  482TMC3    O2 7232   2.340   3.001  14.101  0.0833  0.1002  0.0312
  483TMC3    C1 7233   0.730   1.436   0.240  0.5160  0.2703  0.7470
  483TMC3    C2 7234   0.798   1.538   0.187  0.3873 -0.1321 -0.4483
  483TMC3    C3 7235   0.895   1.606   0.255 -0.2500 -0.5968 -0.1450
  483TMC3    C4 7236   0.756   1.399   0.373 -0.3248  0.8976  0.1986
  483TMC3    C5 7237   0.843   1.477   0.441 -0.6708 -0.3496 -0.2656
  483TMC3    C6 7238   0.920   1.573   0.383 -0.1630  0.3061 -1.3110
  483TMC3     C 7239   0.645   1.354   0.154  0.2846  0.5284 -0.4308
  483TMC3     O 7240   0.628   1.395   0.041 -0.3818  0.2892 -0.1964
  483TMC3     H 7241   0.790   1.578   0.086 -1.1323  1.3267  0.2598
  483TMC3    H1 7242   0.703   1.319   0.423 -0.0024 -0.0935 -1.0570
  483TMC3    H2 7243   1.001   1.616   0.441  0.3572 -0.0142 -1.8022
  483TMC3    C7 7244   0.894   1.418   0.556  0.3332  0.4740 -0.2427
  483TMC3    C8 7245   0.927   1.736   0.201 -0.2593 -0.6055 -0.4389
  483TMC3    O1 7246   0.889   1.295   0.558  0.7227 -0.1942  0.2063
  483TMC3    O2 7247   0.858   1.787   0.109  0.3982 -0.0514 -0.4700
  484MPD2     C 7248   2.668   0.322  12.716  0.5748  0.1327 -0.2235
  484MPD2    C1 7249   2.771   0.235  12.703  0.1093 -0.1000 -0.1538
  484MPD2    C2 7250   2.902   0.272  12.709 -0.0399  0.9021 -0.3089
  484MPD2    C3 7251   2.926   0.408  12.712 -0.5097  0.1759  0.6251
  484MPD2    C4 7252   2.824   0.494  12.731 -0.0132  0.8047  0.6534
  484MPD2    C5 7253   2.694   0.453  12.721 -0.1780  0.1831  1.0888
  484MPD2     H 7254   2.985   0.205  12.686 -1.0189 -1.1764  2.2678
  484MPD2    H1 7255   2.849   0.598  12.745 -1.7857  1.2408  0.5381
  484MPD2    H2 7256   2.564   0.292  12.712  0.8435 -0.5536 -1.9958
  484MPD2    H3 7257   2.620   0.532  12.729  0.4183  0.8231  0.1566
  484MPD2     N 7258   3.057   0.471  12.707 -0.2415 -0.0559 -0.2932
  484MPD2    H5 7259   3.069   0.571  12.700  0.5841 -0.4372 -4.5721
  484MPD2    N1 7260   2.756   0.092  12.688 -0.2735  0.0232 -0.4925
  484MPD2    H7 7261   2.838   0.033  12.678  0.0343  0.0483  1.8050
  485TMC3    C1 7262   3.295   0.487  12.682  0.4541 -0.0932 -0.4856
  485TMC3    C2 7263   3.402   0.450  12.762  0.1803 -0.0069  0.4423
  485TMC3    C3 7264   3.526   0.485  12.716  0.7041  0.3975  0.3404
  485TMC3    C4 7265   3.310   0.552  12.558 -0.1850 -0.2687 -0.6807
  485TMC3    C5 7266   3.435   0.588  12.517  0.1805 -0.0101  0.0455
  485TMC3    C6 7267   3.538   0.560  12.602 -0.0861 -0.2840 -0.3987
  485TMC3     C 7268   3.178   0.405  12.709  0.5126  0.9044 -0.7690
  485TMC3     O 7269   3.206   0.285  12.735  0.1282  0.3900  0.0568
  485TMC3     H 7270   3.397   0.407  12.862 -2.3723 -3.0409 -1.0066
  485TMC3    H1 7271   3.223   0.575  12.497 -0.9694  0.3239  0.6773
  485TMC3    H2 7272   3.634   0.570  12.552  0.7198 -0.6193  1.0566
  485TMC3    C7 7273   3.459   0.561  12.380  0.2034 -0.2365  0.2018
  485TMC3    C8 7274   3.605   0.376  12.707 -0.5135 -0.2124  0.0096
  485TMC3    O1 7275   3.422   0.455  12.333  0.1453 -0.1287 -0.0669
  485TMC3    O2 7276   3.725   0.380  12.680  0.0840  0.7149  0.0870
  486MPD2     C 7277   0.222   3.810  12.397  0.1276  0.7019  0.2750
  486MPD2    C1 7278   0.189   3.732  12.288  0.6142  0.3066 -0.3622
  486MPD2    C2 7279   0.119   3.792  12.181 -0.1373  0.4095  0.4511
  486MPD2    C3 7280   0.078   3.923  12.172  0.1826  0.0271  0.0274
  486MPD2    C4 7281   0.112   3.991  12.285  0.6459 -0.2564 -0.7423
  486MPD2    C5 7282   0.170   3.934  12.388  0.2959  0.3310 -0.4111
  486MPD2     H 7283   0.092   3.733  12.094  0.8038  1.9546 -0.9126
  486MPD2    H1 7284   0.088   4.097  12.290  0.7740 -0.1949 -1.3893
  486MPD2    H2 7285   0.269   3.781  12.491  1.2715  1.3790 -0.0898
  486MPD2    H3 7286   0.200   3.989  12.476  2.1873  0.1017 -0.9097
  486MPD2     N 7287   4.736   3.978  12.067 -0.6751 -0.1717  0.0181
  486MPD2    H5 7288   4.722   3.921  11.984  0.4579  0.4070 -0.5662
  486MPD2    N1 7289   0.238   3.595  12.282  0.0243  0.0457  0.7905
  486MPD2    H7 7290   0.287   3.563  12.364  2.4845  2.6887  0.3590
  487TMC3    C1 7291   0.248   3.370  12.224  0.0220 -0.6471 -0.0355
  487TMC3    C2 7292   0.159   3.275  12.189  0.3452 -0.1890 -0.7494
  487TMC3    C3 7293   0.166   3.154  12.249  0.3842  0.0240  0.0925
  487TMC3    C4 7294   0.347   3.348  12.313  0.2689  0.1817  0.5602
  487TMC3    C5 7295   0.363   3.221  12.364 -0.0964  0.3616 -0.0720
  487TMC3    C6 7296   0.282   3.120  12.316  0.0610 -0.4884  0.3490
  487TMC3     C 7297   0.207   3.505  12.191 -0.5003  0.0642  0.0552
  487TMC3     O 7298   0.142   3.515  12.086  0.2661 -0.1465 -0.2011
  487TMC3     H 7299   0.079   3.295  12.118  1.3546  0.3602 -1.7351
  487TMC3    H1 7300   0.414   3.425  12.351  0.9807 -0.2644  0.2094
  487TMC3    H2 7301   0.298   3.024  12.364 -0.2983  0.0520  1.5537
  487TMC3    C7 7302   0.385   3.216  12.510 -0.6051  0.5928  0.0082
  487TMC3    C8 7303   0.057   3.152  12.352  0.0194  0.1423  0.9550
  487TMC3    O1 7304   0.430   3.323  12.552 -0.2985  0.3622  0.0634
  487TMC3    O2 7305   0.012   3.259  12.390 -0.2258  0.2727 -0.6244
  488MPD2     C 7306   0.480   0.753  16.347 -0.0950 -1.1104  0.1641
  488MPD2    C1 7307   0.457   0.887  16.356 -0.4845  0.5901  0.2689
  488MPD2    C2 7308   0.376   0.934  16.464 -0.2682 -0.1477  0.1870
  488MPD2    C3 7309   0.328   0.851  16.557  0.5640  0.9640 -1.0469
  488MPD2    C4 7310   0.355   0.713  16.548 -0.1983 -0.6466  0.0025
  488MPD2    C5 7311   0.428   0.670  16.443  0.1874  0.2569  0.0955
  488MPD2     H 7312   0.337   1.035  16.454 -0.0892  0.1410  2.4670
  488MPD2    H1 7313   0.328   0.637  16.621 -1.0659 -1.8035 -1.5269
  488MPD2    H2 7314   0.532   0.704  16.265  2.1065  2.7260 -0.7431
  488MPD2    H3 7315   0.452   0.564  16.443  2.7178  0.8212  0.5165
  488MPD2     N 7316   0.258   0.916  16.663 -1.1097  0.7195  0.3691
  488MPD2    H5 7317   0.222   1.008  16.640 -0.3650  1.1361  0.8410
  488MPD2    N1 7318   0.490   0.985  16.259  0.5534  0.2373  0.2132
  488MPD2    H7 7319   0.468   1.079  16.291  0.6910 -0.1564  1.4459
  489TMC3    C1 7320   0.151   0.940  16.871  0.1987  0.2345 -0.9989
  489TMC3    C2 7321   0.073   1.037  16.800  0.4532  0.1308 -0.9985
  489TMC3    C3 7322   0.065   1.165  16.854  0.2325 -0.1260  0.5483
  489TMC3    C4 7323   0.216   0.970  16.984 -0.2923 -0.0056 -0.3705
  489TMC3    C5 7324   0.205   1.101  17.029 -0.2008 -0.3850 -0.3509
  489TMC3    C6 7325   0.136   1.198  16.963  0.5481 -0.4832 -0.3771
  489TMC3     C 7326   0.229   0.857  16.781  0.0567 -1.1933  0.7359
  489TMC3     O 7327   0.283   0.757  16.827  0.0018  0.2446  0.0742
  489TMC3     H 7328   0.022   1.014  16.708  1.8820 -1.4954 -1.3769
  489TMC3    H1 7329   0.267   0.900  17.049  1.9800  1.7802 -0.2617
  489TMC3    H2 7330   0.134   1.299  17.002 -0.4508 -1.1276  1.2548
  489TMC3    C7 7331   0.269   1.132  17.157  0.3938 -0.6845  0.2412
  489TMC3    C8 7332   0.095   1.261  16.746 -0.5406  0.2722 -0.6777
  489TMC3    O1 7333   0.326   1.040  17.215  0.2731  0.2419 -0.1563
  489TMC3    O2 7334   0.167   1.355  16.778 -0.5559  0.1282  0.1790
  490MPD2     C 7335   0.926   4.522  17.706  0.9070 -0.0857 -0.5112
  490MPD2    C1 7336   1.056   4.489  17.702 -0.4482  0.2728  0.1126
  490MPD2    C2 7337   1.145   4.587  17.731 -0.1142 -0.0317 -0.2794
  490MPD2    C3 7338   1.113   4.724   0.015  0.4420 -0.4567  0.2514
  490MPD2    C4 7339   0.982   0.007  17.742 -0.6641 -0.0118 -0.0017
  490MPD2    C5 7340   0.889   4.646  17.724  0.4256  0.0558 -0.5818
  490MPD2     H 7341   1.249   4.559  17.720 -0.8118 -2.3884 -0.8465
  490MPD2    H1 7342   0.945   0.109   0.000  2.9338  1.2990 -2.1180
  490MPD2    H2 7343   0.846   4.451  17.692  0.1630  1.1839 -2.6897
  490MPD2    H3 7344   0.786   4.677  17.711  0.3930  1.2667  2.5871
  490MPD2     N 7345   1.203   0.097   0.045  0.5205 -0.1705  0.1025
  490MPD2    H5 7346   1.160   0.188   0.058 -0.1684 -0.4752 -0.0574
  490MPD2    N1 7347   1.093   4.354  17.665  0.3644  0.5639  0.3753
  490MPD2    H7 7348   1.012   4.297  17.641  0.9360 -0.0448 -0.0949
  491TMC3    C1 7349   1.206   4.185  17.571 -0.1711  0.8187  0.7833
  491TMC3    C2 7350   1.109   4.090  17.612  0.0129 -0.0733  0.5399
  491TMC3    C3 7351   1.115   3.970  17.552  0.5331 -0.5655  0.3943
  491TMC3    C4 7352   1.300   4.155  17.474  0.0055 -0.3398  0.2993
  491TMC3    C5 7353   1.299   4.036  17.408  0.2695  0.9126  0.0019
  491TMC3    C6 7354   1.205   3.940  17.446  0.1560 -0.1134 -0.3566
  491TMC3     C 7355   1.220   4.310  17.629  0.3730  0.3300 -0.5400
  491TMC3     O 7356   1.329   4.364  17.636 -0.0144  0.2971  0.2688
  491TMC3     H 7357   1.054   4.112  17.703 -1.4456  1.8656 -0.8081
  491TMC3    H1 7358   1.368   4.233  17.441 -2.0225  2.3365  2.4188
  491TMC3    H2 7359   1.210   3.844  17.396  3.9194 -0.5231  0.7640
  491TMC3    C7 7360   1.319   4.049  17.268 -0.3624  0.2732 -0.9034
  491TMC3    C8 7361   1.054   3.853  17.618 -0.7043 -0.1433 -0.5495
  491TMC3    O1 7362   1.430   4.093  17.234 -0.3235 -0.1078  0.1876
  491TMC3    O2 7363   1.008   3.858  17.729 -0.2089 -0.0370 -0.3440
  492MPD2     C 7364   1.486   4.670  10.599  0.2934  0.2275  0.2997
  492MPD2    C1 7365   1.377   4.618  10.540 -0.5039  0.0349  0.2973
  492MPD2    C2 7366   1.272   4.584  10.625 -0.2391 -0.0584  0.3049
  492MPD2    C3 7367   1.285   4.585  10.764 -0.5472 -0.0191 -0.5449
  492MPD2    C4 7368   1.407   4.614  10.820  0.4692 -0.4376  0.6871
  492MPD2    C5 7369   1.502   4.663  10.740  0.0505 -0.3272  0.4599
  492MPD2     H 7370   1.186   4.538  10.576 -0.4441 -0.6245  1.2093
  492MPD2    H1 7371   1.427   4.609  10.926 -2.2024 -3.0165  1.0635
  492MPD2    H2 7372   1.571   4.709  10.545  1.8404 -2.4009  0.8711
  492MPD2    H3 7373   1.593   4.706  10.781 -0.5761  0.5436  0.9317
  492MPD2     N 7374   1.180   4.556  10.857  0.5542 -0.2018 -0.7665
  492MPD2    H5 7375   1.202   4.576  10.954 -0.1572 -2.1263 -0.2123
  492MPD2    N1 7376   1.377   4.620  10.396  0.1679  0.3294  0.3745
  492MPD2    H7 7377   1.463   4.651  10.353 -1.2351 -0.4172 -2.9380
  493TMC3    C1 7378   1.312   4.619  10.178 -0.2896  0.5276  0.0089
  493TMC3    C2 7379   1.426   4.687  10.145 -0.4785 -0.1559 -0.1003
  493TMC3    C3 7380   1.455   4.695  10.007 -0.8999  0.6412  0.1101
  493TMC3    C4 7381   1.246   4.550  10.081 -0.2187 -0.2921  0.0074
  493TMC3    C5 7382   1.277   4.555   9.949  0.3365  0.0187  0.1202
  493TMC3    C6 7383   1.387   4.621   9.908 -0.3759  0.6865 -0.0594
  493TMC3     C 7384   1.275   4.592  10.315 -0.1393  0.3931  0.4673
  493TMC3     O 7385   1.168   4.534  10.338  0.5985 -0.7983 -0.7509
  493TMC3     H 7386   1.490   0.000  10.217 -0.3338  1.8839 -1.6130
  493TMC3    H1 7387   1.156   4.493  10.104 -0.1593 -0.2718  0.2862
  493TMC3    H2 7388   1.418   4.625   9.804 -2.5545  1.8811 -0.6706
  493TMC3    C7 7389   1.188   4.490   9.855 -0.6634 -0.3711  0.9215
  493TMC3    C8 7390   1.587   4.720   9.966 -0.2236  0.2569 -0.2181
  493TMC3    O1 7391   1.087   4.443   9.902 -0.3220  0.1000  0.4553
  493TMC3    O2 7392   1.654   4.626   9.927 -0.7242  0.0740  0.2399
  494TMC3    C1 7393   1.923   2.109   0.430 -0.2491 -0.2889  0.9348
  494TMC3    C2 7394   1.897   1.981   0.422  0.5425 -0.1074 -0.4770
  494TMC3    C3 7395   1.911   1.913   0.303  0.5689 -0.2388  0.1043
  494TMC3    C4 7396   1.977   2.177   0.327  0.5804 -0.0492 -0.2918
  494TMC3    C5 7397   2.010   2.110   0.207 -0.5481 -0.1659 -0.0055
  494TMC3    C6 7398   1.965   1.981   0.196 -0.4006  0.7502 -0.1109
  494TMC3     C 7399   1.927   2.158   0.572 -0.5940  0.7896 -0.5926
  494TMC3     O 7400   1.870   2.089   0.656  0.0835 -0.5692  0.1037
  494TMC3     H 7401   1.847   1.925   0.500  0.1796  0.1639 -0.5150
  494TMC3    H1 7402   2.002   2.280   0.346  0.5209 -0.2202  0.7006
  494TMC3    H2 7403   1.968   1.934   0.099  0.5419 -1.0252  0.7858
  494TMC3    C7 7404   2.075   2.166   0.085  0.4603 -0.9123  0.0611
  494TMC3    C8 7405   1.927   1.777   0.325  0.2983 -0.3305  0.1300
  494TMC3    O1 7406   2.058   2.111  17.723  0.6953 -0.2113  0.2157
  494TMC3    O2 7407   1.957   1.746   0.440  0.3468  0.3389  0.1516
  495TMC3    C1 7408   1.219   4.122  14.531 -0.1455 -0.6101 -0.5063
  495TMC3    C2 7409   1.168   4.213  14.444  0.3394 -0.1698 -0.7524
  495TMC3    C3 7410   1.062   4.295  14.479 -0.6132  0.4397  0.6399
  495TMC3    C4 7411   1.160   4.111  14.658 -0.4078  0.3850 -0.3924
  495TMC3    C5 7412   1.053   4.187  14.688 -0.3960  0.4076 -0.6822
  495TMC3    C6 7413   1.000   4.279  14.603 -0.0138 -0.3414  1.0544
  495TMC3     C 7414   1.268   3.997  14.469  0.1989 -0.0136 -0.6319
  495TMC3     O 7415   1.217   3.893  14.510  0.0995 -0.3160 -0.0746
  495TMC3     H 7416   1.221   4.215  14.349  0.3343  1.6992 -0.7256
  495TMC3    H1 7417   1.204   4.042  14.730 -1.2654  0.3238  0.0685
  495TMC3    H2 7418   0.926   4.354  14.631  0.4771  0.5600 -0.0704
  495TMC3    C7 7419   0.991   4.151  14.813  0.4030  0.8133  1.1457
  495TMC3    C8 7420   0.968   4.318  14.373 -0.5784 -0.5116 -1.0366
  495TMC3    O1 7421   1.060   4.095  14.900 -0.1565 -0.3266  0.5987
  495TMC3    O2 7422   0.851   4.323  14.406 -0.1314 -0.4510 -0.3287
  496MPD2     C 7423   2.982   3.665  14.963  0.0824  0.3261  0.1882
  496MPD2    C1 7424   2.900   3.552  14.981 -0.6104  0.3031  0.4755
  496MPD2    C2 7425   2.835   3.545  15.106 -0.4185 -0.0823  0.6414
  496MPD2    C3 7426   2.848   3.642  15.204  0.0074  0.1687  0.1728
  496MPD2    C4 7427   2.917   3.759  15.173  0.4336  0.4756  0.1978
  496MPD2    C5 7428   2.976   3.766  15.051 -0.5412  0.1054 -0.3941
  496MPD2     H 7429   2.768   3.466  15.136  0.8149 -2.2856 -2.3886
  496MPD2    H1 7430   2.917   3.848  15.235  0.9747 -0.0752  1.0122
  496MPD2    H2 7431   3.033   3.686  14.869  1.1615 -1.8804  0.2753
  496MPD2    H3 7432   3.028   3.855  15.017 -2.1751  0.8326 -0.9724
  496MPD2     N 7433   2.770   3.629  15.321  0.7985 -0.1657  0.4220
  496MPD2    H5 7434   2.721   3.542  15.336 -0.9176  0.6624 -0.4563
  496MPD2    N1 7435   2.898   3.455  14.881 -0.2468 -0.2424 -0.1761
  496MPD2    H7 7436   2.949   3.489  14.800  0.2368  0.8511  0.5842
  497TMC3    C1 7437   2.644   3.695  15.512 -0.3018 -0.1204 -0.0394
  497TMC3    C2 7438   2.532   3.643  15.456 -0.1649  0.4174  0.4803
  497TMC3    C3 7439   2.422   3.623  15.529  0.0547 -0.4436  0.1341
  497TMC3    C4 7440   2.661   3.720  15.641 -0.4141  0.4010  0.5580
  497TMC3    C5 7441   2.554   3.681  15.714 -0.8012 -0.4515 -0.0085
  497TMC3    C6 7442   2.435   3.632  15.667 -0.4462 -0.2000  0.2235
  497TMC3     C 7443   2.769   3.714  15.432  0.6801 -0.0824  0.2453
  497TMC3     O 7444   2.849   3.804  15.460  0.4609 -0.0011  0.2163
  497TMC3     H 7445   2.527   3.627  15.349 -0.2113  2.8893  0.1226
  497TMC3    H1 7446   2.761   3.752  15.668 -0.7049  0.9525  0.9754
  497TMC3    H2 7447   2.348   3.625  15.731 -1.1060  1.0091 -0.5516
  497TMC3    C7 7448   2.563   3.703  15.857  0.0142 -0.0614 -1.0276
  497TMC3    C8 7449   2.287   3.592  15.489 -0.4655  0.7184  0.2729
  497TMC3    O1 7450   2.487   3.631  15.924  0.1079  0.1539  0.1035
  497TMC3    O2 7451   2.205   3.585  15.576  0.1573  0.0201 -0.4413
  498MPD2     C 7452   2.413   3.474   9.504 -0.0271 -0.6472 -0.0622
  498MPD2    C1 7453   2.457   3.537   9.616  0.3214 -0.9039 -0.0207
  498MPD2    C2 7454   2.396   3.508   9.741  0.1325  0.1159  0.2641
  498MPD2    C3 7455   2.283   3.425   9.744 -0.5624  1.1985  0.3694
  498MPD2    C4 7456   2.242   3.362   9.628 -0.0038  0.4290 -0.2012
  498MPD2    C5 7457   2.310   3.383   9.515  0.0108  0.6408 -0.2058
  498MPD2     H 7458   2.425   3.553   9.836  2.2662  1.3661 -0.9797
  498MPD2    H1 7459   2.157   3.294   9.631 -0.3405  0.9039  1.0843
  498MPD2    H2 7460   2.451   3.489   9.403  2.7174  0.5953  1.1734
  498MPD2    H3 7461   2.267   3.349   9.421  2.1276 -2.6249  0.0200
  498MPD2     N 7462   2.221   3.414   9.869  0.7463  1.1377  0.1091
  498MPD2    H5 7463   2.263   3.460   9.949  0.5991  4.4676 -1.7593
  498MPD2    N1 7464   2.547   3.645   9.617 -0.3176  0.0089 -0.2452
  498MPD2    H7 7465   2.581   3.682   9.706 -0.1548 -1.1338  0.1636
  499TMC3    C1 7466   2.726   3.779   9.553 -0.3390  0.3657 -0.3809
  499TMC3    C2 7467   2.739   3.804   9.692 -0.4786  1.0262  0.0604
  499TMC3    C3 7468   2.817   3.917   9.726  0.3447  0.1482  0.0964
  499TMC3    C4 7469   2.785   3.855   9.455 -0.4363  0.0306 -0.0813
  499TMC3    C5 7470   2.845   3.971   9.501  0.6059 -0.0994  0.2232
  499TMC3    C6 7471   2.862   4.005   9.631  0.0231 -0.0219  0.1499
  499TMC3     C 7472   2.616   3.696   9.511  0.5677 -0.6336  0.4665
  499TMC3     O 7473   2.599   3.691   9.389  0.0355  0.0463 -0.0814
  499TMC3     H 7474   2.709   3.731   9.766  1.4269  0.4790  0.3108
  499TMC3    H1 7475   2.749   3.836   9.355  1.5063 -2.6878 -0.2651
  499TMC3    H2 7476   2.892   4.104   9.662  1.2275 -0.7515  1.3009
  499TMC3    C7 7477   2.956   4.025   9.432  0.4078 -0.3603  0.5369
  499TMC3    C8 7478   2.822   3.959   9.864  0.4673  0.4572  0.1379
  499TMC3    O1 7479   3.035   4.097   9.490  0.1347 -0.5386 -0.4851
  499TMC3    O2 7480   2.732   3.925   9.940  0.4859 -0.3716 -0.0484
  500MPD2     C 7481   0.590   0.342   9.353  0.3592  0.0258  0.2177
  500MPD2    C1 7482   0.522   0.443   9.415 -0.2486  0.8264  0.1501
  500MPD2    C2 7483   0.386   0.445   9.401  0.6631 -0.5261  0.2531
  500MPD2    C3 7484   0.316   0.356   9.319 -1.1390 -0.1407 -0.0931
  500MPD2    C4 7485   0.389   0.263   9.246  0.0701  0.0830 -0.2220
  500MPD2    C5 7486   0.521   0.242   9.275  0.1737  0.6529  0.0589
  500MPD2     H 7487   0.332   0.522   9.455  0.7068 -1.3532  1.4488
  500MPD2    H1 7488   0.347   0.195   9.173  1.0549 -0.4567 -0.2808
  500MPD2    H2 7489   0.695   0.316   9.363  0.8012  0.5388 -3.3187
  500MPD2    H3 7490   0.578   0.159   9.235 -0.3535  1.0248 -1.5009
  500MPD2     N 7491   0.174   0.348   9.290  0.3653 -0.2778 -0.0339
  500MPD2    H5 7492   0.140   0.275   9.228  1.0167 -0.3484 -0.3018
  500MPD2    N1 7493   0.584   0.543   9.492 -0.0578  0.9059  0.1222
  500MPD2    H7 7494   0.520   0.601   9.544  0.8693  2.3684 -0.3765
  501TMC3    C1 7495   0.755   0.667   9.598 -0.3352  0.4496 -0.0117
  501TMC3    C2 7496   0.699   0.793   9.582 -0.3788  0.6551  0.5818
  501TMC3    C3 7497   0.716   0.890   9.669  0.6511 -0.4845  0.6878
  501TMC3    C4 7498   0.844   0.652   9.696 -0.9258  0.0103 -0.1794
  501TMC3    C5 7499   0.847   0.743   9.793 -0.8422  0.3349 -0.1025
  501TMC3    C6 7500   0.785   0.867   9.785  0.3036 -0.4375  0.2990
  501TMC3     C 7501   0.721   0.550   9.521 -0.4203 -1.1767  0.5169
  501TMC3     O 7502   0.814   0.471   9.499  0.1316  0.0204 -0.3556
  501TMC3     H 7503   0.641   0.814   9.493  0.9640 -1.1490 -0.6932
  501TMC3    H1 7504   0.890   0.554   9.705 -1.3531 -0.0838  0.8928
  501TMC3    H2 7505   0.808   0.942   9.860 -0.1317  0.2479 -0.2493
  501TMC3    C7 7506   0.888   0.699   9.928 -0.1070 -0.2853 -0.6937
  501TMC3    C8 7507   0.619   0.999   9.660 -0.5635  0.7145  0.0312
  501TMC3    O1 7508   0.970   0.607   9.936  0.3302  0.4473  0.5676
  501TMC3    O2 7509   0.520   0.984   9.590  0.8762  0.0533  0.4637
  502TMC3    C1 7510   0.443   0.088  15.035 -0.1071 -0.7135  1.0814
  502TMC3    C2 7511   0.431   0.198  14.959  0.3673  1.0694 -0.1106
  502TMC3    C3 7512   0.307   0.222  14.895 -0.3219 -0.0034 -0.0278
  502TMC3    C4 7513   0.343   4.728  15.045 -0.1992  0.5327 -0.0644
  502TMC3    C5 7514   0.226   0.023  14.982 -0.5003  0.2889  0.5660
  502TMC3    C6 7515   0.209   0.126  14.900  0.0996  0.1066 -0.3017
  502TMC3     C 7516   0.541   0.107  15.145  0.4146 -0.2897 -0.1001
  502TMC3     O 7517   0.656   0.144  15.119  0.1891 -0.0130  0.0508
  502TMC3     H 7518   0.514   0.268  14.953 -0.0625  1.5913 -0.0313
  502TMC3    H1 7519   0.353   4.637  15.103 -2.9678  1.6620  2.1988
  502TMC3    H2 7520   0.122   0.127  14.836  1.2191  1.0273 -1.7930
  502TMC3    C7 7521   0.129   4.652  14.998 -0.9677 -0.7070  0.4226
  502TMC3    C8 7522   0.281   0.351  14.849  0.5209  0.0003  0.3816
  502TMC3    O1 7523   0.167   4.536  15.006  0.2736  0.4314 -0.2660
  502TMC3    O2 7524   0.379   0.427  14.855 -0.6692 -0.2313  0.5528
  503MPD2     C 7525   2.440   1.133  16.726 -0.6034 -0.0419  0.0921
  503MPD2    C1 7526   2.440   1.175  16.859  0.4405  0.1944 -0.6103
  503MPD2    C2 7527   2.493   1.087  16.955  0.7648 -0.3936  0.0898
  503MPD2    C3 7528   2.560   0.976  16.929  0.0690 -0.3755 -0.2812
  503MPD2    C4 7529   2.560   0.935  16.794  1.2406  0.5315 -0.5869
  503MPD2    C5 7530   2.511   1.015  16.692 -0.0102  0.1971 -0.7856
  503MPD2     H 7531   2.476   1.112  17.059 -1.5923  3.3796 -1.1949
  503MPD2    H1 7532   2.602   0.838  16.769  1.9048  0.3213  1.3439
  503MPD2    H2 7533   2.389   1.182  16.644 -3.9058 -1.4562  1.3216
  503MPD2    H3 7534   2.526   0.985  16.589  0.8089 -0.2408 -0.5360
  503MPD2     N 7535   2.621   0.898  17.033 -0.0523  0.2450 -0.3289
  503MPD2    H5 7536   2.591   0.927  17.125  2.0815 -0.6636  0.6323
  503MPD2    N1 7537   2.366   1.288  16.896 -0.1750 -0.7677  0.4725
  503MPD2    H7 7538   2.366   1.304  16.996  2.0077  0.3491  0.2909
  504TMC3    C1 7539   2.775   0.743  17.133 -0.2043  0.1566  0.0851
  504TMC3    C2 7540   2.747   0.791  17.255 -0.1560 -0.7560 -0.0372
  504TMC3    C3 7541   2.806   0.724  17.357 -0.7007 -0.3514 -0.0522
  504TMC3    C4 7542   2.861   0.641  17.112 -0.7658  1.1258  0.3131
  504TMC3    C5 7543   2.924   0.587  17.221 -0.3086  0.1110 -0.2395
  504TMC3    C6 7544   2.895   0.620  17.348 -0.6556  1.0709 -0.1129
  504TMC3     C 7545   2.721   0.803  17.011 -0.6742 -0.5360  0.4338
  504TMC3     O 7546   2.759   0.764  16.904  0.6288  0.0022 -0.3372
  504TMC3     H 7547   2.667   0.861  17.275  0.8302  1.3135 -3.3211
  504TMC3    H1 7548   2.895   0.608  17.015  0.8501 -0.1213  1.3046
  504TMC3    H2 7549   2.944   0.578  17.435  1.6884  1.4395 -1.2681
  504TMC3    C7 7550   3.017   0.480  17.183  0.1247  0.0324 -0.1816
  504TMC3    C8 7551   2.774   0.775  17.494  0.0217  0.3522  0.2992
  504TMC3    O1 7552   3.016   0.440  17.068  0.1395  0.6996 -0.0669
  504TMC3    O2 7553   2.708   0.875  17.503 -0.5187 -0.5501 -0.2473
  505MPD2     C 7554   1.811   3.633  11.264  0.4241 -0.2396 -0.2038
  505MPD2    C1 7555   1.856   3.504  11.283 -0.4472 -0.2567  0.6626
  505MPD2    C2 7556   1.990   3.484  11.270 -1.0219  0.2716 -0.5318
  505MPD2    C3 7557   2.075   3.585  11.239 -0.1766  0.1724 -0.8867
  505MPD2    C4 7558   2.027   3.712  11.239  0.5906  0.0982 -0.1800
  505MPD2    C5 7559   1.895   3.735  11.250 -0.3924 -0.7541 -0.1805
  505MPD2     H 7560   2.026   3.382  11.268 -2.8337 -0.4120  0.9852
  505MPD2    H1 7561   2.089   3.801  11.234  0.7117 -0.0018 -0.4888
  505MPD2    H2 7562   1.705   3.655  11.278  0.6261  0.5116  0.1506
  505MPD2    H3 7563   1.860   3.837  11.247  0.1058 -0.5435  1.2117
  505MPD2     N 7564   2.210   3.550  11.221 -0.9758  0.4839 -0.4371
  505MPD2    H5 7565   2.234   3.453  11.236  0.5617  1.4469  3.3598
  505MPD2    N1 7566   1.762   3.408  11.301 -0.7661 -0.4495  0.4030
  505MPD2    H7 7567   1.670   3.444  11.278  0.3917  0.6021 -2.5843
  506TMC3    C1 7568   1.671   3.191  11.290  0.2791  0.3866  0.1623
  506TMC3    C2 7569   1.620   3.223  11.167 -0.1580 -0.3964 -0.5478
  506TMC3    C3 7570   1.606   3.132  11.069  0.5556 -0.1591  0.5422
  506TMC3    C4 7571   1.706   3.059  11.317 -0.6444  0.8651  0.3716
  506TMC3    C5 7572   1.707   2.974  11.206  0.1661 -0.5498 -0.2212
  506TMC3    C6 7573   1.654   3.008  11.089  0.0113  0.5567 -0.0937
  506TMC3     C 7574   1.779   3.276  11.329  0.1549 -0.0249 -0.2346
  506TMC3     O 7575   1.886   3.228  11.365  0.9134  0.0726  0.3783
  506TMC3     H 7576   1.591   3.324  11.139  0.1454 -0.3199 -0.5881
  506TMC3    H1 7577   1.748   3.030  11.412 -0.1991 -0.7644 -0.3175
  506TMC3    H2 7578   1.652   2.939  11.005 -0.1359  1.1383 -0.5655
  506TMC3    C7 7579   1.822   2.893  11.187  1.0177 -0.1935 -0.1985
  506TMC3    C8 7580   1.561   3.165  10.935  0.4319  0.3434  0.1058
  506TMC3    O1 7581   1.807   2.791  11.123  0.5064  0.1175 -0.2305
  506TMC3    O2 7582   1.470   3.248  10.932 -0.1073  0.1233  0.3613
  507TMC3    C1 7583   3.463   0.080  14.878  0.2904  0.2389  0.3745
  507TMC3    C2 7584   3.385   4.706  14.846 -0.4833 -0.0696  0.2937
  507TMC3    C3 7585   3.324   4.699  14.724  0.3770  0.6389  0.0702
  507TMC3    C4 7586   3.494   0.172  14.791  0.3919 -0.3972  0.4291
  507TMC3    C5 7587   3.449   0.162  14.663  0.6208  0.7707 -0.7413
  507TMC3    C6 7588   3.365   0.059  14.634 -0.2946 -0.0533  0.5093
  507TMC3     C 7589   3.505   0.106  15.014  0.6123 -0.0617 -0.9108
  507TMC3     O 7590   3.573   0.205  15.040  0.0669  0.2583  0.1908
  507TMC3     H 7591   3.322   4.668  14.926 -0.0155 -0.5820  0.4106
  507TMC3    H1 7592   3.564   0.249  14.823  1.3076 -0.9967 -0.1244
  507TMC3    H2 7593   3.333   0.049  14.531 -0.7682 -0.4923  0.6983
  507TMC3    C7 7594   3.421   0.279  14.574  0.3517 -0.1709 -0.4263
  507TMC3    C8 7595   3.178   4.707  14.730 -0.2026  0.7392 -0.2469
  507TMC3    O1 7596   3.317   0.274  14.510  0.3757 -0.1030  0.4023
  507TMC3    O2 7597   3.113   4.631  14.803  0.2410 -0.2506  0.5668
  508MPD2     C 7598   4.684   2.196  16.060 -0.6310  0.4569 -0.7163
  508MPD2    C1 7599   4.620   2.294  16.134  0.4992  0.3741 -0.0054
  508MPD2    C2 7600   4.539   2.385  16.074 -0.7748 -0.3828  0.2410
  508MPD2    C3 7601   4.517   2.387  15.934 -0.0833 -0.0529 -0.5338
  508MPD2    C4 7602   4.588   2.294  15.857 -0.6215 -0.5404  0.2971
  508MPD2    C5 7603   4.673   2.206  15.921  0.4514  0.0352  0.5811
  508MPD2     H 7604   4.487   2.452  16.141  0.7014  1.8497 -0.8355
  508MPD2    H1 7605   4.569   2.287  15.751  0.2066  2.8183 -0.0739
  508MPD2    H2 7606   4.732   2.106  16.096  0.5365  1.3679  0.0172
  508MPD2    H3 7607   4.711   2.128  15.857  0.4105 -0.8455  1.6346
  508MPD2     N 7608   4.438   2.489  15.876 -0.2214  0.2836  0.0864
  508MPD2    H5 7609   4.380   2.543  15.939 -0.0053  1.4336 -0.7147
  508MPD2    N1 7610   4.647   2.289  16.277  0.3598 -0.2477  0.1443
  508MPD2    H7 7611   4.702   2.209  16.304 -0.4107 -0.4041  1.2645
  509TMC3    C1 7612   4.295   2.821  15.571  0.2216 -0.0672 -0.3256
  509TMC3    C2 7613   4.260   2.904  15.673 -0.5701 -0.6267 -0.3955
  509TMC3    C3 7614   4.270   2.855  15.799 -0.5697  0.4335 -0.1785
  509TMC3    C4 7615   4.331   2.689  15.589  0.4262  0.3064  0.2222
  509TMC3    C5 7616   4.334   2.643  15.718 -0.5567  0.0114 -0.0044
  509TMC3    C6 7617   4.296   2.721  15.823  0.4042  0.3525 -0.4908
  509TMC3     C 7618   4.260   2.853  15.436  0.5840  0.4625  0.0548
  509TMC3     O 7619   4.203   2.759  15.379 -0.0815  0.1482  0.4519
  509TMC3     H 7620   4.226   3.006  15.662 -0.5343 -0.5575  0.1335
  509TMC3    H1 7621   4.361   2.633  15.501 -1.0499 -0.2430  0.0840
  509TMC3    H2 7622   4.296   2.692  15.928  2.3487  3.8843  0.5043
  509TMC3    C7 7623   4.426   2.527  15.744  0.3424 -0.8848  0.6722
  509TMC3    C8 7624   4.298   2.944  15.913  0.5176  0.0037 -0.1537
  509TMC3    O1 7625   4.487   2.481  15.648  0.5086  0.5234 -0.0310
  509TMC3    O2 7626   4.262   2.914  16.026  0.2916  0.5614 -0.3277
  510MPD2     C 7627   2.324   4.615  14.644  0.1850  0.4471  0.1774
  510MPD2    C1 7628   2.348   4.490  14.708 -0.3090  0.1503  0.6257
  510MPD2    C2 7629   2.479   4.449  14.703  1.0306  0.5593  0.1761
  510MPD2    C3 7630   2.577   4.503  14.628 -0.1904  0.0379 -0.1153
  510MPD2    C4 7631   2.556   4.629  14.573  0.6369  0.2795 -0.1507
  510MPD2    C5 7632   2.430   4.681  14.584  0.1323  0.3460  0.8434
  510MPD2     H 7633   2.501   4.358  14.757 -3.8739  0.8076  2.6026
  510MPD2    H1 7634   2.643   4.689  14.547  1.3984 -0.2309  1.2127
  510MPD2    H2 7635   2.227   4.664  14.649 -0.7098 -1.2994 -0.1420
  510MPD2    H3 7636   2.410   0.044  14.543  0.0847 -0.2837 -0.6530
  510MPD2     N 7637   2.708   4.441  14.629  0.1662 -0.0652 -0.3527
  510MPD2    H5 7638   2.715   4.350  14.674  0.4958  0.1585  0.0399
  510MPD2    N1 7639   2.238   4.424  14.771  0.3239  1.1155 -0.2198
  510MPD2    H7 7640   2.150   4.472  14.781 -1.4996 -2.6019  1.6721
  511TMC3    C1 7641   2.107   4.230  14.838  0.3702  0.2254 -0.0894
  511TMC3    C2 7642   2.054   4.265  14.957 -0.0498 -0.5093 -0.0833
  511TMC3    C3 7643   1.952   4.189  15.009  0.4245  0.2445 -0.5142
  511TMC3    C4 7644   2.063   4.118  14.775  0.4776 -0.1301 -0.0545
  511TMC3    C5 7645   1.975   4.035  14.836 -0.4258 -0.2864 -0.4778
  511TMC3    C6 7646   1.911   4.073  14.954 -0.7552  0.3025  0.6268
  511TMC3     C 7647   2.230   4.286  14.784 -0.3722 -0.5383 -0.4005
  511TMC3     O 7648   2.316   4.206  14.760 -0.4824 -0.2323 -0.0470
  511TMC3     H 7649   2.100   4.348  15.009  1.2331 -0.0709 -1.9126
  511TMC3    H1 7650   2.100   4.117  14.673  0.7249 -0.2344  0.0349
  511TMC3    H2 7651   1.827   4.022  15.001  0.8176 -0.7310  2.2994
  511TMC3    C7 7652   1.948   3.914  14.764  0.0831 -0.2767  0.5944
  511TMC3    C8 7653   1.903   4.228  15.141 -0.5655 -0.1714  0.5308
  511TMC3    O1 7654   1.993   3.909  14.652 -0.3926  0.4034 -0.1781
  511TMC3    O2 7655   1.898   4.346  15.164 -0.2096 -0.1419  0.4755
  512TMC3    C1 7656   1.256   3.650  13.348  0.2480  0.1583  0.1300
  512TMC3    C2 7657   1.363   3.709  13.403 -0.0709  0.5151 -1.0105
  512TMC3    C3 7658   1.486   3.662  13.368 -0.8905 -0.8319  0.4572
  512TMC3    C4 7659   1.268   3.523  13.295 -0.0292  0.7297 -0.3439
  512TMC3    C5 7660   1.389   3.467  13.275 -0.2719  0.8984  0.0412
  512TMC3    C6 7661   1.503   3.540  13.302  0.0962 -0.0997  0.0068
  512TMC3     C 7662   1.122   3.707  13.370 -0.5954  0.0006  0.0293
  512TMC3     O 7663   1.110   3.794  13.454 -0.2238  0.4982 -0.6412
  512TMC3     H 7664   1.352   3.809  13.443 -0.1877 -0.0654  0.3999
  512TMC3    H1 7665   1.181   3.471  13.258  1.0184 -1.0632 -0.3322
  512TMC3    H2 7666   1.599   3.505  13.266 -0.2180 -0.0930 -0.8200
  512TMC3    C7 7667   1.386   3.385  13.154  0.2212  0.2120  0.0146
  512TMC3    C8 7668   1.606   3.746  13.385 -0.0694  0.4382  0.1127
  512TMC3    O1 7669   1.321   3.438  13.060 -0.2508  0.0122 -0.5282
  512TMC3    O2 7670   1.708   3.699  13.348  0.7025 -0.0679  0.0801
  513MPD2     C 7671   3.163   3.632  13.252  0.2573  0.1317 -0.2818
  513MPD2    C1 7672   3.221   3.507  13.227  0.2281  0.2255 -0.0316
  513MPD2    C2 7673   3.296   3.446  13.324  0.4671 -0.4059 -0.1502
  513MPD2    C3 7674   3.334   3.520  13.434 -0.5448  0.7102 -0.3049
  513MPD2    C4 7675   3.282   3.645  13.457 -0.4652  0.7376 -0.3018
  513MPD2    C5 7676   3.195   3.699  13.366  0.6873 -0.1936  0.2302
  513MPD2     H 7677   3.334   3.345  13.318  0.6696 -0.4616  1.9581
  513MPD2    H1 7678   3.315   3.709  13.539  1.1172  2.3325 -2.1686
  513MPD2    H2 7679   3.094   3.679  13.182  0.5311  0.5261 -0.2891
  513MPD2    H3 7680   3.163   3.802  13.376 -0.0169 -0.4712  0.8129
  513MPD2     N 7681   3.427   3.459  13.520 -0.2849 -0.2606 -0.6124
  513MPD2    H5 7682   3.454   3.366  13.489 -3.6148 -1.3943 -0.1348
  513MPD2    N1 7683   3.194   3.453  13.102  0.5771  0.5583 -0.2974
  513MPD2    H7 7684   3.151   3.511  13.030 -0.9641 -0.0696  0.1135
  514TMC3    C1 7685   3.246   3.329  12.904 -0.0929  0.3216  0.5445
  514TMC3    C2 7686   3.266   3.451  12.845  0.4023  0.0304  0.1026
  514TMC3    C3 7687   3.352   3.448  12.734 -0.3005 -0.2332 -0.2692
  514TMC3    C4 7688   3.314   3.207  12.861 -0.1375 -0.0219  0.2673
  514TMC3    C5 7689   3.415   3.224  12.773  0.1343  0.4147  0.7854
  514TMC3    C6 7690   3.429   3.342  12.697  0.6175  0.6065 -0.3027
  514TMC3     C 7691   3.235   3.331  13.048 -0.3679 -0.7754  0.3341
  514TMC3     O 7692   3.285   3.229  13.095  0.4063  0.2166  0.7213
  514TMC3     H 7693   3.208   3.539  12.870 -2.1695 -1.0966 -1.8012
  514TMC3    H1 7694   3.281   3.111  12.897 -1.2524 -0.0975 -0.9767
  514TMC3    H2 7695   3.525   3.367  12.655  0.5663 -0.3015 -0.9573
  514TMC3    C7 7696   3.538   3.173  12.822 -0.0370 -0.1700  0.4059
  514TMC3    C8 7697   3.327   3.551  12.634  0.3758 -0.3376 -0.0312
  514TMC3    O1 7698   3.625   3.155  12.733 -0.0772  0.8103 -0.3628
  514TMC3    O2 7699   3.290   3.662  12.677  0.4655  0.5060  0.1847
  515MPD2     C 7700   1.494   4.675  14.405 -0.5279 -0.4008  0.7093
  515MPD2    C1 7701   1.408   4.734  14.495 -0.4859  0.1190  0.1994
  515MPD2    C2 7702   1.456   0.055  14.613  0.4487  0.0753  0.4423
  515MPD2    C3 7703   1.592   0.046  14.641  0.1536  0.4048  0.9246
  515MPD2    C4 7704   1.672   4.711  14.552  0.1291 -0.3339  0.2243
  515MPD2    C5 7705   1.625   4.665  14.435 -0.4833 -0.1201  0.2584
  515MPD2     H 7706   1.384   0.088  14.688  0.0869  1.2227 -0.4092
  515MPD2    H1 7707   1.780   4.712  14.560  0.1231  0.2518  0.2492
  515MPD2    H2 7708   1.466   4.655  14.302 -1.4470  0.5205  0.7787
  515MPD2    H3 7709   1.686   4.617  14.359 -0.2948  1.1351 -0.3722
  515MPD2     N 7710   1.662   0.101  14.749  0.2214  0.6478  0.0368
  515MPD2    H5 7711   1.763   0.100  14.753  0.1757 -2.7436 -0.2997
  515MPD2    N1 7712   1.267   0.007  14.474  0.1297  0.5815  0.2005
  515MPD2    H7 7713   1.219   0.045  14.555  3.4006  0.1559  2.3328
  516TMC3    C1 7714   1.052   4.722  14.391 -0.3718 -0.3470 -0.2008
  516TMC3    C2 7715   0.971   0.026  14.296 -0.2091 -0.0917 -0.5316
  516TMC3    C3 7716   0.834   0.032  14.319  0.1144  1.0356  1.0841
  516TMC3    C4 7717   1.001   4.675  14.508 -0.7357 -0.5644 -0.6384
  516TMC3    C5 7718   0.862   4.656  14.519 -0.8277 -0.2246 -0.4474
  516TMC3    C6 7719   0.775   4.705  14.424 -0.2376  0.1450 -0.8062
  516TMC3     C 7720   1.191   4.702  14.365 -0.1020 -0.6074 -0.5260
  516TMC3     O 7721   1.220   4.678  14.246 -0.0900 -0.3420  0.0673
  516TMC3     H 7722   1.016   0.058  14.202 -3.0082 -0.8601 -2.1097
  516TMC3    H1 7723   1.066   4.629  14.581 -0.9099  1.8814  1.0694
  516TMC3    H2 7724   0.667   4.697  14.433 -0.2055  0.8725  0.1206
  516TMC3    C7 7725   0.817   4.594  14.642  0.6783  0.5425  1.0701
  516TMC3    C8 7726   0.758   0.144  14.274  0.1621 -0.6966 -0.4616
  516TMC3    O1 7727   0.897   4.596  14.730 -0.5476 -0.3570  0.7273
  516TMC3    O2 7728   0.638   0.136  14.259  0.4576 -0.0921  0.0277
  517MPD2     C 7729   0.384   2.151  17.178 -0.5140 -0.4074  0.5826
  517MPD2    C1 7730   0.515   2.124  17.221 -0.6888 -0.2333  0.4624
  517MPD2    C2 7731   0.582   2.201  17.309  0.4257  0.3064 -0.0403
  517MPD2    C3 7732   0.524   2.305  17.365 -0.5376  0.2648  0.2138
  517MPD2    C4 7733   0.388   2.333  17.327 -0.6341 -0.2843  0.5508
  517MPD2    C5 7734   0.321   2.259  17.231  0.3480 -0.1350  0.0277
  517MPD2     H 7735   0.687   2.175  17.318 -0.0267 -1.3550  0.4154
  517MPD2    H1 7736   0.326   2.411  17.369  0.5967 -0.4064  2.6029
  517MPD2    H2 7737   0.341   2.093  17.097  1.4571  1.2069 -1.6123
  517MPD2    H3 7738   0.219   2.281  17.200  0.3101  1.3913  1.2791
  517MPD2     N 7739   0.589   2.392  17.458  0.2091  0.1503 -0.3841
  517MPD2    H5 7740   0.532   2.458  17.509 -0.8868 -0.2226 -1.1197
  517MPD2    N1 7741   0.586   2.008  17.172 -0.8132 -0.0172  1.0075
  517MPD2    H7 7742   0.681   2.006  17.209  0.3974  0.2263 -2.0528
  518TMC3    C1 7743   0.635   1.806  17.071 -0.7549  0.6652 -0.9630
  518TMC3    C2 7744   0.611   1.675  17.065  0.3852  0.2523  0.0010
  518TMC3    C3 7745   0.705   1.594  17.013 -0.3562 -0.1593  0.3440
  518TMC3    C4 7746   0.749   1.863  17.019 -0.7202 -0.0899  0.0766
  518TMC3    C5 7747   0.844   1.776  16.972 -0.4590  0.5222  0.5651
  518TMC3    C6 7748   0.828   1.639  16.969  0.4373 -0.1990 -0.1586
  518TMC3     C 7749   0.527   1.898  17.115 -0.2970 -0.1710 -0.0570
  518TMC3     O 7750   0.413   1.853  17.116 -0.3799  0.2255  0.1313
  518TMC3     H 7751   0.529   1.621  17.109  2.3127 -1.9990  0.8616
  518TMC3    H1 7752   0.760   1.968  16.995  1.1301 -0.7916 -2.1931
  518TMC3    H2 7753   0.905   1.570  16.938  0.4982 -0.5408  0.7623
  518TMC3    C7 7754   0.973   1.837  16.934 -0.4777 -0.1158 -1.2167
  518TMC3    C8 7755   0.695   1.452  17.024 -0.1458  0.0827  0.3061
  518TMC3    O1 7756   0.989   1.959  16.946 -0.5356  0.5566 -0.0917
  518TMC3    O2 7757   0.798   1.401  17.068 -0.6346 -0.2275 -0.3230
  519MPD2     C 7758   2.836   0.106  14.337  0.2730  0.1511  0.2049
  519MPD2    C1 7759   2.807   0.210  14.255 -0.3262  0.4343 -0.5387
  519MPD2    C2 7760   2.903   0.262  14.169  0.5879 -0.0490  0.2576
  519MPD2    C3 7761   3.025   0.202  14.155 -0.7866 -0.5086 -0.3775
  519MPD2    C4 7762   3.054   0.093  14.243  0.7891 -0.9233 -0.1974
  519MPD2    C5 7763   2.961   0.046  14.335 -1.1475 -0.0318  0.4114
  519MPD2     H 7764   2.872   0.346  14.108  0.7205 -0.3212 -0.1854
  519MPD2    H1 7765   3.148   0.039  14.240  1.5925  0.4953 -0.2665
  519MPD2    H2 7766   2.768   0.044  14.393  0.5735  0.0569  0.4668
  519MPD2    H3 7767   2.988   4.712  14.413  1.4482 -0.7462 -1.1177
  519MPD2     N 7768   3.116   0.225  14.053 -0.2309 -0.3851  0.0053
  519MPD2    H5 7769   3.209   0.185  14.061 -0.0802  0.0335  0.3857
  519MPD2    N1 7770   2.677   0.267  14.264 -0.4995 -0.1054  0.2566
  519MPD2    H7 7771   2.609   0.198  14.294 -0.6457 -0.4314 -0.7945
  520TMC3    C1 7772   3.185   0.260  13.828 -0.2058  0.1819  0.5053
  520TMC3    C2 7773   3.138   0.268  13.696 -0.2272  0.3316 -0.4807
  520TMC3    C3 7774   3.206   0.203  13.592  0.3336 -0.4219 -0.4831
  520TMC3    C4 7775   3.291   0.175  13.859 -0.5249 -0.0840 -0.0382
  520TMC3    C5 7776   3.350   0.105  13.756 -0.8757  0.1680  0.1303
  520TMC3    C6 7777   3.316   0.120  13.620 -0.5619  0.3891  0.3989
  520TMC3     C 7778   3.087   0.290  13.932 -0.5855  0.4104  0.0244
  520TMC3     O 7779   2.996   0.365  13.902  0.6386  0.0879 -0.1606
  520TMC3     H 7780   3.054   0.335  13.680 -0.8288 -0.2155  0.3246
  520TMC3    H1 7781   3.334   0.165  13.958 -1.1065  0.2343  0.2471
  520TMC3    H2 7782   3.365   0.091  13.528  1.4912  3.1737  0.6087
  520TMC3    C7 7783   3.445   0.002  13.797 -0.1872  0.3196 -0.3795
  520TMC3    C8 7784   3.156   0.215  13.456  0.0907  0.4125 -0.6652
  520TMC3    O1 7785   3.476   4.736  13.916  0.1556  0.2106  0.5291
  520TMC3    O2 7786   3.216   0.153  13.373  0.4664 -0.0876 -0.0432
  521MPD2     C 7787   3.541   3.413  17.381 -0.6881  0.1206  0.3813
  521MPD2    C1 7788   3.508   3.340  17.267  0.2561  0.3155 -0.0288
  521MPD2    C2 7789   3.604   3.328  17.165 -1.2788 -0.3972 -0.6973
  521MPD2    C3 7790   3.726   3.393  17.176  0.2374 -0.3925 -0.1535
  521MPD2    C4 7791   3.754   3.469  17.286 -0.6322 -0.2619  0.1735
  521MPD2    C5 7792   3.659   3.483  17.385  0.4609  0.2240 -0.0929
  521MPD2     H 7793   3.570   3.270  17.079  0.9701 -1.4312 -0.8890
  521MPD2    H1 7794   3.845   3.527  17.293 -0.7550  0.1863 -2.0849
  521MPD2    H2 7795   3.472   3.419  17.464 -0.1837  3.2888  0.5801
  521MPD2    H3 7796   3.669   3.546  17.473 -2.4817  0.3076  0.2007
  521MPD2     N 7797   3.813   3.381  17.066 -0.3745  0.6261  0.5640
  521MPD2    H5 7798   3.772   3.341  16.982  2.0052  0.5333 -0.5410
  521MPD2    N1 7799   3.380   3.275  17.258  0.0982  0.6015  0.4792
  521MPD2    H7 7800   3.313   3.280  17.335  0.6716  1.8948  0.9059
  522TMC3    C1 7801   4.025   3.391  16.949 -0.1934  0.2033  0.1448
  522TMC3    C2 7802   4.152   3.353  16.963 -0.2971 -0.2615 -0.0646
  522TMC3    C3 7803   4.222   3.275  16.875  0.3531 -0.2707  0.1131
  522TMC3    C4 7804   3.961   3.347  16.841  0.3049  0.5340  0.6858
  522TMC3    C5 7805   4.022   3.260  16.753  0.4890  0.5647 -0.7528
  522TMC3    C6 7806   4.155   3.214  16.773 -0.7630 -0.3808  0.0735
  522TMC3     C 7807   3.948   3.418  17.070 -0.3900 -0.0055  0.8304
  522TMC3     O 7808   4.013   3.450  17.169  0.2197  0.5104 -0.8347
  522TMC3     H 7809   4.202   3.392  17.052 -1.1911 -0.8714  0.7057
  522TMC3    H1 7810   3.856   3.367  16.821  1.1089  2.1098 -1.9345
  522TMC3    H2 7811   4.207   3.159  16.695  1.7369  1.8444  0.1946
  522TMC3    C7 7812   3.961   3.214  16.630  0.3329  0.3183 -0.5462
  522TMC3    C8 7813   4.341   3.224  16.928 -0.2780 -0.0534  0.7600
  522TMC3    O1 7814   4.041   3.184  16.542  0.3200  0.0293 -0.0352
  522TMC3    O2 7815   4.389   3.288  17.019  0.5323  0.2031  0.0405
  523MPD2     C 7816   0.603   2.458  10.295 -1.0005  0.4790 -0.0232
  523MPD2    C1 7817   0.611   2.397  10.174  0.0992  0.1598 -0.3439
  523MPD2    C2 7818   0.515   2.428  10.072 -0.6781  0.3903  0.4298
  523MPD2    C3 7819   0.427   2.534  10.097 -0.2312 -0.5441  0.0730
  523MPD2    C4 7820   0.428   2.599  10.218  0.6959  0.9346  0.6013
  523MPD2    C5 7821   0.517   2.561  10.318  0.3789  0.2605 -0.3449
  523MPD2     H 7822   0.514   2.382   9.974 -0.6813 -0.2030  0.7089
  523MPD2    H1 7823   0.368   2.687  10.236  0.3237  1.1190 -1.4444
  523MPD2    H2 7824   0.664   2.432  10.381  0.0969  0.0030 -0.9606
  523MPD2    H3 7825   0.517   2.616  10.412  0.1290 -0.2135 -0.0645
  523MPD2     N 7826   0.333   2.579   9.999  1.1012 -0.7090  0.2685
  523MPD2    H5 7827   0.258   2.635  10.038  2.2934  2.1130 -1.4793
  523MPD2    N1 7828   0.715   2.303  10.157 -0.0151  0.7207  0.0089
  523MPD2    H7 7829   0.774   2.293  10.239  1.8455 -1.1419 -1.5464
  524TMC3    C1 7830   0.252   2.639   9.795 -0.6320  0.1360  0.5378
  524TMC3    C2 7831   0.196   2.603   9.675 -0.5244  0.1747  0.0533
  524TMC3    C3 7832   0.103   2.680   9.610  0.3601 -0.1732 -0.0853
  524TMC3    C4 7833   0.211   2.765   9.857 -0.5159  0.1372 -0.0548
  524TMC3    C5 7834   0.119   2.838   9.781  0.5603  0.0377  0.8242
  524TMC3    C6 7835   0.059   2.796   9.668  0.6532  0.5331  0.5681
  524TMC3     C 7836   0.342   2.554   9.864 -0.5352 -0.2929  0.8707
  524TMC3     O 7837   0.401   2.469   9.795  0.2641 -0.6333 -0.2483
  524TMC3     H 7838   0.225   2.507   9.636 -1.0950  0.3055 -0.6884
  524TMC3    H1 7839   0.256   2.805   9.947  0.8379 -2.9879  0.6568
  524TMC3    H2 7840   4.707   2.850   9.637  1.2865  1.2012 -0.0924
  524TMC3    C7 7841   0.074   2.963   9.845 -0.1516  0.0955  0.2948
  524TMC3    C8 7842   0.056   2.624   9.481 -0.1338  0.0448 -0.3296
  524TMC3    O1 7843   0.111   2.989   9.960 -0.2776  0.8547  0.2687
  524TMC3    O2 7844   0.070   2.507   9.459  0.1244 -0.3634  0.5430
  525MPD2     C 7845   4.018   4.446  14.216 -0.1735  0.0183  0.3095
  525MPD2    C1 7846   4.116   4.472  14.312 -0.0674  0.1433  0.3262
  525MPD2    C2 7847   4.193   4.588  14.291  0.6198  0.4598  0.5069
  525MPD2    C3 7848   4.162   4.682  14.189 -0.1587  0.3954 -0.2330
  525MPD2    C4 7849   4.053   4.664  14.102 -0.2240  0.2467 -0.6508
  525MPD2    C5 7850   3.980   4.549  14.125  0.5436 -0.7563  0.1380
  525MPD2     H 7851   4.285   4.607  14.344 -0.0652  0.6852  1.6248
  525MPD2    H1 7852   4.019   0.000  14.029 -1.8609 -1.0816 -1.2100
  525MPD2    H2 7853   3.959   4.355  14.217  0.5703 -0.4583  0.3202
  525MPD2    H3 7854   3.902   4.526  14.054  1.0080  2.8934 -1.5345
  525MPD2     N 7855   4.243   0.058  14.162  0.1240 -0.8147 -0.3002
  525MPD2    H5 7856   4.203   0.120  14.092  2.7648  0.2209 -0.8809
  525MPD2    N1 7857   4.156   4.389  14.422 -0.1015 -0.0244  0.3395
  525MPD2    H7 7858   4.235   4.417  14.479 -1.2837  2.2048  0.8895
  526TMC3    C1 7859   4.112   4.228  14.576 -0.4345  0.1809  0.2847
  526TMC3    C2 7860   4.015   4.193  14.672 -0.0958 -0.1639  0.7566
  526TMC3    C3 7861   4.063   4.157  14.795  0.3348 -0.0952 -0.2418
  526TMC3    C4 7862   4.241   4.191  14.595 -0.0442  0.0779 -0.0824
  526TMC3    C5 7863   4.281   4.138  14.714 -0.1816 -0.2491  0.0514
  526TMC3    C6 7864   4.196   4.135  14.819  0.1978  0.0043  0.1775
  526TMC3     C 7865   4.071   4.293  14.457  0.1520  0.4414  0.0258
  526TMC3     O 7866   3.953   4.280  14.435  0.6816 -0.0389  0.0357
  526TMC3     H 7867   3.912   4.228  14.668 -0.7991 -2.2431  0.5231
  526TMC3    H1 7868   4.299   4.189  14.504  1.4040 -1.8556  0.8841
  526TMC3    H2 7869   4.209   4.110  14.924  1.1951 -1.7993 -0.3958
  526TMC3    C7 7870   4.424   4.122  14.750  0.1035  0.0029  0.5164
  526TMC3    C8 7871   3.987   4.186  14.913  0.3259 -0.6888 -0.4718
  526TMC3    O1 7872   4.454   4.119  14.867  0.4234 -0.1455 -0.4424
  526TMC3    O2 7873   4.049   4.233  15.010  0.1034 -0.3338  0.0222
  527MPD2     C 7874   1.694   2.638   1.181  0.4099  0.5434 -0.2341
  527MPD2    C1 7875   1.723   2.630   1.052 -0.0642 -0.0980  0.4523
  527MPD2    C2 7876   1.848   2.668   1.006  0.3256 -0.1405 -1.4092
  527MPD2    C3 7877   1.953   2.697   1.090  0.1941  0.1914  0.4941
  527MPD2    C4 7878   1.916   2.707   1.227  0.0710 -0.9899  0.4963
  527MPD2    C5 7879   1.792   2.679   1.272 -0.1300 -0.9239 -0.3378
  527MPD2     H 7880   1.847   2.678   0.898 -0.1107  1.0757 -1.2866
  527MPD2    H1 7881   1.981   2.738   1.307  0.4112 -1.0330  0.2355
  527MPD2    H2 7882   1.604   2.592   1.220  0.7587  2.6223  3.0110
  527MPD2    H3 7883   1.763   2.676   1.376  2.3541 -0.3037  0.3613
  527MPD2     N 7884   2.074   2.737   1.034 -0.3745 -0.0025 -0.1344
  527MPD2    H5 7885   2.082   2.759   0.935  0.0092 -0.2888 -0.1654
  527MPD2    N1 7886   1.626   2.585   0.957  0.5799  0.4966 -0.2899
  527MPD2    H7 7887   1.667   2.592   0.865  1.7323 -1.3165  0.0997
  528TMC3    C1 7888   1.439   2.487   0.863 -0.4703  0.1499  0.1458
  528TMC3    C2 7889   1.520   2.449   0.755  0.2617  0.1462 -0.1790
  528TMC3    C3 7890   1.472   2.367   0.662 -0.2077 -0.4684 -0.0566
  528TMC3    C4 7891   1.318   2.420   0.878  0.4753 -0.0741 -0.2025
  528TMC3    C5 7892   1.267   2.348   0.772  0.2535 -0.0589  0.4983
  528TMC3    C6 7893   1.340   2.324   0.662 -0.0396 -0.4559 -0.1646
  528TMC3     C 7894   1.497   2.547   0.983 -0.2521 -0.3860  0.1769
  528TMC3     O 7895   1.437   2.571   1.085 -0.2869 -0.4439  0.5275
  528TMC3     H 7896   1.621   2.486   0.742  0.4796  0.1817  1.5585
  528TMC3    H1 7897   1.272   2.414   0.976 -1.4426 -2.0098 -1.2108
  528TMC3    H2 7898   1.309   2.260   0.580  0.5674  0.1968 -0.9089
  528TMC3    C7 7899   1.130   2.313   0.757  0.7168  0.7914 -0.5316
  528TMC3    C8 7900   1.554   2.357   0.549 -0.3383  0.1206  0.9208
  528TMC3    O1 7901   1.109   2.224   0.675  0.7682 -0.0885  0.4474
  528TMC3    O2 7902   1.622   2.457   0.525 -0.0196 -0.2139  0.7686
  529MPD2     C 7903   4.710   0.270   0.508 -0.6518  0.4272  0.0443
  529MPD2    C1 7904   0.038   0.314   0.628 -0.6564  0.1507  0.7511
  529MPD2    C2 7905   0.041   0.448   0.660 -0.6300  0.9215 -0.4013
  529MPD2    C3 7906   4.704   0.532   0.575 -0.2364  0.2774  0.3714
  529MPD2    C4 7907   4.629   0.484   0.473  0.0224 -0.6120 -0.6052
  529MPD2    C5 7908   4.638   0.360   0.431  0.5801  1.0637  0.4770
  529MPD2     H 7909   0.090   0.486   0.749 -0.4396  0.7722 -0.4437
  529MPD2    H1 7910   4.561   0.537   0.408  1.0979  1.8845  0.3067
  529MPD2    H2 7911   4.713   0.167   0.475 -1.5497  0.5852 -0.5442
  529MPD2    H3 7912   4.589   0.327   0.340  1.4026  0.7320  0.1527
  529MPD2     N 7913   4.711   0.672   0.585  0.4873 -0.1973  0.3377
  529MPD2    H5 7914   4.653   0.719   0.516  1.1498 -0.7236 -0.5872
  529MPD2    N1 7915   0.087   0.214   0.718  0.2965  0.2067  0.4739
  529MPD2    H7 7916   0.088   0.118   0.687  1.5889  0.5195 -0.4253
  530TMC3    C1 7917   0.199   0.118   0.899  0.1561  0.3636 -0.3009
  530TMC3    C2 7918   0.322   0.115   0.962  0.7947  0.3865  0.3429
  530TMC3    C3 7919   0.362   0.004   1.026  0.0104  0.1943 -0.3166
  530TMC3    C4 7920   0.116   0.009   0.912 -0.3372 -0.3081  0.4220
  530TMC3    C5 7921   0.154   4.644   0.991 -0.0255 -0.1925 -0.1989
  530TMC3    C6 7922   0.282   4.631   1.040  0.4726  0.0221  0.1631
  530TMC3     C 7923   0.156   0.242   0.836 -1.2575  0.5165 -0.3402
  530TMC3     O 7924   0.199   0.343   0.888 -0.2058 -0.1252  0.2285
  530TMC3     H 7925   0.381   0.203   0.942  1.3473 -0.1709 -0.5123
  530TMC3    H1 7926   0.021   0.010   0.858  1.0243  3.3861 -1.9352
  530TMC3    H2 7927   0.303   4.549   1.108  0.1528 -0.6972 -0.6148
  530TMC3    C7 7928   0.058   4.549   1.032 -0.4568 -0.7535  0.5456
  530TMC3    C8 7929   0.493   0.003   1.082 -0.3117 -0.1379  0.1950
  530TMC3    O1 7930   0.112   4.445   1.068  0.2674 -0.3330  0.7539
  530TMC3    O2 7931   0.557   0.110   1.081  0.3838 -0.4743  0.5830
  531MPD2     C 7932   3.846   3.035  13.196 -0.0127 -0.8473  0.1892
  531MPD2    C1 7933   3.736   3.087  13.251  0.4163 -0.0764 -1.0596
  531MPD2    C2 7934   3.635   3.132  13.167 -0.0532  0.5987 -0.6833
  531MPD2    C3 7935   3.649   3.114  13.033  0.0490 -0.0942 -1.0992
  531MPD2    C4 7936   3.761   3.061  12.979 -0.1463  0.0954  0.4114
  531MPD2    C5 7937   3.862   3.018  13.060  0.1126 -0.7564  0.4631
  531MPD2     H 7938   3.545   3.180  13.205  0.3577  0.4093  0.5161
  531MPD2    H1 7939   3.770   3.039  12.873  0.6185 -0.7406  0.6481
  531MPD2    H2 7940   3.937   3.008  13.249 -0.5431  1.0973  2.1130
  531MPD2    H3 7941   3.955   2.983  13.018 -0.8673 -0.9620 -1.5457
  531MPD2     N 7942   3.536   3.148  12.956  0.5876 -0.5149 -0.2087
  531MPD2    H5 7943   3.451   3.179  13.002  1.5250 -0.1148  1.2364
  531MPD2    N1 7944   3.735   3.110  13.394 -0.4485 -0.4131 -0.3749
  531MPD2    H7 7945   3.820   3.091  13.445 -0.3666 -0.4752 -0.5362
  532TMC3    C1 7946   3.684   3.235  13.584 -1.0117 -0.4592  0.5588
  532TMC3    C2 7947   3.578   3.312  13.631  0.3687 -0.5846  0.6147
  532TMC3    C3 7948   3.605   3.438  13.663 -0.5022 -0.4291  0.0466
  532TMC3    C4 7949   3.809   3.289  13.576  0.1160 -0.0421 -0.1483
  532TMC3    C5 7950   3.835   3.412  13.628  0.1730 -0.1379  0.1676
  532TMC3    C6 7951   3.729   3.493  13.660 -0.4783 -0.2463  1.0422
  532TMC3     C 7952   3.631   3.174  13.460 -0.4461 -0.1033  0.4881
  532TMC3     O 7953   3.514   3.201  13.428  0.0533 -0.5405 -0.0810
  532TMC3     H 7954   3.482   3.264  13.644  0.4069 -1.0017 -0.6564
  532TMC3    H1 7955   3.884   3.222  13.536 -1.2999 -1.8110  0.1674
  532TMC3    H2 7956   3.741   3.599  13.674 -1.0846  0.2245 -2.1322
  532TMC3    C7 7957   3.973   3.457  13.655  0.2246 -0.1958  0.5424
  532TMC3    C8 7958   3.495   3.517  13.624 -0.7942  0.2930  0.0992
  532TMC3    O1 7959   3.999   3.575  13.673 -0.0196 -0.7851 -0.0788
  532TMC3    O2 7960   3.497   3.637  13.650  1.0224  0.8007 -0.0334
  533TMC3    C1 7961   4.390   0.241  14.192 -0.1340  0.2219 -0.5501
  533TMC3    C2 7962   4.514   0.279  14.238 -0.0339  0.2967  0.5011
  533TMC3    C3 7963   4.524   0.410  14.278 -1.2139 -0.0799  0.4257
  533TMC3    C4 7964   4.283   0.320  14.207  0.9066  0.8448  0.3607
  533TMC3    C5 7965   4.294   0.442  14.266 -0.8634 -0.6959 -0.1361
  533TMC3    C6 7966   4.417   0.490  14.300  0.0934 -0.2490  0.7695
  533TMC3     C 7967   4.360   0.102  14.224 -0.0032  0.5802 -0.2418
  533TMC3     O 7968   4.438   0.039  14.296  0.5399 -0.1770  0.0590
  533TMC3     H 7969   4.600   0.214  14.233 -0.4192 -0.1217 -0.5807
  533TMC3    H1 7970   4.185   0.277  14.192  1.5002  0.1847 -1.5319
  533TMC3    H2 7971   4.439   0.592  14.329  2.4428 -0.5486  0.0737
  533TMC3    C7 7972   4.194   0.460  14.368  0.5372  0.3174  0.4074
  533TMC3    C8 7973   4.651   0.473  14.277  0.5182 -0.0482 -0.3364
  533TMC3    O1 7974   4.103   0.378  14.384  0.1015  0.5759  0.0162
  533TMC3    O2 7975   4.649   0.592  14.264 -0.6785  0.0883 -0.5168
  534MPD2     C 7976   2.334   1.028   1.167  0.2740  0.8806 -0.5635
  534MPD2    C1 7977   2.274   1.150   1.201  0.5874  0.5753 -0.4862
  534MPD2    C2 7978   2.137   1.167   1.174  0.2926 -0.7207 -0.0214
  534MPD2    C3 7979   2.057   1.072   1.120 -0.1189 -0.7097 -0.3825
  534MPD2    C4 7980   2.122   0.955   1.090 -0.1404  0.3398 -0.3872
  534MPD2    C5 7981   2.251   0.936   1.114  0.5029  0.2197 -0.4082
  534MPD2     H 7982   2.097   1.265   1.201  1.0151 -0.1481 -1.0479
  534MPD2    H1 7983   2.079   0.858   1.067 -0.2534 -0.1052  1.7047
  534MPD2    H2 7984   2.441   1.013   1.179  0.0966  0.4324  0.4337
  534MPD2    H3 7985   2.296   0.845   1.075 -0.9918 -0.0589 -1.4714
  534MPD2     N 7986   1.924   1.070   1.128 -0.1634  0.5105 -0.1123
  534MPD2    H5 7987   1.883   0.979   1.108 -0.2671  0.7882 -1.1765
  534MPD2    N1 7988   2.346   1.262   1.238 -0.4944  0.2577 -0.5210
  534MPD2    H7 7989   2.293   1.340   1.277  0.1608  0.6321 -0.3784
  535TMC3    C1 7990   1.703   1.130   1.148  0.7335  0.5253 -0.1509
  535TMC3    C2 7991   1.671   0.999   1.181  0.0877  0.0574 -0.2969
  535TMC3    C3 7992   1.538   0.970   1.190  0.0599 -0.0071 -0.0502
  535TMC3    C4 7993   1.613   1.229   1.132  0.0953 -0.4786 -0.2519
  535TMC3    C5 7994   1.481   1.192   1.140 -0.8623  0.2047  0.0259
  535TMC3    C6 7995   1.445   1.062   1.171  0.0675 -0.6187 -0.3756
  535TMC3     C 7996   1.842   1.177   1.153 -0.2378 -0.0112 -0.1837
  535TMC3     O 7997   1.877   1.291   1.172  0.8239  0.3508  0.2688
  535TMC3     H 7998   1.744   0.926   1.212  0.6935  1.5620  1.8564
  535TMC3    H1 7999   1.640   1.333   1.122  2.0273 -1.0078 -0.4848
  535TMC3    H2 8000   1.341   1.034   1.172 -0.7107  2.2305 -0.4141
  535TMC3    C7 8001   1.394   1.258   1.038  1.0455 -0.2460 -0.5274
  535TMC3    C8 8002   1.488   0.834   1.189  0.3683  0.2319 -0.7529
  535TMC3    O1 8003   1.346   1.180   0.959 -0.3025  0.0011  0.3657
  535TMC3    O2 8004   1.368   0.824   1.158 -0.2499 -0.2669 -0.0264
  536MPD2     C 8005   0.752   4.626  16.497  0.4307  0.3142 -0.3640
  536MPD2    C1 8006   0.659   4.525  16.488  0.1142  0.5570  0.0499
  536MPD2    C2 8007   0.575   4.522  16.383 -0.6299  0.5607  0.4700
  536MPD2    C3 8008   0.585   4.619  16.283 -0.1670  0.3015 -0.2737
  536MPD2    C4 8009   0.687   4.719  16.288 -0.5735  0.0175 -0.1527
  536MPD2    C5 8010   0.773   4.715  16.398 -0.3757  0.3143  0.0623
  536MPD2     H 8011   0.511   4.436  16.365 -0.2901  0.3648  0.2173
  536MPD2    H1 8012   0.688   0.061  16.213 -1.4656 -1.6774 -1.9604
  536MPD2    H2 8013   0.803   4.632  16.593  0.9133  0.7596 -0.6491
  536MPD2    H3 8014   0.851   0.052  16.411  0.7803 -0.7018 -1.2142
  536MPD2     N 8015   0.484   4.643  16.191  0.7422  0.7143 -0.4687
  536MPD2    H5 8016   0.493   4.718  16.123  0.6482  1.0597 -0.1001
  536MPD2    N1 8017   0.653   4.431  16.587 -0.5799  0.5041  0.0431
  536MPD2    H7 8018   0.734   4.419  16.648 -2.0227 -2.0744  1.4503
  537TMC3    C1 8019   0.559   4.242  16.693 -0.1081  0.2598 -0.1352
  537TMC3    C2 8020   0.685   4.211  16.741 -0.0831 -0.5423 -0.2810
  537TMC3    C3 8021   0.705   4.085  16.783  0.4727  0.5730  0.8314
  537TMC3    C4 8022   0.456   4.150  16.684  0.3550 -0.2411  0.1954
  537TMC3    C5 8023   0.485   4.027  16.734 -0.2492  0.1803  0.4331
  537TMC3    C6 8024   0.606   3.992  16.783 -0.1536 -0.6253  0.3263
  537TMC3     C 8025   0.536   4.354  16.604 -0.8950 -0.0908  0.2494
  537TMC3     O 8026   0.428   4.389  16.554 -0.7649 -0.2028 -0.6388
  537TMC3     H 8027   0.770   4.279  16.732 -1.0210  0.9878  2.5919
  537TMC3    H1 8028   0.356   4.178  16.654  0.1243 -0.8507  0.3816
  537TMC3    H2 8029   0.630   3.891  16.814  1.9416 -0.2754 -0.1470
  537TMC3    C7 8030   0.371   3.938  16.750  0.5207 -0.4001  0.2482
  537TMC3    C8 8031   0.820   4.061  16.868 -0.6041  0.2324  0.0891
  537TMC3    O1 8032   0.302   3.928  16.652 -0.1053 -0.0762  0.2348
  537TMC3    O2 8033   0.798   4.007  16.972  0.2684 -0.6453  0.0780
  538TMC3    C1 8034   1.352   1.559  10.968  0.6974  0.1175  0.0256
  538TMC3    C2 8035   1.485   1.540  10.980  0.5057  0.1364  0.5425
  538TMC3    C3 8036   1.565   1.632  10.911  0.4513  0.0284 -0.4137
  538TMC3    C4 8037   1.298   1.663  10.898 -0.2935 -0.6401  0.0750
  538TMC3    C5 8038   1.383   1.757  10.840 -0.1401  0.3981  0.2524
  538TMC3    C6 8039   1.515   1.740  10.836 -0.3442  0.3617 -0.0594
  538TMC3     C 8040   1.260   1.490  11.047  0.1439 -0.5630 -0.3122
  538TMC3     O 8041   1.141   1.525  11.038 -0.4365  0.7639 -0.1515
  538TMC3     H 8042   1.522   1.443  11.011 -0.1865 -0.1414  0.5053
  538TMC3    H1 8043   1.193   1.689  10.901 -0.6351 -2.0339  0.2500
  538TMC3    H2 8044   1.573   1.823  10.797 -1.9467  2.2836  1.6089
  538TMC3    C7 8045   1.326   1.887  10.824  0.0360 -0.0404  0.3862
  538TMC3    C8 8046   1.708   1.636  10.949 -0.8871  0.0269 -0.0207
  538TMC3    O1 8047   1.223   1.883  10.756 -0.1772 -0.0295  0.2923
  538TMC3    O2 8048   1.743   1.570  11.043  0.3405 -0.1210 -0.2375
  539MPD2     C 8049   0.976   0.599  11.434  0.4112 -0.2467 -0.4814
  539MPD2    C1 8050   0.980   0.677  11.315  0.7353  0.2016  0.2526
  539MPD2    C2 8051   0.903   0.790  11.312 -0.2379 -0.2310  0.3653
  539MPD2    C3 8052   0.832   0.832  11.419 -0.1413  0.2130 -0.4060
  539MPD2    C4 8053   0.820   0.757  11.529  0.4758 -0.6473  0.7322
  539MPD2    C5 8054   0.899   0.639  11.538 -0.6375  0.0768  0.5680
  539MPD2     H 8055   0.898   0.845  11.219  1.7674  0.2514  0.5303
  539MPD2    H1 8056   0.756   0.786  11.612 -0.9567  2.7789 -1.5862
  539MPD2    H2 8057   1.024   0.501  11.433 -0.5335 -0.7156 -0.0803
  539MPD2    H3 8058   0.879   0.575  11.622  1.5981 -2.3989 -0.7976
  539MPD2     N 8059   0.758   0.950  11.429 -0.5735 -0.9145  0.6346
  539MPD2    H5 8060   0.709   0.970  11.515 -0.2172  0.3355  0.5463
  539MPD2    N1 8061   1.056   0.623  11.210  0.1135 -0.0943 -0.3341
  539MPD2    H7 8062   1.105   0.536  11.231  0.0120  0.1691  1.0192
  540TMC3    C1 8063   0.677   1.149  11.345  0.1883  0.4538  0.1713
  540TMC3    C2 8064   0.689   1.255  11.260 -0.2757 -0.8637 -0.2947
  540TMC3    C3 8065   0.596   1.361  11.266 -0.8839 -0.0602 -0.2949
  540TMC3    C4 8066   0.584   1.157  11.449  0.3651 -0.1844  0.1928
  540TMC3    C5 8067   0.500   1.268  11.454 -0.2031  0.0158  0.1648
  540TMC3    C6 8068   0.503   1.373  11.363 -0.4172 -0.2417  0.2021
  540TMC3     C 8069   0.770   1.048  11.334  0.1568 -0.3892 -0.0103
  540TMC3     O 8070   0.866   1.062  11.259  0.0603  0.1383 -0.2283
  540TMC3     H 8071   0.760   1.245  11.179 -1.3814  0.2655 -1.3858
  540TMC3    H1 8072   0.568   1.068  11.509 -1.0673 -0.6491 -0.8856
  540TMC3    H2 8073   0.446   1.463  11.379  3.4481  2.3388 -0.7545
  540TMC3    C7 8074   0.427   1.309  11.575  0.0167 -0.1207 -0.0491
  540TMC3    C8 8075   0.569   1.432  11.136  0.1395  0.1942  0.0493
  540TMC3    O1 8076   0.327   1.376  11.563 -0.2249  0.0733  0.1414
  540TMC3    O2 8077   0.661   1.429  11.057 -0.1966 -0.0872 -0.4314
  541MPD2     C 8078   4.531   3.747  13.037 -0.0241  0.5199 -0.2085
  541MPD2    C1 8079   4.605   3.652  12.963 -0.0641 -0.8010 -0.0059
  541MPD2    C2 8080   4.599   3.663  12.823  0.2188  0.0203  0.3049
  541MPD2    C3 8081   4.526   3.767  12.761 -0.0922 -0.3144 -0.6856
  541MPD2    C4 8082   4.455   3.857  12.839  0.8434  0.2375 -0.4555
  541MPD2    C5 8083   4.455   3.836  12.971 -0.1212 -0.1441 -0.1422
  541MPD2     H 8084   4.637   3.582  12.761 -1.6871  0.7987 -1.8760
  541MPD2    H1 8085   4.410   3.953  12.815  1.4191  0.7648  0.5197
  541MPD2    H2 8086   4.536   3.739  13.145  2.9296 -1.9428 -0.5179
  541MPD2    H3 8087   4.399   3.903  13.036  0.2985  0.1402 -0.0766
  541MPD2     N 8088   4.509   3.788  12.617 -0.2539 -0.3012 -0.1484
  541MPD2    H5 8089   4.437   3.857  12.597  0.1145  0.0765 -0.1779
  541MPD2    N1 8090   4.669   3.540  13.014 -0.0147  0.6617  0.4730
  541MPD2    H7 8091   4.718   3.489  12.941 -0.8979  0.3853  0.0676
  542TMC3    C1 8092   4.529   3.744  12.384 -0.4228 -0.0060  0.1854
  542TMC3    C2 8093   4.529   3.641  12.295 -0.2552  0.0909 -0.1161
  542TMC3    C3 8094   4.455   3.657  12.184  0.1159 -0.2565 -0.1214
  542TMC3    C4 8095   4.463   3.858  12.364  0.1723 -0.1024  0.4220
  542TMC3    C5 8096   4.392   3.867  12.248 -0.2791  0.5340  0.4633
  542TMC3    C6 8097   4.382   3.768  12.155  0.1752 -0.0599  0.9015
  542TMC3     C 8098   4.563   3.707  12.516  0.6012  0.0718  0.4714
  542TMC3     O 8099   4.609   3.602  12.529  0.1359  0.3716  0.1836
  542TMC3     H 8100   4.601   3.562  12.308 -0.1909  0.1365 -0.1942
  542TMC3    H1 8101   4.478   3.951  12.417 -1.5672  0.5615 -0.2566
  542TMC3    H2 8102   4.324   3.773  12.063  0.3406  0.8034  0.8411
  542TMC3    C7 8103   4.353   4.000  12.208 -0.0846 -0.6452  0.6905
  542TMC3    C8 8104   4.432   3.541  12.100  0.0938 -0.1534  0.3885
  542TMC3    O1 8105   4.424   4.094  12.233  0.0055  0.7685 -0.3679
  542TMC3    O2 8106   4.410   3.565  11.983 -0.0335 -0.0954  0.2922
  543TMC3    C1 8107   4.030   0.155  17.608 -0.3979  0.0472  0.4702
  543TMC3    C2 8108   4.063   0.036  17.667 -0.1918  0.5471 -0.0457
  543TMC3    C3 8109   4.090   0.039   0.060  0.1040  0.2701 -0.2958
  543TMC3    C4 8110   4.032   0.273  17.676 -0.6018  0.1956 -0.3299
  543TMC3    C5 8111   4.039   0.266   0.065  0.1675 -0.2642 -0.3769
  543TMC3    C6 8112   4.072   0.152   0.136  0.8158  0.3617  0.0257
  543TMC3     C 8113   4.011   0.163  17.459  0.1659 -0.1872  0.1526
  543TMC3     O 8114   4.073   0.072  17.396 -0.4711  0.1740 -0.0563
  543TMC3     H 8115   4.070   4.683  17.606  0.7539 -0.5891  1.7099
  543TMC3    H1 8116   4.020   0.360  17.613 -1.3259 -0.9430 -1.7618
  543TMC3    H2 8117   4.065   0.151   0.244  2.9678 -0.6588  0.1497
  543TMC3    C7 8118   4.043   0.385   0.143  0.4257  0.2596 -0.0375
  543TMC3    C8 8119   4.117   4.643   0.111 -0.7940 -0.0545  0.5874
  543TMC3    O1 8120   4.018   0.367   0.260  0.2459  0.1734  0.7460
  543TMC3    O2 8121   4.080   4.549   0.041  0.3861  0.6960  0.4346
  544MPD2     C 8122   4.197   4.321   0.503  0.1548  0.9363  0.6356
  544MPD2    C1 8123   4.136   4.297   0.386  0.3234 -0.3673  0.4597
  544MPD2    C2 8124   4.127   4.403   0.293 -0.2478 -0.1866 -0.0316
  544MPD2    C3 8125   4.167   4.530   0.328 -0.0657  0.2541 -0.2741
  544MPD2    C4 8126   4.234   4.552   0.442  0.0273 -0.1049  0.2203
  544MPD2    C5 8127   4.257   4.443   0.526 -0.3191 -0.1524  0.0679
  544MPD2     H 8128   4.071   4.386   0.202  0.2207 -0.7257 -0.2216
  544MPD2    H1 8129   4.293   4.642   0.454 -0.1364  0.2803 -1.9203
  544MPD2    H2 8130   4.205   4.247   0.582  0.6908 -1.5603 -1.7615
  544MPD2    H3 8131   4.322   4.458   0.612  0.2466 -0.1374 -0.3567
  544MPD2     N 8132   4.163   4.642   0.237  0.0583 -0.6702 -0.2268
  544MPD2    H5 8133   4.191   4.733   0.273  3.9450 -2.4478  1.1848
  544MPD2    N1 8134   4.079   4.162   0.362 -0.3072 -0.3633  0.4986
  544MPD2    H7 8135   4.088   4.089   0.432 -1.3850 -3.0041 -2.0675
  545TMC3    C1 8136   3.936   4.001   0.248 -0.4520  0.2424  0.3569
  545TMC3    C2 8137   3.945   3.922   0.363 -0.0743  0.3491 -0.3428
  545TMC3    C3 8138   3.865   3.818   0.373 -1.0017 -0.5153  0.5121
  545TMC3    C4 8139   3.831   3.978   0.161 -0.1675 -0.3952 -0.5135
  545TMC3    C5 8140   3.753   3.867   0.174 -0.1965  0.1420 -0.0268
  545TMC3    C6 8141   3.773   3.778   0.276 -0.6962  0.1039 -0.0347
  545TMC3     C 8142   4.005   4.129   0.249  0.0452 -0.3173  0.9257
  545TMC3     O 8143   3.967   4.201   0.156  0.3469  0.1307 -0.3810
  545TMC3     H 8144   4.018   3.946   0.439  0.5562  0.3885 -0.9582
  545TMC3    H1 8145   3.824   4.038   0.070  3.9441  1.8279  0.6302
  545TMC3    H2 8146   3.714   3.690   0.296 -2.8671  2.1042  2.3543
  545TMC3    C7 8147   3.661   3.846   0.060 -0.4219  0.3305 -0.2044
  545TMC3    C8 8148   3.878   3.729   0.492  0.8605  0.2543  0.3204
  545TMC3    O1 8149   3.679   3.923  17.714  0.2777  0.4667 -0.1919
  545TMC3    O2 8150   3.849   3.613   0.498  0.0492  0.2912  0.1441
  546MPD2     C 8151   0.950   4.720  16.824  0.4661 -0.6828  0.2159
  546MPD2    C1 8152   0.845   0.065  16.859  0.2562 -0.0305 -0.0572
  546MPD2    C2 8153   0.853   0.200  16.861  0.1130  0.1095  0.3587
  546MPD2    C3 8154   0.986   0.254  16.844  0.0980 -0.1513 -0.3850
  546MPD2    C4 8155   1.092   0.170  16.840 -0.1993 -0.0019  0.4235
  546MPD2    C5 8156   1.074   0.040  16.828 -0.2139  0.2516 -0.3878
  546MPD2     H 8157   0.766   0.261  16.887  0.0046  0.0528  0.1278
  546MPD2    H1 8158   1.195   0.200  16.851 -0.5754  1.9438 -1.5175
  546MPD2    H2 8159   0.940   4.615  16.797  0.5386 -0.3630 -1.0530
  546MPD2    H3 8160   1.159   4.710  16.818 -0.0697  0.3617  0.1103
  546MPD2     N 8161   1.012   0.394  16.865 -0.3266 -0.3207 -0.3175
  546MPD2    H5 8162   1.111   0.409  16.875 -0.5964  0.7227  0.7324
  546MPD2    N1 8163   0.719   0.006  16.887 -0.2526  0.3647  0.3836
  546MPD2    H7 8164   0.641   0.068  16.902  0.4743  1.1430  0.9866
  547TMC3    C1 8165   0.552   4.586  16.919 -0.5759 -0.1911 -0.0539
  547TMC3    C2 8166   0.457   4.663  16.850  0.7351 -0.3791 -0.1269
  547TMC3    C3 8167   0.332   4.602  16.829 -0.3620  0.1168 -0.0782
  547TMC3    C4 8168   0.523   4.457  16.962  0.3091 -0.4615  0.4198
  547TMC3    C5 8169   0.399   4.410  16.940 -0.5007 -0.8452  0.0154
  547TMC3    C6 8170   0.303   4.475  16.869  0.3621 -0.2940  0.1230
  547TMC3     C 8171   0.688   4.609  16.890 -0.2069 -0.2645 -0.8381
  547TMC3     O 8172   0.764   4.511  16.886 -0.2193  0.5943  0.4358
  547TMC3     H 8173   0.489   0.017  16.800 -0.3962  0.1748  0.1380
  547TMC3    H1 8174   0.602   4.404  17.012  1.5329 -0.0597 -1.1030
  547TMC3    H2 8175   0.201   4.440  16.870  0.8176 -1.7348 -3.3657
  547TMC3    C7 8176   0.360   4.282  16.994 -0.1223  0.1485  0.0147
  547TMC3    C8 8177   0.211   4.685  16.820 -0.1239  0.3713 -0.5097
  547TMC3    O1 8178   0.264   4.227  16.942  0.0344  0.0073  0.0226
  547TMC3    O2 8179   0.117   4.624  16.768  0.0099  0.8236  0.0659
  548MPD2     C 8180   0.125   0.543  12.497  0.0554 -0.2648 -0.1127
  548MPD2    C1 8181   0.054   0.444  12.433 -0.0390 -0.0922  0.0505
  548MPD2    C2 8182   0.125   0.326  12.404 -0.7514  0.2612  0.2301
  548MPD2    C3 8183   0.259   0.314  12.420  0.3136  0.4466  0.6812
  548MPD2    C4 8184   0.333   0.422  12.473 -0.1294 -0.3106 -0.9940
  548MPD2    C5 8185   0.260   0.529  12.513 -0.4720 -0.1991 -0.2446
  548MPD2     H 8186   0.071   0.238  12.371 -0.7275  0.1154  0.5881
  548MPD2    H1 8187   0.440   0.424  12.489 -0.3649 -1.0947  0.6848
  548MPD2    H2 8188   0.070   0.628  12.536 -1.0162 -0.7734 -0.5089
  548MPD2    H3 8189   0.316   0.609  12.560 -0.1916  0.5342 -1.8348
  548MPD2     N 8190   0.326   0.194  12.383 -0.0087  0.3948 -0.9799
  548MPD2    H5 8191   0.276   0.111  12.352 -1.3814 -0.0983  2.5516
  548MPD2    N1 8192   4.654   0.460  12.413 -0.2931  0.3658 -0.0326
  548MPD2    H7 8193   4.615   0.550  12.440 -0.7638  0.1967 -0.1429
  549TMC3    C1 8194   4.434   0.407  12.340  0.1546 -0.0827  0.2794
  549TMC3    C2 8195   4.377   0.520  12.389 -0.1274  0.0213  0.5519
  549TMC3    C3 8196   4.249   0.561  12.340 -0.0207  0.2733 -0.5411
  549TMC3    C4 8197   4.367   0.335  12.247 -0.1490 -0.2296 -0.8163
  549TMC3    C5 8198   4.252   0.380  12.191 -0.5053  0.7934 -0.3302
  549TMC3    C6 8199   4.190   0.494  12.236  0.1473  0.0393 -1.0516
  549TMC3     C 8200   4.562   0.362  12.379 -0.2481  0.0277 -0.7949
  549TMC3     O 8201   4.592   0.245  12.351  0.6471 -0.3257 -0.0140
  549TMC3     H 8202   4.423   0.561  12.479  0.0713  2.1481 -0.5371
  549TMC3    H1 8203   4.409   0.241  12.213 -2.1481 -1.0955 -0.8685
  549TMC3    H2 8204   4.093   0.527  12.202  0.2677  1.4783  0.0121
  549TMC3    C7 8205   4.183   0.299  12.086 -0.4101 -0.1422 -0.1792
  549TMC3    C8 8206   4.186   0.692  12.372  0.6834 -0.2748 -0.2615
  549TMC3    O1 8207   4.097   0.358  12.022  0.1763  0.8273 -0.0476
  549TMC3    O2 8208   4.078   0.714  12.321  0.5575 -0.3357  0.7233
  550TMC3    C1 8209   4.083   3.027  12.066  0.0893 -0.3335  0.3489
  550TMC3    C2 8210   4.035   3.133  12.142  0.4984  0.1169 -0.2226
  550TMC3    C3 8211   4.061   3.265  12.102 -0.3437 -0.2387 -0.3842
  550TMC3    C4 8212   4.146   3.055  11.945  0.0572 -0.0363  0.3235
  550TMC3    C5 8213   4.147   3.191  11.893  0.2454  0.3873  0.2364
  550TMC3    C6 8214   4.122   3.291  11.985 -0.1773 -0.1099  0.4311
  550TMC3     C 8215   3.997   2.908  12.069  0.7351 -0.2800  0.5265
  550TMC3     O 8216   3.956   2.877  12.186 -0.0070  0.3400 -0.3844
  550TMC3     H 8217   3.977   3.109  12.230 -0.4096 -0.3458 -0.9459
  550TMC3    H1 8218   4.183   2.978  11.878 -0.4381 -0.1920  0.2323
  550TMC3    H2 8219   4.130   3.390  11.943  1.1449  1.1336  3.6504
  550TMC3    C7 8220   4.074   3.202  11.772  0.3820 -0.3924  0.1113
  550TMC3    C8 8221   4.024   3.379  12.183  0.3527  0.8141 -0.0661
  550TMC3    O1 8222   4.001   3.109  11.735 -0.3076 -0.1186 -0.1190
  550TMC3    O2 8223   4.048   3.492  12.140 -0.3947  0.5635 -0.1441
  551TMC3    C1 8224   1.853   1.638  12.955  0.6085 -0.5975 -0.7289
  551TMC3    C2 8225   1.975   1.703  12.957 -0.3952 -0.3977  0.3938
  551TMC3    C3 8226   2.035   1.722  13.079  0.7550  0.6079  0.2546
  551TMC3    C4 8227   1.792   1.601  13.070 -0.4175  0.4087  1.0129
  551TMC3    C5 8228   1.859   1.611  13.187  0.1636 -1.0744 -0.8712
  551TMC3    C6 8229   1.977   1.679  13.195  0.5845 -0.1182 -0.0807
  551TMC3     C 8230   1.793   1.610  12.826 -0.1837  0.4076 -0.1655
  551TMC3     O 8231   1.708   1.522  12.823  0.4499 -0.7198 -0.2841
  551TMC3     H 8232   2.028   1.719  12.863 -1.6077 -1.5463 -0.4978
  551TMC3    H1 8233   1.694   1.555  13.067 -0.3051  0.1878  0.7131
  551TMC3    H2 8234   2.028   1.690  13.290  0.9955  0.3738 -0.3620
  551TMC3    C7 8235   1.818   1.539  13.306 -0.2837  0.8637  0.2770
  551TMC3    C8 8236   2.158   1.798  13.088  0.1614 -0.5769  0.4140
  551TMC3    O1 8237   1.896   1.537  13.398  0.9443 -0.1851 -0.2552
  551TMC3    O2 8238   2.243   1.764  13.169 -0.2979  0.2937  0.2190
  552MPD2     C 8239   3.760   3.479  14.040  0.2657  0.0176 -0.3195
  552MPD2    C1 8240   3.761   3.387  14.147 -0.3046 -1.0366 -0.0414
  552MPD2    C2 8241   3.867   3.378  14.230  0.7923 -0.4008  0.1590
  552MPD2    C3 8242   3.988   3.444  14.202 -0.2988  0.5008 -0.3900
  552MPD2    C4 8243   3.988   3.530  14.089  0.1131  0.0089  0.2928
  552MPD2    C5 8244   3.873   3.552  14.014  0.4798 -0.3032 -0.6425
  552MPD2     H 8245   3.862   3.311  14.314  1.6746 -0.1763  0.3961
  552MPD2    H1 8246   4.076   3.590  14.065  1.2215 -1.3344  0.9905
  552MPD2    H2 8247   3.681   3.497  13.967  0.3229  0.0045 -0.3850
  552MPD2    H3 8248   3.872   3.614  13.925 -0.4021  2.3740  1.2334
  552MPD2     N 8249   4.107   3.423  14.266 -0.1465 -0.4618  0.7997
  552MPD2    H5 8250   4.189   3.466  14.225  0.4857 -0.8779  1.6363
  552MPD2    N1 8251   3.660   3.291  14.159 -0.2675 -0.1196 -0.7319
  552MPD2    H7 8252   3.670   3.221  14.232  1.3919  0.7687 -0.1018
  553TMC3    C1 8253   3.515   3.132  14.081 -0.1571 -0.5205 -0.0180
  553TMC3    C2 8254   3.462   3.089  13.961  0.1732  0.0992 -0.8595
  553TMC3    C3 8255   3.506   2.966  13.918  0.0358 -0.1434 -0.6487
  553TMC3    C4 8256   3.587   3.049  14.166  0.4035 -0.0069  0.1131
  553TMC3    C5 8257   3.636   2.931  14.115  0.1617  0.4376  0.2911
  553TMC3    C6 8258   3.593   2.894  13.994  0.7211 -0.0331 -0.2413
  553TMC3     C 8259   3.571   3.262  14.066  0.0160  0.2040  0.2434
  553TMC3     O 8260   3.530   3.323  13.971 -0.4602 -0.2092  0.0443
  553TMC3     H 8261   3.424   3.156  13.884 -1.6719  0.4995  0.3858
  553TMC3    H1 8262   3.621   3.079  14.265  2.7507 -1.2464 -0.3045
  553TMC3    H2 8263   3.642   2.804  13.957  1.2561 -0.4992  1.6234
  553TMC3    C7 8264   3.773   2.923  14.121  0.4051  0.4215 -0.0419
  553TMC3    C8 8265   3.557   2.973  13.786  0.1044  0.2354 -0.6388
  553TMC3    O1 8266   3.831   2.909  14.224 -0.0233  0.0866  0.0591
  553TMC3    O2 8267   3.648   3.057  13.793  0.2165 -0.3786  0.5459
  554TMC3    C1 8268   4.550   1.740  11.399  0.2862 -0.0682 -0.6042
  554TMC3    C2 8269   4.451   1.768  11.303  0.8403  0.3670 -0.4956
  554TMC3    C3 8270   4.500   1.781  11.172 -0.0107  0.2678  0.5026
  554TMC3    C4 8271   4.687   1.739  11.365 -0.4000 -0.8222 -0.4785
  554TMC3    C5 8272   4.719   1.735  11.232  0.7458  0.1754  0.1358
  554TMC3    C6 8273   4.630   1.747  11.136 -0.2930 -0.5548 -0.0487
  554TMC3     C 8274   4.514   1.637  11.500  0.2012 -0.2530 -0.4219
  554TMC3     O 8275   4.395   1.633  11.529  0.2068  0.2578  0.2093
  554TMC3     H 8276   4.347   1.785  11.328  0.8476 -0.3756  0.0665
  554TMC3    H1 8277   0.016   1.729  11.451 -1.7900 -0.2036  0.6425
  554TMC3    H2 8278   4.657   1.750  11.031  1.7635 -1.2383  0.4480
  554TMC3    C7 8279   0.103   1.808  11.198 -0.1469 -0.1372 -0.3974
  554TMC3    C8 8280   4.460   1.896  11.091 -0.2217 -0.2279 -0.0005
  554TMC3    O1 8281   0.114   1.859  11.083  0.2417 -0.6320 -0.4506
  554TMC3    O2 8282   4.553   1.941  11.020 -0.4148  0.6471  0.7311
  555TMC3    C1 8283   4.514   1.896  15.069  0.1123 -0.3777 -0.1356
  555TMC3    C2 8284   4.489   1.989  15.167  0.2305  0.5722  0.3654
  555TMC3    C3 8285   4.438   1.942  15.289 -0.0040 -0.3076  0.6343
  555TMC3    C4 8286   4.511   1.765  15.093 -0.9269 -0.0022 -0.2782
  555TMC3    C5 8287   4.459   1.721  15.220  0.3770  0.5226 -0.5087
  555TMC3    C6 8288   4.403   1.812  15.306  0.8672 -0.2545 -0.7151
  555TMC3     C 8289   4.612   1.932  14.962 -0.5192  0.3777  0.3162
  555TMC3     O 8290   4.716   1.985  15.001 -0.5285 -0.3206 -0.1464
  555TMC3     H 8291   4.538   2.086  15.163  1.4619 -0.0020  1.4019
  555TMC3    H1 8292   4.557   1.705  15.016 -1.5768 -2.1795  1.0126
  555TMC3    H2 8293   4.353   1.765  15.390  0.0401 -0.4486 -1.3131
  555TMC3    C7 8294   4.443   1.582  15.253  0.3208  0.2590 -0.1848
  555TMC3    C8 8295   4.377   2.046  15.364 -0.4180  0.4198  0.1617
  555TMC3    O1 8296   4.343   1.541  15.312  0.6676 -0.2415  0.1812
  555TMC3    O2 8297   4.368   2.150  15.299  0.1624  0.2675 -0.6193
  556MPD2     C 8298   2.662   2.674  10.980 -0.5788  0.9603 -0.1972
  556MPD2    C1 8299   2.535   2.641  11.032  0.3234  0.9054  0.2087
  556MPD2    C2 8300   2.451   2.569  10.952 -1.0685  0.0109  0.8026
  556MPD2    C3 8301   2.497   2.517  10.831 -0.1211 -0.2887 -0.7480
  556MPD2    C4 8302   2.626   2.548  10.785 -0.2462  0.3131 -0.5984
  556MPD2    C5 8303   2.707   2.630  10.863 -0.2698 -0.8251  0.4410
  556MPD2     H 8304   2.346   2.555  10.972 -1.1375 -0.0521  0.3886
  556MPD2    H1 8305   2.661   2.512  10.689  0.9301 -0.8899  0.2813
  556MPD2    H2 8306   2.734   2.729  11.039 -2.3133  0.9538  1.8949
  556MPD2    H3 8307   2.803   2.672  10.836 -0.6154  0.9321  1.9192
  556MPD2     N 8308   2.410   2.427  10.762  0.2902  0.2355 -0.0741
  556MPD2    H5 8309   2.319   2.409  10.804  0.0273  0.2679 -0.6355
  556MPD2    N1 8310   2.494   2.692  11.161 -0.3299 -0.0792 -0.4374
  556MPD2    H7 8311   2.406   2.655  11.197  0.2257 -0.5902  0.3910
  557TMC3    C1 8312   2.343   2.295  10.569 -0.6422 -0.2148  0.0601
  557TMC3    C2 8313   2.334   2.303  10.429  0.1799  0.0641  0.6518
  557TMC3    C3 8314   2.292   2.186  10.368 -0.3318  0.3568  0.0445
  557TMC3    C4 8315   2.310   2.184  10.640 -0.6206 -0.0066 -0.7820
  557TMC3    C5 8316   2.263   2.077  10.564 -0.3785  0.0839  0.4536
  557TMC3    C6 8317   2.263   2.070  10.432  0.1594 -0.2445  0.3969
  557TMC3     C 8318   2.430   2.399  10.626 -0.4884  0.3237  0.7238
  557TMC3     O 8319   2.492   2.469  10.547 -0.4866  0.3301 -0.6872
  557TMC3     H 8320   2.345   2.394  10.371 -0.1037 -0.0216  0.4650
  557TMC3    H1 8321   2.331   2.180  10.746 -1.3535  0.4325 -0.6189
  557TMC3    H2 8322   2.225   1.979  10.387  0.7138  0.1133 -0.8117
  557TMC3    C7 8323   2.161   2.000  10.624 -0.2295  0.1365  0.4675
  557TMC3    C8 8324   2.253   2.194  10.232  0.6841 -0.0398 -0.3859
  557TMC3    O1 8325   2.050   1.990  10.568 -0.0775  0.1902  0.3343
  557TMC3    O2 8326   2.231   2.307  10.186  0.2557 -0.1392 -0.3689
  558TMC3    C1 8327   4.682   0.427   9.284 -0.0502  0.0811 -0.1386
  558TMC3    C2 8328   4.590   0.511   9.342 -0.0632 -0.0849  0.2376
  558TMC3    C3 8329   4.468   0.457   9.373 -0.3977  0.2055  0.8195
  558TMC3    C4 8330   4.658   0.299   9.254  0.4807  0.3010 -0.7776
  558TMC3    C5 8331   4.535   0.246   9.274  0.0984  0.0764  0.2264
  558TMC3    C6 8332   4.438   0.324   9.333  0.3618  0.2701 -0.3563
  558TMC3     C 8333   0.084   0.449   9.328 -1.0812  0.3749  0.8766
  558TMC3     O 8334   0.108   0.549   9.397 -0.6090  0.4496  0.1891
  558TMC3     H 8335   4.614   0.608   9.386 -0.0661 -0.2911  0.6983
  558TMC3    H1 8336   4.730   0.237   9.202  1.0862 -0.2685  0.7322
  558TMC3    H2 8337   4.336   0.292   9.346  0.2007  0.1628 -1.8831
  558TMC3    C7 8338   4.519   0.104   9.239 -0.3921 -0.7176  0.4832
  558TMC3    C8 8339   4.391   0.526   9.466  0.7197 -0.2223  0.0337
  558TMC3    O1 8340   4.614   0.037   9.201  0.1854 -0.3576 -0.1811
  558TMC3    O2 8341   4.449   0.557   9.569 -0.9802 -0.0849  0.8187
  559MPD2     C 8342   4.588   1.854  10.180 -0.6719 -0.4050 -0.2257
  559MPD2    C1 8343   4.468   1.787  10.186  1.0391  0.6350  0.1163
  559MPD2    C2 8344   4.452   1.668  10.261  0.3791 -0.1977  0.2350
  559MPD2    C3 8345   4.562   1.640  10.339 -0.4350 -0.0874  0.3109
  559MPD2    C4 8346   4.678   1.718  10.337 -0.5994 -0.0644  0.5066
  559MPD2    C5 8347   4.696   1.819  10.248 -0.4160 -0.0952 -0.4480
  559MPD2     H 8348   4.360   1.612  10.270  1.4749 -2.4184 -2.6381
  559MPD2    H1 8349   0.025   1.705  10.405 -0.2372 -0.4742 -0.0223
  559MPD2    H2 8350   4.585   1.947  10.124  0.0949  0.9843  2.0054
  559MPD2    H3 8351   0.055   1.869  10.237  0.7893 -2.1365  0.6291
  559MPD2     N 8352   4.543   1.531  10.424 -0.0162 -0.6843 -0.3971
  559MPD2    H5 8353   4.452   1.487  10.418  0.4001 -1.4708 -0.9816
  559MPD2    N1 8354   4.362   1.838  10.106 -0.1223 -0.0011  0.3036
  559MPD2    H7 8355   4.379   1.921  10.051  2.1131 -0.6590  0.0168
  560TMC3    C1 8356   4.575   1.398  10.622 -0.0363 -0.6043  0.6508
  560TMC3    C2 8357   4.482   1.308  10.587 -0.6016  0.2946 -0.5797
  560TMC3    C3 8358   4.471   1.191  10.650 -0.1303 -0.0584  0.0452
  560TMC3    C4 8359   4.664   1.369  10.719  0.3259  0.4341  0.8513
  560TMC3    C5 8360   4.651   1.250  10.781  0.3732 -0.3206 -0.3019
  560TMC3    C6 8361   4.557   1.157  10.756 -0.5133  1.4044  0.7870
  560TMC3     C 8362   4.624   1.493  10.528  0.0802  0.1216  0.4897
  560TMC3     O 8363   4.729   1.547  10.563  0.3578  0.0797  0.0861
  560TMC3     H 8364   4.405   1.320  10.512 -2.3048 -1.7058  0.8461
  560TMC3    H1 8365   0.004   1.441  10.747 -0.3521  1.0552  1.1068
  560TMC3    H2 8366   4.565   1.063  10.810 -2.3212 -0.7513 -2.6851
  560TMC3    C7 8367   4.726   1.230  10.904  0.5007  0.5908  0.3502
  560TMC3    C8 8368   4.358   1.108  10.629 -0.2794  0.1148 -0.6230
  560TMC3    O1 8369   4.663   1.163  10.987  0.3359  0.1458 -0.0737
  560TMC3    O2 8370   4.301   1.112  10.516 -0.2999 -0.3396  0.5572
  561TMC3    C1 8371   3.239   0.510  11.363  0.0648  0.5586  0.3662
  561TMC3    C2 8372   3.202   0.438  11.470  0.2075  0.3027 -0.1981
  561TMC3    C3 8373   3.077   0.458  11.507  0.6425 -0.0978 -0.1749
  561TMC3    C4 8374   3.171   0.616  11.305  0.1851  0.1133 -0.1145
  561TMC3    C5 8375   3.046   0.641  11.358  0.3214 -0.6504  0.9487
  561TMC3    C6 8376   3.002   0.568  11.470  0.3643 -0.0323  0.9143
  561TMC3     C 8377   3.375   0.473  11.319 -0.2082  0.3686  0.5782
  561TMC3     O 8378   3.459   0.430  11.394  0.7631  0.3611 -0.4322
  561TMC3     H 8379   3.262   0.353  11.499 -1.1316 -0.6361 -0.2083
  561TMC3    H1 8380   3.221   0.672  11.227 -0.5892 -0.2131 -0.8410
  561TMC3    H2 8381   2.907   0.596  11.514 -0.5638 -0.7846 -0.6097
  561TMC3    C7 8382   2.966   0.758  11.324  0.2167  0.2846 -1.0010
  561TMC3    C8 8383   3.018   0.373  11.605 -0.7220 -0.2629 -0.3574
  561TMC3    O1 8384   2.851   0.759  11.363  0.2555  0.0563 -0.4473
  561TMC3    O2 8385   3.086   0.289  11.652  0.0389  0.1285  0.3525
  562TMC3    C1 8386   3.660   2.300  16.301 -0.2703 -0.5660 -0.4741
  562TMC3    C2 8387   3.682   2.387  16.202  1.4335 -0.1031  0.0487
  562TMC3    C3 8388   3.770   2.350  16.108  0.1537 -0.5519 -0.4041
  562TMC3    C4 8389   3.730   2.182  16.314 -0.1023  0.5830 -0.6717
  562TMC3    C5 8390   3.810   2.152  16.207 -0.1645  0.0289 -0.5614
  562TMC3    C6 8391   3.830   2.230  16.097 -0.6065 -0.8209 -0.2079
  562TMC3     C 8392   3.578   2.340  16.415  0.4229  0.2485 -0.3943
  562TMC3     O 8393   3.510   2.253  16.470 -0.0743  0.2883 -0.3791
  562TMC3     H 8394   3.641   2.487  16.207  2.3864  0.2951  0.0295
  562TMC3    H1 8395   3.701   2.107  16.386 -0.1038  0.5237 -0.7340
  562TMC3    H2 8396   3.905   2.210  16.021  0.0383 -0.4041  0.3106
  562TMC3    C7 8397   3.895   2.031  16.219 -0.1665 -0.4590  0.0156
  562TMC3    C8 8398   3.819   2.464  16.033  0.4169 -0.6910 -0.0863
  562TMC3    O1 8399   3.964   1.995  16.125 -0.0591  0.3453 -0.1166
  562TMC3    O2 8400   3.831   2.568  16.099 -0.5111  0.4174 -0.0300
  563MPD2     C 8401   1.570   3.544  15.618 -0.2058 -1.0181  0.0164
  563MPD2    C1 8402   1.626   3.629  15.706 -0.2944  0.4810 -0.3061
  563MPD2    C2 8403   1.755   3.599  15.762  0.8692 -0.4650  0.2107
  563MPD2    C3 8404   1.820   3.480  15.728  0.3238  0.3781 -0.0203
  563MPD2    C4 8405   1.761   3.398  15.630 -0.7704 -0.0090 -0.2165
  563MPD2    C5 8406   1.644   3.436  15.574 -0.0482 -0.3263  0.2225
  563MPD2     H 8407   1.794   3.680  15.822  2.1525 -0.2561 -0.9268
  563MPD2    H1 8408   1.815   3.315  15.587 -2.5298 -1.0447 -0.4261
  563MPD2    H2 8409   1.487   3.563  15.551 -1.1565  1.1525  1.8115
  563MPD2    H3 8410   1.602   3.383  15.489  2.4858 -1.7061 -0.1868
  563MPD2     N 8411   1.957   3.458  15.777 -0.1660 -0.0929  0.2898
  563MPD2    H5 8412   1.992   3.537  15.831  0.3364  0.0284 -0.2229
  563MPD2    N1 8413   1.560   3.748  15.744 -0.3538  0.3799 -0.0962
  563MPD2    H7 8414   1.594   3.796  15.826 -0.6276  0.0256  0.2256
  564TMC3    C1 8415   1.355   3.828  15.832  0.4562 -0.1111  0.2874
  564TMC3    C2 8416   1.228   3.766  15.818 -0.7160  0.3669 -0.1112
  564TMC3    C3 8417   1.190   3.668  15.910 -0.3523 -0.1770  0.2727
  564TMC3    C4 8418   1.428   3.812  15.944  0.1807  0.1113 -0.8695
  564TMC3    C5 8419   1.390   3.719  16.035 -0.1570  0.6834  0.2449
  564TMC3    C6 8420   1.273   3.650  16.020  0.6727 -0.6087 -0.0388
  564TMC3     C 8421   1.430   3.789  15.713 -0.0243 -0.2416  0.5684
  564TMC3     O 8422   1.363   3.749  15.617  0.2496  0.4683  0.1419
  564TMC3     H 8423   1.170   3.781  15.728  0.5582  1.2454 -0.7884
  564TMC3    H1 8424   1.513   3.872  15.973  1.7272 -2.6483  0.2709
  564TMC3    H2 8425   1.242   3.575  16.092  3.8338 -2.1472 -0.2848
  564TMC3    C7 8426   1.498   3.622  16.074 -0.4730  0.2839  0.0779
  564TMC3    C8 8427   1.155   3.533  15.859  0.3950 -0.3420  0.0357
  564TMC3    O1 8428   1.598   3.662  16.135 -0.4706  0.3665  0.4153
  564TMC3    O2 8429   1.145   3.441  15.940  0.2311 -0.1440  0.1611
  565TMC3    C1 8430   2.286   3.955   9.814  0.1136  0.4357  0.1524
  565TMC3    C2 8431   2.171   3.998   9.869  0.1557 -0.2415  0.0965
  565TMC3    C3 8432   2.053   3.948   9.827 -0.0913 -0.0050 -0.2572
  565TMC3    C4 8433   2.290   3.857   9.722 -0.3636  0.3219  0.0508
  565TMC3    C5 8434   2.166   3.804   9.682 -0.4974 -0.1262 -0.1584
  565TMC3    C6 8435   2.044   3.857   9.726  0.5928  0.4973  0.0966
  565TMC3     C 8436   2.397   4.049   9.821 -0.9279  0.1653 -0.4448
  565TMC3     O 8437   2.494   4.041   9.744  0.1206 -0.1103 -0.1026
  565TMC3     H 8438   2.153   4.082   9.936 -1.6724 -1.2986  0.9195
  565TMC3    H1 8439   2.372   3.825   9.658 -0.7833 -0.9243  0.1251
  565TMC3    H2 8440   1.950   3.810   9.701  0.5813  0.5951 -0.0436
  565TMC3    C7 8441   2.168   3.729   9.551  0.0442 -0.2079  0.3637
  565TMC3    C8 8442   1.934   3.969   9.922 -0.4272 -0.3313  0.0242
  565TMC3    O1 8443   2.255   3.760   9.469 -0.0396  0.2546 -0.2230
  565TMC3    O2 8444   1.951   4.025  10.029 -0.8221  0.1171 -0.1048
  566MPD2     C 8445   4.027   1.139  14.055  0.4977 -0.1493  0.4446
  566MPD2    C1 8446   4.029   1.276  14.034 -0.4513  0.0721 -0.7061
  566MPD2    C2 8447   3.906   1.340  14.018  0.2677  0.6912  0.1840
  566MPD2    C3 8448   3.782   1.272  14.023 -0.8819  0.1555 -0.8286
  566MPD2    C4 8449   3.790   1.133  14.035  0.3275 -0.3896  1.2603
  566MPD2    C5 8450   3.911   1.062  14.050  0.1910  0.4890  0.0097
  566MPD2     H 8451   3.901   1.446  13.996  1.6105  1.0191  1.4158
  566MPD2    H1 8452   3.696   1.079  14.035 -0.2912  0.6859 -0.3915
  566MPD2    H2 8453   4.124   1.092  14.069 -0.1196 -0.9802  2.0302
  566MPD2    H3 8454   3.913   0.954  14.051  0.8526  0.5177  0.7751
  566MPD2     N 8455   3.651   1.330  14.000  0.2934  0.3312 -0.1083
  566MPD2    H5 8456   3.571   1.274  14.027 -0.0375  0.9765  0.2580
  566MPD2    N1 8457   4.156   1.341  14.041 -0.3766 -0.6446 -0.0180
  566MPD2    H7 8458   4.234   1.278  14.059 -0.1595 -0.1168  0.8657
  567TMC3    C1 8459   4.312   1.516  14.042 -0.0866 -0.6850  0.8725
  567TMC3    C2 8460   4.383   1.596  13.969  0.6740  0.0867  0.3368
  567TMC3    C3 8461   4.499   1.660  14.016 -1.1391  0.7639  0.3591
  567TMC3    C4 8462   4.347   1.477  14.169  0.6540 -0.8129 -0.4830
  567TMC3    C5 8463   4.456   1.551  14.224  0.0445 -0.5156  0.0102
  567TMC3    C6 8464   4.532   1.635  14.148  0.2467 -0.1336  0.4076
  567TMC3     C 8465   4.183   1.471  13.998  0.6325  0.3531  0.1723
  567TMC3     O 8466   4.115   1.551  13.937 -0.0303  0.4983 -0.5296
  567TMC3     H 8467   4.358   1.608  13.864  2.3728  0.2141 -0.0502
  567TMC3    H1 8468   4.287   1.415  14.235  1.3425  0.8584  1.7355
  567TMC3    H2 8469   4.615   1.682  14.200  2.0178 -1.0936 -1.5555
  567TMC3    C7 8470   4.479   1.553  14.367  0.0169  0.3467  0.5778
  567TMC3    C8 8471   4.515   1.795  13.966 -1.0178 -0.2719 -0.0337
  567TMC3    O1 8472   4.594   1.577  14.400 -0.1054  0.4279 -0.5200
  567TMC3    O2 8473   4.441   1.830  13.874 -0.7176  0.1607  0.1491
  568MPD2     C 8474   0.847   2.122  16.040 -0.8366  0.1132  0.9111
  568MPD2    C1 8475   0.973   2.137  16.084  0.1298  0.4610  0.5543
  568MPD2    C2 8476   1.059   2.231  16.028 -0.9115 -0.1435  0.2240
  568MPD2    C3 8477   1.014   2.321  15.935  0.3366  0.2020 -0.1961
  568MPD2    C4 8478   0.881   2.314  15.894 -0.0982  0.1889 -0.1454
  568MPD2    C5 8479   0.798   2.211  15.943 -0.2806  0.3164 -0.0353
  568MPD2     H 8480   1.165   2.230  16.052 -1.0467  0.7506  0.8479
  568MPD2    H1 8481   0.843   2.370  15.809  0.9744 -1.1150 -1.4624
  568MPD2    H2 8482   0.791   2.035  16.073  0.0686 -1.5785 -2.0767
  568MPD2    H3 8483   0.701   2.202  15.894 -1.1759  0.8270  1.6365
  568MPD2     N 8484   1.105   2.419  15.894  0.2456  0.6404 -0.2655
  568MPD2    H5 8485   1.193   2.421  15.946  0.6277 -1.4642 -0.8047
  568MPD2    N1 8486   1.013   2.038  16.172 -0.0048  0.3074  0.0518
  568MPD2    H7 8487   0.949   1.961  16.189 -1.5395  1.5024 -0.3717
  569TMC3    C1 8488   1.202   2.608  15.815  0.3248  0.3479  0.2316
  569TMC3    C2 8489   1.245   2.646  15.942  0.5847  0.2984  0.1235
  569TMC3    C3 8490   1.311   2.765  15.953  0.2384  0.3463  0.1531
  569TMC3    C4 8491   1.244   2.686  15.710 -0.2295  0.0100  0.1683
  569TMC3    C5 8492   1.308   2.809  15.731 -0.0148 -0.1403 -0.8029
  569TMC3    C6 8493   1.343   2.858  15.853  0.4712 -0.2156  0.8094
  569TMC3     C 8494   1.093   2.516  15.803 -0.2251 -0.4694 -0.0406
  569TMC3     O 8495   1.012   2.542  15.716  0.3254 -0.0556 -0.1573
  569TMC3     H 8496   1.214   2.604  16.037 -0.2088  0.0268 -0.2501
  569TMC3    H1 8497   1.207   2.658  15.612  3.4581 -2.5727 -0.5143
  569TMC3    H2 8498   1.414   2.939  15.867  1.3393 -1.0638  1.3074
  569TMC3    C7 8499   1.282   2.911  15.631 -0.2403 -0.4090 -0.2010
  569TMC3    C8 8500   1.277   2.835  16.076 -0.2632 -0.4511 -0.5687
  569TMC3    O1 8501   1.279   2.885  15.514  0.3176 -0.5365  0.2246
  569TMC3    O2 8502   1.172   2.806  16.137  0.0219 -0.1254 -0.2888
  570TMC3    C1 8503   0.609   1.076  16.061  0.1841  0.1236 -0.8104
  570TMC3    C2 8504   0.715   1.051  15.979 -0.2259  0.3650 -0.2451
  570TMC3    C3 8505   0.808   1.156  15.960 -0.0413 -0.4482  0.5796
  570TMC3    C4 8506   0.573   1.200  16.105  0.2423 -0.0358  0.4433
  570TMC3    C5 8507   0.658   1.302  16.054 -0.3492  0.0204  0.0815
  570TMC3    C6 8508   0.779   1.283  15.991  0.7604  0.2372 -0.3270
  570TMC3     C 8509   0.562   0.954  16.141  0.4992 -0.0543  0.1535
  570TMC3     O 8510   0.607   0.843  16.107 -0.2284 -0.6781  0.1930
  570TMC3     H 8511   0.739   0.951  15.944  0.6284 -0.2246  1.9804
  570TMC3    H1 8512   0.478   1.217  16.153 -0.1804 -2.3150  0.4524
  570TMC3    H2 8513   0.845   1.365  15.964  0.2868 -0.1923 -2.7841
  570TMC3    C7 8514   0.601   1.438  16.059  0.0075 -0.8754 -0.5657
  570TMC3    C8 8515   0.923   1.133  15.882 -0.1941  1.2322 -0.5064
  570TMC3    O1 8516   0.500   1.462  16.126 -0.0633 -0.3592  0.0254
  570TMC3    O2 8517   0.996   1.230  15.866 -0.1439 -0.1536  0.0635
  571MPD2     C 8518   2.681   3.260  17.605  0.8545 -0.6014 -0.6156
  571MPD2    C1 8519   2.732   3.247  17.736 -0.6768 -0.4816  0.1329
  571MPD2    C2 8520   2.795   3.352   0.042 -0.3287  0.8223  0.3090
  571MPD2    C3 8521   2.812   3.471  17.717 -0.0821  0.0741 -0.1027
  571MPD2    C4 8522   2.746   3.488  17.594 -0.3859  0.0486  0.1694
  571MPD2    C5 8523   2.682   3.381  17.543 -0.0440  0.0114 -0.7494
  571MPD2     H 8524   2.852   3.339   0.134  1.3473 -3.1828 -1.3156
  571MPD2    H1 8525   2.743   3.580  17.538 -1.8524  0.1530  0.4306
  571MPD2    H2 8526   2.631   3.176  17.559 -2.2185  0.5877  0.5868
  571MPD2    H3 8527   2.644   3.393  17.442 -1.6672  1.5428  0.0344
  571MPD2     N 8528   2.897   3.573   0.021 -0.0360  0.4452  0.5588
  571MPD2    H5 8529   2.877   3.667  17.733  0.6262  0.4962  0.2948
  571MPD2    N1 8530   2.717   3.118   0.057  0.5350  0.0209 -0.0769
  571MPD2    H7 8531   2.693   3.038  17.743 -1.1257  0.0869  0.5337
  572TMC3    C1 8532   3.055   3.696   0.158 -0.2228 -0.5888 -0.5188
  572TMC3    C2 8533   3.134   3.687   0.267 -0.2689  0.1651  0.0732
  572TMC3    C3 8534   3.247   3.766   0.275 -0.2260 -0.1883  0.1367
  572TMC3    C4 8535   3.070   3.794   0.063  0.1855  0.5171 -0.3840
  572TMC3    C5 8536   3.176   3.878   0.086 -0.3802 -0.1564 -0.0670
  572TMC3    C6 8537   3.274   3.863   0.185 -0.0595  0.2805  0.7047
  572TMC3     C 8538   2.993   3.563   0.126  0.5022 -0.9768 -0.2652
  572TMC3     O 8539   3.051   3.465   0.165  0.1630 -0.1248  0.0107
  572TMC3     H 8540   3.117   3.607   0.339  1.6918  0.9682  1.4527
  572TMC3    H1 8541   3.005   3.807  17.720 -0.9079  0.6190  0.4541
  572TMC3    H2 8542   3.348   3.936   0.216  1.0531 -1.2040  1.5452
  572TMC3    C7 8543   3.183   3.991  17.736  0.2239  0.5991  0.0795
  572TMC3    C8 8544   3.345   3.739   0.383  0.0031  0.5819  0.1157
  572TMC3    O1 8545   3.100   4.002  17.648  0.5066  0.1771 -0.4222
  572TMC3    O2 8546   3.457   3.781   0.352 -0.2619 -0.2343 -0.1741
  573MPD2     C 8547   3.119   3.245   0.691  0.3160 -0.3769  0.5096
  573MPD2    C1 8548   3.109   3.116   0.641  0.3126 -0.0132  0.0653
  573MPD2    C2 8549   3.100   3.091   0.507 -0.1698 -0.0182  0.6732
  573MPD2    C3 8550   3.098   3.198   0.420 -0.1678 -0.0606  0.0479
  573MPD2    C4 8551   3.100   3.328   0.468  0.1502  0.3606 -0.0527
  573MPD2    C5 8552   3.109   3.351   0.602  0.6040  0.4283 -0.0244
  573MPD2     H 8553   3.100   2.987   0.473 -0.5416 -0.0537  0.7787
  573MPD2    H1 8554   3.094   3.412   0.400  1.2172  0.2854 -0.2279
  573MPD2    H2 8555   3.127   3.270   0.796 -0.5799  0.4683  0.3846
  573MPD2    H3 8556   3.113   3.455   0.634  2.9118  0.5284 -0.6768
  573MPD2     N 8557   3.103   3.178   0.281 -0.4027 -0.0302  0.1965
  573MPD2    H5 8558   3.107   3.265   0.229 -1.7819  0.9954  1.8032
  573MPD2    N1 8559   3.128   3.017   0.734 -0.7517  1.1710  0.5911
  573MPD2    H7 8560   3.139   3.056   0.827  0.2990 -0.3186  1.1034
  574TMC3    C1 8561   3.111   3.092   0.063 -0.3062 -0.2229  0.2366
  574TMC3    C2 8562   3.147   3.216   0.026 -0.2678 -0.0299  0.2321
  574TMC3    C3 8563   3.114   3.250  17.641 -0.0077  0.1540  1.1108
  574TMC3    C4 8564   3.066   2.993  17.723  0.5528  0.1477  0.5401
  574TMC3    C5 8565   3.027   3.035  17.599 -0.2110  0.2034 -0.7907
  574TMC3    C6 8566   3.046   3.165  17.557 -0.2250 -0.1256  0.6547
  574TMC3     C 8567   3.110   3.060   0.206  0.0949  0.1473  0.1570
  574TMC3     O 8568   3.107   2.936   0.231  0.0179 -0.2322  0.1441
  574TMC3     H 8569   3.217   3.274   0.085  1.1231 -1.2735 -0.1992
  574TMC3    H1 8570   3.049   2.893   0.018 -0.1780 -0.6363 -1.8471
  574TMC3    H2 8571   3.038   3.180  17.450 -2.6594 -0.8339  0.7353
  574TMC3    C7 8572   3.018   2.934  17.487 -0.0382 -0.0240  0.2843
  574TMC3    C8 8573   3.152   3.374  17.585 -0.6635  0.1044 -0.1875
  574TMC3    O1 8574   2.954   2.957  17.384  0.4013 -0.5624 -0.6438
  574TMC3    O2 8575   3.149   3.385  17.463 -0.0134  0.0118 -0.2425
  575TMC3    C1 8576   1.660   3.707  10.656  0.8085 -0.0731 -0.5577
  575TMC3    C2 8577   1.530   3.683  10.687 -0.0541  0.4101  0.6685
  575TMC3    C3 8578   1.424   3.750  10.623 -0.0690 -0.2155 -0.2496
  575TMC3    C4 8579   1.691   3.806  10.566  0.4395  0.0258  0.5810
  575TMC3    C5 8580   1.584   3.869  10.504 -0.2218 -1.0608  0.1930
  575TMC3    C6 8581   1.455   3.845  10.532  0.1023  0.6683 -0.5591
  575TMC3     C 8582   1.772   3.608  10.675  0.5082  0.4118  0.6494
  575TMC3     O 8583   1.876   3.623  10.617 -0.3571  0.0508 -0.2791
  575TMC3     H 8584   1.505   3.593  10.742  2.0308 -0.3439  0.4111
  575TMC3    H1 8585   1.796   3.826  10.550  0.5088  0.9016  2.0764
  575TMC3    H2 8586   1.379   3.896  10.475 -1.2826 -1.8797 -0.9850
  575TMC3    C7 8587   1.622   3.915  10.373  0.4640  0.7300  0.1213
  575TMC3    C8 8588   1.294   3.745  10.680 -0.3979  0.3542 -0.4030
  575TMC3    O1 8589   1.740   3.946  10.360 -0.0839 -0.1852  0.0105
  575TMC3    O2 8590   1.200   3.794  10.619  0.7499 -0.0860 -1.0012
  576MPD2     C 8591   1.694   0.647  12.046 -0.2887  0.0174 -0.7215
  576MPD2    C1 8592   1.825   0.685  12.032  0.4041 -0.2555  0.1220
  576MPD2    C2 8593   1.879   0.784  12.110  0.2335  0.3876 -0.7708
  576MPD2    C3 8594   1.801   0.838  12.208  0.1986  0.5893  0.1731
  576MPD2    C4 8595   1.672   0.794  12.231  0.0488  0.5378 -0.7631
  576MPD2    C5 8596   1.620   0.702  12.145 -0.4577  0.3611  0.1543
  576MPD2     H 8597   1.983   0.811  12.099 -0.7292  4.2834 -0.3671
  576MPD2    H1 8598   1.602   0.831  12.305  1.4408 -0.1697  0.9080
  576MPD2    H2 8599   1.646   0.571  11.985  0.2253 -0.2279 -0.8179
  576MPD2    H3 8600   1.517   0.670  12.151 -0.5748  0.5639 -0.6975
  576MPD2     N 8601   1.852   0.952  12.278 -0.5082 -0.2328 -0.8149
  576MPD2    H5 8602   1.951   0.970  12.261 -0.0166 -1.6097  0.5313
  576MPD2    N1 8603   1.910   0.621  11.942  0.9480 -0.7233  0.0957
  576MPD2    H7 8604   2.004   0.656  11.929 -0.2034  1.6570 -1.9458
  577TMC3    C1 8605   1.985   0.475  11.775  0.2185 -0.0695  0.8610
  577TMC3    C2 8606   2.108   0.461  11.840 -0.0602 -0.2931  0.1519
  577TMC3    C3 8607   2.204   0.404  11.763  1.0607  0.0258 -0.0639
  577TMC3    C4 8608   1.957   0.442  11.646  0.0927 -0.5179 -0.0489
  577TMC3    C5 8609   2.062   0.390  11.575  0.0671  0.1514 -0.3068
  577TMC3    C6 8610   2.186   0.379  11.631  0.9977  0.0672 -0.4689
  577TMC3     C 8611   1.871   0.529  11.846  0.1589 -0.5609 -0.1009
  577TMC3     O 8612   1.763   0.483  11.814 -0.3101 -0.2173 -0.3536
  577TMC3     H 8613   2.125   0.477  11.945  0.6129  0.3487 -0.0505
  577TMC3    H1 8614   1.855   0.446  11.611 -0.4012 -1.6006  1.2960
  577TMC3    H2 8615   2.268   0.345  11.568  0.4119  1.4045 -1.9598
  577TMC3    C7 8616   2.054   0.383  11.432 -0.2418 -0.4106 -1.0417
  577TMC3    C8 8617   2.329   0.357  11.828 -0.0969 -0.0615  0.3252
  577TMC3    O1 8618   2.155   0.346  11.376  0.3677  0.2555 -0.4439
  577TMC3    O2 8619   2.320   0.323  11.947 -0.6849 -0.1587 -0.0819
  578MPD2     C 8620   0.455   0.692   0.908  0.2178 -0.4489 -0.2805
  578MPD2    C1 8621   0.460   0.573   0.832  0.1894 -0.0839  0.1449
  578MPD2    C2 8622   0.544   0.471   0.872 -0.5802 -0.2254  0.1574
  578MPD2    C3 8623   0.636   0.497   0.970 -0.2117  0.7899  0.4146
  578MPD2    C4 8624   0.633   0.611   1.045  0.1902 -0.0417 -0.0942
  578MPD2    C5 8625   0.534   0.704   1.018 -0.1672  0.6374 -0.2038
  578MPD2     H 8626   0.531   0.378   0.818 -1.6625  0.4280 -0.7185
  578MPD2    H1 8627   0.699   0.637   1.128 -1.3858  1.2184  0.7840
  578MPD2    H2 8628   0.374   0.761   0.886  1.9014  0.5853 -3.1511
  578MPD2    H3 8629   0.516   0.782   1.090  0.0848  1.1918 -0.7343
  578MPD2     N 8630   0.730   0.394   0.997  0.6722 -0.2488  0.2491
  578MPD2    H5 8631   0.733   0.321   0.926 -0.6496  0.2930 -0.3687
  578MPD2    N1 8632   0.372   0.565   0.717  0.4472 -0.0586  0.3433
  578MPD2    H7 8633   0.319   0.651   0.705  0.4041 -0.4818 -2.4332
  579TMC3    C1 8634   0.893   0.276   1.093 -0.0820 -0.1540  0.2765
  579TMC3    C2 8635   1.014   0.291   1.152  0.6740 -0.2640 -0.1688
  579TMC3    C3 8636   1.107   0.205   1.116 -0.2552 -0.0919 -0.6623
  579TMC3    C4 8637   0.862   0.175   1.006  0.0189  0.0347  0.9758
  579TMC3    C5 8638   0.959   0.082   0.985 -0.0307 -0.1335  0.1222
  579TMC3    C6 8639   1.088   0.106   1.023 -0.3846  0.2715  1.2810
  579TMC3     C 8640   0.801   0.381   1.108 -0.3424 -0.1235  0.6813
  579TMC3     O 8641   0.804   0.446   1.211 -0.4913  0.1214  0.1951
  579TMC3     H 8642   1.027   0.360   1.235  1.3601 -0.2517 -0.2919
  579TMC3    H1 8643   0.758   0.161   0.978  0.0671 -0.3265  0.9702
  579TMC3    H2 8644   1.166   0.037   0.992  0.9162  2.1755  0.3078
  579TMC3    C7 8645   0.944   4.695   0.906  0.1693  0.6711  1.2419
  579TMC3    C8 8646   1.246   0.213   1.174 -0.0895 -0.0908  0.4143
  579TMC3    O1 8647   1.046   4.633   0.900  0.1462 -0.1309  0.6040
  579TMC3    O2 8648   1.312   0.113   1.174 -0.6610 -0.5873 -0.4218
  580TMC3    C1 8649   3.766   4.605  11.221  0.7102 -0.2376 -0.4798
  580TMC3    C2 8650   3.740   4.523  11.112  0.4882 -0.8812  0.3304
  580TMC3    C3 8651   3.724   4.391  11.138  0.4589 -0.2315  0.6260
  580TMC3    C4 8652   3.792   4.554  11.347  0.0057 -0.0647 -0.0915
  580TMC3    C5 8653   3.756   4.424  11.371 -0.3909  0.1958 -0.0840
  580TMC3    C6 8654   3.722   4.341  11.263  0.0437 -0.5286 -0.3715
  580TMC3     C 8655   3.857   4.710  11.187  0.3409 -0.4231 -0.4042
  580TMC3     O 8656   3.905   4.707  11.073 -0.0387  0.4975  0.1781
  580TMC3     H 8657   3.720   4.570  11.016 -0.6468  0.1857  1.0761
  580TMC3    H1 8658   3.838   4.617  11.422  0.8476 -0.2032 -0.4914
  580TMC3    H2 8659   3.694   4.237  11.272 -2.0332 -0.1750 -2.5205
  580TMC3    C7 8660   3.821   4.358  11.489 -0.5159 -0.2906  0.5672
  580TMC3    C8 8661   3.801   4.307  11.039 -0.1187  0.0710  0.4621
  580TMC3    O1 8662   3.871   4.440  11.568 -0.6187 -0.3641  0.0838
  580TMC3    O2 8663   3.787   4.188  11.028 -0.4402  0.0923 -0.1669
  581MPD2     C 8664   2.444   0.076  15.018  0.0081 -0.3504 -0.6150
  581MPD2    C1 8665   2.501   0.196  14.966  0.2862  0.6160 -0.6825
  581MPD2    C2 8666   2.431   0.268  14.869  0.3132  0.6058 -0.3795
  581MPD2    C3 8667   2.305   0.228  14.830  0.2824  0.2223  0.1998
  581MPD2    C4 8668   2.257   0.108  14.881 -0.1145 -0.8985 -0.3644
  581MPD2    C5 8669   2.324   0.041  14.973  0.0088  0.1538  0.0355
  581MPD2     H 8670   2.463   0.367  14.836  0.9385  0.3707 -0.4822
  581MPD2    H1 8671   2.164   0.063  14.848  0.2562  0.1213 -2.7892
  581MPD2    H2 8672   2.487   0.013  15.095 -0.5391  0.4775  0.3649
  581MPD2    H3 8673   2.276   4.687  15.008  2.1623 -0.6771  0.8536
  581MPD2     N 8674   2.227   0.291  14.729  0.1413  0.6813  0.5018
  581MPD2    H5 8675   2.259   0.374  14.679  2.5848 -1.8547 -2.1521
  581MPD2    N1 8676   2.622   0.240  15.012  0.4154 -0.0990 -0.1665
  581MPD2    H7 8677   2.681   0.177  15.066  1.4179  0.4223 -0.6486
  582TMC3    C1 8678   2.819   0.359  15.044 -0.2358  0.2010 -0.3975
  582TMC3    C2 8679   2.868   0.469  15.099  0.3115 -0.4217  0.5157
  582TMC3    C3 8680   2.997   0.476  15.137  0.1285 -0.2765 -0.1441
  582TMC3    C4 8681   2.885   0.243  15.013  0.0245 -0.5697  0.3519
  582TMC3    C5 8682   3.023   0.264  15.029 -0.2916  0.2374  0.4384
  582TMC3    C6 8683   3.080   0.375  15.089  0.0125 -0.6001  0.1151
  582TMC3     C 8684   2.683   0.364  14.993  0.1844  0.1074  0.1832
  582TMC3     O 8685   2.639   0.475  14.961 -0.1291 -0.3192 -0.0974
  582TMC3     H 8686   2.809   0.558  15.115 -0.2355 -0.1868 -2.8557
  582TMC3    H1 8687   2.848   0.165  14.947  1.0412  0.3517 -1.2973
  582TMC3    H2 8688   3.186   0.379  15.108  0.1963 -1.7252 -0.6996
  582TMC3    C7 8689   3.099   0.147  15.050  0.5666  0.1642  0.2395
  582TMC3    C8 8690   3.032   0.516  15.273  0.8274 -0.0131  0.3934
  582TMC3    O1 8691   3.216   0.156  15.031  0.5414 -0.3451 -0.2659
  582TMC3    O2 8692   2.953   0.591  15.324 -0.4000  0.0155 -0.1036
  583MPD2     C 8693   2.570   1.544  16.965 -0.5954  0.4320 -0.9193
  583MPD2    C1 8694   2.610   1.630  16.860  0.5318 -0.1248  0.2867
  583MPD2    C2 8695   2.548   1.755  16.858 -0.2402 -0.7244 -0.0989
  583MPD2    C3 8696   2.464   1.798  16.958 -0.2339  0.3165 -0.1257
  583MPD2    C4 8697   2.447   1.713  17.071 -0.4878  0.0049 -0.2575
  583MPD2    C5 8698   2.496   1.589  17.067  0.7429 -0.4511 -0.1686
  583MPD2     H 8699   2.571   1.818  16.773 -0.7311 -0.8216 -0.3023
  583MPD2    H1 8700   2.367   1.732  17.142  1.3622 -1.1314  2.1448
  583MPD2    H2 8701   2.611   1.444  16.973 -0.1233  0.6058 -1.1742
  583MPD2    H3 8702   2.478   1.524  17.152  0.6176 -1.0813 -0.6744
  583MPD2     N 8703   2.399   1.923  16.944  0.2584  0.0018  0.9247
  583MPD2    H5 8704   2.432   1.987  16.872 -0.4869  1.1690  1.6302
  583MPD2    N1 8705   2.684   1.592  16.748 -0.2126  0.0276  0.0910
  583MPD2    H7 8706   2.691   1.651  16.666  1.4927  3.2501  2.5216
  584TMC3    C1 8707   2.268   2.102  17.014 -1.4626  0.1107 -0.1554
  584TMC3    C2 8708   2.357   2.171  16.945 -0.0960 -0.7737 -0.3921
  584TMC3    C3 8709   2.411   2.282  17.004  0.5249  0.0179 -0.4366
  584TMC3    C4 8710   2.226   2.140  17.135 -0.6845 -0.2235  0.0765
  584TMC3    C5 8711   2.289   2.245  17.193 -0.2156 -0.3225  0.2946
  584TMC3    C6 8712   2.381   2.318  17.134 -0.5240  0.7387 -0.4340
  584TMC3     C 8713   2.285   1.958  17.009  0.2584 -0.5412  0.3571
  584TMC3     O 8714   2.210   1.887  17.076 -0.1300 -0.3274 -0.3368
  584TMC3     H 8715   2.384   2.157  16.841 -0.0885  0.1726 -0.5157
  584TMC3    H1 8716   2.155   2.077  17.188  0.2083 -2.6426 -1.6411
  584TMC3    H2 8717   2.426   2.406  17.178  1.1665 -0.4713  0.2108
  584TMC3    C7 8718   2.249   2.258  17.332  1.3634 -0.2120 -0.1744
  584TMC3    C8 8719   2.489   2.371  16.912  0.2645  0.0176  0.8390
  584TMC3    O1 8720   2.174   2.171  17.377 -0.0179  0.0882 -0.8313
  584TMC3    O2 8721   2.482   2.358  16.792 -0.2239 -0.4416 -0.0231
  585MPD2     C 8722   1.118   0.839   0.452 -0.1607  1.3084 -0.3236
  585MPD2    C1 8723   1.170   0.877   0.330 -0.0143  0.1655 -0.2629
  585MPD2    C2 8724   1.217   0.774   0.242 -0.0701  0.2591  0.1270
  585MPD2    C3 8725   1.230   0.642   0.277  0.0079  0.3256 -0.2403
  585MPD2    C4 8726   1.179   0.604   0.403  0.1679  1.0405  1.2801
  585MPD2    C5 8727   1.126   0.703   0.486  0.0611  0.3987  0.2312
  585MPD2     H 8728   1.247   0.795   0.140  2.6827 -0.0219  0.9030
  585MPD2    H1 8729   1.189   0.500   0.433  0.7208  0.2581 -1.6077
  585MPD2    H2 8730   1.076   0.908   0.525 -1.8187 -3.7130  3.4843
  585MPD2    H3 8731   1.092   0.664   0.581  1.3519 -0.4385  0.3556
  585MPD2     N 8732   1.289   0.539   0.201  0.2170  0.2300  0.6810
  585MPD2    H5 8733   1.313   0.449   0.241 -0.7822  0.1284  1.0566
  585MPD2    N1 8734   1.179   1.012   0.307 -0.1734  0.4992 -0.5088
  585MPD2    H7 8735   1.138   1.067   0.381 -0.0905 -1.8303  1.2491
  586TMC3    C1 8736   1.373   0.438   0.012 -0.0764  0.3819  0.5646
  586TMC3    C2 8737   1.492   0.441  17.695 -0.4607 -0.0571  0.1829
  586TMC3    C3 8738   1.573   0.334  17.695 -0.7295 -0.1372  0.1947
  586TMC3    C4 8739   1.330   0.325   0.068 -0.0726  0.0281 -0.1615
  586TMC3    C5 8740   1.407   0.209   0.057  0.5816  0.1467  0.8551
  586TMC3    C6 8741   1.526   0.210  17.741 -0.3402  0.1335 -0.3257
  586TMC3     C 8742   1.351   0.564   0.080  0.2579 -0.3172 -0.3814
  586TMC3     O 8743   1.385   0.663   0.016  0.0825  0.1197  0.0947
  586TMC3     H 8744   1.525   0.536  17.656  1.5050 -1.2737 -1.1279
  586TMC3    H1 8745   1.231   0.332   0.111  0.3761  0.1643  0.8305
  586TMC3    H2 8746   1.592   0.124  17.737  1.9334  1.8783 -0.9955
  586TMC3    C7 8747   1.338   0.082   0.054  0.0342 -0.2988  0.8376
  586TMC3    C8 8748   1.668   0.327  17.583 -0.1707  0.5845  0.5951
  586TMC3    O1 8749   1.405   4.718   0.024  0.0627  0.1264  0.1891
  586TMC3    O2 8750   1.710   0.214  17.552  0.4634 -0.3484 -0.1720
  587TMC3    C1 8751   4.180   4.208  16.079  0.9512  0.5597  0.1817
  587TMC3    C2 8752   4.159   4.242  16.206 -0.3236  0.1416 -0.4638
  587TMC3    C3 8753   4.269   4.290  16.272  0.1825  0.3441 -0.0702
  587TMC3    C4 8754   4.296   4.213  16.017 -0.2417  0.7202 -0.0153
  587TMC3    C5 8755   4.405   4.259  16.085  0.3259  0.5798 -0.4281
  587TMC3    C6 8756   4.394   4.310  16.212  0.6934 -0.4853  0.2580
  587TMC3     C 8757   4.055   4.157  16.008 -0.4438  0.0684  0.1052
  587TMC3     O 8758   4.074   4.091  15.911  0.1752 -0.1254 -0.4998
  587TMC3     H 8759   4.070   4.218  16.262  1.2090 -2.1938  0.9793
  587TMC3    H1 8760   4.299   4.176  15.915 -0.5526 -1.5434  0.8160
  587TMC3    H2 8761   4.478   4.352  16.266 -2.2877  2.1251  2.8193
  587TMC3    C7 8762   4.536   4.283  16.025  0.0585  0.0869 -0.5585
  587TMC3    C8 8763   4.262   4.306  16.416  0.0389  0.8703  0.8544
  587TMC3    O1 8764   4.626   4.321  16.095 -0.1320  0.3314  0.7492
  587TMC3    O2 8765   4.366   4.327  16.478  0.0517  0.0000 -0.2879
  588TMC3    C1 8766   1.254   1.943   9.957  0.9992 -0.0579 -0.1135
  588TMC3    C2 8767   1.241   1.828   9.889  0.4752  1.1028 -0.7263
  588TMC3    C3 8768   1.325   1.724   9.912  0.0812 -0.2371 -0.6264
  588TMC3    C4 8769   1.357   1.963  10.040  0.3415 -0.0610  0.2031
  588TMC3    C5 8770   1.445   1.858  10.054 -0.3708  0.3959 -0.1573
  588TMC3    C6 8771   1.430   1.739   9.995 -0.1107  0.4521 -0.1582
  588TMC3     C 8772   1.157   2.046   9.934 -0.2289 -0.1232 -0.4224
  588TMC3     O 8773   1.091   2.051   9.830  0.3696  0.6029 -0.4394
  588TMC3     H 8774   1.162   1.822   9.815 -1.0368 -2.1083  1.1485
  588TMC3    H1 8775   1.370   2.064  10.077 -3.7943  0.5730 -0.0219
  588TMC3    H2 8776   1.490   1.654  10.026 -1.3955 -1.0720 -1.8849
  588TMC3    C7 8777   1.529   1.861  10.168 -0.7506 -0.1448 -0.5807
  588TMC3    C8 8778   1.314   1.605   9.832  0.4352  0.2014 -0.3030
  588TMC3    O1 8779   1.625   1.788  10.175 -0.4281 -0.0409  0.0351
  588TMC3    O2 8780   1.220   1.607   9.753 -0.4995  0.4482  0.2420
  589TMC3    C1 8781   1.330   3.438   0.821  0.4139 -0.0849 -0.1884
  589TMC3    C2 8782   1.471   3.439   0.830  0.6064 -0.2641 -0.4067
  589TMC3    C3 8783   1.534   3.324   0.789 -0.5918  0.9277  0.1560
  589TMC3    C4 8784   1.264   3.331   0.760 -0.7175  0.4255  0.7288
  589TMC3    C5 8785   1.337   3.224   0.721 -0.1269 -0.1987 -0.1074
  589TMC3    C6 8786   1.470   3.219   0.737 -0.6817 -0.8451 -0.4479
  589TMC3     C 8787   1.240   3.524   0.904  0.5968  0.0722 -0.3958
  589TMC3     O 8788   1.125   3.543   0.863 -0.0919  0.5901 -0.3810
  589TMC3     H 8789   1.525   3.504   0.897 -0.9326 -0.2239  0.7935
  589TMC3    H1 8790   1.156   3.327   0.752 -0.7506 -0.8057  1.7192
  589TMC3    H2 8791   1.532   3.132   0.715  3.6363  1.4113  2.7347
  589TMC3    C7 8792   1.264   3.107   0.677  0.1659 -0.9344  0.0448
  589TMC3    C8 8793   1.671   3.301   0.817 -0.4871  0.2917 -0.1175
  589TMC3    O1 8794   1.143   3.110   0.661  0.1173 -0.6500  0.0931
  589TMC3    O2 8795   1.717   3.191   0.820  0.3860  0.2450 -0.0006
  590MPD2     C 8796   0.591   2.463  16.612  0.2971  0.4465  0.1619
  590MPD2    C1 8797   0.492   2.556  16.578 -0.1583 -0.6254  0.1052
  590MPD2    C2 8798   0.526   2.682  16.544  0.0674  0.6446 -0.1417
  590MPD2    C3 8799   0.660   2.721  16.530  0.5756 -0.0930  0.5035
  590MPD2    C4 8800   0.760   2.622  16.555  0.2720 -0.5593 -0.1028
  590MPD2    C5 8801   0.725   2.505  16.619 -0.2442  1.2548  0.3250
  590MPD2     H 8802   0.452   2.755  16.516 -1.9458 -1.0882  0.6249
  590MPD2    H1 8803   0.864   2.653  16.554  0.1164 -0.0054  0.3960
  590MPD2    H2 8804   0.568   2.366  16.654  0.9428  0.3626  0.3247
  590MPD2    H3 8805   0.797   2.442  16.671  0.6395  0.5050 -1.8036
  590MPD2     N 8806   0.692   2.844  16.462 -0.1062 -0.5956 -0.0572
  590MPD2    H5 8807   0.617   2.902  16.425 -2.9900 -3.8606  0.5723
  590MPD2    N1 8808   0.353   2.530  16.588 -0.4505  0.1650 -0.1251
  590MPD2    H7 8809   0.295   2.609  16.559  0.1057  0.0695 -1.5113
  591TMC3    C1 8810   0.800   2.955  16.286  0.2712  0.0378  0.0896
  591TMC3    C2 8811   0.872   2.916  16.168  0.1265 -0.0240  0.1810
  591TMC3    C3 8812   0.850   2.993  16.059 -0.0563  0.5160 -0.2190
  591TMC3    C4 8813   0.713   3.061  16.289 -0.7585 -0.1600  0.0465
  591TMC3    C5 8814   0.714   3.142  16.177  0.1954  0.7521  0.4874
  591TMC3    C6 8815   0.775   3.110  16.059  0.3242 -0.7472 -0.8154
  591TMC3     C 8816   0.812   2.868  16.399  0.7035  0.7727 -0.2151
  591TMC3     O 8817   0.912   2.798  16.395  0.6058 -0.1942 -0.6026
  591TMC3     H 8818   0.935   2.828  16.160  0.4671  0.3233 -0.9903
  591TMC3    H1 8819   0.652   3.084  16.376 -1.8042  1.5618 -1.1354
  591TMC3    H2 8820   0.748   3.160  15.967  2.0138  1.8206  0.1010
  591TMC3    C7 8821   0.643   3.270  16.187  0.5875  0.6566 -0.9681
  591TMC3    C8 8822   0.893   2.930  15.936  0.2629  0.0878 -0.1193
  591TMC3    O1 8823   0.563   3.284  16.280  0.3122 -0.7100  0.3423
  591TMC3    O2 8824   0.916   2.808  15.942 -0.1289 -0.0435  0.1662
  592MPD2     C 8825   0.498   4.639  11.068  0.4168  0.2865 -0.0687
  592MPD2    C1 8826   0.495   4.665  11.203  1.0273  0.4093  0.2730
  592MPD2    C2 8827   0.393   4.616  11.282 -0.4745 -0.4347 -0.2074
  592MPD2    C3 8828   0.289   4.538  11.233 -0.3207  0.4201  0.0181
  592MPD2    C4 8829   0.287   4.513  11.093  0.2534 -0.4043 -0.1118
  592MPD2    C5 8830   0.392   4.569  11.015 -0.0217 -0.4709  0.1007
  592MPD2     H 8831   0.391   4.635  11.388 -2.0245 -1.9806  0.0364
  592MPD2    H1 8832   0.201   4.467  11.047 -0.1692 -0.1588  0.4222
  592MPD2    H2 8833   0.574   4.675  11.000  0.9709  3.6361  2.3025
  592MPD2    H3 8834   0.394   4.554  10.908 -0.9234  3.2184 -0.4216
  592MPD2     N 8835   0.199   4.485  11.331  0.4505 -0.1541  0.2377
  592MPD2    H5 8836   0.222   4.500  11.429 -0.7842  1.6558  0.2530
  592MPD2    N1 8837   0.608   0.004  11.250  0.2130  0.7809 -0.3413
  592MPD2    H7 8838   0.665   0.048  11.179  2.7905 -0.3228  1.0263
  593TMC3    C1 8839   0.757   0.100  11.415 -0.4475  0.3533  0.2689
  593TMC3    C2 8840   0.806   0.053  11.534  0.2360  0.1911 -0.5366
  593TMC3    C3 8841   0.935   0.077  11.564  0.3708  0.5105  0.2673
  593TMC3    C4 8842   0.847   0.140  11.320  1.0517  0.3047 -0.2623
  593TMC3    C5 8843   0.983   0.149  11.347  0.6382  0.0891 -0.0146
  593TMC3    C6 8844   1.030   0.126  11.473  0.0662  0.0881  0.0797
  593TMC3     C 8845   0.624   0.047  11.386 -0.2787 -0.1780  0.5161
  593TMC3     O 8846   0.558   0.029  11.489 -0.6911  0.1425 -0.2227
  593TMC3     H 8847   0.735   0.011  11.604  1.0580  2.1255  1.4572
  593TMC3    H1 8848   0.816   0.158  11.218 -3.4835 -2.6643  0.5666
  593TMC3    H2 8849   1.132   0.148  11.503 -0.3927  1.2323  0.8070
  593TMC3    C7 8850   1.077   0.199  11.249  0.5561 -0.0101  0.6035
  593TMC3    C8 8851   0.972   0.045  11.700 -0.1898 -0.0920 -0.1624
  593TMC3    O1 8852   1.029   0.266  11.158  0.3718 -0.0945 -0.0959
  593TMC3    O2 8853   0.884   4.719  11.760 -0.4918  0.6790  0.3507
  594MPD2     C 8854   0.036   3.321  14.001  0.3854  0.2526 -0.8450
  594MPD2    C1 8855   0.006   3.387  14.116  0.3555  0.8336  0.2500
  594MPD2    C2 8856   0.072   3.508  14.127 -0.5918 -0.6601  0.2054
  594MPD2    C3 8857   0.168   3.549  14.038 -0.2364  0.2944 -0.5620
  594MPD2    C4 8858   0.186   3.486  13.923  0.0589 -0.3434 -0.2737
  594MPD2    C5 8859   0.124   3.363  13.909  0.1111  0.4548  0.2166
  594MPD2     H 8860   0.053   3.575  14.210  1.6023  0.9236 -0.5679
  594MPD2    H1 8861   0.252   3.518  13.842 -0.6912 -2.0689 -1.5756
  594MPD2    H2 8862   0.007   3.217  13.998  0.0954  0.3220 -0.4252
  594MPD2    H3 8863   0.139   3.304  13.819  1.3891  2.8053 -1.1128
  594MPD2     N 8864   0.232   3.673  14.062  0.2704 -0.4769 -0.0409
  594MPD2    H5 8865   0.206   3.710  14.153 -2.1188  1.3505 -1.4565
  594MPD2    N1 8866   4.640   3.339  14.202 -0.0190 -0.0462  0.2704
  594MPD2    H7 8867   4.603   3.245  14.194 -2.6119  1.1151 -1.3588
  595TMC3    C1 8868   0.436   4.085  14.061  0.2295 -0.0375  0.8099
  595TMC3    C2 8869   0.423   3.962  13.993 -0.7950  0.0154  0.1166
  595TMC3    C3 8870   0.308   3.889  14.017  0.1511 -0.2672 -0.1548
  595TMC3    C4 8871   0.334   4.130  14.138  0.5464  0.0208  0.7624
  595TMC3    C5 8872   0.227   4.047  14.162  0.6430 -0.1151  0.0763
  595TMC3    C6 8873   0.213   3.930  14.096 -0.5451  0.2291  0.0051
  595TMC3     C 8874   0.562   4.150  14.094 -0.1884 -0.4883  0.0637
  595TMC3     O 8875   0.560   4.223  14.192 -0.4889 -0.4735 -0.0444
  595TMC3     H 8876   0.494   3.919  13.925 -0.7882 -1.8355  1.3081
  595TMC3    H1 8877   0.342   4.220  14.199  1.2126  0.6375 -0.2369
  595TMC3    H2 8878   0.120   3.875  14.109 -2.1072  2.1361 -3.0287
  595TMC3    C7 8879   0.129   4.085  14.262 -0.0785  0.2240 -0.1793
  595TMC3    C8 8880   0.299   3.753  13.972 -0.5101  0.3119 -0.9897
  595TMC3    O1 8881   0.017   4.037  14.239  0.2162  0.2772  0.0950
  595TMC3    O2 8882   0.369   3.730  13.874 -0.8277  0.3285  0.0499
  596MPD2     C 8883   3.568   1.392  16.943  0.1463 -0.0901  0.7212
  596MPD2    C1 8884   3.530   1.516  16.895  0.0477 -0.5808 -1.0408
  596MPD2    C2 8885   3.557   1.555  16.756  0.1278  0.0953 -0.0609
  596MPD2    C3 8886   3.614   1.465  16.669  0.1689  0.1011 -0.2074
  596MPD2    C4 8887   3.659   1.344  16.728 -0.0392  0.3450  0.4741
  596MPD2    C5 8888   3.634   1.311  16.862  0.3845 -0.5338  1.0382
  596MPD2     H 8889   3.531   1.655  16.724  0.2564  0.1617  0.0419
  596MPD2    H1 8890   3.713   1.267  16.676 -1.7308 -1.6086  1.5931
  596MPD2    H2 8891   3.551   1.357  17.045  0.1492 -1.1701  0.3505
  596MPD2    H3 8892   3.659   1.210  16.894 -1.2284 -0.6474  1.9431
  596MPD2     N 8893   3.642   1.492  16.535  0.0081 -0.1022 -0.3768
  596MPD2    H5 8894   3.702   1.425  16.488  0.7482  0.4986 -0.2898
  596MPD2    N1 8895   3.476   1.616  16.977  0.2788 -1.3074 -0.2982
  596MPD2    H7 8896   3.477   1.710  16.939  0.7607 -0.6457  1.3788
  597TMC3    C1 8897   3.426   1.724  17.165 -0.3974 -0.2846  0.1208
  597TMC3    C2 8898   3.535   1.795  17.134 -0.2893 -0.2893 -0.2072
  597TMC3    C3 8899   3.521   1.928  17.113 -0.2026 -0.1929 -0.7383
  597TMC3    C4 8900   3.310   1.780  17.157  0.0797  0.1207 -0.2518
  597TMC3    C5 8901   3.293   1.913  17.146 -0.1160 -0.1781  0.3473
  597TMC3    C6 8902   3.398   1.994  17.125  0.1196 -0.9861  0.7765
  597TMC3     C 8903   3.426   1.596  17.100 -0.4648 -0.3305  0.0387
  597TMC3     O 8904   3.391   1.497  17.158 -0.3393 -0.1239  0.7389
  597TMC3     H 8905   3.631   1.746  17.147 -0.0463  0.0799 -0.6330
  597TMC3    H1 8906   3.226   1.717  17.183 -0.9702  2.4436  1.9794
  597TMC3    H2 8907   3.388   2.101  17.135 -1.6122 -1.1222  0.5557
  597TMC3    C7 8908   3.166   1.973  17.184  0.5476 -0.1132 -0.0311
  597TMC3    C8 8909   3.646   2.007  17.111  0.7355  0.1151  0.8639
  597TMC3    O1 8910   3.090   1.904  17.245 -0.1342  0.0012  0.4853
  597TMC3    O2 8911   3.756   1.948  17.129  0.1626  0.0779 -0.2541
  598TMC3    C1 8912   1.511   3.143  15.186  0.6851 -0.8799 -0.8674
  598TMC3    C2 8913   1.422   3.043  15.149 -0.2289 -0.1929  0.6297
  598TMC3    C3 8914   1.357   3.068  15.032  0.0249  0.2507 -0.8000
  598TMC3    C4 8915   1.529   3.257  15.113 -0.6577 -0.4096  0.0119
  598TMC3    C5 8916   1.449   3.277  15.005 -0.5078  0.2059 -0.6031
  598TMC3    C6 8917   1.371   3.181  14.965 -0.3342 -0.0847  0.3440
  598TMC3     C 8918   1.602   3.125  15.304  0.2781 -0.6321 -0.0606
  598TMC3     O 8919   1.684   3.218  15.327  0.3329 -0.1735  0.4598
  598TMC3     H 8920   1.409   2.954  15.209 -2.2762 -0.0098  0.4566
  598TMC3    H1 8921   1.604   3.327  15.148 -2.1563  1.4247 -0.4522
  598TMC3    H2 8922   1.309   3.207  14.880  0.8176 -0.0277 -0.4752
  598TMC3    C7 8923   1.520   3.337  14.890 -0.1785  0.0721  0.2704
  598TMC3    C8 8924   1.309   2.964  14.938 -0.4422 -0.6931 -0.8092
  598TMC3    O1 8925   1.505   3.284  14.781 -0.3321 -0.1722 -0.4763
  598TMC3    O2 8926   1.269   2.862  14.986  0.1696 -0.4013 -0.1960
  599MPD2     C 8927   1.862   0.735  16.002  0.1287  0.4860 -0.4012
  599MPD2    C1 8928   1.767   0.647  15.960  0.1021 -0.1211  0.5277
  599MPD2    C2 8929   1.638   0.671  15.980  0.1977  0.6025 -0.1802
  599MPD2    C3 8930   1.604   0.800  16.024 -0.6232  0.1288 -0.0080
  599MPD2    C4 8931   1.697   0.887  16.076  0.8454  0.4239 -0.2685
  599MPD2    C5 8932   1.829   0.853  16.063 -0.0581  0.5071  0.6819
  599MPD2     H 8933   1.563   0.603  15.942  0.9478 -1.3159  1.7677
  599MPD2    H1 8934   1.668   0.985  16.112 -0.5433 -0.1942  0.2952
  599MPD2    H2 8935   1.970   0.723  15.991 -0.0791 -0.6084 -1.1811
  599MPD2    H3 8936   1.902   0.929  16.086  0.1985 -0.0719  1.7311
  599MPD2     N 8937   1.472   0.845  16.043 -0.0418  0.2209  0.3589
  599MPD2    H5 8938   1.449   0.939  16.074  2.2453  1.1798 -0.8926
  599MPD2    N1 8939   1.811   0.528  15.897 -0.6214 -0.2836  0.2665
  599MPD2    H7 8940   1.912   0.523  15.888 -0.6158 -0.2963  0.3316
  600TMC3    C1 8941   1.238   0.830  16.074 -0.1515 -0.0917 -0.5290
  600TMC3    C2 8942   1.144   0.734  16.111  0.6932  0.3204  0.6907
  600TMC3    C3 8943   1.038   0.768  16.191 -0.3628  0.4291 -0.7446
  600TMC3    C4 8944   1.224   0.961  16.121  0.0015  0.1381  0.2474
  600TMC3    C5 8945   1.123   0.985  16.204 -0.3639  0.2651  0.2289
  600TMC3    C6 8946   1.025   0.895  16.237 -0.2433 -0.3535 -0.0658
  600TMC3     C 8947   1.364   0.764  16.027 -0.2467  0.6884  0.1944
  600TMC3     O 8948   1.356   0.648  15.992  0.2629 -0.0345  0.1754
  600TMC3     H 8949   1.165   0.628  16.106  0.5654  0.4561 -2.7554
  600TMC3    H1 8950   1.279   1.039  16.068  1.1239 -0.1671  0.9531
  600TMC3    H2 8951   0.956   0.920  16.317  0.0325  1.7081 -0.4777
  600TMC3    C7 8952   1.071   1.117  16.229  0.2719  0.8114 -0.1578
  600TMC3    C8 8953   1.022   0.666  16.294  0.0404  0.0365  0.4146
  600TMC3    O1 8954   0.959   1.130  16.277 -0.3279  0.0595  0.3027
  600TMC3    O2 8955   1.121   0.627  16.357 -0.1574 -0.4799 -0.2407
  601MPD2     C 8956   3.415   4.401  17.551  0.1766 -0.0964 -0.2179
  601MPD2    C1 8957   3.281   4.372  17.564 -0.4434 -0.5665  0.9458
  601MPD2    C2 8958   3.241   4.256  17.613 -0.9919  0.0722  0.8242
  601MPD2    C3 8959   3.334   4.177  17.678  0.3121  0.1393 -0.2267
  601MPD2    C4 8960   3.464   4.205  17.680  0.0865  0.6215  0.2366
  601MPD2    C5 8961   3.507   4.316  17.607  0.5866  0.3537  0.0517
  601MPD2     H 8962   3.134   4.242  17.608 -0.7961 -1.4302  1.0248
  601MPD2    H1 8963   3.536   4.141  17.728 -0.5086  0.3597  0.7769
  601MPD2    H2 8964   3.460   4.483  17.497 -1.9302  0.4095 -1.2312
  601MPD2    H3 8965   3.614   4.335  17.610  1.0749 -2.3644 -0.1468
  601MPD2     N 8966   3.299   4.064   0.008  0.3169 -0.5500 -0.6650
  601MPD2    H5 8967   3.378   4.030   0.062  0.2074  1.4599  0.7611
  601MPD2    N1 8968   3.183   4.454  17.508 -0.1177  0.3361  0.3669
  601MPD2    H7 8969   3.087   4.424  17.513  0.1586 -0.7818 -0.9840
  602TMC3    C1 8970   3.074   4.628  17.419  0.0742 -0.2024 -0.2019
  602TMC3    C2 8971   3.044   0.018  17.443 -0.0116 -0.3170 -0.1719
  602TMC3    C3 8972   2.918   0.056  17.413  0.1161 -1.2408 -0.9411
  602TMC3    C4 8973   2.987   4.547  17.348  0.5146  0.2955 -0.4797
  602TMC3    C5 8974   2.866   4.592  17.310 -0.4304 -0.1996 -0.2870
  602TMC3    C6 8975   2.827   4.721  17.338  0.2270  0.2883 -0.6184
  602TMC3     C 8976   3.200   4.580  17.460  0.5364  0.3301  0.6844
  602TMC3     O 8977   3.299   4.648  17.458 -0.1968  0.1806 -0.6599
  602TMC3     H 8978   3.119   0.079  17.492 -0.9883  1.6909 -1.2098
  602TMC3    H1 8979   3.018   4.449  17.312 -0.0130 -0.4748  1.1946
  602TMC3    H2 8980   2.720   0.004  17.338  0.7139  3.1105  0.7808
  602TMC3    C7 8981   2.773   4.511  17.239 -0.1230 -0.2695 -0.1109
  602TMC3    C8 8982   2.886   0.197  17.420  0.1746  0.0368  0.2289
  602TMC3    O1 8983   2.809   4.394  17.219 -0.0190 -0.0769 -0.0177
  602TMC3    O2 8984   2.929   0.274  17.506 -0.4346  0.7042 -0.6022
  603TMC3    C1 8985   1.069   4.024  10.889  0.4026  0.4038  0.0364
  603TMC3    C2 8986   1.123   3.998  11.013  0.3289  0.3488 -0.4235
  603TMC3    C3 8987   1.255   4.030  11.038 -0.1353  0.0273  0.3268
  603TMC3    C4 8988   1.136   4.113  10.798  0.0014 -0.0238  0.2667
  603TMC3    C5 8989   1.265   4.153  10.836 -0.0026  0.1643 -0.0509
  603TMC3    C6 8990   1.331   4.101  10.947  0.0931  0.4802  0.2370
  603TMC3     C 8991   0.932   3.987  10.856  0.6890 -0.5151 -1.1001
  603TMC3     O 8992   0.862   3.947  10.949 -0.0659  0.4911 -0.0669
  603TMC3     H 8993   1.064   3.931  11.075  1.1613  0.0141  0.0021
  603TMC3    H1 8994   1.077   4.185  10.742  0.7472 -1.3518 -2.2153
  603TMC3    H2 8995   1.430   4.142  10.966 -0.1732  1.2635 -0.0864
  603TMC3    C7 8996   1.349   4.216  10.728 -0.6228 -0.5644  0.0054
  603TMC3    C8 8997   1.311   3.987  11.163  0.2153  0.3391  0.0398
  603TMC3    O1 8998   1.455   4.257  10.776 -0.8332  0.5305 -0.1057
  603TMC3    O2 8999   1.238   3.930  11.242 -0.0050  0.5456  0.5138
  604MPD2     C 9000   2.380   2.626  16.442 -0.4615 -0.0983  0.3662
  604MPD2    C1 9001   2.293   2.654  16.342 -0.0509  0.2176  0.1332
  604MPD2    C2 9002   2.304   2.582  16.221 -0.3511  0.4235 -0.3380
  604MPD2    C3 9003   2.389   2.480  16.212  0.0526 -0.0508 -0.2266
  604MPD2    C4 9004   2.471   2.443  16.316  0.1718  0.0750  0.0271
  604MPD2    C5 9005   2.467   2.522  16.427 -0.3359  0.5396 -0.2257
  604MPD2     H 9006   2.229   2.597  16.144 -1.1481  0.4357  0.4360
  604MPD2    H1 9007   2.516   2.344  16.312 -0.2402 -0.0889 -0.6138
  604MPD2    H2 9008   2.390   2.694  16.526 -1.7271 -0.5751  0.8997
  604MPD2    H3 9009   2.536   2.502  16.508  0.4189  0.9876 -0.7545
  604MPD2     N 9010   2.385   2.410  16.096  0.2159  0.1004 -0.6589
  604MPD2    H5 9011   2.307   2.420  16.032  0.1422  0.3989 -0.5243
  604MPD2    N1 9012   2.208   2.768  16.368 -0.4977 -0.9394 -0.1943
  604MPD2    H7 9013   2.226   2.805  16.461 -2.1321 -2.2052  0.6228
  605TMC3    C1 9014   2.136   2.969  16.296  0.4473 -0.2895  0.3992
  605TMC3    C2 9015   2.235   3.032  16.361 -0.0060 -0.3908  0.1275
  605TMC3    C3 9016   2.227   3.169  16.378  0.4352 -0.5779 -0.0182
  605TMC3    C4 9017   2.029   3.041  16.252 -0.3666  0.1545 -0.7064
  605TMC3    C5 9018   2.018   3.173  16.277  0.2116 -0.0867 -0.2280
  605TMC3    C6 9019   2.115   3.237  16.349  0.0252 -0.1382  0.5182
  605TMC3     C 9020   2.136   2.832  16.262  0.6438 -0.8415  0.0954
  605TMC3     O 9021   2.085   2.792  16.158 -0.1014  0.1552  0.4374
  605TMC3     H 9022   2.335   2.991  16.374  0.0780 -0.3323 -0.3452
  605TMC3    H1 9023   1.950   2.983  16.205  0.6826 -0.9962 -1.0686
  605TMC3    H2 9024   2.114   3.345  16.359 -0.2442 -0.0466 -0.4912
  605TMC3    C7 9025   1.922   3.254  16.213  0.4383 -0.0965  0.6963
  605TMC3    C8 9026   2.331   3.225  16.461 -0.2665 -0.4887 -0.0453
  605TMC3    O1 9027   1.906   3.372  16.240  0.2611 -0.5440 -0.3053
  605TMC3    O2 9028   2.389   3.140  16.531  0.1390 -0.3632 -0.4113
  606TMC3    C1 9029   4.091   1.749   0.070  0.0189  0.9307  0.1087
  606TMC3    C2 9030   4.154   1.654   0.149 -0.9685  0.1596  0.4529
  606TMC3    C3 9031   4.084   1.543   0.193  1.0398 -0.1237  0.0378
  606TMC3    C4 9032   3.964   1.736   0.021 -0.0705  0.3634  0.0921
  606TMC3    C5 9033   3.902   1.626   0.064  0.0723 -0.4832  0.5906
  606TMC3    C6 9034   3.951   1.536   0.159  0.8011  0.4676 -0.1967
  606TMC3     C 9035   4.165   1.859   0.015  0.3110 -0.8167 -0.0529
  606TMC3     O 9036   4.114   1.932  17.672 -0.0389 -0.6230  0.5214
  606TMC3     H 9037   4.260   1.659   0.169 -0.8373  0.6265 -0.3605
  606TMC3    H1 9038   3.915   1.811  17.704  0.2743  0.3187 -0.2430
  606TMC3    H2 9039   3.896   1.456   0.206  1.7788 -0.4990 -0.7058
  606TMC3    C7 9040   3.770   1.608   0.017 -0.4402 -0.1253  0.3117
  606TMC3    C8 9041   4.154   1.435   0.279  0.3055 -0.3585  0.2865
  606TMC3    O1 9042   3.715   1.711  17.713 -0.1519  0.3774  0.5384
  606TMC3    O2 9043   4.277   1.429   0.271 -0.1694 -0.6957  0.2817
  607MPD2     C 9044   0.460   4.100  11.035 -0.3498  0.3533  0.3008
  607MPD2    C1 9045   0.534   4.162  11.135 -0.2506  0.4417  0.9053
  607MPD2    C2 9046   0.527   4.112  11.264 -0.2065 -0.1079  0.6602
  607MPD2    C3 9047   0.453   3.996  11.291 -0.2387 -0.5117  0.0515
  607MPD2    C4 9048   0.391   3.928  11.192 -0.2959 -0.1478 -0.1888
  607MPD2    C5 9049   0.393   3.979  11.066 -0.4244 -0.4447 -0.4593
  607MPD2     H 9050   0.580   4.166  11.343  0.6585 -1.1736  0.8082
  607MPD2    H1 9051   0.340   3.835  11.214  0.5237  0.3082  3.5596
  607MPD2    H2 9052   0.468   4.131  10.931 -0.7728  1.0462  0.4715
  607MPD2    H3 9053   0.327   3.932  10.993  0.9936  0.6416 -2.4422
  607MPD2     N 9054   0.454   3.969  11.428 -0.0582  0.0408  0.3854
  607MPD2    H5 9055   0.504   4.037  11.484 -0.4449  1.5974 -1.1805
  607MPD2    N1 9056   0.617   4.280  11.107 -0.0142 -0.2779 -0.6205
  607MPD2    H7 9057   0.662   4.327  11.185  0.1011 -2.4385  0.6197
  608TMC3    C1 9058   0.770   4.416  11.007  0.2615 -0.5467  0.1581
  608TMC3    C2 9059   0.790   4.472  11.135  0.3717 -0.4498  0.6208
  608TMC3    C3 9060   0.906   4.546  11.151 -0.5631 -1.0686 -0.5037
  608TMC3    C4 9061   0.865   4.410  10.909 -0.1026 -0.2191 -0.3982
  608TMC3    C5 9062   0.975   4.486  10.941 -0.3350  0.1784  0.9087
  608TMC3    C6 9063   1.003   4.549  11.056 -0.1484 -1.1540  0.1579
  608TMC3     C 9064   0.658   4.330  10.985  0.1132 -0.0114  0.2297
  608TMC3     O 9065   0.633   4.292  10.873  0.4181  0.1125  0.7061
  608TMC3     H 9066   0.714   4.473  11.212  0.3599 -1.0312  0.6120
  608TMC3    H1 9067   0.850   4.357  10.815 -0.4822  3.8517 -2.6434
  608TMC3    H2 9068   1.071   4.633  11.064  1.7675 -2.8236  1.3390
  608TMC3    C7 9069   1.057   4.521  10.825  0.5839  0.3996  0.4897
  608TMC3    C8 9070   0.963   4.541  11.288  0.0067  0.3353 -0.2238
  608TMC3    O1 9071   1.015   4.488  10.715 -0.1676  0.1311  0.0821
  608TMC3    O2 9072   1.083   4.579  11.292  0.3543 -0.0757 -0.3045
  609TMC3    C1 9073   3.418   2.957   8.926  0.3466  0.7095  0.0966
  609TMC3    C2 9074   3.314   2.876   8.902  0.7713 -0.5806 -0.2075
  609TMC3    C3 9075   3.337   2.741   8.895 -0.0086 -0.7668 -0.1897
  609TMC3    C4 9076   3.546   2.911   8.938  0.6141  0.5229  0.8414
  609TMC3    C5 9077   3.560   2.776   8.937  0.9736  0.1603 -0.6454
  609TMC3    C6 9078   3.462   2.688   8.909 -0.3811 -0.0460 -0.1307
  609TMC3     C 9079   3.393   3.078   9.007 -0.1845  0.7354 -0.0931
  609TMC3     O 9080   3.277   3.100   9.040  0.3131  0.5466  0.0593
  609TMC3     H 9081   3.212   2.909   8.888  0.2971 -1.0473  2.1920
  609TMC3    H1 9082   3.633   2.968   8.968  1.0485  1.5087 -2.3044
  609TMC3    H2 9083   3.491   2.584   8.915  1.5221  0.4098 -1.5187
  609TMC3    C7 9084   3.701   2.731   8.941  0.6429 -0.3588  0.2657
  609TMC3    C8 9085   3.226   2.654   8.842 -1.1970  0.6077  0.1293
  609TMC3    O1 9086   3.788   2.813   8.964 -0.0377 -0.1647 -0.0586
  609TMC3    O2 9087   3.112   2.682   8.869  0.1589 -0.2111 -0.0190
  610TMC3    C1 9088   2.019   4.066  12.102 -0.4598 -0.1267  0.2729
  610TMC3    C2 9089   2.092   4.000  12.000 -0.2132 -0.3709 -0.4134
  610TMC3    C3 9090   2.206   3.940  12.042  0.0266  0.8111 -0.8045
  610TMC3    C4 9091   2.058   4.076  12.227 -0.4556 -0.3429 -0.8753
  610TMC3    C5 9092   2.174   4.016  12.259  0.1897  0.0286  0.4719
  610TMC3    C6 9093   2.250   3.952  12.169 -0.5347 -0.9924 -0.1545
  610TMC3     C 9094   1.908   4.148  12.077 -0.6787  0.1213 -0.2712
  610TMC3     O 9095   1.886   4.227  12.162  0.0716  0.5767 -0.3760
  610TMC3     H 9096   2.068   3.987  11.896 -2.5602  1.5776 -0.1174
  610TMC3    H1 9097   2.004   4.128  12.305 -0.3680 -0.5624 -0.6682
  610TMC3    H2 9098   2.347   3.911  12.197 -0.4633 -0.1340  0.8482
  610TMC3    C7 9099   2.215   4.002  12.398 -0.3961  0.5005 -0.6714
  610TMC3    C8 9100   2.253   3.828  11.960 -0.3393  0.0439  0.1952
  610TMC3    O1 9101   2.301   3.920  12.417 -0.1867  0.1395 -0.1394
  610TMC3    O2 9102   2.188   3.804  11.857  0.6997  0.5699 -0.2942
  611MPD2     C 9103   0.534   4.369  10.038  0.0143 -0.4308  0.1258
  611MPD2    C1 9104   0.553   4.230   9.992  1.2898 -0.2509  0.0343
  611MPD2    C2 9105   0.676   4.189   9.951 -0.0077  0.2999 -0.2207
  611MPD2    C3 9106   0.783   4.275   9.939 -0.4975 -0.4969 -0.3159
  611MPD2    C4 9107   0.764   4.405   9.986  0.0440 -0.1600  0.4348
  611MPD2    C5 9108   0.647   4.447  10.042 -0.4436  0.2164  0.1689
  611MPD2     H 9109   0.705   4.086   9.933 -1.7802 -0.5202  1.5057
  611MPD2    H1 9110   0.842   4.479   9.999 -1.3649  1.3382  0.4370
  611MPD2    H2 9111   0.434   4.395  10.070  0.9460  2.0524  1.0275
  611MPD2    H3 9112   0.648   4.545  10.088  1.7343  1.8433 -3.3211
  611MPD2     N 9113   0.910   4.239   9.891  0.3836  0.3114 -0.5162
  611MPD2    H5 9114   0.981   4.312   9.895  0.9425 -0.0849 -3.2661
  611MPD2    N1 9115   0.445   4.149  10.010 -0.0389 -0.3374 -0.5513
  611MPD2    H7 9116   0.359   4.190  10.046 -0.5934 -1.5587 -0.4595
  612TMC3    C1 9117   1.099   4.116   9.824 -0.6265  0.2828 -0.1904
  612TMC3    C2 9118   1.181   4.170   9.925 -0.1830 -0.0107  0.2442
  612TMC3    C3 9119   1.318   4.174   9.895  0.2814 -1.1725  0.1231
  612TMC3    C4 9120   1.152   4.051   9.709 -0.0398 -0.3433 -0.2322
  612TMC3    C5 9121   1.284   4.083   9.681 -0.5671  0.3218 -0.4734
  612TMC3    C6 9122   1.365   4.147   9.769  0.4600 -0.2573 -0.3054
  612TMC3     C 9123   0.954   4.112   9.849 -0.4410  0.4246 -0.7952
  612TMC3     O 9124   0.882   4.024   9.793  0.5103 -0.4455  0.1699
  612TMC3     H 9125   1.139   4.227  10.007 -2.5093  1.7458 -2.1917
  612TMC3    H1 9126   1.083   4.005   9.640 -0.4883  2.8918 -1.9722
  612TMC3    H2 9127   1.473   4.148   9.767  0.4343  1.9171 -0.4894
  612TMC3    C7 9128   1.354   3.992   9.599  0.0920 -0.3394 -0.7793
  612TMC3    C8 9129   1.411   4.210  10.003 -0.1741 -0.5407  0.3415
  612TMC3    O1 9130   1.470   4.028   9.578 -0.3064  0.2046 -0.4672
  612TMC3    O2 9131   1.526   4.230   9.967  0.2944 -0.2785 -0.1532
  613MPD2     C 9132   3.942   2.272  16.615 -1.0727  0.0197 -0.2113
  613MPD2    C1 9133   4.050   2.185  16.629 -0.1486  0.4273 -0.3221
  613MPD2    C2 9134   4.036   2.085  16.718  0.1554  0.1818  0.2848
  613MPD2    C3 9135   3.929   2.065  16.806  0.7140 -0.6811 -0.1079
  613MPD2    C4 9136   3.825   2.156  16.792 -0.2318 -0.8068  0.3020
  613MPD2    C5 9137   3.831   2.248  16.692 -0.5629 -0.1117  0.1489
  613MPD2     H 9138   4.115   2.011  16.714  0.7708  0.8174  0.8183
  613MPD2    H1 9139   3.728   2.131  16.833  0.3741  0.1580  2.3342
  613MPD2    H2 9140   3.943   2.351  16.542  3.2128  0.4170  0.2608
  613MPD2    H3 9141   3.742   2.308  16.679  0.1700  1.2745  1.5085
  613MPD2     N 9142   3.921   1.959  16.900  0.0082 -0.4489 -0.0159
  613MPD2    H5 9143   3.845   1.976  16.965 -0.7075 -0.9164 -0.7273
  613MPD2    N1 9144   4.161   2.203  16.535  0.7336  0.1402 -0.1058
  613MPD2    H7 9145   4.156   2.281  16.471 -0.3612 -0.0099 -0.1940
  614TMC3    C1 9146   4.342   2.128  16.409  0.2551  0.6199  0.0339
  614TMC3    C2 9147   4.437   2.030  16.404  0.7424 -0.1647 -0.1611
  614TMC3    C3 9148   4.427   1.939  16.306 -0.1440  1.2469  0.4155
  614TMC3    C4 9149   4.260   2.149  16.305 -0.2347 -0.0957  0.2106
  614TMC3    C5 9150   4.268   2.066  16.194  0.5013 -0.3489  0.6119
  614TMC3    C6 9151   4.353   1.959  16.192  0.2546 -0.7314  0.2130
  614TMC3     C 9152   4.273   2.124  16.534  0.1174 -0.2272 -0.7832
  614TMC3     O 9153   4.319   2.041  16.615  0.2197 -0.5538  0.1851
  614TMC3     H 9154   4.507   2.014  16.485  1.7121 -1.1872 -1.2150
  614TMC3    H1 9155   4.209   2.244  16.295  1.2649  0.8291  1.3572
  614TMC3    H2 9156   4.347   1.882  16.115  1.0675  0.8150 -1.3922
  614TMC3    C7 9157   4.244   2.138  16.070  0.1949 -0.1657  0.0714
  614TMC3    C8 9158   4.433   1.799  16.351 -0.1099  0.2394 -0.0827
  614TMC3    O1 9159   4.185   2.246  16.080  0.1603 -0.4259 -0.5269
  614TMC3    O2 9160   4.464   1.716  16.266  0.2907  0.4475  0.0143
  615MPD2     C 9161   4.257   3.587  15.683 -0.9147  0.5263 -0.3160
  615MPD2    C1 9162   4.207   3.472  15.751 -0.5682  0.5698  0.1424
  615MPD2    C2 9163   4.144   3.372  15.684 -0.1458 -0.1607 -0.5297
  615MPD2    C3 9164   4.120   3.385  15.549  0.1971 -0.3069  0.0679
  615MPD2    C4 9165   4.163   3.499  15.486 -0.3093  0.1234 -0.5962
  615MPD2    C5 9166   4.228   3.600  15.551 -0.3027 -0.1632 -0.6073
  615MPD2     H 9167   4.112   3.294  15.752  0.3633  1.0483  1.1131
  615MPD2    H1 9168   4.134   3.506  15.382  0.6968 -0.7042 -0.9424
  615MPD2    H2 9169   4.309   3.664  15.739  1.5196  0.2753 -2.2499
  615MPD2    H3 9170   4.255   3.689  15.496 -0.5846  0.6891  0.6472
  615MPD2     N 9171   4.033   3.304  15.469 -0.8561 -0.1801  0.2400
  615MPD2    H5 9172   4.008   3.339  15.377 -1.1901 -0.9578  0.0366
  615MPD2    N1 9173   4.209   3.456  15.887  0.2118 -0.3666 -0.5754
  615MPD2    H7 9174   4.168   3.373  15.927  2.8564 -0.9492  0.9188
  616TMC3    C1 9175   4.227   3.498  16.115 -0.3246  0.0982 -0.1025
  616TMC3    C2 9176   4.315   3.532  16.218 -0.9168 -0.1494 -0.7330
  616TMC3    C3 9177   4.276   3.530  16.343  0.3663 -0.4629 -0.0560
  616TMC3    C4 9178   4.098   3.483  16.143 -0.1199  0.3781  0.1690
  616TMC3    C5 9179   4.061   3.493  16.279 -0.3800 -0.3491  0.1493
  616TMC3    C6 9180   4.146   3.526  16.379 -0.0684  0.5190  0.1414
  616TMC3     C 9181   4.261   3.540  15.976 -0.8100  0.0127 -0.1220
  616TMC3     O 9182   4.341   3.629  15.956  0.5564 -0.3975  0.3295
  616TMC3     H 9183   4.417   3.544  16.184 -0.6151 -0.4079  0.0941
  616TMC3    H1 9184   4.022   3.451  16.073  0.0069 -1.7153  0.9918
  616TMC3    H2 9185   4.116   3.523  16.483 -0.2313 -0.9459  0.0446
  616TMC3    C7 9186   3.917   3.505  16.298 -0.3638 -0.4351  0.3691
  616TMC3    C8 9187   4.349   3.460  16.440  0.2795  0.6044 -0.0549
  616TMC3    O1 9188   3.839   3.460  16.222 -0.3336 -0.1017  0.0186
  616TMC3    O2 9189   4.292   3.429  16.541 -0.1923 -0.2413 -0.5989
  617MPD2     C 9190   2.604   1.620  13.574 -0.5185 -0.2984 -0.4490
  617MPD2    C1 9191   2.586   1.546  13.685  0.3421  0.2315  0.2350
  617MPD2    C2 9192   2.464   1.496  13.716  0.1529  0.1580 -0.3032
  617MPD2    C3 9193   2.359   1.507  13.631  0.2218 -0.5482 -0.2748
  617MPD2    C4 9194   2.376   1.567  13.511 -0.4594 -0.0412 -0.1778
  617MPD2    C5 9195   2.495   1.624  13.487 -0.4720  0.2378  0.4117
  617MPD2     H 9196   2.455   1.437  13.807  2.1811  1.0116  0.4557
  617MPD2    H1 9197   2.297   1.575  13.438 -1.5561 -0.2243  0.9888
  617MPD2    H2 9198   2.696   1.671  13.547 -1.2185  1.7496  1.1102
  617MPD2    H3 9199   2.506   1.678  13.394  0.2349  0.0625  0.3937
  617MPD2     N 9200   2.232   1.453  13.657 -0.4873  0.1618 -0.3193
  617MPD2    H5 9201   2.163   1.443  13.584  0.3862  0.1767 -1.1432
  617MPD2    N1 9202   2.706   1.520  13.754 -0.4883 -0.5958 -0.1221
  617MPD2    H7 9203   2.786   1.570  13.716  1.1224 -0.9504  2.7426
  618TMC3    C1 9204   2.843   1.383  13.907 -0.1767  0.2539  0.2335
  618TMC3    C2 9205   2.842   1.277  13.990  0.0496 -0.1204 -0.1078
  618TMC3    C3 9206   2.963   1.218  14.017 -0.2027 -0.2712 -1.0860
  618TMC3    C4 9207   2.960   1.436  13.862  0.3388  0.3509  0.7836
  618TMC3    C5 9208   3.077   1.384  13.895 -0.6074  0.1259 -0.0604
  618TMC3    C6 9209   3.083   1.266  13.977  0.0771  1.0355  0.1413
  618TMC3     C 9210   2.716   1.436  13.860 -0.4669 -0.0276 -0.0645
  618TMC3     O 9211   2.627   1.402  13.943  0.4210  0.3417  0.5223
  618TMC3     H 9212   2.749   1.235  14.027  0.9880 -0.8937  1.3755
  618TMC3    H1 9213   2.970   1.516  13.790 -2.5037  0.2569  0.3001
  618TMC3    H2 9214   3.173   1.223  14.017 -0.0785 -0.7891 -1.4745
  618TMC3    C7 9215   3.195   1.432  13.822 -0.6579  0.3468  0.7203
  618TMC3    C8 9216   2.956   1.078  14.045  0.0624 -0.2091 -0.1627
  618TMC3    O1 9217   3.195   1.550  13.785  0.3097  0.0596  0.4509
  618TMC3    O2 9218   2.847   1.023  14.066  0.5059  0.1146 -0.5032
  619MPD2     C 9219   4.055   2.491  14.132 -0.3898  0.1255 -0.8891
  619MPD2    C1 9220   3.983   2.556  14.035 -1.0168  0.0278  0.1394
  619MPD2    C2 9221   3.848   2.535  14.023  0.1799 -0.2439 -0.2246
  619MPD2    C3 9222   3.783   2.451  14.106  0.0734  0.5590  0.0698
  619MPD2    C4 9223   3.855   2.389  14.209 -0.4525  0.6246  0.5135
  619MPD2    C5 9224   3.993   2.414  14.220 -0.0245  0.4717 -0.1592
  619MPD2     H 9225   3.793   2.577  13.940  0.9802 -1.7808 -1.5268
  619MPD2    H1 9226   3.804   2.315  14.269  2.7501 -0.6872  1.6351
  619MPD2    H2 9227   4.161   2.509  14.143 -0.4411 -0.7116  0.8993
  619MPD2    H3 9228   4.047   2.351  14.290 -2.1327  0.9930  1.9585
  619MPD2     N 9229   3.645   2.429  14.104  0.5589  0.4602  0.0349
  619MPD2    H5 9230   3.613   2.364  14.175  1.5922 -1.7642 -1.5247
  619MPD2    N1 9231   4.046   2.644  13.936 -0.3024  0.1646  0.5486
  619MPD2    H7 9232   3.989   2.683  13.861 -0.3476 -0.6110  0.1791
  620TMC3    C1 9233   4.213   2.759  13.812 -0.3730 -0.3173  0.6447
  620TMC3    C2 9234   4.141   2.741  13.694  0.7122 -0.3040  0.8080
  620TMC3    C3 9235   4.158   2.836  13.589 -0.1222 -0.4349 -0.3015
  620TMC3    C4 9236   4.322   2.840  13.814  0.4338 -0.9105  0.1842
  620TMC3    C5 9237   4.332   2.930  13.717 -0.1523 -0.5220  0.2271
  620TMC3    C6 9238   4.254   2.926  13.599 -0.0461  0.4120  1.2607
  620TMC3     C 9239   4.179   2.681  13.933 -0.6931  0.3181  0.3141
  620TMC3     O 9240   4.266   2.669  14.017 -0.4329 -0.1125 -0.1248
  620TMC3     H 9241   4.056   2.675  13.685 -0.0384  0.1621  4.3218
  620TMC3    H1 9242   4.395   2.848  13.893 -1.5433  2.3559  1.7052
  620TMC3    H2 9243   4.263   2.988  13.510 -0.9496 -0.9458  0.2237
  620TMC3    C7 9244   4.465   2.977  13.700  0.3089  0.4680  0.2929
  620TMC3    C8 9245   4.035   2.884  13.531 -0.1428  0.5592 -0.2080
  620TMC3    O1 9246   4.556   2.902  13.739  0.0352 -0.0293  0.6299
  620TMC3    O2 9247   4.006   2.996  13.556  0.1097 -0.2733  0.7671
  621MPD2     C 9248   3.766   2.096   9.822 -0.2396 -0.2281 -0.5386
  621MPD2    C1 9249   3.637   2.123   9.791  0.0784  0.2226  0.2999
  621MPD2    C2 9250   3.605   2.245   9.746  0.2758  0.1952  0.6831
  621MPD2    C3 9251   3.694   2.349   9.738 -0.3756  0.1845 -0.6666
  621MPD2    C4 9252   3.822   2.326   9.785 -0.1770  0.7658 -0.6220
  621MPD2    C5 9253   3.863   2.199   9.820 -0.9632 -0.0807  0.9360
  621MPD2     H 9254   3.503   2.270   9.719  1.2835  2.3514 -1.1609
  621MPD2    H1 9255   3.897   2.403   9.801 -0.2106  0.8826 -1.0190
  621MPD2    H2 9256   3.801   1.993   9.830 -0.8056 -0.3284  0.5834
  621MPD2    H3 9257   3.966   2.173   9.841 -0.9549 -0.6249  0.1953
  621MPD2     N 9258   3.656   2.473   9.688  0.2144 -0.0200  0.6429
  621MPD2    H5 9259   3.576   2.475   9.626  1.9488  0.8096 -1.5433
  621MPD2    N1 9260   3.537   2.023   9.788  0.1188 -0.0421  0.3433
  621MPD2    H7 9261   3.441   2.053   9.769 -0.3441 -1.0974  0.9948
  622TMC3    C1 9262   3.421   1.820   9.802  0.7786 -0.4085 -0.2316
  622TMC3    C2 9263   3.419   1.706   9.887  0.0022 -0.6261  0.3427
  622TMC3    C3 9264   3.300   1.642   9.891  0.8397 -0.2370 -0.1569
  622TMC3    C4 9265   3.320   1.873   9.726  0.7426  0.0312 -0.0403
  622TMC3    C5 9266   3.202   1.806   9.751  0.0533  0.7153  0.2273
  622TMC3    C6 9267   3.196   1.683   9.813 -0.4355 -0.2286  0.5307
  622TMC3     C 9268   3.547   1.887   9.805  0.1533  0.6982  0.0581
  622TMC3     O 9269   3.646   1.828   9.849 -0.0905  0.2572 -0.5384
  622TMC3     H 9270   3.509   1.662   9.929 -0.5839 -2.2898 -0.1455
  622TMC3    H1 9271   3.343   1.958   9.663  0.0501  0.0859 -0.2222
  622TMC3    H2 9272   3.102   1.631   9.816  0.4579 -1.8459  0.3094
  622TMC3    C7 9273   3.088   1.838   9.679 -0.2589 -0.2067 -0.0964
  622TMC3    C8 9274   3.244   1.628  10.017  0.0010 -0.2480 -0.1178
  622TMC3    O1 9275   3.000   1.758   9.654  0.4056 -0.0554  0.0937
  622TMC3    O2 9276   3.146   1.556  10.031 -0.6561  0.1886  0.3595
  623MPD2     C 9277   2.533   2.901  16.160  0.0757 -0.6278  0.5605
  623MPD2    C1 9278   2.550   3.036  16.182 -0.1548  0.5567  0.2451
  623MPD2    C2 9279   2.642   3.091  16.269  0.2333 -0.2373  0.3577
  623MPD2    C3 9280   2.722   2.998  16.338 -0.0994 -0.6123  0.1735
  623MPD2    C4 9281   2.703   2.862  16.318 -0.1592 -0.1128 -0.4631
  623MPD2    C5 9282   2.611   2.816  16.236  0.1746  0.1762  0.7441
  623MPD2     H 9283   2.657   3.197  16.283 -0.6481 -0.0983  0.2636
  623MPD2    H1 9284   2.770   2.790  16.363 -0.4797  0.9226  1.7080
  623MPD2    H2 9285   2.455   2.855  16.101 -0.5988 -0.0130  0.9582
  623MPD2    H3 9286   2.608   2.709  16.219 -3.5427  0.4175 -0.1534
  623MPD2     N 9287   2.811   3.052  16.431  0.0901 -0.0856 -0.4030
  623MPD2    H5 9288   2.817   3.153  16.435 -2.1777  0.0252 -0.0615
  623MPD2    N1 9289   2.469   3.129  16.113 -0.0146  0.2826  0.0913
  623MPD2    H7 9290   2.484   3.228  16.127  1.4272  0.6138 -3.8323
  624TMC3    C1 9291   3.169   3.190  16.630  0.0015 -0.4781  0.2939
  624TMC3    C2 9292   3.099   3.266  16.723  1.2080  0.4106  0.2497
  624TMC3    C3 9293   2.964   3.249  16.743  0.1702  0.2296  0.2198
  624TMC3    C4 9294   3.107   3.092  16.561  0.2489 -0.3611 -0.2792
  624TMC3    C5 9295   2.975   3.063  16.596 -0.0877  0.7359 -0.0386
  624TMC3    C6 9296   2.903   3.140  16.686  0.0283  0.7048  0.1087
  624TMC3     C 9297   3.310   3.213  16.614  0.1869 -0.5750 -0.2705
  624TMC3     O 9298   3.359   3.270  16.712 -0.3921 -0.9588 -0.0228
  624TMC3     H 9299   3.158   3.331  16.786  2.5869 -0.3230 -0.2747
  624TMC3    H1 9300   3.157   3.024  16.492 -1.1155 -2.1743  0.5180
  624TMC3    H2 9301   2.801   3.105  16.701  0.9906 -1.4203  1.6969
  624TMC3    C7 9302   2.906   2.980  16.507  0.4581 -0.1427 -0.0853
  624TMC3    C8 9303   2.879   3.361  16.773 -0.0399  0.4409 -0.1566
  624TMC3    O1 9304   2.950   2.868  16.488 -0.5182 -0.2054 -0.1162
  624TMC3    O2 9305   2.939   3.465  16.775  0.2949  0.0688 -0.1837
  625MPD2     C 9306   3.226   4.491   0.599  0.1336  0.2525 -0.1106
  625MPD2    C1 9307   3.118   4.538   0.674  0.0257  0.3596 -0.3264
  625MPD2    C2 9308   3.080   4.471   0.787 -0.0543  0.2533 -0.1919
  625MPD2    C3 9309   3.143   4.359   0.840  0.1664 -0.0806  0.2014
  625MPD2    C4 9310   3.257   4.321   0.765  0.2591  0.4223 -0.1038
  625MPD2    C5 9311   3.289   4.384   0.652  0.3297  0.1930 -0.4429
  625MPD2     H 9312   3.007   4.516   0.854 -1.1261 -1.9316  0.1280
  625MPD2    H1 9313   3.308   4.230   0.791  0.3270  0.4089 -0.2896
  625MPD2    H2 9314   3.272   4.541   0.515 -1.8806 -1.7373 -2.4209
  625MPD2    H3 9315   3.371   4.341   0.596  0.8524 -0.0059  0.4760
  625MPD2     N 9316   3.109   4.319   0.971 -0.1981  0.0740  0.5161
  625MPD2    H5 9317   3.032   4.357   1.026 -2.0233 -1.3566 -1.0459
  625MPD2    N1 9318   3.037   4.655   0.644 -0.3344  0.3850 -0.3582
  625MPD2    H7 9319   2.983   4.694   0.720 -0.6321  0.1665 -0.4595
  626TMC3    C1 9320   2.947   0.109   0.512  0.2123 -1.1077  0.1869
  626TMC3    C2 9321   2.951   0.181   0.395 -0.2851  0.2630  0.4278
  626TMC3    C3 9322   2.887   0.303   0.394  0.2252 -0.1721 -0.3379
  626TMC3    C4 9323   2.875   0.148   0.623 -0.0834 -0.0462 -0.2950
  626TMC3    C5 9324   2.798   0.265   0.608  0.5524  0.2163  0.2604
  626TMC3    C6 9325   2.804   0.338   0.495  0.0098  0.2247  0.7012
  626TMC3     C 9326   3.041   4.731   0.526 -0.3535 -0.3716  0.3288
  626TMC3     O 9327   3.097   4.699   0.421 -0.4614  0.0295  0.0540
  626TMC3     H 9328   3.023   0.148   0.321 -0.6321 -2.9522  1.5122
  626TMC3    H1 9329   2.877   0.102   0.721 -0.7675  0.5771  0.0147
  626TMC3    H2 9330   2.729   0.413   0.472 -1.3877 -0.7659  2.0041
  626TMC3    C7 9331   2.687   0.279   0.698 -0.0479 -0.6515 -0.9938
  626TMC3    C8 9332   2.873   0.376   0.268  0.0154  0.2258 -0.3132
  626TMC3    O1 9333   2.691   0.218   0.805  0.5470  0.5355  0.4509
  626TMC3    O2 9334   2.922   0.325   0.169 -0.1802  0.5754  0.0573
  627MPD2     C 9335   1.578   0.177  14.157  0.4352  0.4379 -0.0379
  627MPD2    C1 9336   1.706   0.136  14.178 -0.2300  0.2993 -0.9296
  627MPD2    C2 9337   1.744   0.011  14.128  0.5868  0.5830  0.8336
  627MPD2    C3 9338   1.656   4.673  14.051 -0.3787 -0.0523  0.3325
  627MPD2    C4 9339   1.533   4.717  14.036 -0.1547  0.1724 -0.3270
  627MPD2    C5 9340   1.493   0.099  14.088  0.9535  0.0170  0.3961
  627MPD2     H 9341   1.847   4.714  14.123  0.0681 -0.9376  0.2006
  627MPD2    H1 9342   1.453   4.665  13.984 -1.3273  0.4972  1.1738
  627MPD2    H2 9343   1.536   0.269  14.196 -0.7710 -0.4787  0.8026
  627MPD2    H3 9344   1.392   0.137  14.075  0.1590 -2.4533 -0.8249
  627MPD2     N 9345   1.703   4.543  14.009  0.2420 -0.8734 -0.3383
  627MPD2    H5 9346   1.793   4.510  14.041  1.1576  1.1010 -0.8952
  627MPD2    N1 9347   1.805   0.204  14.253 -0.3759  0.0157  0.3703
  627MPD2    H7 9348   1.894   0.156  14.267 -0.9857 -1.3437 -0.4537
  628TMC3    C1 9349   1.912   0.373  14.378 -0.0223 -0.1304  0.3813
  628TMC3    C2 9350   1.983   0.281  14.457 -0.4229  0.0369  0.3783
  628TMC3    C3 9351   2.070   0.331  14.548  0.0557  0.7634 -0.1354
  628TMC3    C4 9352   1.920   0.509  14.402 -0.5495 -0.3491  0.1105
  628TMC3    C5 9353   2.003   0.547  14.504 -0.3793 -0.1943  0.4836
  628TMC3    C6 9354   2.090   0.462  14.565 -0.5889 -0.4038  0.4164
  628TMC3     C 9355   1.797   0.336  14.292 -0.0695 -0.2064  0.2844
  628TMC3     O 9356   1.709   0.414  14.267 -0.0724 -0.1916 -0.0417
  628TMC3     H 9357   1.968   0.174  14.446  0.8612 -0.0008 -1.1211
  628TMC3    H1 9358   1.854   0.580  14.355  0.2174 -0.1591 -0.6848
  628TMC3    H2 9359   2.134   0.496  14.659  1.0218 -0.3016 -0.3851
  628TMC3    C7 9360   2.043   0.688  14.514  0.1755  0.3643  0.3173
  628TMC3    C8 9361   2.113   0.242  14.664  0.2488 -0.8679  0.5901
  628TMC3    O1 9362   2.132   0.709  14.596  0.6265 -0.2052  0.0892
  628TMC3    O2 9363   2.043   0.142  14.680  0.1818  0.3502 -0.0996
  629MPD2     C 9364   0.037   3.313  16.678 -0.4521 -0.0473  0.3810
  629MPD2    C1 9365   0.073   3.416  16.587 -0.1973 -0.7574 -0.6149
  629MPD2    C2 9366   4.711   3.464  16.503  0.2984 -0.0613 -0.5281
  629MPD2    C3 9367   4.581   3.420  16.512  0.0390  0.0440 -0.4420
  629MPD2    C4 9368   4.547   3.327  16.610  0.8274  0.4391  0.2859
  629MPD2    C5 9369   4.644   3.271  16.689 -0.0714 -0.1376  0.1841
  629MPD2     H 9370   4.733   3.546  16.436  0.2468  0.1029 -0.3453
  629MPD2    H1 9371   4.444   3.295  16.620  1.2545 -0.8451  0.4981
  629MPD2    H2 9372   0.113   3.267  16.741 -2.1752  2.1603  4.0639
  629MPD2    H3 9373   4.615   3.193  16.758  0.8900  0.4979  1.3164
  629MPD2     N 9374   4.484   3.481  16.426  0.0876 -1.0530 -0.6010
  629MPD2    H5 9375   4.510   3.543  16.350 -2.6884 -0.8226 -1.3410
  629MPD2    N1 9376   0.206   3.463  16.591  0.0103  0.3465  0.8866
  629MPD2    H7 9377   0.265   3.433  16.668 -0.0208 -0.3682  0.6290
  630TMC3    C1 9378   0.393   3.589  16.541  0.4802  0.3066  0.2727
  630TMC3    C2 9379   0.468   3.675  16.463  0.1840  0.6319  0.1546
  630TMC3    C3 9380   0.583   3.718  16.516  0.0399  0.5270 -0.3038
  630TMC3    C4 9381   0.453   3.534  16.654  0.0864 -0.0049  0.1666
  630TMC3    C5 9382   0.575   3.572  16.697  0.7976  0.3380  0.2091
  630TMC3    C6 9383   0.647   3.669  16.631  0.8736 -0.2584  0.0297
  630TMC3     C 9384   0.257   3.570  16.515  0.5285  0.0153 -0.2198
  630TMC3     O 9385   0.203   3.627  16.424 -0.2117  0.2204  0.2852
  630TMC3     H 9386   0.428   3.713  16.370  1.2508 -0.4955 -0.7546
  630TMC3    H1 9387   0.391   3.503  16.737  0.1187  1.4445  0.7189
  630TMC3    H2 9388   0.751   3.693  16.650  0.8226 -0.5698  0.7023
  630TMC3    C7 9389   0.628   3.500  16.814  0.3589  0.8259 -0.3208
  630TMC3    C8 9390   0.651   3.839  16.463  0.0465  0.1678  1.0786
  630TMC3    O1 9391   0.556   3.415  16.862 -0.5462 -0.3149 -0.1091
  630TMC3    O2 9392   0.753   3.886  16.518  0.3302 -0.2159  0.2110
  631MPD2     C 9393   3.186   2.790  15.171 -0.2127 -0.4723 -0.4983
  631MPD2    C1 9394   3.217   2.890  15.082 -0.5509  0.5138 -0.0978
  631MPD2    C2 9395   3.341   2.952  15.098  0.4842  0.8203  0.7003
  631MPD2    C3 9396   3.430   2.912  15.194 -0.2290  0.3893 -0.0996
  631MPD2    C4 9397   3.398   2.808  15.272  0.2981 -0.9036  0.1034
  631MPD2    C5 9398   3.279   2.738  15.260 -0.0231 -0.1529  0.4844
  631MPD2     H 9399   3.372   3.039  15.041 -1.3859  1.1259  0.1603
  631MPD2    H1 9400   3.475   2.778  15.343  0.8113 -1.6554 -0.7724
  631MPD2    H2 9401   3.098   2.726  15.165  0.4379 -1.1554 -2.7924
  631MPD2    H3 9402   3.269   2.647  15.318  3.0133  0.4690  1.9848
  631MPD2     N 9403   3.554   2.970  15.206 -0.3638 -0.4031 -0.4447
  631MPD2    H5 9404   3.580   3.048  15.147 -2.2912  1.5495  1.2647
  631MPD2    N1 9405   3.111   2.946  15.003 -0.8737  0.0167 -0.3207
  631MPD2    H7 9406   3.016   2.914  15.019 -1.1378  1.6790  1.3537
  632TMC3    C1 9407   3.028   3.054  14.812  0.4891 -0.2859  0.5216
  632TMC3    C2 9408   2.935   3.129  14.876  0.1542 -0.3938  0.0504
  632TMC3    C3 9409   2.884   3.235  14.802 -0.3036  0.3254 -0.6335
  632TMC3    C4 9410   3.067   3.091  14.687  0.0673 -0.6875  0.0811
  632TMC3    C5 9411   3.017   3.199  14.619 -0.3896  0.1224 -0.0760
  632TMC3    C6 9412   2.930   3.280  14.679 -0.3039 -0.0148 -0.6295
  632TMC3     C 9413   3.140   3.014  14.890 -0.1050 -0.3269 -0.1385
  632TMC3     O 9414   3.244   3.039  14.828 -0.4930  0.5077  0.3547
  632TMC3     H 9415   2.899   3.114  14.977 -1.5600 -0.2999 -0.5319
  632TMC3    H1 9416   3.141   3.031  14.634  2.0855  1.2067  0.7415
  632TMC3    H2 9417   2.889   3.367  14.629 -1.2906  0.6660  1.3621
  632TMC3    C7 9418   3.116   3.275  14.548  0.5397  0.7205  0.1203
  632TMC3    C8 9419   2.832   3.335  14.890  0.9598  0.2508  0.1951
  632TMC3    O1 9420   3.072   3.366  14.474  1.2339  0.3421 -0.4632
  632TMC3    O2 9421   2.762   3.299  14.983  0.3556  0.2299  0.0337
  633MPD2     C 9422   2.968   1.318  17.546  0.8285  0.8345  0.0948
  633MPD2    C1 9423   3.014   1.235  17.446  0.3197 -0.0320 -0.0925
  633MPD2    C2 9424   3.034   1.097  17.479  0.2684  0.5017 -0.4977
  633MPD2    C3 9425   3.012   1.051  17.609 -0.2965 -0.0484  0.0579
  633MPD2    C4 9426   2.958   1.141  17.701  1.2659 -0.0444 -0.1958
  633MPD2    C5 9427   2.937   1.275  17.674 -0.1728 -0.3098 -0.3399
  633MPD2     H 9428   3.068   1.031  17.400 -0.2912  1.3561 -1.4484
  633MPD2    H1 9429   2.949   1.109   0.061 -2.4172 -0.6535 -0.7038
  633MPD2    H2 9430   2.940   1.421  17.528  0.3607  0.4723 -1.2126
  633MPD2    H3 9431   2.893   1.339   0.006  2.0797  1.0704 -0.2153
  633MPD2     N 9432   3.059   0.932  17.658 -0.4305 -0.2321  0.2477
  633MPD2    H5 9433   3.061   0.912   0.014 -0.1316  1.5952  0.5966
  633MPD2    N1 9434   3.051   1.274  17.318 -0.1481  0.6230  0.0646
  633MPD2    H7 9435   3.067   1.196  17.255 -2.0871 -1.6383  2.3650
  634TMC3    C1 9436   3.077   1.428  17.123  0.2539 -0.1986 -0.0596
  634TMC3    C2 9437   3.124   1.329  17.044 -0.2581  0.0455 -0.0535
  634TMC3    C3 9438   3.143   1.364  16.913 -0.1555  0.0318 -0.2277
  634TMC3    C4 9439   3.049   1.554  17.081  0.4238  0.4344 -1.1528
  634TMC3    C5 9440   3.080   1.586  16.953  0.6156 -0.0871 -0.4760
  634TMC3    C6 9441   3.134   1.495  16.868  0.6503  0.0260  0.0860
  634TMC3     C 9442   3.050   1.406  17.266 -0.2369 -0.1680  0.9280
  634TMC3     O 9443   3.013   1.506  17.330  0.2458  0.3725  0.9795
  634TMC3     H 9444   3.123   1.228  17.082  0.0101 -1.0140 -2.9050
  634TMC3    H1 9445   2.990   1.621  17.142  1.5492  1.8302 -1.5920
  634TMC3    H2 9446   3.142   1.526  16.764  0.5489 -1.0184 -0.2311
  634TMC3    C7 9447   3.030   1.707  16.881  0.9834 -0.4496 -0.4027
  634TMC3    C8 9448   3.204   1.261  16.832  0.1324 -0.2233  0.0704
  634TMC3    O1 9449   3.052   1.728  16.765  0.2661 -0.5314 -0.0260
  634TMC3    O2 9450   3.218   1.151  16.888 -0.6299  0.6729 -0.2818
  635TMC3    C1 9451   2.756   2.979   0.251 -0.1770 -0.1997 -0.1112
  635TMC3    C2 9452   2.795   2.874   0.171  0.4477  0.0423 -0.4291
  635TMC3    C3 9453   2.827   2.751   0.226  0.3243 -0.6772  0.5789
  635TMC3    C4 9454   2.742   2.963   0.387 -0.2643 -0.3809  0.1477
  635TMC3    C5 9455   2.758   2.835   0.438 -0.1178  0.1110  0.2200
  635TMC3    C6 9456   2.797   2.723   0.360  0.3142  0.2604 -0.1224
  635TMC3     C 9457   2.723   3.110   0.197  0.2623 -0.1839  0.3404
  635TMC3     O 9458   2.709   3.212   0.271  0.5097 -0.2474  0.5054
  635TMC3     H 9459   2.821   2.888   0.067  2.1495  1.9039  0.2548
  635TMC3    H1 9460   2.726   3.053   0.446  1.4202 -0.5629  0.8844
  635TMC3    H2 9461   2.810   2.627   0.407  0.7629 -0.6068 -2.0079
  635TMC3    C7 9462   2.770   2.818   0.579  0.8995 -0.2272  0.3705
  635TMC3    C8 9463   2.863   2.647   0.132 -0.2929  0.4946  0.2657
  635TMC3    O1 9464   2.819   2.716   0.627  0.0759  0.0831  0.0306
  635TMC3    O2 9465   2.861   2.681   0.011 -0.3220  0.2171  0.4360
  636MPD2     C 9466   4.009   1.765  16.312 -0.0769 -0.1191 -0.3829
  636MPD2    C1 9467   3.934   1.848  16.386  0.5311 -0.4949  0.2828
  636MPD2    C2 9468   3.898   1.814  16.514  0.1812  0.6989  0.6610
  636MPD2    C3 9469   3.936   1.694  16.568 -0.3328  0.3086 -0.5611
  636MPD2    C4 9470   4.006   1.610  16.490 -0.0483 -0.4888 -0.2913
  636MPD2    C5 9471   4.035   1.644  16.361  0.2290  0.5495  0.0020
  636MPD2     H 9472   3.838   1.884  16.571  0.6988  1.7980 -0.1448
  636MPD2    H1 9473   4.054   1.519  16.525  2.4119  1.2468  0.8525
  636MPD2    H2 9474   4.042   1.789  16.211  0.5259 -0.5282 -0.2799
  636MPD2    H3 9475   4.097   1.574  16.306 -1.0108 -1.8287  1.6299
  636MPD2     N 9476   3.900   1.663  16.709  0.0092 -0.1674 -0.4413
  636MPD2    H5 9477   3.836   1.730  16.752  0.3913  0.8439 -1.4569
  636MPD2    N1 9478   3.894   1.984  16.352  0.3229 -1.0048  0.3433
  636MPD2    H7 9479   3.842   2.029  16.426 -1.1020 -1.9978 -0.0563
  637TMC3    C1 9480   3.901   1.556  16.919 -0.1833 -0.5645  0.4459
  637TMC3    C2 9481   3.876   1.688  16.948 -0.0018  0.2033  0.3784
  637TMC3    C3 9482   3.979   1.752  17.008  0.1189  0.0274 -0.2679
  637TMC3    C4 9483   3.994   1.482  16.984  0.3713 -0.4757  0.8682
  637TMC3    C5 9484   4.092   1.554  17.034 -0.0673 -0.3098 -0.1754
  637TMC3    C6 9485   4.089   1.691  17.053 -0.3298  1.0788 -0.0520
  637TMC3     C 9486   3.929   1.549  16.774 -0.3457 -0.2505 -0.0390
  637TMC3     O 9487   3.992   1.455  16.724 -0.0326  0.7403 -0.3679
  637TMC3     H 9488   3.784   1.733  16.912 -0.1086 -1.9952 -2.0481
  637TMC3    H1 9489   4.006   1.379  16.951  1.6706 -0.0022 -0.1246
  637TMC3    H2 9490   4.171   1.747  17.096  0.0938 -1.9986  3.2067
  637TMC3    C7 9491   4.219   1.507  16.972 -0.1126 -0.7037 -0.1933
  637TMC3    C8 9492   4.018   1.870  16.931  0.2815 -0.3700 -0.0021
  637TMC3    O1 9493   4.253   1.390  16.977 -0.5371  0.5020 -0.2820
  637TMC3    O2 9494   4.137   1.859  16.890  0.6736 -0.0652 -0.2783
  638MPD2     C 9495   4.221   0.687  14.653  0.4866  0.1527  0.2388
  638MPD2    C1 9496   4.191   0.566  14.593  0.3725 -0.3298  0.0237
  638MPD2    C2 9497   4.123   0.467  14.662 -0.0464  0.5009 -0.0162
  638MPD2    C3 9498   4.095   0.475  14.799  0.4989  0.1178 -0.3280
  638MPD2    C4 9499   4.141   0.596  14.856 -0.0127  0.0876  0.3520
  638MPD2    C5 9500   4.198   0.698  14.787  0.4752 -0.0875 -0.5730
  638MPD2     H 9501   4.098   0.374  14.613  0.0559  1.4727 -1.9394
  638MPD2    H1 9502   4.119   0.617  14.960  0.2568  0.7437  0.2803
  638MPD2    H2 9503   4.274   0.764  14.599  0.1610 -0.1333 -0.4861
  638MPD2    H3 9504   4.233   0.782  14.847  0.0447 -1.9199  2.2846
  638MPD2     N 9505   4.044   0.365  14.869 -0.2763 -0.2575  0.2314
  638MPD2    H5 9506   4.031   0.279  14.817  1.0228 -1.5174  2.0189
  638MPD2    N1 9507   4.227   0.557  14.457  0.4031  0.1584  0.2030
  638MPD2    H7 9508   4.288   0.628  14.418 -0.8164  0.2253 -1.5406
  639TMC3    C1 9509   4.002   0.227  15.041  0.5118  0.7538 -0.2672
  639TMC3    C2 9510   3.907   0.168  14.973  0.2285 -0.3175 -0.2367
  639TMC3    C3 9511   3.879   0.042  14.995  0.0329 -0.0871 -0.8610
  639TMC3    C4 9512   4.088   0.159  15.116  0.4467 -0.3108  0.1977
  639TMC3    C5 9513   4.054   0.027  15.151  0.1690 -0.1059 -0.6721
  639TMC3    C6 9514   3.950   4.704  15.088  0.2774 -0.0310 -0.0286
  639TMC3     C 9515   4.032   0.357  15.007  0.6491 -0.3032  0.1707
  639TMC3     O 9516   4.052   0.447  15.086  0.0063  0.0329  0.6586
  639TMC3     H 9517   3.847   0.232  14.909 -0.3635 -2.3548 -1.7584
  639TMC3    H1 9518   4.164   0.216  15.169  2.2719 -1.1749 -1.4869
  639TMC3    H2 9519   3.940   4.596  15.088  2.9187 -0.2720 -0.9620
  639TMC3    C7 9520   4.165   4.679  15.187 -1.0831  0.4100 -0.3260
  639TMC3    C8 9521   3.799   4.696  14.902 -0.2278  0.6958  0.1425
  639TMC3    O1 9522   4.134   4.571  15.234  0.2297  0.1206 -0.1033
  639TMC3    O2 9523   3.772   0.011  14.792 -0.3113 -0.1294 -0.3213
  640MPD2     C 9524   3.619   3.449   8.689 -0.2977 -0.1409  0.4709
  640MPD2    C1 9525   3.704   3.499   8.783  0.1102 -0.1113 -0.5535
  640MPD2    C2 9526   3.654   3.560   8.899  0.4450 -0.3226  0.3430
  640MPD2    C3 9527   3.517   3.564   8.925 -0.2531 -0.1608 -0.1207
  640MPD2    C4 9528   3.435   3.514   8.825 -0.5023 -0.8274  0.9463
  640MPD2    C5 9529   3.483   3.457   8.717 -0.3423  0.3088  0.5540
  640MPD2     H 9530   3.723   3.605   8.969 -1.1096 -0.9870  2.2977
  640MPD2    H1 9531   3.329   3.530   8.846  0.1718  1.6875  2.5084
  640MPD2    H2 9532   3.656   3.401   8.599  1.6294  0.8811  0.7339
  640MPD2    H3 9533   3.415   3.420   8.641 -0.4396 -1.7844  1.6583
  640MPD2     N 9534   3.474   3.631   9.041  0.0196 -0.4967 -0.2142
  640MPD2    H5 9535   3.379   3.608   9.068 -0.4865 -0.1144 -1.6659
  640MPD2    N1 9536   3.843   3.496   8.756 -0.2374 -0.4369  0.2108
  640MPD2    H7 9537   3.860   3.435   8.676  0.6381 -1.5736  1.2622
  641TMC3    C1 9538   4.084   3.503   8.795  0.1292 -1.0587 -0.2386
  641TMC3    C2 9539   4.165   3.465   8.898  0.0470  0.6491  0.2696
  641TMC3    C3 9540   4.275   3.389   8.869 -0.6784 -0.2259 -1.0811
  641TMC3    C4 9541   4.108   3.477   8.663  0.4196  0.3327 -0.3596
  641TMC3    C5 9542   4.228   3.419   8.633  0.3719  0.8527 -0.4783
  641TMC3    C6 9543   4.316   3.370   8.734  0.4234 -0.6792 -0.7408
  641TMC3     C 9544   3.947   3.534   8.842 -1.3193  0.0102 -0.5075
  641TMC3     O 9545   3.942   3.585   8.955  0.4324  0.0451 -0.3053
  641TMC3     H 9546   4.129   3.476   9.000 -2.2874 -0.0590 -0.4578
  641TMC3    H1 9547   4.036   3.498   8.586  0.0077 -1.4944 -0.4653
  641TMC3    H2 9548   4.407   3.315   8.712  0.1880 -1.5568  0.5069
  641TMC3    C7 9549   4.270   3.423   8.500  0.5783 -0.5694 -0.4818
  641TMC3    C8 9550   4.351   3.327   8.972 -0.6257  0.3328 -0.2315
  641TMC3    O1 9551   4.209   3.501   8.429  0.5719 -0.6833 -0.1831
  641TMC3    O2 9552   4.416   3.229   8.938  0.4071  0.2838  0.3613
  642TMC3    C1 9553   0.500   0.037  12.349 -0.1104  0.8126  0.6328
  642TMC3    C2 9554   0.611   4.723  12.412 -0.0193 -0.6283  1.0885
  642TMC3    C3 9555   0.661   4.602  12.368  0.6173 -0.1024  0.2052
  642TMC3    C4 9556   0.423   4.694  12.267  0.4767 -0.5036 -0.1832
  642TMC3    C5 9557   0.466   4.563  12.245  0.4478 -0.4051 -0.4715
  642TMC3    C6 9558   0.592   4.518  12.283 -0.0421  0.0905 -0.4341
  642TMC3     C 9559   0.461   0.171  12.392 -0.0801 -0.3557 -0.3197
  642TMC3     O 9560   0.549   0.239  12.445 -0.8234  0.3793  0.2492
  642TMC3     H 9561   0.668   0.032  12.492  0.9017  0.2985 -0.0891
  642TMC3    H1 9562   0.336   0.000  12.218  0.8128 -0.8712 -1.1010
  642TMC3    H2 9563   0.622   4.414  12.278  1.1531  0.3984  0.3522
  642TMC3    C7 9564   0.385   4.480  12.151 -0.3432 -0.2542  0.4523
  642TMC3    C8 9565   0.801   4.582  12.406 -0.5715  0.1655 -0.5764
  642TMC3    O1 9566   0.316   4.549  12.076  0.2450 -0.4191 -0.3713
  642TMC3    O2 9567   0.847   4.660  12.494  0.2189 -0.5317 -0.2975
  643TMC3    C1 9568   4.496   3.698  17.409  1.3715 -0.1647 -0.3191
  643TMC3    C2 9569   4.435   3.740  17.293 -0.3551 -0.9897  0.7901
  643TMC3    C3 9570   4.514   3.785  17.189  0.5904  0.3673 -0.3791
  643TMC3    C4 9571   4.633   3.681  17.411 -0.2343 -0.8435  0.3594
  643TMC3    C5 9572   4.710   3.723  17.308  0.0400  0.1336  0.3104
  643TMC3    C6 9573   4.648   3.775  17.198 -0.0988  0.2604 -0.5656
  643TMC3     C 9574   4.447   3.767  17.524  0.3872 -0.0965  0.3975
  643TMC3     O 9575   4.368   3.856  17.498  0.4708  0.1252  0.3171
  643TMC3     H 9576   4.327   3.739  17.279 -0.1221 -0.5161 -1.0618
  643TMC3    H1 9577   4.691   3.664  17.501 -1.9415  0.0168  1.6139
  643TMC3    H2 9578   4.701   3.813  17.111  0.8395 -2.2351 -1.0648
  643TMC3    C7 9579   0.109   3.755  17.321 -0.5778 -0.2879  0.7506
  643TMC3    C8 9580   4.468   3.903  17.128 -0.4974 -0.0026  0.6715
  643TMC3    O1 9581   0.161   3.720  17.424  0.2361 -0.0511  0.5653
  643TMC3    O2 9582   4.532   3.938  17.030  0.0882 -0.4836 -0.3406
  644MPD2     C 9583   0.348   4.117   9.160 -0.5998 -0.2479  0.2457
  644MPD2    C1 9584   0.227   4.121   9.226  0.2657 -0.1222 -0.8328
  644MPD2    C2 9585   0.188   4.234   9.298  0.1020  0.3334 -0.3668
  644MPD2    C3 9586   0.269   4.347   9.300 -0.8291 -0.7846 -0.3076
  644MPD2    C4 9587   0.395   4.347   9.237 -0.4692  0.4649 -0.1660
  644MPD2    C5 9588   0.428   4.230   9.174  0.6792 -0.8267  0.0041
  644MPD2     H 9589   0.088   4.243   9.339  0.6710 -1.1949  1.3494
  644MPD2    H1 9590   0.470   4.425   9.229  0.1484 -0.0032  0.9969
  644MPD2    H2 9591   0.383   4.029   9.106  2.0169  0.8702  0.0854
  644MPD2    H3 9592   0.527   4.224   9.131  0.3414 -1.6296 -0.6803
  644MPD2     N 9593   0.222   4.463   9.366  1.0839  0.2160 -0.6301
  644MPD2    H5 9594   0.133   4.457   9.414  1.4934 -0.5161  0.0313
  644MPD2    N1 9595   0.157   4.001   9.232  0.1048  0.4386  0.2506
  644MPD2    H7 9596   0.196   3.924   9.179 -0.7168  1.0680 -1.2734
  645TMC3    C1 9597   0.215   4.692   9.432 -0.1678  0.0694  0.4917
  645TMC3    C2 9598   0.286   0.047   9.500  0.0467 -0.1298 -0.7269
  645TMC3    C3 9599   0.219   0.122   9.591 -0.1576  0.4650 -0.3407
  645TMC3    C4 9600   0.077   4.683   9.436  0.1595  0.0817 -0.3697
  645TMC3    C5 9601   0.016   0.032   9.522  0.0116 -0.1531  0.0022
  645TMC3    C6 9602   0.080   0.122   9.602  0.1680 -0.6184  0.3915
  645TMC3     C 9603   0.289   4.589   9.373 -0.4332 -0.3982  0.2548
  645TMC3     O 9604   0.405   4.604   9.345  0.0392 -0.0198 -0.2962
  645TMC3     H 9605   0.394   0.052   9.489  0.0956  0.7869  0.1481
  645TMC3    H1 9606   0.014   4.618   9.376  0.6618  0.5611 -1.3989
  645TMC3    H2 9607   0.036   0.162   9.692  0.0053  0.3056 -0.0934
  645TMC3    C7 9608   4.608   0.018   9.552 -0.0636  0.2155  0.5783
  645TMC3    C8 9609   0.290   0.226   9.664 -0.1480  0.1606 -0.0351
  645TMC3    O1 9610   4.560   4.648   9.513  0.0166 -0.3294 -0.5782
  645TMC3    O2 9611   0.228   0.323   9.705 -0.3346  0.3478  0.0604
  646MPD2     C 9612   4.316   3.742  14.472  0.2712  0.5924  0.5197
  646MPD2    C1 9613   4.240   3.795  14.576  0.5850  0.1847  0.0862
  646MPD2    C2 9614   4.116   3.853  14.558 -0.2352 -0.2635 -1.2161
  646MPD2    C3 9615   4.064   3.868  14.423  0.5925  0.2600  0.3797
  646MPD2    C4 9616   4.141   3.810  14.324 -0.5783 -0.3701  0.1554
  646MPD2    C5 9617   4.263   3.756  14.348 -0.1867  0.3649 -0.0980
  646MPD2     H 9618   4.059   3.900  14.638  0.1535 -0.9176 -0.5551
  646MPD2    H1 9619   4.114   3.810  14.219 -1.5623 -0.6013  0.4104
  646MPD2    H2 9620   4.403   3.682  14.493  0.3353  0.7660  0.7502
  646MPD2    H3 9621   4.323   3.721  14.265  2.8453  0.4152  2.1013
  646MPD2     N 9622   3.933   3.933  14.405 -0.2069  0.1062 -0.1145
  646MPD2    H5 9623   3.890   3.963  14.492  1.8259  2.1777  0.1670
  646MPD2    N1 9624   4.298   3.787  14.706  0.2469 -0.6443 -0.6178
  646MPD2    H7 9625   4.397   3.765  14.697 -0.1978 -2.7863 -0.1347
  647TMC3    C1 9626   4.314   3.722  14.936  0.7944  0.4900  0.6099
  647TMC3    C2 9627   4.271   3.627  15.030 -0.1179 -0.5463  0.2473
  647TMC3    C3 9628   4.362   3.587  15.121 -0.3467  0.3114  0.2526
  647TMC3    C4 9629   4.439   3.773  14.939  0.3509 -0.0888 -0.0186
  647TMC3    C5 9630   4.527   3.732  15.035 -0.4958 -0.1530  0.1557
  647TMC3    C6 9631   4.488   3.641  15.128 -0.1120 -0.3333 -0.3161
  647TMC3     C 9632   4.224   3.750  14.820  0.0228  0.0156 -0.9841
  647TMC3     O 9633   4.103   3.749  14.842  0.1610  0.2070  0.2846
  647TMC3     H 9634   4.168   3.594  15.021 -0.6098  1.3376 -0.8244
  647TMC3    H1 9635   4.459   3.862  14.880  1.8442 -0.5363 -0.1716
  647TMC3    H2 9636   4.563   3.595  15.191 -0.8413  0.5479  1.1791
  647TMC3    C7 9637   4.671   3.744  15.033 -0.3030 -0.0058 -0.1125
  647TMC3    C8 9638   4.350   3.464  15.194  0.1260 -0.4832 -0.1536
  647TMC3    O1 9639   4.731   3.741  15.138  0.5230  0.6199  0.1543
  647TMC3    O2 9640   4.424   3.433  15.285 -0.4526 -0.6671 -0.4375
  648TMC3    C1 9641   3.595   1.574  16.319 -0.4585 -0.2367 -0.1327
  648TMC3    C2 9642   3.714   1.520  16.281  0.4034  0.0574 -0.3141
  648TMC3    C3 9643   3.715   1.474  16.155  1.4476  0.4070 -0.4630
  648TMC3    C4 9644   3.483   1.585  16.243 -0.6135  0.5750  0.7540
  648TMC3    C5 9645   3.492   1.544  16.116  0.1192 -0.0100 -0.1677
  648TMC3    C6 9646   3.605   1.478  16.078 -0.4690  0.1186 -0.1686
  648TMC3     C 9647   3.577   1.589  16.462 -0.5716 -0.3915  0.3060
  648TMC3     O 9648   3.485   1.661  16.502  0.1016  0.3034  0.4136
  648TMC3     H 9649   3.799   1.519  16.349  1.2816 -1.3247 -1.4228
  648TMC3    H1 9650   3.400   1.642  16.283 -1.2716 -0.0098  0.2233
  648TMC3    H2 9651   3.608   1.446  15.975 -1.5091  0.5247 -0.3292
  648TMC3    C7 9652   3.409   1.622  16.015  0.0929  0.2752 -0.1766
  648TMC3    C8 9653   3.768   1.338  16.161 -0.4089  0.4557  0.2665
  648TMC3    O1 9654   3.461   1.635  15.907  0.5892 -0.0875  0.3864
  648TMC3    O2 9655   3.785   1.308  16.276 -0.0793 -0.8125  0.6660
  649TMC3    C1 9656   2.537   2.536  13.255 -0.5670  0.0358  0.3916
  649TMC3    C2 9657   2.626   2.639  13.258  0.6755  0.2430  0.6469
  649TMC3    C3 9658   2.739   2.616  13.329  0.2321 -0.4297  0.2557
  649TMC3    C4 9659   2.552   2.413  13.319  0.8963  0.7887 -0.3943
  649TMC3    C5 9660   2.659   2.408  13.409 -0.1494 -0.4481  0.3659
  649TMC3    C6 9661   2.754   2.509  13.411  0.3839 -0.3053 -0.0693
  649TMC3     C 9662   2.416   2.569  13.177  0.2216 -0.2779 -0.6247
  649TMC3     O 9663   2.401   2.689  13.169 -0.3069 -0.1202  0.0554
  649TMC3     H 9664   2.631   2.732  13.202  2.7295 -0.0846  0.2708
  649TMC3    H1 9665   2.480   2.333  13.313  0.4896  1.0899  0.4591
  649TMC3    H2 9666   2.843   2.507  13.472 -0.5101  0.6187  1.2837
  649TMC3    C7 9667   2.638   2.319  13.523 -0.8879 -0.4415 -0.2468
  649TMC3    C8 9668   2.810   2.739  13.373  0.2242  0.1541  0.1995
  649TMC3    O1 9669   2.533   2.257  13.518 -0.3037 -0.1991  0.2410
  649TMC3    O2 9670   2.738   2.836  13.406 -0.0545 -0.0750 -0.2377
  650TMC3    C1 9671   4.629   4.149  11.934 -1.1127  0.7292 -0.4412
  650TMC3    C2 9672   4.619   4.288  11.911  0.4330  0.0377 -0.2912
  650TMC3    C3 9673   4.500   4.337  11.865 -0.6032 -0.0048 -0.1188
  650TMC3    C4 9674   4.530   4.058  11.895  0.5059 -0.2688 -0.4287
  650TMC3    C5 9675   4.415   4.117  11.851 -0.3561  0.4653 -0.4506
  650TMC3    C6 9676   4.393   4.251  11.841  0.1579 -0.2371  0.4200
  650TMC3     C 9677   4.715   4.109  12.043 -0.2410 -0.0703 -0.0600
  650TMC3     O 9678   0.007   4.204  12.112 -0.3198 -0.6443 -0.3381
  650TMC3     H 9679   4.699   4.354  11.944  1.8807 -0.4256 -2.8548
  650TMC3    H1 9680   4.544   3.951  11.907  0.3371 -0.2834 -0.3683
  650TMC3    H2 9681   4.291   4.284  11.857 -0.4976 -1.3415 -1.4892
  650TMC3    C7 9682   4.310   4.031  11.798 -0.0422  0.0007  0.9695
  650TMC3    C8 9683   4.464   4.475  11.899 -0.6118 -0.3957  0.7129
  650TMC3    O1 9684   4.331   3.910  11.791  0.1055 -0.1719 -0.2582
  650TMC3    O2 9685   4.547   4.545  11.957  0.0753  0.2984  0.2809
  651MPD2     C 9686   3.477   1.426  10.315  0.1650  0.3358 -0.1143
  651MPD2    C1 9687   3.538   1.514  10.406  0.1056 -0.5229 -0.4074
  651MPD2    C2 9688   3.622   1.612  10.362  0.8398 -0.0038  0.3858
  651MPD2    C3 9689   3.648   1.614  10.227  0.2014 -0.1311 -0.0749
  651MPD2    C4 9690   3.590   1.529  10.138  0.8326  0.4548  0.1315
  651MPD2    C5 9691   3.495   1.442  10.177  0.1333  0.1855  0.1412
  651MPD2     H 9692   3.666   1.685  10.428  1.1664 -2.9814  3.4719
  651MPD2    H1 9693   3.612   1.536  10.032  0.3164  2.0156  0.1335
  651MPD2    H2 9694   3.418   1.341  10.345  1.4416 -0.9507 -1.2646
  651MPD2    H3 9695   3.461   1.361  10.113 -0.8630  0.7167 -0.0158
  651MPD2     N 9696   3.735   1.720  10.179  0.3323  0.3445 -0.1448
  651MPD2    H5 9697   3.748   1.805  10.233  1.2028 -1.0193  1.7664
  651MPD2    N1 9698   3.532   1.497  10.546 -0.1697  0.3135 -0.2551
  651MPD2    H7 9699   3.556   1.580  10.599 -0.6296  0.0397  0.3881
  652TMC3    C1 9700   4.144   1.851  10.023 -0.9244  0.2657  0.4848
  652TMC3    C2 9701   4.033   1.776  10.001  0.0916  0.2260 -0.1085
  652TMC3    C3 9702   3.906   1.814  10.040  0.0726  0.1316  0.2283
  652TMC3    C4 9703   4.127   1.974  10.069 -0.2940  0.7227  0.7629
  652TMC3    C5 9704   4.002   2.026  10.099  0.6980 -0.5471 -0.0932
  652TMC3    C6 9705   3.895   1.939  10.092 -0.3884 -0.1331 -0.6439
  652TMC3     C 9706   4.241   1.779  10.098 -0.8641 -0.2807 -0.5577
  652TMC3     O 9707   4.192   1.675  10.147 -0.0105 -0.2762 -0.3771
  652TMC3     H 9708   4.042   1.672   9.970  2.0273  0.1214  0.8253
  652TMC3    H1 9709   4.205   2.043  10.099  1.2760 -0.6838 -0.0709
  652TMC3    H2 9710   3.796   1.965  10.128  0.0739 -1.7971  1.8540
  652TMC3    C7 9711   3.992   2.128  10.195  0.4652 -0.3485 -0.4965
  652TMC3    C8 9712   3.819   1.700  10.066  0.1177 -0.1858 -0.2436
  652TMC3    O1 9713   4.036   2.103  10.309 -0.0154  0.9942 -0.0041
  652TMC3    O2 9714   3.821   1.610   9.982 -0.1605  0.2231 -0.1409
  653MPD2     C 9715   2.203   1.785  17.630 -0.6350 -0.3355 -0.6096
  653MPD2    C1 9716   2.272   1.852  17.531 -0.1223  0.8390 -0.1041
  653MPD2    C2 9717   2.241   1.813  17.397 -0.1200 -0.0110  0.2455
  653MPD2    C3 9718   2.164   1.702  17.378  0.3005  0.7416 -0.1361
  653MPD2    C4 9719   2.101   1.635  17.478 -0.2243 -0.0413  0.0893
  653MPD2    C5 9720   2.117   1.686  17.603  0.0137 -0.2286 -0.3158
  653MPD2     H 9721   2.296   1.868  17.322 -1.2689  1.5491  0.5359
  653MPD2    H1 9722   2.032   1.554  17.458 -0.2710  0.4890 -1.9421
  653MPD2    H2 9723   2.200   1.822  17.732  1.3269  2.2065 -1.4569
  653MPD2    H3 9724   2.064   1.648  17.690  0.3658  1.7182  0.7646
  653MPD2     N 9725   2.147   1.658  17.244 -0.0244 -0.0788 -0.6614
  653MPD2    H5 9726   2.190   1.716  17.173 -0.4382  0.0456 -0.8136
  653MPD2    N1 9727   2.376   1.951  17.550  0.5566 -0.2418 -0.1719
  653MPD2    H7 9728   2.412   2.007  17.474  0.6823  0.8244  0.6824
  654TMC3    C1 9729   2.077   1.531  17.056 -0.1180 -0.0929  0.0575
  654TMC3    C2 9730   1.987   1.600  16.975  0.3904  0.4472  0.1372
  654TMC3    C3 9731   2.004   1.595  16.838  0.7043  0.2164 -0.1031
  654TMC3    C4 9732   2.181   1.457  17.012  0.2722  0.6132 -0.1164
  654TMC3    C5 9733   2.201   1.461  16.875  0.2915 -0.6663 -0.2737
  654TMC3    C6 9734   2.114   1.532  16.794  0.2460 -0.0473 -0.4542
  654TMC3     C 9735   2.070   1.555  17.199 -0.1689 -0.1050 -0.2943
  654TMC3     O 9736   2.016   1.465  17.261 -0.1549 -0.2780 -0.0974
  654TMC3     H 9737   1.904   1.659  17.012  0.7471  0.9339  0.1566
  654TMC3    H1 9738   2.242   1.411  17.088  1.0723  3.4807  0.9771
  654TMC3    H2 9739   2.136   1.557  16.691  2.3871  2.1751  0.5524
  654TMC3    C7 9740   2.293   1.369  16.810 -0.2318 -0.0889 -0.4619
  654TMC3    C8 9741   1.888   1.635  16.752  0.3706 -1.3945  0.1963
  654TMC3    O1 9742   2.289   1.367  16.692  0.5043 -0.5780 -0.6111
  654TMC3    O2 9743   1.799   1.698  16.809  0.1996 -0.7238  0.0004
  655MPD2     C 9744   4.006   1.780  15.623 -0.0730  0.5129 -1.1008
  655MPD2    C1 9745   3.869   1.776  15.594  0.4569 -0.5935 -0.4478
  655MPD2    C2 9746   3.836   1.726  15.470  0.4553 -0.7066 -0.7641
  655MPD2    C3 9747   3.936   1.690  15.384  0.0424 -0.3908  0.6609
  655MPD2    C4 9748   4.068   1.697  15.415 -0.1433  0.4870 -0.5105
  655MPD2    C5 9749   4.107   1.752  15.534 -0.5539  0.2143 -0.2101
  655MPD2     H 9750   3.731   1.715  15.447  0.0223  1.3834  0.1649
  655MPD2    H1 9751   4.139   1.659  15.342 -0.3699  0.7319 -0.8583
  655MPD2    H2 9752   4.042   1.811  15.720 -0.2571  1.1166 -1.2244
  655MPD2    H3 9753   4.210   1.765  15.563 -0.7634  1.4054  0.0067
  655MPD2     N 9754   3.904   1.620  15.264  0.4722 -0.3486 -0.0408
  655MPD2    H5 9755   3.981   1.593  15.204  0.7748  0.6079 -0.0740
  655MPD2    N1 9756   3.766   1.815  15.677 -0.2314 -0.2604  0.3578
  655MPD2    H7 9757   3.671   1.800  15.645 -0.3367  1.3045 -0.0296
  656TMC3    C1 9758   3.645   1.910  15.855 -0.5597 -0.3687  0.5483
  656TMC3    C2 9759   3.616   1.901  15.989  0.0560  0.5791 -0.0372
  656TMC3    C3 9760   3.508   1.969  16.031 -0.1598  0.7120 -0.2928
  656TMC3    C4 9761   3.573   1.981  15.766 -0.0096 -0.3500 -0.2213
  656TMC3    C5 9762   3.465   2.046  15.812  0.0772  0.1716 -0.7256
  656TMC3    C6 9763   3.425   2.036  15.943 -0.3185 -0.1959 -0.0381
  656TMC3     C 9764   3.771   1.853  15.810 -0.2091 -0.8795 -0.4755
  656TMC3     O 9765   3.871   1.853  15.880  0.9480 -0.6093 -0.2699
  656TMC3     H 9766   3.669   1.838  16.059  0.0783  0.0588 -0.5248
  656TMC3    H1 9767   3.587   1.978  15.659  0.7113 -0.1870 -0.1329
  656TMC3    H2 9768   3.348   2.098  15.989  0.3660 -0.2027  1.1224
  656TMC3    C7 9769   3.383   2.106  15.706 -0.6683  0.3954  0.2368
  656TMC3    C8 9770   3.469   1.950  16.169  0.9423  0.9148 -0.5040
  656TMC3    O1 9771   3.444   2.153  15.611 -0.1284 -0.1174  0.1910
  656TMC3    O2 9772   3.525   1.860  16.235  0.1635 -0.2387  0.1956
  657TMC3    C1 9773   3.005   0.914  15.176  0.0096  0.2145 -0.6930
  657TMC3    C2 9774   3.074   0.967  15.286 -0.2057  0.0833 -0.1180
  657TMC3    C3 9775   2.998   1.025  15.388  0.3468 -0.4446 -0.0550
  657TMC3    C4 9776   2.870   0.923  15.169 -0.3704  0.0366 -0.0279
  657TMC3    C5 9777   2.803   0.986  15.272 -0.2674  0.3021  0.1627
  657TMC3    C6 9778   2.865   1.040  15.384  0.3364 -0.3018 -0.0864
  657TMC3     C 9779   3.081   0.843  15.074  0.2988  0.3290 -0.0254
  657TMC3     O 9780   3.012   0.796  14.984 -0.0862 -0.1265 -0.0581
  657TMC3     H 9781   3.176   0.941  15.311  0.7076  2.2733 -1.5455
  657TMC3    H1 9782   2.813   0.876  15.090 -1.0097 -0.7070  0.8764
  657TMC3    H2 9783   2.808   1.089  15.462 -0.8824 -1.8077 -0.0474
  657TMC3    C7 9784   2.657   0.956  15.275  0.4108  0.6370 -0.0611
  657TMC3    C8 9785   3.068   1.121  15.479 -0.4978 -0.8227  0.0683
  657TMC3    O1 9786   2.627   0.846  15.236 -0.1383  0.5632 -0.0164
  657TMC3    O2 9787   3.018   1.228  15.494 -0.4728 -0.0311  0.1030
  658MPD2     C 9788   4.332   1.465  14.853 -0.3877  0.7257 -0.1566
  658MPD2    C1 9789   4.220   1.458  14.774  0.5611  0.4309 -0.0910
  658MPD2    C2 9790   4.234   1.468  14.638 -0.2360 -0.6675  0.1576
  658MPD2    C3 9791   4.356   1.499  14.575 -0.0038 -0.3619 -0.1845
  658MPD2    C4 9792   4.468   1.503  14.660 -0.3171 -0.3199  0.1020
  658MPD2    C5 9793   4.450   1.492  14.795 -0.0255 -0.2183 -0.6359
  658MPD2     H 9794   4.148   1.460  14.572 -1.7035  2.2490  1.7300
  658MPD2    H1 9795   4.568   1.516  14.622 -0.0868 -0.9112  0.5012
  658MPD2    H2 9796   4.328   1.458  14.961  1.0673  0.0403 -0.1501
  658MPD2    H3 9797   4.540   1.510  14.853 -1.2225  1.3900  0.7556
  658MPD2     N 9798   4.367   1.523  14.435 -0.5000 -0.1097  0.0651
  658MPD2    H5 9799   4.284   1.505  14.379 -0.1497 -0.4877 -0.3350
  658MPD2    N1 9800   4.102   1.459  14.845 -0.1443  0.1394  0.1127
  658MPD2    H7 9801   4.114   1.457  14.946  0.2433 -2.2357  0.0148
  659TMC3    C1 9802   3.872   1.447  14.888  0.7936  0.0473  0.4967
  659TMC3    C2 9803   3.883   1.525  15.005  0.4903  0.0412  0.6140
  659TMC3    C3 9804   3.769   1.552  15.069 -0.9840  1.1620  0.1207
  659TMC3    C4 9805   3.757   1.397  14.849  0.1330 -0.2790 -0.0520
  659TMC3    C5 9806   3.647   1.427  14.918 -0.0748  0.0583 -0.7132
  659TMC3    C6 9807   3.644   1.505  15.031 -0.3684  0.1162  0.3088
  659TMC3     C 9808   3.975   1.449  14.791 -0.5321 -0.3889 -0.2993
  659TMC3     O 9809   3.945   1.436  14.674 -0.2105  0.4159 -0.3436
  659TMC3     H 9810   3.977   1.576  15.023  1.3998 -1.1674 -0.7147
  659TMC3    H1 9811   3.743   1.335  14.761  0.1556  0.1369 -0.3489
  659TMC3    H2 9812   3.550   1.507  15.085  0.3836 -0.4651  1.6606
  659TMC3    C7 9813   3.515   1.393  14.881  0.0132 -0.5862  0.8262
  659TMC3    C8 9814   3.779   1.614  15.202  0.1691  0.1910  0.1708
  659TMC3    O1 9815   3.430   1.481  14.876  0.0855  0.0161  0.2280
  659TMC3    O2 9816   3.672   1.660  15.237 -0.2524 -0.1693 -0.1600
  660MPD2     C 9817   2.061   0.738  12.474  0.2306  1.1457  0.3962
  660MPD2    C1 9818   1.930   0.689  12.492  0.8538 -0.3746 -0.2004
  660MPD2    C2 9819   1.853   0.752  12.594 -0.6157 -0.4070 -0.0426
  660MPD2    C3 9820   1.916   0.841  12.688  0.0417  0.6489 -0.0406
  660MPD2    C4 9821   2.042   0.877  12.671  0.0970 -0.4140  0.5982
  660MPD2    C5 9822   2.108   0.835  12.562  0.3857  0.2592  0.1447
  660MPD2     H 9823   1.746   0.740  12.610 -0.5261 -1.8784 -0.5483
  660MPD2    H1 9824   2.084   0.958  12.729  0.7315  1.1810 -2.0980
  660MPD2    H2 9825   2.127   0.700  12.397 -0.6463 -2.5439  1.4372
  660MPD2    H3 9826   2.214   0.855  12.552  0.2879  0.7144  0.0254
  660MPD2     N 9827   1.859   0.890  12.810 -0.2853 -0.2974 -0.2411
  660MPD2    H5 9828   1.924   0.933  12.876 -0.0997 -1.7866  0.5332
  660MPD2    N1 9829   1.877   0.589  12.404 -0.2884  0.4217 -0.2855
  660MPD2    H7 9830   1.949   0.563  12.338 -1.9237  0.0945 -1.9292
  661TMC3    C1 9831   1.734   0.432  12.310  0.4102  0.5444 -0.7617
  661TMC3    C2 9832   1.844   0.379  12.242  0.7605  0.3078 -0.4315
  661TMC3    C3 9833   1.812   0.271  12.155  0.7452  0.1384 -0.2766
  661TMC3    C4 9834   1.612   0.375  12.305 -0.2055  0.7296 -0.1147
  661TMC3    C5 9835   1.586   0.273  12.218 -0.2331  0.8973  0.0739
  661TMC3    C6 9836   1.682   0.226  12.136 -0.4368  0.2573  0.3097
  661TMC3     C 9837   1.747   0.540  12.403  0.4610  0.0946 -0.0508
  661TMC3     O 9838   1.658   0.563  12.485 -0.3990 -1.0889 -0.1662
  661TMC3     H 9839   1.950   0.386  12.268  0.6978  1.7394 -0.5378
  661TMC3    H1 9840   1.521   0.402  12.357  0.0341  0.2789  0.5435
  661TMC3    H2 9841   1.670   0.130  12.089  2.0903 -1.0124  2.2490
  661TMC3    C7 9842   1.457   0.213  12.218 -0.5492 -1.3759 -0.3665
  661TMC3    C8 9843   1.918   0.208  12.078 -0.0342 -0.4852 -0.8132
  661TMC3    O1 9844   1.398   0.192  12.323  0.1644 -0.7816  0.1598
  661TMC3    O2 9845   2.034   0.219  12.126  0.3067 -0.2215 -0.2789
  662MPD2     C 9846   1.936   0.511  17.186  0.1082  0.2564 -0.7488
  662MPD2    C1 9847   1.877   0.389  17.212  0.1133  0.2218  0.2151
  662MPD2    C2 9848   1.793   0.376  17.323 -0.1748  0.2091 -0.3611
  662MPD2    C3 9849   1.789   0.469  17.423 -0.3256  0.3979  0.5545
  662MPD2    C4 9850   1.843   0.587  17.391  0.0667 -0.0360 -0.0946
  662MPD2    C5 9851   1.912   0.613  17.272  0.2617  0.7189 -0.0928
  662MPD2     H 9852   1.753   0.275  17.323  0.0957  0.1008 -0.7620
  662MPD2    H1 9853   1.844   0.669  17.462 -3.3804  0.4008 -0.5779
  662MPD2    H2 9854   2.004   0.534  17.105  0.6263  0.6622 -0.1944
  662MPD2    H3 9855   1.958   0.709  17.251  2.7810  0.1160  2.6562
  662MPD2     N 9856   1.717   0.449  17.542 -0.6648  0.1784  0.2374
  662MPD2    H5 9857   1.700   0.527  17.605 -1.0614 -1.1339  1.7522
  662MPD2    N1 9858   1.878   0.286  17.113  0.0285  0.1528  0.1974
  662MPD2    H7 9859   1.805   0.217  17.130 -0.1465  0.8017  2.1444
  663TMC3    C1 9860   1.899   0.184  16.913  0.3826  0.8577 -0.7739
  663TMC3    C2 9861   1.766   0.167  16.936 -0.4525 -0.3164  0.4431
  663TMC3    C3 9862   1.705   0.056  16.890  0.3510  0.2305 -0.4313
  663TMC3    C4 9863   1.982   0.089  16.877 -0.3551 -0.6556 -0.6746
  663TMC3    C5 9864   1.926   4.701  16.865  0.8762 -0.7261  0.0819
  663TMC3    C6 9865   1.787   4.683  16.880 -0.3968  0.2239  0.1438
  663TMC3     C 9866   1.960   0.273  17.005  0.1522 -0.3586 -0.3443
  663TMC3     O 9867   2.071   0.325  16.985 -0.6918 -0.2074 -0.2077
  663TMC3     H 9868   1.704   0.256  16.929  1.9962  1.2714 -1.2579
  663TMC3    H1 9869   2.089   0.098  16.889 -0.4327 -0.3345 -0.2581
  663TMC3    H2 9870   1.738   4.594  16.844  1.5804 -0.9529  0.3521
  663TMC3    C7 9871   1.988   4.615  16.767  0.7451  0.0564 -0.4646
  663TMC3    C8 9872   1.583   0.025  16.968  0.3422 -1.1134  0.2389
  663TMC3    O1 9873   2.043   4.665  16.669  0.0336 -0.2376  0.7700
  663TMC3    O2 9874   1.481   0.067  16.921  0.0796  1.1161 -0.4287
  664MPD2     C 9875   0.015   2.938  17.433 -0.0325 -0.5870 -0.1546
  664MPD2    C1 9876   0.104   3.024  17.493  0.2844 -0.5091  0.1164
  664MPD2    C2 9877   0.096   3.046  17.632 -0.1553  0.4335  0.6369
  664MPD2    C3 9878   4.728   2.994  17.707 -0.1246  0.6537 -0.1692
  664MPD2    C4 9879   4.636   2.909  17.638 -0.3745 -0.8210  0.7104
  664MPD2    C5 9880   4.656   2.874  17.506 -0.1786  0.6000  0.3810
  664MPD2     H 9881   0.160   3.113  17.688 -0.9462  0.7233  1.1879
  664MPD2    H1 9882   4.549   2.864  17.684 -0.9535 -0.3651  0.0556
  664MPD2    H2 9883   0.006   2.929  17.325  0.0005  2.1154 -0.3647
  664MPD2    H3 9884   4.591   2.804  17.456  0.5371  2.0621 -2.5763
  664MPD2     N 9885   4.732   3.030   0.099  0.2270 -0.5738 -0.2591
  664MPD2    H5 9886   0.068   3.093   0.134  0.6659  0.8037 -3.6582
  664MPD2    N1 9887   0.198   3.093  17.412  0.0702  0.3527  0.5041
  664MPD2    H7 9888   0.254   3.164  17.458  1.1224 -0.2862  0.2361
  665TMC3    C1 9889   4.700   3.022   0.323 -0.1889  0.4785  0.0859
  665TMC3    C2 9890   4.621   3.103   0.401  0.0944 -0.3899 -0.0386
  665TMC3    C3 9891   4.678   3.141   0.523 -0.1660 -0.0699  0.4007
  665TMC3    C4 9892   0.095   2.998   0.338  0.3846 -0.2856  0.1503
  665TMC3    C5 9893   0.147   3.038   0.451  0.5845 -0.7368 -0.7425
  665TMC3    C6 9894   0.079   3.119   0.548 -0.2746  0.3458 -0.3966
  665TMC3     C 9895   4.642   2.987   0.198  0.0942  0.6618 -0.3058
  665TMC3     O 9896   4.536   2.925   0.197  0.2210 -0.5527 -0.7513
  665TMC3     H 9897   4.519   3.119   0.371 -0.1511 -1.7998  0.0494
  665TMC3    H1 9898   0.142   2.921   0.278  0.0214  0.4311 -1.0600
  665TMC3    H2 9899   0.110   3.146   0.648  1.4076  0.8142 -1.0370
  665TMC3    C7 9900   0.288   3.003   0.463 -0.2173  0.7620 -0.5059
  665TMC3    C8 9901   4.616   3.236   0.608 -0.0737  0.0905 -0.2057
  665TMC3    O1 9902   0.333   2.929   0.378 -0.1373  0.2232 -0.1342
  665TMC3    O2 9903   4.659   3.230   0.724  0.6045  0.0088 -0.4294
  666TMC3    C1 9904   3.661   2.697   9.654 -0.4791  0.9063  0.6974
  666TMC3    C2 9905   3.690   2.698   9.518  0.4784 -0.5827  0.3776
  666TMC3    C3 9906   3.674   2.815   9.453 -0.1974  0.1900  0.0442
  666TMC3    C4 9907   3.628   2.807   9.728  0.2095  0.2205  0.1386
  666TMC3    C5 9908   3.602   2.921   9.650 -0.0030 -0.6474  0.4860
  666TMC3    C6 9909   3.623   2.926   9.515  0.1802  0.4685  0.3226
  666TMC3     C 9910   3.711   2.589   9.731 -0.0821 -0.9696 -0.4447
  666TMC3     O 9911   3.779   2.603   9.832  0.2762 -0.1687  0.7414
  666TMC3     H 9912   3.742   2.615   9.471 -0.1009 -1.7696  1.8006
  666TMC3    H1 9913   3.618   2.805   9.836  3.3494 -0.8248  0.3906
  666TMC3    H2 9914   3.607   3.015   9.454  3.9748  0.0942 -1.2230
  666TMC3    C7 9915   3.600   3.049   9.729  0.1520 -0.4375  0.6581
  666TMC3    C8 9916   3.709   2.819   9.307 -0.3907  0.5771  0.9376
  666TMC3    O1 9917   3.585   3.041   9.849 -0.3894  0.9265 -0.5404
  666TMC3    O2 9918   3.664   2.722   9.248 -0.1041  0.1237  0.1266
  667MPD2     C 9919   1.614   3.344  14.324 -0.1624  0.7022  1.0348
  667MPD2    C1 9920   1.501   3.379  14.392  0.1178  0.2001 -0.2643
  667MPD2    C2 9921   1.401   3.284  14.408 -0.4980 -0.2921  0.6855
  667MPD2    C3 9922   1.409   3.159  14.356  0.1632  0.8238 -0.3399
  667MPD2    C4 9923   1.520   3.122  14.294  0.2177  0.1535 -0.0250
  667MPD2    C5 9924   1.628   3.207  14.281  0.0538 -0.1506 -0.7015
  667MPD2     H 9925   1.315   3.320  14.463 -1.6120 -1.5325 -0.2449
  667MPD2    H1 9926   1.536   3.018  14.265  0.1604 -0.1043  0.8682
  667MPD2    H2 9927   1.697   3.412  14.310  0.1862 -0.1644 -1.1189
  667MPD2    H3 9928   1.720   3.161  14.245 -0.7513 -1.5841 -0.9170
  667MPD2     N 9929   1.305   3.062  14.357  0.3543 -0.5685  0.4095
  667MPD2    H5 9930   1.311   2.977  14.302 -0.1587  0.1400 -0.7399
  667MPD2    N1 9931   1.483   3.501  14.464  0.1082  0.0354  0.0382
  667MPD2    H7 9932   1.407   3.503  14.531  0.8398 -1.9751  0.9494
  668TMC3    C1 9933   1.545   3.707  14.558 -0.2197  0.1096 -0.5060
  668TMC3    C2 9934   1.598   3.833  14.547 -0.8462  0.1463  0.2677
  668TMC3    C3 9935   1.559   3.926  14.642 -0.1424  0.2213  0.2237
  668TMC3    C4 9936   1.452   3.675  14.658  0.3172  0.2191  0.7173
  668TMC3    C5 9937   1.424   3.776  14.750 -0.1523  0.0614  0.0004
  668TMC3    C6 9938   1.468   3.902  14.734  0.5093 -0.5171 -0.3319
  668TMC3     C 9939   1.578   3.605  14.465 -0.5765  0.2480 -0.4531
  668TMC3     O 9940   1.676   3.625  14.394 -0.2368 -0.7839 -0.9620
  668TMC3     H 9941   1.666   3.848  14.465  2.1302 -2.2510  2.3129
  668TMC3    H1 9942   1.418   3.572  14.668 -0.4066  0.4929  1.0467
  668TMC3    H2 9943   1.436   3.980  14.803  1.0078  0.0095 -0.7029
  668TMC3    C7 9944   1.362   3.733  14.870 -0.3280  0.3234 -0.2731
  668TMC3    C8 9945   1.636   4.050  14.657 -0.1976 -0.0023  0.5422
  668TMC3    O1 9946   1.397   3.786  14.972 -0.0291 -0.0729  0.2780
  668TMC3    O2 9947   1.603   4.121  14.749  0.0927  0.0733 -0.3965
  669TMC3    C1 9948   4.408   3.146  14.474  0.3756 -0.6600  0.3776
  669TMC3    C2 9949   4.283   3.195  14.473 -0.0051 -0.4937  0.6426
  669TMC3    C3 9950   4.258   3.321  14.423  0.1431 -0.1879 -0.3859
  669TMC3    C4 9951   4.508   3.213  14.413 -0.4534  0.4849  0.3886
  669TMC3    C5 9952   4.476   3.339  14.355  0.7934 -0.2069 -0.0359
  669TMC3    C6 9953   4.353   3.399  14.367  0.4334  0.4362 -0.1876
  669TMC3     C 9954   4.432   3.007  14.513  0.0439  0.0243 -0.0390
  669TMC3     O 9955   4.543   2.966  14.477  0.1487  0.1734 -0.1215
  669TMC3     H 9956   4.197   3.132  14.489 -0.2785 -0.0196  1.0377
  669TMC3    H1 9957   4.610   3.176  14.406 -0.2720  1.1244 -0.3340
  669TMC3    H2 9958   4.350   3.497  14.321  0.4082  1.3792  1.8242
  669TMC3    C7 9959   4.580   3.413  14.296  0.0998  0.2916 -0.0666
  669TMC3    C8 9960   4.121   3.343  14.376 -0.4148  0.4063  0.2791
  669TMC3    O1 9961   4.568   3.534  14.300 -0.0015 -0.3949 -0.4643
  669TMC3    O2 9962   4.036   3.271  14.426 -0.1930 -0.0551  0.0589
  670MPD2     C 9963   2.229   0.910  13.766  0.2336 -0.9447 -0.2442
  670MPD2    C1 9964   2.365   0.888  13.798 -0.1870  0.2047  0.4926
  670MPD2    C2 9965   2.397   0.829  13.916  0.7053 -0.0871  0.0053
  670MPD2    C3 9966   2.294   0.795  14.001 -0.0630  0.1706  0.2676
  670MPD2    C4 9967   2.160   0.826  13.969 -0.3969  0.1988 -0.0362
  670MPD2    C5 9968   2.131   0.893  13.854  1.0378  0.6168  0.0075
  670MPD2     H 9969   2.500   0.800  13.936  1.6693  3.0054 -0.5388
  670MPD2    H1 9970   2.078   0.795  14.032 -0.8440 -1.2637 -1.3271
  670MPD2    H2 9971   2.208   0.965  13.675 -0.0625 -1.3833 -0.4433
  670MPD2    H3 9972   2.029   0.912  13.822  1.4503  1.7641 -0.6256
  670MPD2     N 9973   2.325   0.723  14.115 -0.1152  0.9937  0.4054
  670MPD2    H5 9974   2.421   0.693  14.130 -0.3362 -0.2627 -0.5924
  670MPD2    N1 9975   2.470   0.905  13.706  0.8548  0.1028 -0.6473
  670MPD2    H7 9976   2.562   0.895  13.747  1.1761  1.3860 -1.0446
  671TMC3    C1 9977   2.297   0.524  14.249 -0.8480 -0.4182 -0.0784
  671TMC3    C2 9978   2.435   0.513  14.242  0.6860 -0.3266 -0.3613
  671TMC3    C3 9979   2.489   0.393  14.209  0.4697 -0.0919  0.1379
  671TMC3    C4 9980   2.228   0.408  14.225 -0.0862  0.2290 -0.2355
  671TMC3    C5 9981   2.285   0.306  14.148  0.5747  0.5866  0.1444
  671TMC3    C6 9982   2.419   0.296  14.155  0.1962 -0.4149 -0.1404
  671TMC3     C 9983   2.240   0.635  14.174 -0.4704 -0.4917  0.0134
  671TMC3     O 9984   2.122   0.613  14.154 -0.0820 -0.0187  0.9422
  671TMC3     H 9985   2.495   0.585  14.296 -1.2383 -0.2561  1.7031
  671TMC3    H1 9986   2.120   0.408  14.224 -0.0849 -0.3002 -0.2217
  671TMC3    H2 9987   2.474   0.214  14.110  2.2214  1.3336 -0.8312
  671TMC3    C7 9988   2.229   0.280  14.014  0.0830 -0.6074 -0.2845
  671TMC3    C8 9989   2.631   0.390  14.230  0.0660 -1.0572 -0.1921
  671TMC3    O1 9990   2.313   0.240  13.932 -0.1199 -0.2012 -0.2425
  671TMC3    O2 9991   2.701   0.486  14.201 -0.1727  0.3362 -0.2916
  672MPD2     C 9992   2.223   1.605   0.990 -0.2525  0.1147  0.3947
  672MPD2    C1 9993   2.318   1.512   0.943  0.4623  0.6350 -0.4623
  672MPD2    C2 9994   2.451   1.555   0.937  1.3026 -0.0186  0.3386
  672MPD2    C3 9995   2.489   1.678   0.988  0.0463 -0.0079  0.3472
  672MPD2    C4 9996   2.385   1.759   1.043 -0.2570 -0.2630  0.4222
  672MPD2    C5 9997   2.259   1.719   1.054 -0.0777 -0.3011  0.2602
  672MPD2     H 9998   2.530   1.492   0.898  0.0769 -1.7423  0.6800
  672MPD2    H1 9999   2.402   1.860   1.076 -0.6191 -0.8902  2.5033
  672MPD2    H210000   2.120   1.575   1.000  0.1357 -1.1811  0.4776
  672MPD2    H310001   2.191   1.795   1.089  2.0826  1.7006  0.0801
  672MPD2     N10002   2.615   1.730   0.983 -0.1070 -0.1489 -0.0636
  672MPD2    H510003   2.634   1.812   1.041 -0.5412  0.0064 -0.1376
  672MPD2    N110004   2.286   1.381   0.899  0.2861 -0.1057  0.1956
  672MPD2    H710005   2.366   1.321   0.881  2.0100  1.5426  2.3713
  673TMC3    C110006   2.158   1.208   0.802 -0.0856  0.7767  0.7355
  673TMC3    C210007   2.267   1.134   0.821 -0.1492 -0.0209 -0.0680
  673TMC3    C310008   2.286   1.023   0.735  0.0746  0.6078  1.2630
  673TMC3    C410009   2.096   1.219   0.682 -0.3068 -0.5798 -0.1406
  673TMC3    C510010   2.136   1.130   0.583 -0.0023 -0.7883 -0.3044
  673TMC3    C610011   2.217   1.022   0.616 -0.1931  0.5283 -0.0318
  673TMC3     C10012   2.156   1.333   0.884  0.1976 -0.4058  0.3602
  673TMC3     O10013   2.058   1.398   0.880  0.4593  0.1439  0.1373
  673TMC3     H10014   2.315   1.142   0.917 -0.9534 -1.2738  0.4419
  673TMC3    H110015   2.019   1.291   0.657  0.3183  0.3292  0.5125
  673TMC3    H210016   2.249   0.945   0.547 -0.7217 -0.0684  0.3929
  673TMC3    C710017   2.085   1.149   0.446  0.2323 -0.0137 -0.2655
  673TMC3    C810018   2.335   0.900   0.788 -0.2382  0.1567 -0.7917
  673TMC3    O110019   2.051   1.056   0.373 -0.1964  0.0093 -0.1329
  673TMC3    O210020   2.283   0.794   0.754  0.0941 -0.3691 -0.1012
  674MPD2     C10021   1.733   1.534  17.422  0.3313 -0.1659  0.0266
  674MPD2    C110022   1.727   1.404  17.474  0.3362  0.2213 -1.0129
  674MPD2    C210023   1.623   1.357  17.552  0.0830  0.1454 -1.0793
  674MPD2    C310024   1.522   1.451  17.583  0.0110 -0.3780  0.6028
  674MPD2    C410025   1.529   1.581  17.537 -0.0619  0.5209  0.6196
  674MPD2    C510026   1.638   1.619  17.463  0.5512 -0.3525  0.0671
  674MPD2     H10027   1.627   1.257  17.594 -0.2282  0.7553  0.4208
  674MPD2    H110028   1.459   1.662  17.555 -1.1150 -0.4900  1.0367
  674MPD2    H210029   1.812   1.580  17.364  0.3856  1.8100  1.6720
  674MPD2    H310030   1.638   1.724  17.436 -1.9756 -0.8018 -1.6299
  674MPD2     N10031   1.411   1.404  17.661 -0.6283  0.1921  0.6137
  674MPD2    H510032   1.431   1.316  17.708 -0.9426  1.0561  2.3629
  674MPD2    N110033   1.845   1.327  17.440  0.2829 -0.4021  0.2848
  674MPD2    H710034   1.909   1.379  17.380 -0.2663 -0.1801 -0.1045
  675TMC3    C110035   2.001   1.151  17.419 -0.2596  0.1012 -0.1186
  675TMC3    C210036   2.019   1.016  17.410  0.1099  0.4585  0.1192
  675TMC3    C310037   2.148   0.973  17.369  0.5112 -0.4113  0.2436
  675TMC3    C410038   2.103   1.237  17.413 -0.4217  0.1013 -0.3973
  675TMC3    C510039   2.222   1.191  17.359  0.6302  0.2116 -0.1608
  675TMC3    C610040   2.247   1.061  17.331 -0.5352 -0.9413  0.1610
  675TMC3     C10041   1.876   1.200  17.478 -0.0743  0.1577  0.3595
  675TMC3     O10042   1.822   1.122  17.555  0.0926 -0.9922 -0.1017
  675TMC3     H10043   1.936   0.952  17.435  0.1170  0.1384 -0.6913
  675TMC3    H110044   2.092   1.340  17.445  1.7781  0.3896 -0.6121
  675TMC3    H210045   2.348   1.025  17.309 -0.5647  0.3551 -2.0800
  675TMC3    C710046   2.334   1.280  17.334 -0.0369 -0.5399  0.3607
  675TMC3    C810047   2.194   0.840  17.417  0.0852 -0.1827  0.5405
  675TMC3    O110048   2.414   1.237  17.252 -0.3765 -0.4032 -0.4685
  675TMC3    O210049   2.300   0.806  17.365 -0.5522 -0.1747 -0.4035
  676MPD2     C10050   4.606   3.881  10.917 -0.5917 -0.2755 -0.0436
  676MPD2    C110051   4.476   3.836  10.932 -0.2750 -0.0562  0.3376
  676MPD2    C210052   4.456   3.696  10.918 -0.0618  0.5771 -0.1804
  676MPD2    C310053   4.563   3.610  10.887  0.0974 -0.6412 -0.7167
  676MPD2    C410054   4.690   3.665  10.876  0.2379  0.4997  0.1631
  676MPD2    C510055   4.705   3.798  10.882 -0.0270 -0.4114  0.3522
  676MPD2     H10056   4.357   3.652  10.927 -0.8299  2.2969 -0.2745
  676MPD2    H110057   0.048   3.614  10.865 -0.0237 -0.1627  0.9460
  676MPD2    H210058   4.634   3.986  10.921  0.5614 -0.6263  0.9458
  676MPD2    H310059   0.066   3.845  10.880  0.7881 -2.1456 -0.7297
  676MPD2     N10060   4.554   3.476  10.854  0.4481  0.0591 -0.4219
  676MPD2    H510061   4.643   3.428  10.846  0.4715  0.1760 -0.8969
  676MPD2    N110062   4.368   3.914  10.980  0.5678  0.0020  0.2213
  676MPD2    H710063   4.286   3.864  11.015 -2.7264  3.8314 -2.0407
  677TMC3    C110064   4.259   4.099  11.090  0.4203 -0.2703 -0.4421
  677TMC3    C210065   4.157   4.007  11.122  0.2251 -0.0830  0.0376
  677TMC3    C310066   4.082   4.058  11.223 -0.0208 -0.3503 -0.2154
  677TMC3    C410067   4.257   4.228  11.131  0.0629 -0.4031 -0.4748
  677TMC3    C510068   4.156   4.272  11.210  0.6608  0.3286  0.3716
  677TMC3    C610069   4.064   4.185  11.268 -0.3878 -0.0068  0.2465
  677TMC3     C10070   4.369   4.049  11.010 -0.1430 -0.2973  0.3616
  677TMC3     O10071   4.457   4.136  10.983  0.4268 -0.3278  0.6275
  677TMC3     H10072   4.156   3.902  11.094 -0.3437 -0.1517  0.3142
  677TMC3    H110073   4.332   4.295  11.092 -1.1550  0.7581 -0.8003
  677TMC3    H210074   3.977   4.211  11.327  0.5453  2.1073  0.6955
  677TMC3    C710075   4.168   4.391  11.280 -0.0800 -0.0069 -0.5048
  677TMC3    C810076   3.984   3.971  11.287 -0.0029  0.3007 -0.0823
  677TMC3    O110077   4.110   4.405  11.379 -0.6449  0.2318  0.1025
  677TMC3    O210078   3.871   4.013  11.292 -0.0932 -0.7186  0.1191
  678MPD2     C10079   2.119   3.452   1.005  0.1813 -0.1738  0.4587
  678MPD2    C110080   2.083   3.548   0.910  0.1675 -0.1229 -0.1170
  678MPD2    C210081   1.961   3.525   0.841  0.4455 -0.0289  0.1822
  678MPD2    C310082   1.874   3.419   0.867 -0.7777  0.5263 -0.9298
  678MPD2    C410083   1.910   3.336   0.971  0.0177 -0.1257 -0.7412
  678MPD2    C510084   2.032   3.350   1.032  0.1229 -0.2124 -0.1203
  678MPD2     H10085   1.917   3.597   0.772 -1.9505  0.1990  1.9350
  678MPD2    H110086   1.852   3.260   1.022 -0.4492 -1.2645 -2.9667
  678MPD2    H210087   2.211   3.462   1.061  0.1706  0.9361  0.2972
  678MPD2    H310088   2.061   3.280   1.109  1.2085 -0.9531 -1.1906
  678MPD2     N10089   1.735   3.421   0.825 -0.2784 -0.9085 -0.1239
  678MPD2    H510090   1.702   3.493   0.762 -0.5220 -1.1775 -0.3071
  678MPD2    N110091   2.165   3.653   0.868 -0.4278  0.4691  0.0262
  678MPD2    H710092   2.136   3.714   0.792 -0.7674  2.1438  1.4919
  679TMC3    C110093   2.547   3.902   0.832 -0.8212 -0.4635 -0.2766
  679TMC3    C210094   2.477   3.810   0.904 -0.0728  1.0086 -0.1798
  679TMC3    C310095   2.343   3.808   0.883 -0.1288 -0.2553 -0.0482
  679TMC3    C410096   2.492   3.999   0.761  0.1653 -0.2709  0.3405
  679TMC3    C510097   2.356   3.994   0.738  0.1117 -0.0788  0.1270
  679TMC3    C610098   2.271   3.899   0.804 -0.2449  0.3246 -0.4965
  679TMC3     C10099   2.640   3.831   0.749  0.0870 -0.0270 -0.2143
  679TMC3     O10100   2.649   3.878   0.641 -0.0157 -0.5978  0.3115
  679TMC3     H10101   2.526   3.745   0.976 -1.5374 -0.3074 -0.3749
  679TMC3    H110102   2.553   4.062   0.697  0.5324 -1.4513 -0.4811
  679TMC3    H210103   2.165   3.910   0.786  0.2233  1.2924 -2.7438
  679TMC3    C710104   2.296   4.082   0.645  0.1594 -0.0014  0.3141
  679TMC3    C810105   2.274   3.694   0.941 -0.2096  0.3835  0.3229
  679TMC3    O110106   2.190   4.051   0.592  0.8212 -0.6170 -0.1272
  679TMC3    O210107   2.324   3.656   1.045  0.8701  0.0431  0.6685
  680MPD2     C10108   2.073   2.798  13.710 -0.3073  0.4518  0.1643
  680MPD2    C110109   2.138   2.770  13.824  0.5139  0.1032  0.0313
  680MPD2    C210110   2.208   2.868  13.892  0.0107  0.1105  0.2359
  680MPD2    C310111   2.200   2.998  13.849 -0.6867  0.2470  0.4332
  680MPD2    C410112   2.112   3.030  13.749  0.0133 -0.1725 -0.2543
  680MPD2    C510113   2.059   2.929  13.678 -0.1580  0.6659 -0.1931
  680MPD2     H10114   2.258   2.839  13.984  0.5969  2.2836  0.6107
  680MPD2    H110115   2.104   3.133  13.716 -1.4449 -0.6964 -1.5623
  680MPD2    H210116   2.027   2.719  13.651  0.4825 -0.0174  0.1772
  680MPD2    H310117   2.004   2.964  13.591 -0.7514 -0.4376 -0.2581
  680MPD2     N10118   2.267   3.106  13.905  0.0127 -0.1674 -0.8982
  680MPD2    H510119   2.239   3.195  13.867  0.3344  0.3645  0.0981
  680MPD2    N110120   2.154   2.639  13.862  0.6434  0.2045  0.0400
  680MPD2    H710121   2.227   2.620  13.930  1.2153  1.9350 -0.0857
  681TMC3    C110122   2.062   2.437  13.942 -0.4611 -0.6008  0.6451
  681TMC3    C210123   1.978   2.444  14.050 -0.5139  0.3676 -0.1582
  681TMC3    C310124   2.034   2.431  14.176 -0.2295  0.1091  0.6713
  681TMC3    C410125   2.194   2.401  13.955  0.1021 -0.5990 -0.1961
  681TMC3    C510126   2.242   2.368  14.080 -0.0959  0.2699  0.3685
  681TMC3    C610127   2.164   2.387  14.193 -0.3289 -0.1408 -0.6101
  681TMC3     C10128   2.046   2.554  13.859 -0.2703 -0.6269 -0.2290
  681TMC3     O10129   1.931   2.587  13.825 -0.1276 -0.7010  0.0441
  681TMC3     H10130   1.892   2.509  14.041 -0.7869  0.1074  0.5961
  681TMC3    H110131   2.261   2.408  13.870 -1.1819  2.1393 -0.9686
  681TMC3    H210132   2.193   2.370  14.296  0.6831 -0.5236 -0.9551
  681TMC3    C710133   2.380   2.326  14.098  0.0735  0.6296  0.4268
  681TMC3    C810134   1.969   2.511  14.278  0.7101 -0.3670  1.2343
  681TMC3    O110135   2.438   2.345  14.203  0.0465 -0.2958  0.4988
  681TMC3    O210136   1.851   2.549  14.268 -0.2399 -0.3520  0.4731
  682MPD2     C10137   3.488   4.138  10.601  0.3981 -1.0602 -0.7396
  682MPD2    C110138   3.466   4.008  10.659  0.3788  0.0292 -0.2322
  682MPD2    C210139   3.434   3.993  10.796 -0.4389 -0.1553 -0.3501
  682MPD2    C310140   3.446   4.103  10.880 -0.1289  0.3843  1.0836
  682MPD2    C410141   3.469   4.227  10.822  0.6269 -1.0417 -0.8705
  682MPD2    C510142   3.498   4.247  10.689  0.0567 -0.7149  0.0472
  682MPD2     H10143   3.414   3.891  10.827 -1.3345  0.1335  0.0466
  682MPD2    H110144   3.492   4.313  10.883  1.5365 -0.8473 -1.4802
  682MPD2    H210145   3.501   4.154  10.495 -0.2439  0.7266 -0.5462
  682MPD2    H310146   3.518   4.350  10.663 -2.6111 -0.4744 -1.1216
  682MPD2     N10147   3.411   4.105  11.018  0.5458 -0.2808  0.1277
  682MPD2    H510148   3.398   4.196  11.062  1.3959 -0.4661  0.7588
  682MPD2    N110149   3.460   3.884  10.584  0.6073 -0.6242  0.1597
  682MPD2    H710150   3.434   3.798  10.631  1.9856 -0.7446  0.6799
  683TMC3    C110151   3.349   4.081  11.436 -0.1719 -0.7584  0.0398
  683TMC3    C210152   3.267   3.983  11.484  0.7263  0.3394 -0.4119
  683TMC3    C310153   3.246   3.879  11.393  0.3135  0.1722 -0.0889
  683TMC3    C410154   3.386   4.097  11.305 -0.5706 -0.3264  0.0456
  683TMC3    C510155   3.349   3.998  11.219 -0.0360  0.1400 -0.6041
  683TMC3    C610156   3.288   3.885  11.266  0.5142  0.2952  0.1934
  683TMC3     C10157   3.404   4.178  11.529 -0.1729 -0.1191 -0.4143
  683TMC3     O10158   3.487   4.256  11.476 -0.2018  0.3751  0.0251
  683TMC3     H10159   3.252   3.973  11.591  1.4596 -0.6197 -0.3909
  683TMC3    H110160   3.461   4.166  11.267 -1.4855  0.5329 -0.2123
  683TMC3    H210161   3.261   3.813  11.189  4.0636 -0.2662 -0.5462
  683TMC3    C710162   3.414   3.986  11.090 -0.5660 -0.3493  0.0418
  683TMC3    C810163   3.175   3.767  11.444 -0.0044 -0.3679 -0.6200
  683TMC3    O110164   3.457   3.881  11.054 -0.4890  0.4298 -0.2790
  683TMC3    O210165   3.114   3.792  11.548 -0.3196 -0.1402  0.2712
  684MPD2     C10166   2.209   3.799  16.314 -0.3569 -0.3357 -0.1339
  684MPD2    C110167   2.246   3.793  16.185 -0.1344 -0.6359 -0.2380
  684MPD2    C210168   2.290   3.902  16.125 -0.0941  0.1376 -0.2352
  684MPD2    C310169   2.315   4.017  16.190 -0.2311  0.2561 -0.0504
  684MPD2    C410170   2.292   4.021  16.329 -0.3701 -0.2321  0.1372
  684MPD2    C510171   2.240   3.905  16.387  0.2493 -0.3573 -1.3958
  684MPD2     H10172   2.315   3.899  16.019 -1.7701  0.7593 -0.6492
  684MPD2    H110173   2.314   4.116  16.376 -1.1456 -0.8401  1.7103
  684MPD2    H210174   2.151   3.719  16.359  1.1727 -0.5056  1.5694
  684MPD2    H310175   2.197   3.907  16.486  2.4476  1.2701 -0.4695
  684MPD2     N10176   2.378   4.135  16.142 -0.3177  0.0160 -0.0326
  684MPD2    H510177   2.415   4.206  16.206 -1.7057  2.9987 -2.5889
  684MPD2    N110178   2.229   3.681  16.114 -0.0096  0.2658  0.5227
  684MPD2    H710179   2.243   3.685  16.013 -1.4275  1.4690  0.3745
  685TMC3    C110180   2.245   3.455  16.045  0.0482 -0.2761  0.1885
  685TMC3    C210181   2.178   3.469  15.924 -0.0861 -0.4689 -0.4802
  685TMC3    C310182   2.155   3.354  15.852  0.0065  0.5945 -0.1345
  685TMC3    C410183   2.297   3.334  16.089 -0.2350  0.0929  1.1268
  685TMC3    C510184   2.283   3.227  16.006 -0.3651  0.5880  0.6620
  685TMC3    C610185   2.209   3.233  15.890 -0.0361  0.3279  0.3388
  685TMC3     C10186   2.230   3.551  16.158  0.3612 -0.6143 -0.0606
  685TMC3     O10187   2.220   3.511  16.276 -0.0284 -0.1163 -0.6089
  685TMC3     H10188   2.172   3.566  15.878 -2.9519 -1.0446 -1.3431
  685TMC3    H110189   2.347   3.333  16.185  0.3926  2.2266  0.8236
  685TMC3    H210190   2.182   3.141  15.840 -1.9766  0.1132  1.7765
  685TMC3    C710191   2.353   3.106  16.044  0.5607  0.1656  0.7013
  685TMC3    C810192   2.026   3.344  15.774 -0.5761  0.4918 -0.6879
  685TMC3    O110193   2.283   3.009  16.040 -0.6108 -0.0528 -0.4600
  685TMC3    O210194   2.006   3.238  15.719  0.1028 -0.2418  0.3149
  686MPD2     C10195   3.151   3.297  15.081  0.7322 -0.3725  0.1811
  686MPD2    C110196   3.214   3.255  15.196 -0.4176  0.2558  0.5796
  686MPD2    C210197   3.348   3.265  15.216 -0.0325  0.1123  0.0433
  686MPD2    C310198   3.423   3.319  15.111 -0.6337  0.3163  0.0160
  686MPD2    C410199   3.358   3.358  14.990 -0.2432 -0.5305  0.2546
  686MPD2    C510200   3.224   3.349  14.984  0.3847  0.4131  0.0311
  686MPD2     H10201   3.398   3.219  15.301  2.3913  2.8003  0.0627
  686MPD2    H110202   3.408   3.395  14.902 -0.7817 -0.0478  0.1471
  686MPD2    H210203   3.044   3.288  15.071  0.8406 -1.1094 -0.3120
  686MPD2    H310204   3.167   3.367  14.894 -1.7809 -0.0463  1.3086
  686MPD2     N10205   3.564   3.309  15.110 -0.1981  0.0773  0.5526
  686MPD2    H510206   3.609   3.301  15.020  0.6261  0.4717  0.9263
  686MPD2    N110207   3.127   3.189  15.292  0.6039 -0.0920  0.3323
  686MPD2    H710208   3.030   3.168  15.271  0.7876 -0.9600  0.3535
  687TMC3    C110209   3.764   3.246  15.215 -0.3263  0.7851 -0.4959
  687TMC3    C210210   3.740   3.120  15.172 -0.0342 -0.2146 -0.5544
  687TMC3    C310211   3.769   3.019  15.263  0.3351  0.0626 -0.3397
  687TMC3    C410212   3.835   3.271  15.330 -0.1867  0.3274 -0.3892
  687TMC3    C510213   3.865   3.165  15.413 -0.4574  0.4945  0.4206
  687TMC3    C610214   3.842   3.036  15.376  0.3126 -0.0126 -0.1411
  687TMC3     C10215   3.641   3.312  15.229  0.3953  0.2475  0.0073
  687TMC3     O10216   3.596   3.349  15.338 -0.0597 -0.3601 -0.1255
  687TMC3     H10217   3.697   3.109  15.073 -1.0568 -1.5244  0.0292
  687TMC3    H110218   3.821   3.373  15.363 -1.0601 -0.5935  2.0691
  687TMC3    H210219   3.878   2.951  15.433  1.0951 -0.2213 -0.9583
  687TMC3    C710220   3.964   3.189  15.511  0.2110  0.2662 -0.2787
  687TMC3    C810221   3.652   2.932  15.285  0.4758  0.1538  1.2013
  687TMC3    O110222   3.985   3.112  15.604  0.4469  0.1924 -0.2859
  687TMC3    O210223   3.656   2.866  15.385 -0.1340  0.1109 -0.7658
  688MPD2     C10224   2.849   2.392  17.216  0.0897 -0.2746 -0.1501
  688MPD2    C110225   2.854   2.274  17.282  0.0420  0.0830  0.3872
  688MPD2    C210226   2.949   2.175  17.252 -0.3069 -0.1133 -0.4663
  688MPD2    C310227   3.043   2.190  17.153 -0.1597  0.2539  0.9284
  688MPD2    C410228   3.033   2.309  17.083 -0.0650  0.1284  0.5434
  688MPD2    C510229   2.945   2.405  17.114 -0.1255  0.2111  0.5860
  688MPD2     H10230   2.954   2.087  17.315  0.7650  0.1022 -0.2509
  688MPD2    H110231   3.104   2.323  17.003  0.4977 -1.0236  0.8418
  688MPD2    H210232   2.775   2.468  17.236  1.0307  0.7979 -0.7853
  688MPD2    H310233   2.946   2.494  17.051  0.6262 -0.8420 -0.8789
  688MPD2     N10234   3.149   2.097  17.120  0.0194 -0.4568  0.1525
  688MPD2    H510235   3.222   2.134  17.061 -0.6280  1.5062  0.5954
  688MPD2    N110236   2.775   2.245  17.399 -0.2726 -0.2279 -0.0215
  688MPD2    H710237   2.787   2.157  17.449 -0.7565  1.2587  2.7299
  689TMC3    C110238   2.629   2.278  17.586  0.1069 -0.5673 -0.3180
  689TMC3    C210239   2.619   2.363  17.696 -0.5711 -0.2631  0.2108
  689TMC3    C310240   2.551   2.302   0.059 -0.1983  0.3173 -0.0766
  689TMC3    C410241   2.554   2.169  17.561 -0.3636 -0.2062 -0.8271
  689TMC3    C510242   2.481   2.119  17.670  0.5190 -0.0595  0.2955
  689TMC3    C610243   2.487   2.180   0.044 -0.4943  0.1076 -0.5702
  689TMC3     C10244   2.694   2.336  17.470 -0.1267 -0.1525  0.7594
  689TMC3     O10245   2.685   2.456  17.448 -0.2552  0.4777  0.6041
  689TMC3     H10246   2.678   2.454  17.708  1.0207 -1.1136 -1.0849
  689TMC3    H110247   2.563   2.124  17.463 -0.1318  0.1388 -0.9626
  689TMC3    H210248   2.431   2.140   0.128 -0.9994  0.6166 -0.6645
  689TMC3    C710249   2.432   1.977  17.667  0.3674  0.3152  0.1481
  689TMC3    C810250   2.529   2.373   0.181 -0.2849  0.2780 -0.0358
  689TMC3    O110251   2.411   1.920   0.028  0.0261 -0.7968 -0.8642
  689TMC3    O210252   2.493   2.319   0.285  0.3978  0.8485 -0.0235
  690MPD2     C10253   0.345   4.181  16.045 -0.0576 -0.2413 -0.4166
  690MPD2    C110254   0.308   4.157  15.911 -0.2700  0.7964 -0.5195
  690MPD2    C210255   0.370   4.219  15.813 -0.4420 -1.0256  0.2227
  690MPD2    C310256   0.460   4.322  15.848 -0.7515 -0.1105  0.0713
  690MPD2    C410257   0.488   4.362  15.976  0.0837  0.5952  0.0700
  690MPD2    C510258   0.428   4.286  16.076 -0.0357 -0.7813  0.5925
  690MPD2     H10259   0.335   4.204  15.712 -2.8133 -0.5581  0.9781
  690MPD2    H110260   0.555   4.445  15.992  1.3706 -0.8217  2.1195
  690MPD2    H210261   0.309   4.125  16.131 -1.0457  2.6381  1.0649
  690MPD2    H310262   0.457   4.305  16.178 -1.8039  1.7131  0.6129
  690MPD2     N10263   0.522   4.384  15.733 -0.1073 -0.1853 -0.2784
  690MPD2    H510264   0.488   4.354  15.643 -1.5117 -0.4067  0.3258
  690MPD2    N110265   0.217   4.057  15.871 -0.5072 -0.2561 -0.2936
  690MPD2    H710266   0.191   4.036  15.775 -1.6041 -1.0048  0.1608
  691TMC3    C110267   0.064   3.882  15.905  0.5559 -0.3310 -0.4031
  691TMC3    C210268   0.016   3.897  15.776 -0.9964 -0.4440 -0.0166
  691TMC3    C310269   4.693   3.787  15.718  0.2783 -0.2303  0.4610
  691TMC3    C410270   0.060   3.766  15.970 -0.0130 -0.0840  1.7152
  691TMC3    C510271   4.724   3.657  15.911 -0.7190  0.9820 -0.1268
  691TMC3    C610272   4.672   3.672  15.790  0.3061  0.3403 -0.0513
  691TMC3     C10273   0.140   3.988  15.961  0.3067  0.4679 -0.0683
  691TMC3     O10274   0.120   4.012  16.078  0.1476  0.2483  0.8716
  691TMC3     H10275   0.009   3.997  15.735  1.0430 -1.1427 -2.0746
  691TMC3    H110276   0.101   3.765  16.070  2.1502 -1.7945  0.8341
  691TMC3    H210277   4.625   3.595  15.730  2.5186 -0.4795 -0.7167
  691TMC3    C710278   4.722   3.528  15.993 -0.2035  0.0400 -0.0705
  691TMC3    C810279   4.619   3.800  15.593  0.3893 -0.2526  0.0146
  691TMC3    O110280   0.039   3.530  16.102  0.8064  0.3992 -0.2239
  691TMC3    O210281   4.645   3.723  15.505 -0.0966 -0.5575  0.4880
  692TMC3    C110282   1.808   0.388  15.700  0.1946  0.6402 -0.2512
  692TMC3    C210283   1.913   0.455  15.648  0.1934 -0.6369 -0.3216
  692TMC3    C310284   1.987   0.405  15.544  0.5778  0.5413 -0.8130
  692TMC3    C410285   1.781   0.262  15.654 -0.3976  0.3463 -0.2287
  692TMC3    C510286   1.865   0.208  15.559 -0.0236  0.3463  1.0530
  692TMC3    C610287   1.955   0.279  15.500 -0.1083  0.4960  0.2698
  692TMC3     C10288   1.738   0.437  15.818  0.1830 -0.2391  0.0948
  692TMC3     O10289   1.630   0.388  15.844  0.5002  0.1895  0.6009
  692TMC3     H10290   1.924   0.558  15.678 -1.8643 -1.4659  3.2586
  692TMC3    H110291   1.720   0.198  15.716  1.2846  1.5758  2.6922
  692TMC3    H210292   2.010   0.227  15.423  0.8440 -0.3385  1.5095
  692TMC3    C710293   1.892   0.065  15.581  0.6645 -0.1353  0.0511
  692TMC3    C810294   2.127   0.404  15.570  1.0205  0.9087  0.5442
  692TMC3    O110295   1.804   4.729  15.614 -0.1031  0.0183 -0.0677
  692TMC3    O210296   2.184   0.298  15.540  0.9214 -0.1746 -0.0949
  693MPD2     C10297   1.201   2.380  10.918 -0.6525 -0.2737 -0.0990
  693MPD2    C110298   1.136   2.271  10.872 -0.1864  0.7319  0.3228
  693MPD2    C210299   1.193   2.147  10.858  0.8721 -0.0933 -0.2149
  693MPD2    C310300   1.325   2.127  10.892  0.1819  0.1042 -0.1630
  693MPD2    C410301   1.398   2.242  10.919 -0.0713  0.1685  0.3999
  693MPD2    C510302   1.335   2.363  10.941 -0.7387  0.1728 -0.1135
  693MPD2     H10303   1.128   2.063  10.837 -0.5045  0.4467  1.8238
  693MPD2    H110304   1.503   2.242  10.948  0.6894  0.5406 -2.4187
  693MPD2    H210305   1.167   2.482  10.929  1.5086  0.5389 -0.7679
  693MPD2    H310306   1.390   2.452  10.970  1.6734 -1.2039 -0.5193
  693MPD2     N10307   1.386   1.996  10.888 -0.0875  0.4893  0.1890
  693MPD2    H510308   1.481   1.985  10.922 -0.5319 -1.9306  0.6358
  693MPD2    N110309   0.998   2.296  10.843  0.6585  0.7327 -0.2133
  693MPD2    H710310   0.950   2.383  10.866  0.0274  0.1094  0.8542
  694TMC3    C110311   0.794   2.245  10.778 -0.4892  0.0100  0.4332
  694TMC3    C210312   0.692   2.248  10.683 -0.3550  0.1130  0.1819
  694TMC3    C310313   0.564   2.250  10.735  0.0189 -1.0372 -0.3476
  694TMC3    C410314   0.765   2.229  10.912  0.0136 -0.1674 -0.6729
  694TMC3    C510315   0.637   2.241  10.957 -0.3810  0.0767  0.2043
  694TMC3    C610316   0.532   2.247  10.868  0.5811  0.5017 -0.3967
  694TMC3     C10317   0.931   2.225  10.750  0.3457 -0.3957  0.2279
  694TMC3     O10318   0.961   2.158  10.651  0.0116  0.2648  0.4018
  694TMC3     H10319   0.717   2.250  10.578  1.1654  0.7772  0.5621
  694TMC3    H110320   0.833   2.198  10.991  1.3932  0.8624 -1.4521
  694TMC3    H210321   0.430   2.257  10.902  0.9909  0.7523  0.7559
  694TMC3    C710322   0.619   2.175  11.085 -0.2190 -0.1429  0.9580
  694TMC3    C810323   0.450   2.242  10.648 -0.6151  0.3927 -0.0093
  694TMC3    O110324   0.694   2.201  11.180 -0.0435  0.6163  0.0846
  694TMC3    O210325   0.344   2.284  10.687 -0.3987 -0.4782 -0.3459
  695MPD2     C10326   3.022   0.298  13.197 -0.1175 -0.0093 -0.5487
  695MPD2    C110327   2.972   0.320  13.323 -0.1833  0.1333  0.6150
  695MPD2    C210328   2.847   0.369  13.330 -0.3292  0.0831  0.0123
  695MPD2    C310329   2.765   0.388  13.219 -0.0210 -0.1423  0.1295
  695MPD2    C410330   2.824   0.383  13.090  0.3598  0.7567 -0.5037
  695MPD2    C510331   2.949   0.339  13.088 -0.6508  0.8681  0.8161
  695MPD2     H10332   2.810   0.388  13.430  1.3720 -1.4645  0.9408
  695MPD2    H110333   2.778   0.407  12.995 -1.5459 -2.5396 -0.4311
  695MPD2    H210334   3.121   0.256  13.191  0.2926  0.8639  0.1897
  695MPD2    H310335   2.992   0.333  12.988 -0.6652 -1.0583  0.9305
  695MPD2     N10336   2.624   0.424  13.240 -0.2770  0.1040 -0.2012
  695MPD2    H510337   2.588   0.433  13.334 -1.1345 -0.3486 -0.4850
  695MPD2    N110338   3.043   0.293  13.447  0.3254 -0.4575 -0.7634
  695MPD2    H710339   2.988   0.318  13.528  1.7081 -1.3279  0.4450
  696TMC3    C110340   2.398   0.448  13.182 -0.0100 -0.1679 -0.4773
  696TMC3    C210341   2.361   0.398  13.306  0.2106 -0.5852  0.0542
  696TMC3    C310342   2.235   0.430  13.348 -0.1689  0.3558 -0.6353
  696TMC3    C410343   2.320   0.532  13.110  0.0013  1.0391  0.2810
  696TMC3    C510344   2.208   0.575  13.169  0.1271  0.1223 -0.4132
  696TMC3    C610345   2.158   0.524  13.290  0.2829  0.3214 -0.5608
  696TMC3     C10346   2.538   0.451  13.141 -0.6043  0.1265 -0.5560
  696TMC3     O10347   2.550   0.452  13.019  0.5519  0.3638  0.1791
  696TMC3     H10348   2.408   0.308  13.347  3.1866  0.3912 -1.1874
  696TMC3    H110349   2.348   0.580  13.016  0.6159  1.2568  0.5803
  696TMC3    H210350   2.062   0.551  13.333  0.1276 -1.9765  0.5134
  696TMC3    C710351   2.152   0.698  13.113 -0.1208  0.3129  0.0754
  696TMC3    C810352   2.208   0.394  13.488 -0.3444  0.2386 -0.0078
  696TMC3    O110353   2.167   0.711  12.995 -0.3209  0.0232  0.0779
  696TMC3    O210354   2.306   0.389  13.561  0.2989  0.1367 -0.2380
  697MPD2     C10355   1.432   1.886  15.508 -0.2520  0.1283 -0.3572
  697MPD2    C110356   1.510   1.832  15.409  0.5101 -0.5888 -0.1107
  697MPD2    C210357   1.557   1.926  15.314 -0.8880  0.0471 -0.0445
  697MPD2    C310358   1.528   2.062  15.318 -0.2220  0.2801 -0.3894
  697MPD2    C410359   1.439   2.105  15.422 -0.1067 -0.2406  0.7018
  697MPD2    C510360   1.396   2.015  15.514 -0.4239  0.7395  0.0955
  697MPD2     H10361   1.625   1.894  15.237 -0.4398 -2.0217  1.2023
  697MPD2    H110362   1.405   2.207  15.438 -0.0013  0.2478 -2.0789
  697MPD2    H210363   1.375   1.823  15.576 -0.8127  2.6594  1.5338
  697MPD2    H310364   1.322   2.056  15.582 -0.0549  1.7433 -0.1228
  697MPD2     N10365   1.594   2.145  15.223  0.4915 -0.1959 -0.1237
  697MPD2    H510366   1.667   2.104  15.164 -0.2224 -0.5287 -0.7790
  697MPD2    N110367   1.546   1.697  15.397 -0.2824  0.0887 -0.1696
  697MPD2    H710368   1.597   1.658  15.319  1.2420  1.3374  0.2090
  698TMC3    C110369   1.682   2.345  15.136 -0.2790  0.0038 -0.0011
  698TMC3    C210370   1.668   2.484  15.129  0.2277  0.2057 -0.6366
  698TMC3    C310371   1.704   2.546  15.016  1.0923  0.4517 -0.5260
  698TMC3    C410372   1.727   2.274  15.025 -0.1850  0.8570 -0.7207
  698TMC3    C510373   1.750   2.339  14.915  1.5114 -0.0109  0.0559
  698TMC3    C610374   1.741   2.473  14.906  0.2648 -0.3419 -0.3881
  698TMC3     C10375   1.577   2.282  15.221  1.4551  0.0593 -0.5124
  698TMC3     O10376   1.485   2.352  15.264  0.0813 -0.1529 -0.3463
  698TMC3     H10377   1.620   2.535  15.212 -0.3748 -0.6198 -0.4781
  698TMC3    H110378   1.727   2.166  15.017 -0.9560  0.8518 -0.7039
  698TMC3    H210379   1.777   2.519  14.815  3.0627 -0.1742  0.7923
  698TMC3    C710380   1.817   2.273  14.811 -0.7336 -0.7015  0.1392
  698TMC3    C810381   1.667   2.684  14.994 -0.0684  1.1770 -0.4198
  698TMC3    O110382   1.897   2.191  14.853  0.5327  0.1338 -0.2040
  698TMC3    O210383   1.598   2.690  14.898 -0.7541  0.4124  0.1797
  699TMC3    C110384   1.709   0.889  12.987 -0.8786  0.3179  0.7186
  699TMC3    C210385   1.785   0.800  13.051 -0.1767 -0.3346 -0.0986
  699TMC3    C310386   1.753   0.773  13.181  0.9241 -0.0230 -0.1275
  699TMC3    C410387   1.601   0.947  13.044  0.1461  0.1708 -0.1842
  699TMC3    C510388   1.580   0.930  13.180 -0.5519 -0.1915 -0.6438
  699TMC3    C610389   1.659   0.847  13.245 -0.3213 -0.0267  0.3964
  699TMC3     C10390   1.727   0.884  12.845  0.5844 -0.1087  0.4034
  699TMC3     O10391   1.631   0.868  12.769 -0.1484 -0.4862 -0.4742
  699TMC3     H10392   1.873   0.748  13.017 -0.3476 -1.0142  0.4832
  699TMC3    H110393   1.544   1.025  12.993  2.6172 -0.4822 -3.9796
  699TMC3    H210394   1.627   0.812  13.342  0.4415 -1.1238  0.2609
  699TMC3    C710395   1.449   0.960  13.239  0.3615 -0.1532  0.1983
  699TMC3    C810396   1.777   0.645  13.252  0.0768 -0.2891 -0.2930
  699TMC3    O110397   1.433   0.921  13.354 -0.0367  0.2422 -0.1023
  699TMC3    O210398   1.784   0.643  13.375 -0.1242  0.0083 -0.2541
  700TMC3    C110399   0.450   2.655  17.004 -0.0246  0.5014 -0.7582
  700TMC3    C210400   0.492   2.532  16.952 -0.1525  0.6893  0.0287
  700TMC3    C310401   0.588   2.458  17.019  0.1711  0.8495 -0.0744
  700TMC3    C410402   0.513   2.704  17.119 -0.4886 -0.2233  0.2230
  700TMC3    C510403   0.613   2.633  17.177 -0.0628  0.0449 -0.3639
  700TMC3    C610404   0.660   2.518  17.127 -0.2099  0.2566 -0.2183
  700TMC3     C10405   0.405   2.761  16.914  0.4805 -0.2243 -0.4405
  700TMC3     O10406   0.320   2.739  16.829 -0.0888 -0.0208  0.3971
  700TMC3     H10407   0.442   2.495  16.863 -1.2242  0.9761  0.5096
  700TMC3    H110408   0.490   2.801  17.162  0.8237 -0.1350  0.7128
  700TMC3    H210409   0.734   2.456  17.176  1.1783  0.4193 -2.1031
  700TMC3    C710410   0.693   2.702  17.278  0.2168 -0.4747  0.5758
  700TMC3    C810411   0.651   2.350  16.945  0.0078  0.2695  0.0616
  700TMC3    O110412   0.813   2.697  17.266 -0.5170 -0.2883 -0.2375
  700TMC3    O210413   0.771   2.335  16.935  0.1269  0.4861  0.2652
  701TMC3    C110414   0.999   1.227  15.446  0.9140 -0.0614  0.0378
  701TMC3    C210415   1.046   1.176  15.325  0.9608 -0.2039 -0.1503
  701TMC3    C310416   1.131   1.258  15.255  0.5310 -0.1941  0.1376
  701TMC3    C410417   1.046   1.347  15.510  0.2414  0.0448 -0.5277
  701TMC3    C510418   1.134   1.420  15.430 -0.2803 -0.0600 -0.3369
  701TMC3    C610419   1.180   1.376  15.304  0.4837 -0.7367  0.3216
  701TMC3     C10420   0.871   1.159  15.493 -0.1258  0.0475  0.0787
  701TMC3     O10421   0.829   1.057  15.442  0.9027  0.3760  0.2698
  701TMC3     H10422   0.997   1.089  15.283  0.5141 -1.0967  2.2365
  701TMC3    H110423   1.001   1.395  15.596 -1.0398 -0.6210 -0.8254
  701TMC3    H210424   1.252   1.438  15.253 -2.8502  1.7660 -1.3510
  701TMC3    C710425   1.151   1.562  15.452  0.5201 -0.3522  0.4017
  701TMC3    C810426   1.135   1.253  15.109  0.0942 -0.1176  0.6969
  701TMC3    O110427   1.182   1.629  15.356 -0.5323  0.2537  0.4429
  701TMC3    O210428   1.244   1.295  15.067  0.5320  0.3183  0.6371
  702MPD2     C10429   0.235   3.151  10.401 -0.9911 -0.3314  0.0456
  702MPD2    C110430   0.125   3.236  10.413  0.1040  0.3999  0.7251
  702MPD2    C210431   0.116   3.363  10.351  0.6724  0.6174 -0.2125
  702MPD2    C310432   0.212   3.399  10.264 -0.4800  0.0734  0.7882
  702MPD2    C410433   0.322   3.319  10.245  1.1715 -0.3649 -0.5091
  702MPD2    C510434   0.325   3.197  10.309 -0.3977  0.1855  0.2872
  702MPD2     H10435   0.026   3.423  10.354 -0.6329 -1.3089 -0.4560
  702MPD2    H110436   0.402   3.344  10.177 -0.1753  1.3578 -1.4557
  702MPD2    H210437   0.240   3.052  10.444  0.3369 -0.9414 -1.5144
  702MPD2    H310438   0.402   3.126  10.284 -1.2488  0.2529 -2.5561
  702MPD2     N10439   0.190   3.520  10.197  0.4692 -0.9874  0.3522
  702MPD2    H510440   0.101   3.564  10.216 -0.3256 -1.7508 -1.5871
  702MPD2    N110441   0.007   3.203  10.494 -0.4117 -0.5870  0.8102
  702MPD2    H710442   4.660   3.261  10.487  1.3098  2.2699  4.0225
  703TMC3    C110443   0.258   3.733  10.126 -0.1310  0.2391 -0.2810
  703TMC3    C210444   0.176   3.797  10.212  0.2407  0.2700 -0.4966
  703TMC3    C310445   0.174   3.934  10.216  0.8185 -0.5464 -0.0976
  703TMC3    C410446   0.333   3.802  10.034  0.2654 -0.5123 -0.2323
  703TMC3    C510447   0.334   3.941  10.046 -0.4087  0.2169 -0.1353
  703TMC3    C610448   0.246   4.005  10.127 -0.4244 -0.2796  0.6188
  703TMC3     C10449   0.290   3.594  10.144 -0.4362 -1.0396  0.2395
  703TMC3     O10450   0.404   3.571  10.110  0.2536  0.2212 -0.2013
  703TMC3     H10451   0.139   3.747  10.300  1.2472  1.3817  0.5524
  703TMC3    H110452   0.397   3.757   9.960 -2.1278 -2.3187 -1.1995
  703TMC3    H210453   0.222   4.110  10.126  0.8482 -0.0175 -2.6094
  703TMC3    C710454   0.445   4.018   9.987  0.7412  0.3835  0.4451
  703TMC3    C810455   0.071   3.994  10.294 -0.3349 -0.6232 -0.3348
  703TMC3    O110456   0.526   3.949   9.921 -0.4612 -0.2520 -0.2169
  703TMC3    O210457   0.083   4.114  10.328  0.0690  0.4194  0.0931
  704TMC3    C110458   3.275   1.783  13.236 -0.2767  0.6734 -0.6541
  704TMC3    C210459   3.335   1.760  13.114 -0.5091  0.2612 -0.5703
  704TMC3    C310460   3.357   1.630  13.074 -0.4775 -0.8111  0.3625
  704TMC3    C410461   3.244   1.681  13.320  0.7064 -0.2618 -0.4778
  704TMC3    C510462   3.279   1.554  13.271  0.4371 -0.0789  0.3548
  704TMC3    C610463   3.335   1.529  13.149 -0.0448 -0.3521 -0.4105
  704TMC3     C10464   3.197   1.901  13.257  0.5092 -0.7014 -0.7733
  704TMC3     O10465   3.143   1.924  13.361 -0.4840 -0.0263 -0.3664
  704TMC3     H10466   3.361   1.840  13.046 -1.0114 -2.4034 -3.8598
  704TMC3    H110467   3.211   1.698  13.422  0.6064 -1.5691 -0.2898
  704TMC3    H210468   3.328   1.431  13.102  0.8297 -1.1664  1.1637
  704TMC3    C710469   3.205   1.440  13.320 -0.2434  0.1059 -0.4348
  704TMC3    C810470   3.363   1.612  12.934  0.2315  0.1268  0.1775
  704TMC3    O110471   3.251   1.329  13.296  0.0553  0.0583 -0.3950
  704TMC3    O210472   3.299   1.708  12.886  0.9682  0.3325  0.4810
  705MPD2     C10473   2.533   0.136  16.066  0.0806 -0.0399 -0.2118
  705MPD2    C110474   2.560   0.225  16.168 -0.0923 -0.0673  0.0588
  705MPD2    C210475   2.471   0.233  16.262 -0.6690 -0.5476 -0.2094
  705MPD2    C310476   2.352   0.156  16.263  0.0925  0.1022  0.3354
  705MPD2    C410477   2.339   0.062  16.161 -0.4762  0.4451  0.9598
  705MPD2    C510478   2.423   0.059  16.059 -0.5158  0.1033  0.5868
  705MPD2     H10479   2.484   0.311  16.337 -0.6110  1.1798 -2.0092
  705MPD2    H110480   2.244   0.009  16.161 -1.7382  2.6922  0.8799
  705MPD2    H210481   2.592   0.130  15.975  3.7765 -0.4530  2.2178
  705MPD2    H310482   2.391   0.001  15.974  4.7992 -0.2352 -1.1878
  705MPD2     N10483   2.243   0.169  16.344 -0.1123 -0.0183 -0.2129
  705MPD2    H510484   2.168   0.102  16.332 -0.6640  0.6765 -0.6673
  705MPD2    N110485   2.664   0.324  16.157 -0.3043 -0.0954 -0.2185
  705MPD2    H710486   2.670   0.383  16.239  2.4574  1.8314 -1.7685
  706TMC3    C110487   3.031   0.573  15.986  0.7865 -0.8677  0.3094
  706TMC3    C210488   2.973   0.693  16.030 -0.2517 -0.2547 -0.3283
  706TMC3    C310489   2.855   0.679  16.100 -0.2318 -0.1094  0.0473
  706TMC3    C410490   2.969   0.449  15.994  0.0978 -0.5418 -0.0826
  706TMC3    C510491   2.856   0.449  16.070 -0.0625 -0.3754  0.5977
  706TMC3    C610492   2.803   0.564  16.123  0.0861  0.1427 -0.1570
  706TMC3     C10493   3.146   0.580  15.909 -0.1447 -0.0334 -0.5030
  706TMC3     O10494   3.225   0.667  15.939 -0.6513  0.0438 -0.3877
  706TMC3     H10495   3.017   0.790  16.011 -0.5528 -0.2471 -0.9624
  706TMC3    H110496   3.017   0.356  15.968 -0.9869 -0.6658 -1.5907
  706TMC3    H210497   2.702   0.570  16.162  1.0757  1.8400  2.1379
  706TMC3    C710498   2.762   0.336  16.063 -0.7279 -0.2396 -0.2554
  706TMC3    C810499   2.756   0.762  16.043 -0.2112  0.6045  0.0931
  706TMC3    O110500   2.791   0.255  15.977  0.3221  0.2114  0.1843
  706TMC3    O210501   2.693   0.702  15.961  0.8340 -0.1365  0.7719
  707TMC3    C110502   3.732   3.428   1.538 -1.2910  0.1861 -0.5599
  707TMC3    C210503   3.806   3.475   1.641 -0.5655  0.2895  0.0333
  707TMC3    C310504   3.748   3.575   1.713  0.1608  0.0365 -0.1086
  707TMC3    C410505   3.621   3.487   1.488 -0.7988  0.8186 -0.0863
  707TMC3    C510506   3.563   3.584   1.566  0.0180  0.0553  0.2218
  707TMC3    C610507   3.623   3.632   1.682 -0.3141  0.2821  0.0348
  707TMC3     C10508   3.784   3.309   1.468  0.8913 -0.2448 -0.2106
  707TMC3     O10509   3.905   3.294   1.463 -0.0154  0.1509  0.0713
  707TMC3     H10510   3.886   3.419   1.689 -0.0348 -0.2436 -1.4613
  707TMC3    H110511   3.563   3.440   1.410 -2.2194 -0.6995  1.8782
  707TMC3    H210512   3.582   3.707   1.748  0.4345  0.2417  0.5449
  707TMC3    C710513   3.441   3.654   1.528 -0.2210 -1.0244 -0.6740
  707TMC3    C810514   3.854   3.655   1.771 -0.4922  0.1247  0.0941
  707TMC3    O110515   3.385   3.717   1.620  0.9671 -0.1298  0.3222
  707TMC3    O210516   3.816   3.714   1.871  0.3300 -0.3450  0.9968
  708MPD2     C10517   1.098   3.225  13.343 -0.0582  0.3656 -0.0375
  708MPD2    C110518   1.010   3.283  13.424  0.0327 -0.8246 -0.2536
  708MPD2    C210519   1.037   3.296  13.559  0.1696 -0.2297  0.1478
  708MPD2    C310520   1.159   3.243  13.613  0.0927  0.5099 -0.0416
  708MPD2    C410521   1.244   3.181  13.524 -0.2722  0.0037 -0.1079
  708MPD2    C510522   1.213   3.171  13.393 -1.1451  0.3735  0.1131
  708MPD2     H10523   0.965   3.354  13.616  0.6576 -1.0528  1.5926
  708MPD2    H110524   1.333   3.134  13.564 -0.7012 -0.6753  0.0357
  708MPD2    H210525   1.074   3.229  13.237 -2.3994 -0.6333  0.4449
  708MPD2    H310526   1.279   3.123  13.322 -2.0468  0.2858 -0.6775
  708MPD2     N10527   1.205   3.246  13.751  0.2615  0.0422 -0.1868
  708MPD2    H510528   1.296   3.211  13.779  1.5872  2.0447 -2.0397
  708MPD2    N110529   0.894   3.340  13.379 -0.6171  0.2404  0.3493
  708MPD2    H710530   0.825   3.375  13.444 -2.4236  0.6592 -1.7861
  709TMC3    C110531   0.707   3.387  13.238 -0.0891  0.2722  0.3401
  709TMC3    C210532   0.639   3.283  13.181 -0.0725 -0.2614  0.6602
  709TMC3    C310533   0.523   3.235  13.249  0.1039  0.2385 -0.0465
  709TMC3    C410534   0.667   3.439  13.357 -0.0915 -0.3642 -0.0119
  709TMC3    C510535   0.564   3.380  13.429 -0.3084 -0.6898 -0.0896
  709TMC3    C610536   0.491   3.283  13.373 -0.4338  0.0129  0.1334
  709TMC3     C10537   0.845   3.340  13.249 -0.5777  0.0853 -0.0445
  709TMC3     O10538   0.876   3.267  13.158  0.7251  0.0500 -0.1002
  709TMC3     H10539   0.664   3.253  13.080  1.2213  0.5564  0.7420
  709TMC3    H110540   0.725   3.525  13.389  0.6165 -1.2061  0.9925
  709TMC3    H210541   0.422   3.223  13.432 -0.4942 -0.0916 -0.0453
  709TMC3    C710542   0.604   3.378  13.569 -0.2850 -0.6029  0.5156
  709TMC3    C810543   0.434   3.149  13.183 -0.1237  0.3639 -0.0935
  709TMC3    O110544   0.712   3.431  13.591  0.3145 -0.6457  0.7237
  709TMC3    O210545   0.366   3.075  13.250 -0.0368  0.8566 -0.4714
  710TMC3    C110546   1.683   4.360   0.114  0.3695 -0.4546 -0.8766
  710TMC3    C210547   1.630   4.450   0.023 -0.2908 -1.0397  0.5174
  710TMC3    C310548   1.716   4.546  17.728  0.6032 -0.1738 -0.1852
  710TMC3    C410549   1.808   4.361   0.164  0.0695  0.5705 -0.5058
  710TMC3    C510550   1.894   4.460   0.123 -0.1612  0.1327  0.2657
  710TMC3    C610551   1.842   4.561   0.042 -0.5402 -0.0355 -0.6691
  710TMC3     C10552   1.605   4.250   0.165 -0.5606 -0.2937  0.0621
  710TMC3     O10553   1.665   4.147   0.200 -0.1956 -0.6849  0.1365
  710TMC3     H10554   1.530   4.437  17.726 -0.6577  0.5980  0.8681
  710TMC3    H110555   1.840   4.274   0.221  1.1246  1.6607  0.5640
  710TMC3    H210556   1.907   4.639   0.004 -0.9472  0.5841 -0.0964
  710TMC3    C710557   2.005   4.493   0.206 -0.1704  0.6966 -0.7822
  710TMC3    C810558   1.704   4.610  17.600  0.1946 -0.0412  0.4343
  710TMC3    O110559   2.038   4.612   0.207  0.0882 -0.0528 -1.0384
  710TMC3    O210560   1.808   4.637  17.539  0.0112  0.1849  0.2252
  711TMC3    C110561   1.688   0.227  14.956  0.2300 -0.7853 -0.7823
  711TMC3    C210562   1.640   0.235  15.085  0.4585 -0.1495  0.0760
  711TMC3    C310563   1.727   0.302  15.172  0.3791 -0.0326  0.1523
  711TMC3    C410564   1.810   0.264  14.914  0.0689  0.7546 -0.3072
  711TMC3    C510565   1.891   0.329  15.004  0.1667 -0.2974 -0.0152
  711TMC3    C610566   1.847   0.357  15.131  0.0875  0.5795 -0.2198
  711TMC3     C10567   1.599   0.171  14.856 -0.5539 -0.9509  0.5796
  711TMC3     O10568   1.479   0.175  14.882 -0.2009  0.1383  0.2906
  711TMC3     H10569   1.544   0.192  15.111  1.1613 -1.5252  0.4031
  711TMC3    H110570   1.837   0.277  14.810 -0.8789 -1.2994 -0.8184
  711TMC3    H210571   1.915   0.407  15.199 -0.9395  2.5670 -0.6575
  711TMC3    C710572   1.982   0.424  14.951  0.1647  0.5822  0.5520
  711TMC3    C810573   1.658   0.347  15.291  0.5447  0.1645  0.2516
  711TMC3    O110574   1.967   0.468  14.838  0.4886  0.4141 -0.4301
  711TMC3    O210575   1.555   0.280  15.325  0.2171 -0.0093  0.0630
  712MPD2     C10576   3.147   1.685  14.115 -0.0564  0.5845  0.0133
  712MPD2    C110577   3.070   1.767  14.201 -0.3139 -0.7120 -0.0794
  712MPD2    C210578   3.098   1.902  14.203  0.3403  0.1479  0.5217
  712MPD2    C310579   3.197   1.955  14.130 -0.1801 -0.3142  0.1836
  712MPD2    C410580   3.274   1.872  14.056 -0.0770 -0.1755  0.0244
  712MPD2    C510581   3.249   1.736  14.042  0.4968 -0.0623  0.6422
  712MPD2     H10582   3.029   1.955  14.268 -0.6268 -0.9042  0.3545
  712MPD2    H110583   3.376   1.891  14.023  0.1310  0.7274  1.1804
  712MPD2    H210584   3.127   1.579  14.101  0.1002  0.6094 -0.4025
  712MPD2    H310585   3.309   1.677  13.974  1.0634  0.8085  0.3927
  712MPD2     N10586   3.244   2.087  14.123  0.1854 -0.4367  0.0942
  712MPD2    H510587   3.330   2.103  14.072 -1.0170  1.3694 -1.3701
  712MPD2    N110588   2.954   1.728  14.262  0.5656 -0.3861  0.2500
  712MPD2    H710589   2.904   1.797  14.317 -0.0358 -0.6377  0.0125
  713TMC3    C110590   3.234   2.322  14.121 -0.1832  0.0171  0.4267
  713TMC3    C210591   3.365   2.347  14.102 -0.9379  0.4748  0.4441
  713TMC3    C310592   3.414   2.469  14.062  0.6259 -0.2603 -0.1487
  713TMC3    C410593   3.141   2.424  14.114 -0.3433 -0.3192  0.0039
  713TMC3    C510594   3.197   2.547  14.076 -0.2365 -0.4432 -0.3983
  713TMC3    C610595   3.322   2.572  14.044 -0.5582 -0.2384 -0.2537
  713TMC3     C10596   3.182   2.200  14.174 -0.6579 -0.0882  0.5459
  713TMC3     O10597   3.083   2.208  14.235 -0.1990  0.5495 -0.1333
  713TMC3     H10598   3.443   2.274  14.121 -1.5096 -0.8623 -2.3519
  713TMC3    H110599   3.034   2.419  14.128 -0.5797 -1.1843 -2.0363
  713TMC3    H210600   3.359   2.667  14.007 -2.1864  0.2366 -0.6186
  713TMC3    C710601   3.101   2.660  14.060  0.2387  0.5085  0.2207
  713TMC3    C810602   3.552   2.490  14.027 -0.6136  0.2174  0.4271
  713TMC3    O110603   2.987   2.623  14.037  0.0232  0.0223  0.6824
  713TMC3    O210604   3.571   2.570  13.935 -0.3125 -0.7142  0.2562
  714MPD2     C10605   0.917   4.485   1.233  0.1337  0.4898 -0.1353
  714MPD2    C110606   0.838   4.407   1.158  0.5079 -0.2507  0.3640
  714MPD2    C210607   0.708   4.450   1.128 -0.1509 -0.2084 -0.5629
  714MPD2    C310608   0.672   4.581   1.148  0.6083 -0.3871 -0.7945
  714MPD2    C410609   0.761   4.668   1.210  0.6872 -0.2482 -0.0855
  714MPD2    C510610   0.877   4.614   1.255 -0.3074  0.5786 -0.1721
  714MPD2     H10611   0.644   4.384   1.070 -2.2058  2.1282 -0.9136
  714MPD2    H110612   0.740   0.036   1.235 -2.0624 -0.9042  0.3930
  714MPD2    H210613   1.007   4.450   1.282 -0.8640  1.5845  2.4435
  714MPD2    H310614   0.935   4.674   1.324  2.2222 -1.9572 -0.1156
  714MPD2     N10615   0.544   4.616   1.107 -0.2884  0.6825 -0.3201
  714MPD2    H510616   0.495   4.536   1.069  1.4534 -0.5305  0.0052
  714MPD2    N110617   0.883   4.278   1.135  0.0069  0.3296  0.1551
  714MPD2    H710618   0.981   4.264   1.155  0.0442 -1.5603 -1.4069
  715TMC3    C110619   0.897   4.074   1.028 -0.8273  0.5974  0.4639
  715TMC3    C210620   0.829   3.963   0.980 -0.8569  0.0200  0.2421
  715TMC3    C310621   0.902   3.873   0.914  0.0824 -1.0173 -0.0801
  715TMC3    C410622   1.033   4.085   1.015  0.4266 -0.0476 -0.2420
  715TMC3    C510623   1.099   3.981   0.952 -0.0547  0.2173  0.2757
  715TMC3    C610624   1.039   3.873   0.903 -0.1033  0.4110  0.5522
  715TMC3     C10625   0.810   4.175   1.081  0.4112  0.2709  0.0220
  715TMC3     O10626   0.692   4.154   1.074  0.0187 -0.5930  0.5372
  715TMC3     H10627   0.723   3.948   0.995 -0.7158 -0.0812  1.1494
  715TMC3    H110628   1.088   4.161   1.068 -2.0522  2.5374 -1.3843
  715TMC3    H210629   1.096   3.811   0.835 -1.9700  0.0768 -0.7154
  715TMC3    C710630   1.241   3.993   0.946  0.2700 -0.8081  0.2442
  715TMC3    C810631   0.817   3.800   0.823 -0.3607 -0.2064 -0.4142
  715TMC3    O110632   1.313   3.892   0.940  0.0469  0.3037  0.4339
  715TMC3    O210633   0.706   3.849   0.803  0.0008  0.2186  0.0591
  716MPD2     C10634   4.357   3.417   9.322  0.1415 -0.1017  0.2641
  716MPD2    C110635   4.366   3.332   9.214 -0.0556 -0.3940  0.0330
  716MPD2    C210636   4.382   3.193   9.243 -0.3199  0.3035 -0.1597
  716MPD2    C310637   4.393   3.143   9.368 -0.8438 -0.3382 -0.3235
  716MPD2    C410638   4.407   3.227   9.475 -0.4762  0.0452 -0.1881
  716MPD2    C510639   4.383   3.366   9.450  0.0122  0.0671 -0.8605
  716MPD2     H10640   4.370   3.122   9.161 -0.3729 -0.8035  0.8039
  716MPD2    H110641   4.420   3.197   9.578 -1.9111  0.1146  0.0115
  716MPD2    H210642   4.348   3.524   9.303  0.1675  0.3292  2.6495
  716MPD2    H310643   4.371   3.437   9.532  0.2962 -1.4135  0.4519
  716MPD2     N10644   4.376   3.004   9.392  0.0032  0.2704 -0.3595
  716MPD2    H510645   4.353   2.950   9.309 -2.0737 -1.0328  1.0672
  716MPD2    N110646   4.342   3.391   9.087  0.0596 -0.0368  0.0190
  716MPD2    H710647   4.310   3.488   9.082  1.1827  0.3687  0.6219
  717TMC3    C110648   4.323   2.812   9.510  0.8978  0.5322 -0.2152
  717TMC3    C210649   4.223   2.793   9.414  0.2093 -0.4120  0.2511
  717TMC3    C310650   4.206   2.664   9.376 -0.2482  0.5153 -0.2862
  717TMC3    C410651   4.396   2.709   9.565 -0.3477  0.5598  0.5720
  717TMC3    C510652   4.364   2.576   9.525  0.4499  0.2132  0.7695
  717TMC3    C610653   4.279   2.552   9.420 -0.2921  0.1335  0.0177
  717TMC3     C10654   4.384   2.948   9.515  0.6099  0.5071 -0.2988
  717TMC3     O10655   4.454   2.975   9.612 -0.1047 -0.1791  0.0029
  717TMC3     H10656   4.163   2.877   9.382 -1.7119 -2.4811 -1.5050
  717TMC3    H110657   4.474   2.729   9.638  2.4197 -2.7659 -1.4643
  717TMC3    H210658   4.260   2.449   9.392 -1.0195 -0.2257  1.7956
  717TMC3    C710659   4.451   2.464   9.572 -0.2693  0.3015  0.2421
  717TMC3    C810660   4.101   2.644   9.273  0.9069  0.5583 -0.3801
  717TMC3    O110661   4.440   2.358   9.510 -0.4898 -0.0747  0.4568
  717TMC3    O210662   4.044   2.749   9.239  0.8247  0.3860  0.2345
  718MPD2     C10663   3.753   2.742  12.865  0.4145  0.3734 -0.1307
  718MPD2    C110664   3.835   2.659  12.795 -0.0186  0.5739  0.3127
  718MPD2    C210665   3.902   2.551  12.852  0.1300 -0.8644  0.9889
  718MPD2    C310666   3.867   2.524  12.984 -0.1071  0.6821 -0.1650
  718MPD2    C410667   3.783   2.612  13.056  0.5205 -0.1572  0.7814
  718MPD2    C510668   3.721   2.716  12.995 -0.4241  0.1123 -0.3752
  718MPD2     H10669   3.958   2.473  12.803  0.5602 -0.8305  1.4273
  718MPD2    H110670   3.767   2.596  13.162  3.5161 -1.6090  1.0396
  718MPD2    H210671   3.715   2.835  12.823 -0.3268  0.2481  0.2612
  718MPD2    H310672   3.655   2.785  13.046 -0.8682 -0.2027 -0.5130
  718MPD2     N10673   3.927   2.411  13.034 -0.5319  0.3788  0.1170
  718MPD2    H510674   3.983   2.365  12.963  1.9029  3.2099  0.1801
  718MPD2    N110675   3.849   2.693  12.660  0.1833 -0.8289  0.2131
  718MPD2    H710676   3.783   2.761  12.623 -1.2182 -1.7692  0.9834
  719TMC3    C110677   3.908   2.641  12.443  0.3571 -0.0186  0.7422
  719TMC3    C210678   3.790   2.570  12.419 -0.4210  0.1466 -0.0561
  719TMC3    C310679   3.786   2.467  12.329 -0.2606  0.1727 -0.4997
  719TMC3    C410680   4.021   2.609  12.371  0.4247 -0.2146  0.0994
  719TMC3    C510681   4.009   2.511  12.276 -0.2640  0.8637  1.0405
  719TMC3    C610682   3.895   2.445  12.249  0.1358  0.3456  0.3175
  719TMC3     C10683   3.939   2.633  12.584  0.0965 -0.2622  0.6554
  719TMC3     O10684   4.032   2.559  12.606  0.1310 -0.5795  0.2961
  719TMC3     H10685   3.700   2.586  12.478  0.2540  0.5749  0.8590
  719TMC3    H110686   4.114   2.648  12.409  0.0932  0.5178  0.1567
  719TMC3    H210687   3.893   2.369  12.172 -0.4683  0.1639  0.5162
  719TMC3    C710688   4.124   2.429  12.256 -0.3199  0.0941 -0.1938
  719TMC3    C810689   3.749   2.357  12.411  0.2372 -0.1748 -0.4340
  719TMC3    O110690   4.133   2.361  12.158  0.2208 -0.1473  0.0241
  719TMC3    O210691   3.680   2.376  12.511  0.0872  0.1609 -0.5490
  720MPD2     C10692   3.021   3.274  13.639 -0.0065  0.0663  0.2517
  720MPD2    C110693   3.001   3.405  13.604  0.6691  0.2490  0.4754
  720MPD2    C210694   3.063   3.504  13.678  0.4429 -0.4677  0.2056
  720MPD2    C310695   3.147   3.484  13.792 -1.0617 -0.1462 -0.5276
  720MPD2    C410696   3.162   3.351  13.820  0.3880 -0.4395  0.1022
  720MPD2    C510697   3.107   3.249  13.747 -0.8234 -0.7271  0.4414
  720MPD2     H10698   3.051   3.600  13.630  1.5808 -0.4979 -0.1179
  720MPD2    H110699   3.223   3.315  13.902  1.1070  0.2338 -0.1282
  720MPD2    H210700   2.974   3.195  13.581 -0.2258  0.7050 -0.4377
  720MPD2    H310701   3.121   3.145  13.774  2.1502 -0.0770  1.3917
  720MPD2     N10702   3.220   3.592  13.846 -0.2440  0.0240  0.4458
  720MPD2    H510703   3.209   3.686  13.811 -0.4158  0.1428  0.8103
  720MPD2    N110704   2.921   3.440  13.496  0.4227  0.1275 -0.4754
  720MPD2    H710705   2.917   3.541  13.484 -1.2440  0.3548  1.8827
  721TMC3    C110706   3.358   3.705  14.008  0.0425 -0.0317  0.0272
  721TMC3    C210707   3.386   3.713  14.142  0.1883 -0.4702 -0.3025
  721TMC3    C310708   3.512   3.744  14.189  0.3040  0.1925 -0.0119
  721TMC3    C410709   3.451   3.751  13.917  0.5562  0.2649  0.1340
  721TMC3    C510710   3.583   3.776  13.962 -0.7088 -0.3075 -0.0817
  721TMC3    C610711   3.612   3.778  14.101  0.5148 -0.2490 -0.5532
  721TMC3     C10712   3.278   3.591  13.972 -0.6172 -0.6702  0.9665
  721TMC3     O10713   3.250   3.509  14.058 -0.1827 -0.8323 -0.1613
  721TMC3     H10714   3.306   3.685  14.209 -2.9028  4.2908 -2.0193
  721TMC3    H110715   3.414   3.765  13.816 -0.9419 -1.9836  0.3662
  721TMC3    H210716   3.705   3.805  14.150  0.3343 -1.3466  0.4115
  721TMC3    C710717   3.662   3.863  13.875  0.1611 -0.5433  0.2640
  721TMC3    C810718   3.553   3.672  14.309 -0.6897  0.6843  0.1195
  721TMC3    O110719   3.721   3.958  13.929 -0.2449 -0.3220 -0.1201
  721TMC3    O210720   3.665   3.704  14.353  0.0542 -0.6361 -0.3099
  722MPD2     C10721   2.330   2.520  13.580  0.2948  0.2094 -0.1311
  722MPD2    C110722   2.292   2.625  13.504 -0.1008  0.1422  0.2524
  722MPD2    C210723   2.186   2.616  13.426 -0.0799 -0.5456  0.0018
  722MPD2    C310724   2.100   2.506  13.427  0.3909  0.4169  0.4481
  722MPD2    C410725   2.140   2.392  13.496  0.2920  0.5656  0.1853
  722MPD2    C510726   2.257   2.396  13.573  0.2773  0.3108 -0.6235
  722MPD2     H10727   2.165   2.703  13.365  2.1219  0.7473  1.0845
  722MPD2    H110728   2.088   2.298  13.508  4.6812 -1.7398  1.2998
  722MPD2    H210729   2.421   2.517  13.639 -0.3044 -0.2393  0.7654
  722MPD2    H310730   2.298   2.309  13.624  0.0322 -0.3195 -1.5201
  722MPD2     N10731   1.971   2.518  13.374 -0.2237  0.4238 -0.4268
  722MPD2    H510732   1.964   2.607  13.326 -0.8377 -0.0936 -1.2924
  722MPD2    N110733   2.359   2.755  13.513  0.0555  0.1506 -0.5519
  722MPD2    H710734   2.336   2.825  13.443 -1.0124 -0.4942 -0.8502
  723TMC3    C110735   1.761   2.454  13.270 -0.1385  0.9934 -0.0735
  723TMC3    C210736   1.710   2.356  13.186  0.2254  0.5397  0.3313
  723TMC3    C310737   1.620   2.401  13.090  0.5175 -0.0146  0.5572
  723TMC3    C410738   1.731   2.586  13.268 -0.9801  0.0452  0.1080
  723TMC3    C510739   1.642   2.623  13.170  0.0350  0.3537  0.2484
  723TMC3    C610740   1.589   2.535  13.075 -0.4941 -1.1760  0.1793
  723TMC3     C10741   1.880   2.417  13.353  0.1667 -0.1637 -0.2211
  723TMC3     O10742   1.888   2.300  13.382 -0.3027  0.4391 -0.0461
  723TMC3     H10743   1.751   2.256  13.179 -0.8002  0.3040 -2.3981
  723TMC3    H110744   1.769   2.660  13.337 -0.6562 -2.1982  2.3167
  723TMC3    H210745   1.527   2.556  12.989 -0.0095  0.4450  0.2278
  723TMC3    C710746   1.631   2.773  13.163 -0.6508  0.4530 -0.1621
  723TMC3    C810747   1.620   2.336  12.956  0.2287  0.2672 -0.0622
  723TMC3    O110748   1.678   2.843  13.252 -0.5515 -0.4360 -0.2558
  723TMC3    O210749   1.630   2.411  12.864 -0.1078 -0.4124  0.6611
  724TMC3    C110750   1.910   0.274   9.527  0.4874  0.0349 -0.6573
  724TMC3    C210751   1.887   0.384   9.605  0.0582 -0.8172  0.0812
  724TMC3    C310752   1.965   0.491   9.571  0.0039  0.4281  0.5258
  724TMC3    C410753   2.015   0.255   9.444  0.3283  0.6736 -0.5308
  724TMC3    C510754   2.085   0.370   9.409 -0.4783 -0.8678  0.2316
  724TMC3    C610755   2.068   0.489   9.480  0.0986  0.1541  0.0380
  724TMC3     C10756   1.808   0.168   9.529 -0.3706  0.7401 -0.2473
  724TMC3     O10757   1.840   0.069   9.469  0.4513 -0.7266 -0.1189
  724TMC3     H10758   1.808   0.403   9.677 -1.1790  2.0338 -2.0544
  724TMC3    H110759   2.015   0.173   9.373 -1.2170  1.7340 -1.7561
  724TMC3    H210760   2.126   0.577   9.453 -1.2865  0.4291 -2.1081
  724TMC3    C710761   2.169   0.375   9.289 -0.2530 -0.6272  0.3201
  724TMC3    C810762   1.902   0.618   9.569 -0.3247  0.2237  0.4346
  724TMC3    O110763   2.222   0.269   9.264  0.2338  0.2524  0.1138
  724TMC3    O210764   1.785   0.617   9.537 -0.1881 -0.4141  0.4522
  725TMC3    C110765   3.794   4.197  12.288  0.5504 -0.7771 -0.0381
  725TMC3    C210766   3.662   4.242  12.301 -0.2665  0.1692 -1.0544
  725TMC3    C310767   3.565   4.152  12.314  0.1986  0.1599  0.7734
  725TMC3    C410768   3.818   4.063  12.305  0.4739 -0.1195 -0.1979
  725TMC3    C510769   3.718   3.974  12.311 -0.4525  0.2689  0.0554
  725TMC3    C610770   3.585   4.014  12.313 -0.3565  0.1040  0.6849
  725TMC3     C10771   3.878   4.288  12.360 -0.0897 -0.2657  0.0118
  725TMC3     O10772   3.830   4.399  12.377  0.2320  0.0919 -0.6624
  725TMC3     H10773   3.640   4.347  12.311 -2.3912 -0.5520  1.8642
  725TMC3    H110774   3.918   4.020  12.303  1.2124  1.4955  1.3737
  725TMC3    H210775   3.506   3.939  12.308 -0.7153  0.4873  0.5743
  725TMC3    C710776   3.745   3.832  12.295  0.3160 -0.3999  0.3970
  725TMC3    C810777   3.430   4.204  12.350  0.4479 -0.2221 -0.2272
  725TMC3    O110778   3.820   3.803  12.201 -0.1495  0.1728 -0.2654
  725TMC3    O210779   3.357   4.130  12.418 -0.0592  0.3364 -0.0873
  726MPD2     C10780   1.429   0.336  10.312  0.2334 -0.5258  0.2373
  726MPD2    C110781   1.333   0.399  10.240 -0.4015  0.0278  0.1791
  726MPD2    C210782   1.198   0.357  10.250 -0.0129 -0.2064  0.4275
  726MPD2    C310783   1.161   0.255  10.332  0.3037 -0.3047 -0.5673
  726MPD2    C410784   1.259   0.191  10.414  0.5781  0.1064 -0.0307
  726MPD2    C510785   1.388   0.238  10.402  0.2093  0.3708 -0.6825
  726MPD2     H10786   1.129   0.401  10.180  1.0259 -0.3156 -0.6584
  726MPD2    H110787   1.229   0.101  10.465  0.7550  1.0617  1.7589
  726MPD2    H210788   1.538   0.344  10.309  0.1058  0.1923 -2.2647
  726MPD2    H310789   1.465   0.188  10.460  1.1008  0.3995 -1.8385
  726MPD2     N10790   1.028   0.217  10.334  0.0540 -0.1559 -0.3555
  726MPD2    H510791   1.002   0.143  10.399  1.2670  0.3196  0.6674
  726MPD2    N110792   1.351   0.511  10.154  0.7046 -0.3544 -0.1590
  726MPD2    H710793   1.269   0.551  10.109  0.7211 -0.2070 -0.0541
  727TMC3    C110794   1.430   0.715  10.087  0.0130  0.1284  0.2057
  727TMC3    C210795   1.491   0.829  10.135  0.3501  0.8985 -0.3009
  727TMC3    C310796   1.436   0.953  10.108  0.4891  0.2482  0.0172
  727TMC3    C410797   1.312   0.729  10.014  0.4878 -0.5729 -0.3463
  727TMC3    C510798   1.275   0.853   9.981  0.2313 -0.5556  0.9290
  727TMC3    C610799   1.327   0.965  10.031  0.2788  0.5133  0.3466
  727TMC3     C10800   1.457   0.593  10.158  0.4048  0.1531 -0.5031
  727TMC3     O10801   1.557   0.581  10.225  0.0629 -0.2866 -0.3621
  727TMC3     H10802   1.572   0.827  10.207  0.1248  1.8101 -0.0159
  727TMC3    H110803   1.256   0.643   9.979 -0.5353  0.1919 -0.5810
  727TMC3    H210804   1.298   1.050   9.971  0.4912 -0.5753 -1.2953
  727TMC3    C710805   1.190   0.869   9.868 -0.0413 -0.0323  0.0553
  727TMC3    C810806   1.492   1.068  10.172  0.0869  0.1584  0.6228
  727TMC3    O110807   1.126   0.971   9.861  0.3035  0.1043 -0.6905
  727TMC3    O210808   1.573   1.043  10.257 -0.2834  0.0295 -0.0958
  728TMC3    C110809   0.705   4.471  15.602 -0.7444 -0.7081  0.5876
  728TMC3    C210810   0.835   4.504  15.595 -0.5389 -0.2223 -0.2442
  728TMC3    C310811   0.893   4.522  15.471 -0.5890  0.1465  0.8790
  728TMC3    C410812   0.630   4.464  15.489  0.1559  0.8272  0.2330
  728TMC3    C510813   0.694   4.478  15.366  0.7673 -0.3121  0.8479
  728TMC3    C610814   0.822   4.505  15.358  0.4295 -0.1496 -0.9307
  728TMC3     C10815   0.638   4.459  15.737  0.2996 -0.1951 -0.4869
  728TMC3     O10816   0.687   4.525  15.829  0.1973  0.1243  0.3376
  728TMC3     H10817   0.895   4.487  15.684  1.8535  0.7668 -1.6620
  728TMC3    H110818   0.524   4.465  15.510 -0.1791  3.5323 -1.4736
  728TMC3    H210819   0.874   4.497  15.263 -0.9310  0.0303 -1.6893
  728TMC3    C710820   0.602   4.462  15.251 -0.6047  0.5166 -1.0669
  728TMC3    C810821   1.025   4.575  15.458 -0.0981  0.2867  0.7448
  728TMC3    O110822   0.494   4.414  15.275 -0.4864  0.3153 -0.4079
  728TMC3    O210823   1.088   4.536  15.361  0.3087 -0.0356 -0.5419
  729MPD2     C10824   3.217   0.726  16.885 -0.1830  0.4990  0.8104
  729MPD2    C110825   3.336   0.662  16.913  0.0279  0.2805 -0.2983
  729MPD2    C210826   3.377   0.662  17.049 -0.0397  0.4167 -0.2302
  729MPD2    C310827   3.292   0.713  17.148 -0.4147  0.1186  0.3998
  729MPD2    C410828   3.178   0.772  17.114  0.7151  0.8051 -0.2604
  729MPD2    C510829   3.142   0.789  16.985  0.3036  0.1901 -0.2278
  729MPD2     H10830   3.472   0.620  17.077 -1.3765 -2.5565 -0.1987
  729MPD2    H110831   3.107   0.808  17.188  1.1873 -3.2416  2.1454
  729MPD2    H210832   3.176   0.738  16.786 -0.1576 -1.3703  0.5631
  729MPD2    H310833   3.049   0.840  16.965 -0.9858 -1.4833  1.4437
  729MPD2     N10834   3.324   0.722  17.288  0.2380  0.2844  0.2112
  729MPD2    H510835   3.255   0.771  17.344  0.7424  0.4855  0.6489
  729MPD2    N110836   3.411   0.603  16.807  0.3097  0.1637 -0.0164
  729MPD2    H710837   3.376   0.606  16.712  1.1591  2.3248 -0.2614
  730TMC3    C110838   3.410   0.718  17.495  0.0234  0.0312  0.3030
  730TMC3    C210839   3.485   0.817  17.554  0.6903  0.4409  0.0053
  730TMC3    C310840   3.437   0.888  17.660 -0.5476  0.4857 -0.1863
  730TMC3    C410841   3.285   0.694  17.536 -0.9145  0.0605  0.3929
  730TMC3    C510842   3.232   0.769  17.637  0.2289  1.2629 -0.0468
  730TMC3    C610843   3.310   0.855  17.705 -0.5008  0.0940 -0.1957
  730TMC3     C10844   3.437   0.692  17.358  0.7315  0.1204 -0.9555
  730TMC3     O10845   3.552   0.668  17.326 -0.4292 -0.8112 -0.3597
  730TMC3     H10846   3.583   0.839  17.514  0.3092  2.8707  0.4144
  730TMC3    H110847   3.233   0.609  17.494 -1.0614  1.0706 -1.4997
  730TMC3    H210848   3.268   0.893   0.055  1.6072  1.5536  0.1552
  730TMC3    C710849   3.114   0.843  17.584 -0.0446  0.1070 -0.1639
  730TMC3    C810850   3.494   1.018  17.683 -0.0606  0.2182 -0.4064
  730TMC3    O110851   3.108   0.822  17.463 -0.2485 -0.6394 -0.1152
  730TMC3    O210852   3.613   1.013  17.663  0.4755  0.4998  0.3694
  731MPD2     C10853   3.288   3.738  12.162  1.1055 -0.3248  0.4848
  731MPD2    C110854   3.301   3.597  12.159 -0.7496  0.2765 -0.1366
  731MPD2    C210855   3.316   3.530  12.275 -0.6476  0.1304 -0.3839
  731MPD2    C310856   3.326   3.597  12.393  0.2281 -0.6064 -0.7417
  731MPD2    C410857   3.306   3.733  12.396 -0.2239  0.2609  0.4800
  731MPD2    C510858   3.286   3.799  12.284  0.5145 -0.0355 -0.2438
  731MPD2     H10859   3.320   3.422  12.274 -1.4656  0.1028 -0.5311
  731MPD2    H110860   3.320   3.786  12.490  2.2335  1.7712 -0.7258
  731MPD2    H210861   3.273   3.795  12.071  0.0308  2.3748  2.3388
  731MPD2    H310862   3.282   3.907  12.288 -3.8871 -0.2352  0.1972
  731MPD2     N10863   3.340   3.510  12.510 -0.0987  0.1661  0.6558
  731MPD2    H510864   3.352   3.411  12.493  2.4385  1.1495 -3.2537
  731MPD2    N110865   3.292   3.530  12.030 -0.5058  0.0040 -0.0684
  731MPD2    H710866   3.276   3.587  11.948 -0.6734 -0.2764 -0.2323
  732TMC3    C110867   3.281   3.355  11.873 -1.1070 -0.7378 -0.7687
  732TMC3    C210868   3.260   3.221  11.860  0.0878 -0.1578 -0.2637
  732TMC3    C310869   3.305   3.165  11.741 -0.1404 -0.1326  0.5954
  732TMC3    C410870   3.348   3.428  11.777  0.6078  0.3711  0.5216
  732TMC3    C510871   3.391   3.365  11.664  0.8820 -0.3412  0.0673
  732TMC3    C610872   3.363   3.233  11.644 -0.1341  0.4838 -0.4782
  732TMC3     C10873   3.294   3.394  12.012 -0.3023  0.7090  0.3841
  732TMC3     O10874   3.323   3.301  12.089 -0.2200  0.4299  0.1387
  732TMC3     H10875   3.222   3.154  11.937  1.6877 -1.3456 -0.4991
  732TMC3    H110876   3.381   3.531  11.788  0.1785  0.5353  0.2487
  732TMC3    H210877   3.404   3.181  11.558  0.7895  0.1041  0.1842
  732TMC3    C710878   3.494   3.427  11.593 -0.9801  0.5537 -0.2644
  732TMC3    C810879   3.220   3.059  11.697 -0.3174 -0.0022  0.3478
  732TMC3    O110880   3.480   3.538  11.538  0.4743 -0.4461  0.4071
  732TMC3    O210881   3.263   2.989  11.606 -0.4510 -0.4787 -0.1547
  733TMC3    C110882   3.807   2.013  13.231  0.1324 -0.3138 -0.0213
  733TMC3    C210883   3.849   2.144  13.247 -0.6182 -0.8194 -1.1876
  733TMC3    C310884   3.927   2.205  13.157  0.5358  0.2583  1.3939
  733TMC3    C410885   3.841   1.940  13.118  0.6863 -0.6924 -0.5600
  733TMC3    C510886   3.913   2.006  13.028  0.1400  0.8065 -0.0015
  733TMC3    C610887   3.961   2.136  13.043 -0.3590  0.2885  0.3061
  733TMC3     C10888   3.710   1.955  13.321  0.0268  0.6852  0.1860
  733TMC3     O10889   3.636   2.035  13.380  0.2300 -0.4000 -0.0321
  733TMC3     H10890   3.828   2.198  13.339  1.9490 -2.4669  0.3565
  733TMC3    H110891   3.802   1.839  13.108 -0.8853 -0.2428  0.9312
  733TMC3    H210892   4.019   2.178  12.962  0.4798 -0.3747  0.5584
  733TMC3    C710893   3.900   1.961  12.889 -0.3426  0.1952  0.4114
  733TMC3    C810894   3.896   2.350  13.149 -0.0048  0.6731 -0.3899
  733TMC3    O110895   3.912   1.841  12.871  0.6665  0.1054  0.2499
  733TMC3    O210896   3.814   2.390  13.227 -0.5186 -0.2574  0.5319
  734MPD2     C10897   0.975   4.311  11.749 -0.2052 -0.2213  0.3013
  734MPD2    C110898   0.866   4.267  11.679 -0.4694 -0.7786 -0.0633
  734MPD2    C210899   0.843   4.316  11.551  0.0016  0.0548 -0.2744
  734MPD2    C310900   0.923   4.420  11.504 -0.3251 -0.1791  0.4185
  734MPD2    C410901   1.032   4.469  11.567  0.5279 -0.1234 -0.3473
  734MPD2    C510902   1.059   4.405  11.691  0.1293 -0.0443  0.0242
  734MPD2     H10903   0.772   4.277  11.479  0.9934  0.3209 -1.4005
  734MPD2    H110904   1.088   4.553  11.527  2.9662 -1.9523 -0.7374
  734MPD2    H210905   0.989   4.273  11.850  2.7214 -1.2563 -0.4913
  734MPD2    H310906   1.144   4.442  11.747 -0.7876  1.6423  0.3079
  734MPD2     N10907   0.890   4.464  11.375  0.0144  0.3787 -0.8554
  734MPD2    H510908   0.805   4.425  11.335 -0.3945 -0.9635  1.3174
  734MPD2    N110909   0.778   4.174  11.741 -0.2963  0.0138  0.6546
  734MPD2    H710910   0.800   4.142  11.834 -0.7871  1.9154  1.4109
  735TMC3    C110911   0.595   4.024  11.759  0.4970 -0.0257 -0.3012
  735TMC3    C210912   0.487   3.990  11.680  0.2408 -0.7812  0.0746
  735TMC3    C310913   0.472   3.866  11.628 -0.1869  0.6523 -0.2101
  735TMC3    C410914   0.686   3.923  11.788 -0.4407 -0.5806  0.1078
  735TMC3    C510915   0.672   3.802  11.732 -0.1423  0.6189 -0.5139
  735TMC3    C610916   0.564   3.770  11.654  0.2145 -0.9147  0.1932
  735TMC3     C10917   0.652   4.142  11.697 -0.1458  0.1759 -0.7757
  735TMC3     O10918   0.582   4.194  11.610 -0.1924 -0.1103 -0.0023
  735TMC3     H10919   0.413   4.065  11.654  2.1292  0.9236 -0.3262
  735TMC3    H110920   0.778   3.948  11.841 -0.5619  0.9478 -0.3900
  735TMC3    H210921   0.559   3.672  11.607 -1.1134 -0.2524 -1.0498
  735TMC3    C710922   0.761   3.695  11.784  0.0032  0.2196 -0.3298
  735TMC3    C810923   0.423   3.855  11.493 -0.5450 -0.3004 -0.0390
  735TMC3    O110924   0.853   3.738  11.858  0.1723 -0.8012 -0.3305
  735TMC3    O210925   0.407   3.740  11.450 -1.0523 -0.1268  0.2206
  736MPD2     C10926   0.727   3.339  11.785  0.6010  0.1006 -0.0836
  736MPD2    C110927   0.791   3.457  11.776  0.6716  0.3223 -0.5117
  736MPD2    C210928   0.924   3.457  11.807 -0.4098  0.8086  0.4764
  736MPD2    C310929   1.002   3.347  11.829 -0.6361  0.0554 -0.0196
  736MPD2    C410930   0.936   3.229  11.845 -0.2201  0.5206  0.6296
  736MPD2    C510931   0.796   3.226  11.825 -0.1353 -0.2686 -0.1907
  736MPD2     H10932   0.973   3.553  11.799 -1.4495  1.3122  0.1926
  736MPD2    H110933   0.993   3.139  11.864 -0.3528  0.3012 -0.0214
  736MPD2    H210934   0.622   3.327  11.760  0.2403 -0.3709  1.7091
  736MPD2    H310935   0.739   3.134  11.837  0.9927 -0.5620  2.9636
  736MPD2     N10936   1.143   3.355  11.837  1.3152 -0.6080 -0.1196
  736MPD2    H510937   1.182   3.261  11.846 -1.3194 -1.6636  0.1244
  736MPD2    N110938   0.713   3.571  11.751  1.1745 -0.2955 -0.1242
  736MPD2    H710939   0.618   3.546  11.724  1.5472 -0.2750 -1.4504
  737TMC3    C110940   1.357   3.457  11.807 -0.0423 -0.0266 -0.0172
  737TMC3    C210941   1.417   3.553  11.733 -0.0694 -0.2130  0.8883
  737TMC3    C310942   1.533   3.523  11.685  0.0420  0.0037 -0.1825
  737TMC3    C410943   1.419   3.341  11.840 -0.7314 -0.2502 -0.6442
  737TMC3    C510944   1.543   3.314  11.781 -0.0664 -0.0997 -0.0658
  737TMC3    C610945   1.597   3.406  11.696  0.4003 -0.4827 -1.0897
  737TMC3     C10946   1.217   3.471  11.807 -0.1666 -0.2141  0.7781
  737TMC3     O10947   1.183   3.577  11.757  0.2704  0.2479 -0.0616
  737TMC3     H10948   1.383   3.656  11.727 -0.8584 -0.6173 -1.3925
  737TMC3    H110949   1.375   3.262  11.900 -0.7000  0.2066 -0.0238
  737TMC3    H210950   1.696   3.408  11.652  0.0690 -1.2140 -1.8708
  737TMC3    C710951   1.590   3.168  11.779  0.3513 -1.0367 -0.0305
  737TMC3    C810952   1.617   3.624  11.613  0.0323  0.2737 -0.7587
  737TMC3    O110953   1.519   3.090  11.843 -0.4961 -0.5657 -0.7842
  737TMC3    O210954   1.744   3.616  11.603  0.0418  0.3427 -0.4808
  738MPD2     C10955   1.699   2.954  14.915 -0.5150 -0.5253  0.6549
  738MPD2    C110956   1.772   2.900  15.018 -0.5896  0.3944  0.0127
  738MPD2    C210957   1.872   2.974  15.080 -0.2667  0.6110  0.3166
  738MPD2    C310958   1.906   3.099  15.030 -1.2018  0.7684  0.4111
  738MPD2    C410959   1.844   3.146  14.913 -0.0545 -0.9429 -0.5175
  738MPD2    C510960   1.737   3.074  14.862  0.2394  0.0231 -0.4162
  738MPD2     H10961   1.926   2.925  15.160  0.2939 -0.6274 -0.8216
  738MPD2    H110962   1.879   3.233  14.859  1.6004 -0.8069  0.7802
  738MPD2    H210963   1.629   2.897  14.855  0.9440  0.6987 -2.2169
  738MPD2    H310964   1.688   3.118  14.776 -2.6126 -0.1759  1.1135
  738MPD2     N10965   2.027   3.162  15.070  0.4913 -0.5491  0.6330
  738MPD2    H510966   2.045   3.244  15.012  1.0997 -2.0619 -1.3310
  738MPD2    N110967   1.745   2.772  15.063 -0.0174 -0.6272  0.3337
  738MPD2    H710968   1.798   2.739  15.143 -1.5820 -0.8140  1.2981
  739TMC3    C110969   2.248   3.172  15.131 -0.2011 -0.3357 -0.0689
  739TMC3    C210970   2.273   3.229  15.011  0.6103 -0.3706  0.1995
  739TMC3    C310971   2.391   3.301  14.989  0.4468 -0.8155  0.5729
  739TMC3    C410972   2.332   3.193  15.240 -1.0090 -0.2752 -0.1448
  739TMC3    C510973   2.445   3.268  15.219 -0.6410 -0.3716  0.7777
  739TMC3    C610974   2.477   3.321  15.090  0.0185  0.1691 -0.7210
  739TMC3     C10975   2.119   3.121  15.162  0.6669 -0.5661  0.1616
  739TMC3     O10976   2.104   3.036  15.251 -0.6237  0.1473  0.0300
  739TMC3     H10977   2.211   3.199  14.927  0.2270  3.6868 -0.9786
  739TMC3    H110978   2.318   3.144  15.336  0.6067  1.4632  0.9565
  739TMC3    H210979   2.565   3.385  15.085  1.8067 -2.2285 -0.2244
  739TMC3    C710980   2.531   3.309  15.329  0.0695 -0.0310 -0.8301
  739TMC3    C810981   2.429   3.334  14.852  0.5720 -0.3356 -1.3083
  739TMC3    O110982   2.624   3.386  15.307 -0.2995 -0.6764  0.1415
  739TMC3    O210983   2.383   3.266  14.761  0.5990 -0.1505  0.3429
  740TMC3    C110984   2.921   4.397  14.566 -0.0725 -0.0792  0.0695
  740TMC3    C210985   2.977   4.402  14.689 -0.0422 -0.0159  0.5403
  740TMC3    C310986   3.102   4.347  14.707 -0.1583 -1.1647 -0.1559
  740TMC3    C410987   2.997   4.360  14.460  0.6239 -0.5901  0.7532
  740TMC3    C510988   3.123   4.307  14.479 -0.7563  0.4913  0.7206
  740TMC3    C610989   3.172   4.293  14.605  0.0915  0.3203 -0.4303
  740TMC3     C10990   2.805   4.476  14.540 -0.2137  0.0365 -0.1487
  740TMC3     O10991   2.808   4.534  14.432  0.1982 -0.1645 -0.1026
  740TMC3     H10992   2.920   4.424  14.779  1.4573  0.5626  1.3427
  740TMC3    H110993   2.948   4.348  14.364  2.2688 -1.1601 -0.0166
  740TMC3    H210994   3.267   4.247  14.630 -1.6792 -0.4387  5.0368
  740TMC3    C710995   3.203   4.248  14.377 -0.1478  0.0961  0.3446
  740TMC3    C810996   3.119   4.287  14.837  0.0532  0.4930 -0.4560
  740TMC3    O110997   3.291   4.174  14.417 -0.5324  0.0116 -0.8904
  740TMC3    O210998   3.140   4.162  14.843 -0.5257 -0.4401  0.0789
  741TMC3    C110999   2.289   3.849  14.435  0.0901  0.6723 -0.5636
  741TMC3    C211000   2.296   3.727  14.374  0.5665 -0.2895  0.4546
  741TMC3    C311001   2.281   3.615  14.449  0.1711 -0.6792  0.5868
  741TMC3    C411002   2.292   3.869  14.571  0.0910 -0.4871 -0.6096
  741TMC3    C511003   2.269   3.751  14.638  0.8418 -0.3448  1.0732
  741TMC3    C611004   2.244   3.632  14.578  0.1038 -0.0872 -0.5845
  741TMC3     C11005   2.286   3.964  14.350 -0.2549 -0.1571 -0.5089
  741TMC3     O11006   2.231   4.062  14.401 -0.2453 -0.1519 -0.3300
  741TMC3     H11007   2.299   3.722  14.266  1.6260  0.1561  0.4680
  741TMC3    H111008   2.280   3.967  14.616  1.2250 -1.0902  1.0041
  741TMC3    H211009   2.228   3.548  14.646 -0.4848  1.7724  1.5669
  741TMC3    C711010   2.255   3.750  14.786  0.3457  0.3575  0.6377
  741TMC3    C811011   2.261   3.487  14.377  0.0136  0.5141 -0.3578
  741TMC3    O111012   2.196   3.654  14.841 -0.1781 -0.1235 -0.1880
  741TMC3    O211013   2.255   3.495  14.254 -0.5091  0.3970 -0.5273
  742TMC3    C111014   2.098   1.997  15.149  0.1386 -0.2169  0.0260
  742TMC3    C211015   2.033   1.968  15.028  0.0719 -0.4585  0.0264
  742TMC3    C311016   2.103   1.882  14.941 -0.2080  1.1139 -0.3840
  742TMC3    C411017   2.227   1.966  15.178  0.3930  0.0719 -0.1990
  742TMC3    C511018   2.296   1.904  15.075 -0.1442 -0.1370 -0.6019
  742TMC3    C611019   2.238   1.862  14.959 -0.4315  0.3338  0.3965
  742TMC3     C11020   2.034   2.102  15.225  0.6111 -0.2580  0.8944
  742TMC3     O11021   1.912   2.111  15.224  0.0257  0.0503  0.9814
  742TMC3     H11022   1.927   1.990  15.029  0.3543  0.8734  0.7039
  742TMC3    H111023   2.271   1.993  15.273  2.8584 -1.4543 -0.8993
  742TMC3    H211024   2.292   1.813  14.879 -1.9534  0.2608 -0.5810
  742TMC3    C711025   2.420   1.832  15.107 -0.1819  0.3189  0.1487
  742TMC3    C811026   2.041   1.822  14.824 -0.6427  0.0966  0.4329
  742TMC3    O111027   2.449   1.738  15.038 -0.0051  0.7237  0.4013
  742TMC3    O211028   2.099   1.723  14.788  0.5259  0.1801  0.0029
  743MPD2     C11029   0.229   3.761   1.701 -0.6241 -0.0209 -0.0229
  743MPD2    C111030   0.237   3.697   1.578  0.4043 -0.6130 -0.7939
  743MPD2    C211031   0.345   3.618   1.545  0.1151  0.2635  0.4132
  743MPD2    C311032   0.443   3.585   1.636 -0.0807 -0.7828 -0.0141
  743MPD2    C411033   0.434   3.649   1.763 -0.8560 -0.4106  1.1173
  743MPD2    C511034   0.327   3.731   1.795  0.1330  0.5217  0.2174
  743MPD2     H11035   0.360   3.580   1.444  0.0964  2.0925 -0.2649
  743MPD2    H111036   0.502   3.637   1.846 -0.5392 -1.1001  0.7586
  743MPD2    H211037   0.159   3.841   1.721 -0.0367  0.5913 -0.4224
  743MPD2    H311038   0.334   3.782   1.890  2.9159 -0.2134  0.3826
  743MPD2     N11039   0.535   3.483   1.607  1.1105 -0.4901 -0.0549
  743MPD2    H511040   0.533   3.438   1.516 -0.6291  0.9231 -0.7089
  743MPD2    N111041   0.135   3.715   1.483  0.0843 -0.7655 -0.4398
  743MPD2    H711042   0.065   3.783   1.512 -0.6173 -1.6504 -0.0914
  744TMC3    C111043   4.723   3.690   1.299 -0.7001 -0.4708 -0.2740
  744TMC3    C211044   4.608   3.686   1.377 -0.6112 -0.1704 -0.2523
  744TMC3    C311045   4.491   3.697   1.314 -0.5615 -0.6418  0.9638
  744TMC3    C411046   4.720   3.681   1.163 -0.1608  0.2408  0.7377
  744TMC3    C511047   4.597   3.680   1.106  0.3471  0.1853 -1.1386
  744TMC3    C611048   4.479   3.695   1.177  0.0680  0.1630 -0.2897
  744TMC3     C11049   0.121   3.665   1.359 -0.1599 -0.5094  0.9135
  744TMC3     O11050   0.197   3.603   1.290  0.3525 -0.1063  0.4435
  744TMC3     H11051   4.621   3.675   1.484 -1.4237  1.4821  0.0115
  744TMC3    H111052   0.075   3.662   1.107 -1.2960 -2.3329 -0.2531
  744TMC3    H211053   4.380   3.698   1.132  1.0185 -0.8506 -2.4553
  744TMC3    C711054   4.587   3.624   0.971  0.6882  0.3679 -0.1971
  744TMC3    C811055   4.369   3.718   1.394  0.0949  0.2529  0.3833
  744TMC3    O111056   4.681   3.562   0.920  0.0031 -0.5445  0.5119
  744TMC3    O211057   4.261   3.698   1.331  0.2317 -0.5013 -0.1262
  745TMC3    C111058   2.772   1.591  14.328  0.6459  0.7320 -0.7014
  745TMC3    C211059   2.754   1.662  14.447  0.1644 -0.4033  0.2083
  745TMC3    C311060   2.621   1.670  14.487  0.6021 -0.9088 -0.2759
  745TMC3    C411061   2.675   1.567  14.231 -0.2625 -0.3180 -0.1646
  745TMC3    C511062   2.547   1.608  14.267 -0.4678 -0.0849  0.8376
  745TMC3    C611063   2.523   1.651  14.391  0.2190 -0.0744  0.2034
  745TMC3     C11064   2.899   1.597  14.271 -0.8184  0.2181  0.4121
  745TMC3     O11065   2.942   1.496  14.221  0.6384 -0.0993 -0.1249
  745TMC3     H11066   2.840   1.677  14.511  1.1071  2.0107 -1.6048
  745TMC3    H111067   2.706   1.520  14.139  2.4845 -0.2311  0.7208
  745TMC3    H211068   2.423   1.677  14.424  0.1632 -2.3281  1.8496
  745TMC3    C711069   2.476   1.672  14.166 -0.0982  0.3746  0.2555
  745TMC3    C811070   2.594   1.769  14.593 -0.0356 -0.0026 -0.3549
  745TMC3    O111071   2.352   1.679  14.180  0.8380 -0.2895  0.4098
  745TMC3    O211072   2.488   1.764  14.653 -0.0129  0.5906 -0.2817
  746TMC3    C111073   4.473   3.275  10.775 -0.3894  0.0656  0.6338
  746TMC3    C211074   4.587   3.253  10.701  0.3153  0.0666 -0.3351
  746TMC3    C311075   4.626   3.124  10.681  0.0045 -0.0124 -0.3021
  746TMC3    C411076   4.405   3.171  10.829 -0.0908  0.0592  0.6849
  746TMC3    C511077   4.444   3.045  10.798 -0.1395 -0.5350 -0.0061
  746TMC3    C611078   4.552   3.013  10.716  0.4984  0.3211  0.2477
  746TMC3     C11079   4.439   3.405  10.833 -0.2286  0.0003  0.0311
  746TMC3     O11080   4.324   3.440  10.851 -0.6924  0.5349  0.1260
  746TMC3     H11081   4.631   3.339  10.652  1.5043  0.2987  1.1473
  746TMC3    H111082   4.329   3.182  10.905 -0.5049  1.5280  0.0485
  746TMC3    H211083   4.574   2.917  10.672  1.9641  0.4372  0.7364
  746TMC3    C711084   4.359   2.945  10.859  0.0466  0.1085 -0.4408
  746TMC3    C811085   0.001   3.109  10.589  0.1169 -0.1431  0.3060
  746TMC3    O111086   4.244   2.982  10.883 -0.8147 -0.5159  0.2744
  746TMC3    O211087   0.077   3.014  10.602  0.1199 -0.1161  0.4426
  747TMC3    C111088   2.492   2.796  11.362 -0.7147  0.0405 -0.0965
  747TMC3    C211089   2.361   2.810  11.364 -0.3004  0.2167  0.4880
  747TMC3    C311090   2.303   2.898  11.454 -0.2145  0.2364 -0.2323
  747TMC3    C411091   2.571   2.868  11.452 -0.0018 -0.4213 -0.0923
  747TMC3    C511092   2.509   2.964  11.527 -0.3130 -0.5879  0.3202
  747TMC3    C611093   2.374   2.975  11.536 -0.4767 -0.3924  0.1072
  747TMC3     C11094   2.563   2.770  11.241  0.1506  0.6679 -0.5463
  747TMC3     O11095   2.673   2.826  11.224  0.1895  0.3050 -0.7695
  747TMC3     H11096   2.293   2.755  11.299 -0.1078  1.7891 -1.0325
  747TMC3    H111097   2.676   2.845  11.462  0.8333  4.1055  1.5630
  747TMC3    H211098   2.332   3.037  11.615 -2.7349 -0.2122 -1.2290
  747TMC3    C711099   2.566   3.093  11.507  0.0882 -0.7267  0.4856
  747TMC3    C811100   2.168   2.857  11.485  0.0786  0.0505 -0.1256
  747TMC3    O111101   2.547   3.185  11.589  0.0584 -0.7090 -0.3055
  747TMC3    O211102   2.132   2.741  11.458  0.8380 -0.3240 -0.0507
  748MPD2     C11103   4.390   4.297   2.103 -0.0813 -0.3412 -0.5844
  748MPD2    C111104   4.408   4.353   1.979 -0.5274  1.2007 -0.1825
  748MPD2    C211105   4.519   4.333   1.904 -0.1973 -0.6044  0.0578
  748MPD2    C311106   4.620   4.252   1.952  0.1691  0.7918  0.3400
  748MPD2    C411107   4.603   4.189   2.070  0.9952 -0.3052  0.4349
  748MPD2    C511108   4.494   4.220   2.150  0.0162  0.3223  0.7380
  748MPD2     H11109   4.533   4.379   1.807 -1.1571  1.2346  0.7903
  748MPD2    H111110   4.675   4.120   2.113 -1.1886 -1.0187  2.9774
  748MPD2    H211111   4.302   4.310   2.165 -0.6873 -1.1911 -1.2699
  748MPD2    H311112   4.479   4.173   2.247  1.1150 -1.4325  0.0663
  748MPD2     N11113   4.732   4.231   1.869  0.0381 -0.8381  0.1427
  748MPD2    H511114   4.725   4.273   1.776  3.5094 -0.3109  0.1266
  748MPD2    N111115   4.295   4.422   1.927 -0.6410  0.5111  0.2339
  748MPD2    H711116   4.206   4.415   1.975 -1.1673 -0.6664 -0.8939
  749TMC3    C111117   0.188   4.120   1.783 -0.3115  0.3150  0.1148
  749TMC3    C211118   0.317   4.090   1.815 -0.2890  0.2026 -0.4095
  749TMC3    C311119   0.409   4.093   1.712  0.5219  0.5521 -0.1099
  749TMC3    C411120   0.151   4.148   1.652  0.3977  0.0065  0.1411
  749TMC3    C511121   0.246   4.144   1.555  0.6754  0.3113 -0.2041
  749TMC3    C611122   0.380   4.121   1.583 -0.2817  0.5490 -0.2634
  749TMC3     C11123   0.099   4.147   1.899 -0.5417  0.5011  0.6276
  749TMC3     O11124   0.125   4.079   1.996  0.3611  0.1914  0.3374
  749TMC3     H11125   0.352   4.070   1.916  1.1152 -0.4662 -1.0262
  749TMC3    H111126   0.045   4.148   1.632  0.2481  2.2155  0.9790
  749TMC3    H211127   0.461   4.132   1.511 -0.7479  1.3879 -0.6645
  749TMC3    C711128   0.211   4.110   1.419  0.8359  0.0367 -0.1848
  749TMC3    C811129   0.541   4.024   1.735  0.1200  0.0435  0.0089
  749TMC3    O111130   0.300   4.135   1.338 -0.0171 -0.1451 -0.4710
  749TMC3    O211131   0.591   4.022   1.848  0.2262 -0.2084 -0.5786
  750MPD2     C11132   4.711   0.207  10.583  0.0328 -0.4370 -0.4892
  750MPD2    C111133   4.582   0.194  10.546  0.1237 -0.5496 -0.5927
  750MPD2    C211134   4.534   0.073  10.492 -0.2674  0.6526  0.0492
  750MPD2    C311135   4.627   4.709  10.458  0.9276 -0.3935 -0.6004
  750MPD2    C411136   0.023   4.730  10.484 -0.2977  0.7094  0.6208
  750MPD2    C511137   0.067   0.112  10.547 -0.1833  0.3362 -0.0798
  750MPD2     H11138   4.427   0.061  10.482 -0.3649 -0.8751  2.9605
  750MPD2    H111139   0.094   4.656  10.451 -0.7937  0.0523  1.0284
  750MPD2    H211140   0.008   0.293  10.640 -2.7170  0.1536  0.2646
  750MPD2    H311141   0.174   0.112  10.568 -0.0389 -1.6898 -0.7846
  750MPD2     N11142   4.588   4.581  10.401 -0.7395  0.2095 -0.2165
  750MPD2    H511143   4.658   4.511  10.379  0.4107  0.3937  2.8994
  750MPD2    N111144   4.496   0.298  10.595  0.4188  0.5316  0.2153
  750MPD2    H711145   4.541   0.373  10.648  3.6943 -0.0080 -1.8267
  751TMC3    C111146   4.460   4.408  10.325 -1.0880 -0.7483  1.1046
  751TMC3    C211147   4.363   4.323  10.361 -0.0570 -0.2010  0.2083
  751TMC3    C311148   4.339   4.218  10.284  0.4416 -0.0763 -0.2396
  751TMC3    C411149   4.526   4.397  10.205  0.4133  0.3742  0.1058
  751TMC3    C511150   4.485   4.296  10.123  0.1885 -0.9344 -0.3297
  751TMC3    C611151   4.400   4.200  10.169  0.1726  0.1724 -0.3248
  751TMC3     C11152   4.459   4.535  10.386  0.1441 -0.2456 -0.1510
  751TMC3     O11153   4.352   4.580  10.427  0.1001 -0.7477  0.1564
  751TMC3     H11154   4.324   4.340  10.460  0.6134 -1.8331  0.7480
  751TMC3    H111155   4.583   4.484  10.173 -0.3025  1.0405  0.6278
  751TMC3    H211156   4.372   4.117  10.105  1.7739 -0.6362  0.0318
  751TMC3    C711157   4.596   4.256  10.037  0.1321  0.8974 -0.6719
  751TMC3    C811158   4.224   4.132  10.311  0.2086  0.2521 -0.7699
  751TMC3    O111159   4.689   4.335  10.026 -0.1307  1.1421  0.0033
  751TMC3    O211160   4.223   4.026  10.252  0.1483 -0.2770 -0.1613
  752TMC3    C111161   3.780   0.685  17.608  1.2700  0.2260 -0.3233
  752TMC3    C211162   3.723   0.561  17.589 -0.4618 -0.0412  0.2964
  752TMC3    C311163   3.670   0.501  17.700  0.4027 -0.2880 -0.4629
  752TMC3    C411164   3.795   0.740  17.731 -0.4344  0.0826 -0.4148
  752TMC3    C511165   3.733   0.685   0.094  1.1321  0.1946 -0.6589
  752TMC3    C611166   3.677   0.557   0.080  0.3548 -0.6830 -0.0544
  752TMC3     C11167   3.865   0.753  17.510 -0.1563 -0.7445 -0.1479
  752TMC3     O11168   3.948   0.841  17.537  0.3500  0.9435  0.2348
  752TMC3     H11169   3.735   0.516  17.491 -2.4559 -0.4813  0.2408
  752TMC3    H111170   3.841   0.838  17.739 -1.4983  0.5807 -0.2913
  752TMC3    H211171   3.632   0.506   0.164  0.3737 -0.6924 -0.0499
  752TMC3    C711172   3.726   0.752   0.223 -0.3904  0.5032 -0.2091
  752TMC3    C811173   3.653   0.354  17.687  0.1114 -0.7312  0.0889
  752TMC3    O111174   3.737   0.685   0.323  0.4696 -0.0043  0.2904
  752TMC3    O211175   3.686   0.309  17.581 -0.1265 -0.6387  0.1709
  753TMC3    C111176   1.005   1.578  13.213 -0.7175 -0.2091 -0.1570
  753TMC3    C211177   1.090   1.539  13.320  0.0815 -0.2945  0.7890
  753TMC3    C311178   1.059   1.430  13.396 -0.5585  0.4607 -0.2838
  753TMC3    C411179   0.896   1.503  13.182  0.2210 -0.1359 -0.3991
  753TMC3    C511180   0.864   1.397  13.257 -0.1516  0.2282 -0.0357
  753TMC3    C611181   0.954   1.352  13.356  0.3874  0.4834 -0.6555
  753TMC3     C11182   1.033   1.693  13.130  0.2520  0.5429  0.4209
  753TMC3     O11183   0.979   1.701  13.018 -0.5311  0.0224 -0.2167
  753TMC3     H11184   1.178   1.600  13.334 -1.5068  2.0770  0.3812
  753TMC3    H111185   0.824   1.534  13.108  0.5317 -1.1595 -1.1286
  753TMC3    H211186   0.933   1.259  13.407 -0.2558  1.1143  0.2143
  753TMC3    C711187   0.725   1.344  13.258 -0.2490  1.3662  0.3245
  753TMC3    C811188   1.127   1.401  13.521 -0.4353 -0.3299 -0.2879
  753TMC3    O111189   0.655   1.390  13.168  0.0636 -0.1771 -0.0797
  753TMC3    O211190   1.097   1.304  13.590 -0.0240  0.2316 -0.0163
  754MPD2     C11191   4.675   0.632  12.840 -0.3932 -0.2763  0.2849
  754MPD2    C111192   4.659   0.497  12.810  0.8573  0.2737  0.5444
  754MPD2    C211193   4.543   0.447  12.759  0.1743 -0.4416  0.5366
  754MPD2    C311194   4.433   0.538  12.763 -0.0646 -0.2015  0.2760
  754MPD2    C411195   4.450   0.672  12.799 -0.0296 -0.3493  0.5447
  754MPD2    C511196   4.572   0.716  12.835  0.2437 -0.3633 -1.0510
  754MPD2     H11197   4.530   0.341  12.740 -0.4934 -0.2353 -0.1694
  754MPD2    H111198   4.370   0.745  12.798  0.9555  0.7053 -2.0677
  754MPD2    H211199   0.032   0.669  12.881 -0.6445  0.0952  0.5127
  754MPD2    H311200   4.589   0.821  12.856 -3.5273 -0.2967  1.6626
  754MPD2     N11201   4.307   0.486  12.725  0.1314 -0.5367 -1.2153
  754MPD2    H511202   4.234   0.553  12.746  1.3091  0.4091 -0.1593
  754MPD2    N111203   0.038   0.420  12.832  0.0143 -0.4932 -0.1649
  754MPD2    H711204   0.114   0.471  12.875 -1.0487 -0.7104  1.9910
  755MPD2     C11205   3.515   0.295  13.307  0.0588  0.4559  0.1813
  755MPD2    C111206   3.634   0.357  13.314 -0.9306  0.3203  0.5500
  755MPD2    C211207   3.716   0.367  13.200  0.1478  0.6700  0.3063
  755MPD2    C311208   3.687   0.283  13.094  0.1026  0.0364  0.7901
  755MPD2    C411209   3.559   0.226  13.085 -0.0559 -0.3715  0.2726
  755MPD2    C511210   3.471   0.239  13.188  0.2526 -0.7631  0.0201
  755MPD2     H11211   3.816   0.405  13.222  0.5991 -0.0740 -0.4725
  755MPD2    H111212   3.526   0.162  13.004  1.6123  0.4950 -1.0853
  755MPD2    H211213   3.451   0.272  13.391  0.6471 -1.4704  0.1001
  755MPD2    H311214   3.375   0.187  13.187  1.2809 -2.6534 -0.2355
  755MPD2     N11215   3.769   0.273  12.977 -0.3935 -0.1749  0.0436
  755MPD2    H511216   3.747   0.213  12.898 -0.7129  1.5982 -1.2153
  755MPD2    N111217   3.677   0.429  13.430 -0.0467  0.6717 -0.1558
  755MPD2    H711218   3.770   0.468  13.428 -0.7353  2.2748 -0.8229
  756MPD2     C11219   4.425   4.562   9.241 -0.0933  0.2890 -0.3314
  756MPD2    C111220   4.338   4.670   9.233 -0.8201  0.6780  0.6350
  756MPD2    C211221   4.203   4.647   9.214  0.0622  0.6122  0.1626
  756MPD2    C311222   4.152   4.519   9.212  0.4772  0.6337 -1.3153
  756MPD2    C411223   4.237   4.412   9.221  0.3686  0.3044  0.9703
  756MPD2    C511224   4.369   4.435   9.224 -0.0009  0.5595  0.7715
  756MPD2     H11225   4.145   0.003   9.216 -1.3437 -0.2865  0.4093
  756MPD2    H111226   4.208   4.308   9.231  2.0589 -0.6576 -3.9578
  756MPD2    H211227   4.532   4.569   9.254 -0.3500  3.1639  0.2583
  756MPD2    H311228   4.423   4.341   9.215  1.7075  1.7539 -1.5441
  756MPD2     N11229   4.010   4.509   9.205  0.7507  0.5735 -0.0076
  756MPD2    H511230   3.954   4.594   9.206  2.5016  1.7250 -0.1094
  756MPD2    N111231   4.384   0.070   9.239 -0.0416 -0.3689  0.0390
  756MPD2    H711232   4.306   0.134   9.255  1.4350  1.5360 -0.3567
  757MPD2     C11233   3.121   3.885   9.134 -0.4453 -0.1442 -0.2738
  757MPD2    C111234   3.092   3.973   9.244  0.1482 -0.2734 -1.1527
  757MPD2    C211235   3.187   4.074   9.256  0.1123  0.5956  0.2923
  757MPD2    C311236   3.300   4.082   9.170 -0.2388 -0.0220 -0.4258
  757MPD2    C411237   3.303   4.003   9.059  0.2546  0.2013  0.1553
  757MPD2    C511238   3.213   3.906   9.038 -0.2141  0.7775  0.1626
  757MPD2     H11239   3.196   4.121   9.354  0.1552 -1.4566  1.2805
  757MPD2    H111240   3.367   4.036   8.978 -0.0785 -0.8614 -0.5355
  757MPD2    H211241   3.047   3.807   9.119  0.9167 -0.7486 -3.9575
  757MPD2    H311242   3.219   3.837   8.955  3.1680  0.5499  0.5895
  757MPD2     N11243   3.394   4.179   9.199 -0.4661  0.5438 -0.0904
  757MPD2    H511244   3.370   4.234   9.281 -1.4100  1.0245 -0.6845
  757MPD2    N111245   2.984   3.950   9.326  1.0511  0.3667 -0.0712
  757MPD2    H711246   2.928   3.866   9.311  3.7515 -1.3261 -0.6756
  758MPD2     C11247   4.327   4.559  15.949 -1.3813  0.0884 -0.3688
  758MPD2    C111248   4.424   4.631  16.025 -0.6188  0.0099 -0.8796
  758MPD2    C211249   4.381   4.671  16.155  0.6258  0.8662 -0.5299
  758MPD2    C311250   4.250   4.649  16.202 -0.4503 -0.1732 -0.5088
  758MPD2    C411251   4.157   4.589  16.123 -0.5449 -0.6828 -0.7147
  758MPD2    C511252   4.196   4.546  16.000 -0.0657  0.7176 -0.8552
  758MPD2     H11253   4.449   4.733  16.212  0.8385  1.1965 -1.1411
  758MPD2    H111254   4.058   4.555  16.150  0.5065 -2.9988  0.2223
  758MPD2    H211255   4.349   4.524  15.848 -0.9567 -2.0459  0.4604
  758MPD2    H311256   4.129   4.486  15.939 -0.5293  1.2149 -0.8337
  758MPD2     N11257   4.223   4.697  16.329 -0.0767 -0.1324  0.3875
  758MPD2    H511258   4.305   0.001  16.374  0.3311 -0.9880  0.4273
  758MPD2    N111259   4.559   4.651  15.979  0.1224 -0.7668 -0.0846
  758MPD2    H711260   4.580   4.613  15.887  0.5119  0.8404 -0.6648
  759MPD2     C11261   3.382   2.415   9.964  0.2127 -0.0571  0.3986
  759MPD2    C111262   3.421   2.507  10.059  0.2529  0.7425 -0.7556
  759MPD2    C211263   3.396   2.638  10.040  0.0272 -0.0800  0.5082
  759MPD2    C311264   3.329   2.682   9.924  0.4731  0.3456 -0.2879
  759MPD2    C411265   3.298   2.594   9.822  0.7310 -0.9888  0.0702
  759MPD2    C511266   3.329   2.463   9.854  0.4763  0.1283  0.0041
  759MPD2     H11267   3.436   2.707  10.114 -1.7387  1.4665  0.0206
  759MPD2    H111268   3.265   2.625   9.724  3.6548 -1.6215 -1.1188
  759MPD2    H211269   3.397   2.308   9.977 -0.6222 -0.1803  0.3134
  759MPD2    H311270   3.303   2.389   9.779 -1.2821 -2.3734  3.0748
  759MPD2     N11271   3.309   2.818   9.900 -0.5688 -0.0852  0.3786
  759MPD2    H511272   3.351   2.885   9.965  1.5892 -0.7559 -0.3271
  759MPD2    N111273   3.479   2.465  10.181 -0.0475  0.2144  0.3481
  759MPD2    H711274   3.513   2.539  10.242  1.2444  0.3575 -0.5405
  760MPD2     C11275   2.471   0.816  12.376 -0.1197  0.3670  0.3736
  760MPD2    C111276   2.588   0.845  12.304 -0.2142  0.2604 -0.2459
  760MPD2    C211277   2.694   0.759  12.309 -0.6544 -1.1043 -0.6371
  760MPD2    C311278   2.689   0.640  12.376  0.3147  0.1513 -0.2000
  760MPD2    C411279   2.574   0.607  12.442 -0.3353  0.2500  0.4467
  760MPD2    C511280   2.465   0.695  12.438 -0.3743 -0.4711  0.0600
  760MPD2     H11281   2.779   0.788  12.248 -0.5674  0.1484  0.0804
  760MPD2    H111282   2.563   0.515  12.499  1.3471 -0.4152 -0.2861
  760MPD2    H211283   2.380   0.874  12.371 -1.0891 -1.4151 -2.5981
  760MPD2    H311284   2.372   0.668  12.488 -0.8866  1.0529 -0.0836
  760MPD2     N11285   2.794   0.544  12.361  0.2458  0.1589 -0.0761
  760MPD2    H511286   2.766   0.449  12.385 -2.5632  0.6996 -1.1411
  760MPD2    N111287   2.615   0.953  12.222  0.2311 -0.2235  0.2844
  760MPD2    H711288   2.704   0.962  12.175 -2.0696 -1.9821 -4.4140
  761MPD2     C11289   3.830   4.009  10.603 -0.1208  0.3148 -0.2833
  761MPD2    C111290   3.889   3.933  10.508 -1.3136  0.9478  0.1562
  761MPD2    C211291   3.998   3.994  10.445  0.4296 -0.8453  0.1725
  761MPD2    C311292   4.019   4.130  10.455 -0.3461  0.8503  0.9191
  761MPD2    C411293   3.925   4.202  10.526  0.2430 -0.5348 -0.0055
  761MPD2    C511294   3.837   4.139  10.609 -0.9001  0.5446  0.3939
  761MPD2     H11295   4.078   3.934  10.401  0.0613 -0.7875 -0.5859
  761MPD2    H111296   3.939   4.309  10.539 -1.1339 -0.2614 -0.7150
  761MPD2    H211297   3.760   3.969  10.675  0.0671  0.1288 -0.2038
  761MPD2    H311298   3.786   4.192  10.689  0.0220  1.7252  0.2142
  761MPD2     N11299   4.131   4.194  10.396 -0.0897  0.3392 -0.1786
  761MPD2    H511300   4.150   4.291  10.422 -2.0333  1.0458 -1.3819
  761MPD2    N111301   3.857   3.790  10.492 -0.2498  0.0879  0.1357
  761MPD2    H711302   3.808   3.750  10.571  1.8661 -1.1206  0.8044
  762MPD2     C11303   4.400   3.959  10.616  0.2424  0.3914 -0.0373
  762MPD2    C111304   4.406   3.845  10.536 -0.4219 -0.2532 -0.0883
  762MPD2    C211305   4.505   3.842  10.435  0.2450 -0.3678 -0.2065
  762MPD2    C311306   4.599   3.933  10.419  0.1862  0.3889 -0.4791
  762MPD2    C411307   4.601   4.042  10.503  0.5741 -0.1533 -0.2932
  762MPD2    C511308   4.498   4.050  10.591  0.1438  1.0260  0.2169
  762MPD2     H11309   4.506   3.759  10.366 -1.1675 -0.7242  0.1954
  762MPD2    H111310   4.668   4.128  10.501  2.2564 -1.4629 -0.1497
  762MPD2    H211311   4.320   3.978  10.686 -0.3127  0.3410 -0.6551
  762MPD2    H311312   4.500   4.141  10.649 -1.4470  0.4671  1.1394
  762MPD2     N11313   4.705   3.907  10.325 -0.0561  0.0947 -1.3537
  762MPD2    H511314   4.710   3.832  10.256 -1.9563 -0.8428 -0.4594
  762MPD2    N111315   4.308   3.741  10.550  0.1603 -0.1627 -0.6225
  762MPD2    H711316   4.235   3.752  10.620  1.0727  1.0849  0.1520
  763MPD2     C11317   2.050   0.043  15.915  0.1623  0.0425  0.4020
  763MPD2    C111318   1.945   0.068  15.998 -0.1209 -0.2370  0.1852
  763MPD2    C211319   1.952   0.194  16.065 -0.3992 -0.4711 -0.2874
  763MPD2    C311320   2.061   0.285  16.056 -0.2378 -0.2705 -0.5840
  763MPD2    C411321   2.154   0.254  15.961  0.6209  0.7097 -0.6392
  763MPD2    C511322   2.158   0.128  15.898 -0.5504 -1.3131 -0.1877
  763MPD2     H11323   1.870   0.225  16.129  0.0425  0.6252 -0.2464
  763MPD2    H111324   2.241   0.319  15.951  0.6224  0.2972 -3.2137
  763MPD2    H211325   2.055   4.693  15.849  1.1613  0.0738  0.4356
  763MPD2    H311326   2.222   0.112  15.811  1.5397  1.0305  0.9292
  763MPD2     N11327   2.090   0.405  16.122  0.7989 -0.1902 -0.2100
  763MPD2    H511328   2.174   0.456  16.099 -1.1035  4.0975  2.4403
  763MPD2    N111329   1.832   4.723  15.986  0.0354  0.3396  0.2567
  763MPD2    H711330   1.743   0.030  16.007 -0.0598  0.5162 -0.5146
  764MPD2     C11331   0.471   1.566   0.357 -0.8343  0.4395 -0.3818
  764MPD2    C111332   0.358   1.528   0.285  0.4981 -0.3860  0.1730
  764MPD2    C211333   0.274   1.442   0.346  0.3298  0.1892  0.8948
  764MPD2    C311334   0.300   1.377   0.463 -0.7748  0.1338  0.5457
  764MPD2    C411335   0.407   1.414   0.532 -0.0839  0.3968  0.4005
  764MPD2    C511336   0.494   1.512   0.479  0.2079  0.0767 -0.3699
  764MPD2     H11337   0.184   1.410   0.294  1.8241 -3.7003  0.6379
  764MPD2    H111338   0.433   1.374   0.629 -3.1265 -0.2110  0.9839
  764MPD2    H211339   0.546   1.639   0.327 -2.4322  2.3207  0.1930
  764MPD2    H311340   0.570   1.549   0.546 -0.9544  1.6541  0.0597
  764MPD2     N11341   0.213   1.271   0.510  0.4481  0.3725  0.0399
  764MPD2    H511342   0.133   1.245   0.453 -0.7165  0.1540  1.7574
  764MPD2    N111343   0.318   1.579   0.159  0.1657  0.3775  0.3460
  764MPD2    H711344   0.227   1.552   0.123  0.1749  0.3454  0.3471
  765MPD2     C11345   4.204   3.997  15.374  0.0454 -0.1453  0.3072
  765MPD2    C111346   4.224   4.061  15.494 -0.1225 -0.1717  0.1325
  765MPD2    C211347   4.343   4.032  15.567 -0.2102 -0.2973  0.3909
  765MPD2    C311348   4.432   3.940  15.517  0.4953 -0.4669  0.0949
  765MPD2    C411349   4.410   3.870  15.398 -0.1241  0.8535 -0.6697
  765MPD2    C511350   4.289   3.892  15.332  0.0714  0.0829  0.4401
  765MPD2     H11351   4.365   4.082  15.661  2.3604 -0.3103 -0.2192
  765MPD2    H111352   4.487   3.812  15.349  1.0500  1.6208  0.2561
  765MPD2    H211353   4.111   4.018  15.322  0.6784  1.0054 -0.3808
  765MPD2    H311354   4.254   3.832  15.248 -0.5785  1.2187 -0.1011
  765MPD2     N11355   4.532   3.901  15.605  0.5656  0.0860 -0.8155
  765MPD2    H511356   4.539   3.956  15.690  2.4184  0.8894 -1.4884
  765MPD2    N111357   4.125   4.153  15.527 -0.6910  0.0152  0.0532
  765MPD2    H711358   4.049   4.168  15.461 -1.1005  0.1465  0.5520
  766MPD2     C11359   3.669   4.056  15.263  0.2418  0.5571  0.2439
  766MPD2    C111360   3.736   4.173  15.246 -0.0146 -0.2378 -0.7897
  766MPD2    C211361   3.775   4.206  15.116  0.3135 -0.1869  0.3872
  766MPD2    C311362   3.772   4.116  15.013  0.5446  0.1811 -0.1873
  766MPD2    C411363   3.701   3.997  15.032  0.5443 -0.7677  0.9598
  766MPD2    C511364   3.651   3.973  15.155 -0.7932  0.2069  0.3076
  766MPD2     H11365   3.819   4.304  15.102 -0.3153  0.4182  2.7521
  766MPD2    H111366   3.689   3.919  14.957  1.0856  1.0383 -0.9927
  766MPD2    H211367   3.625   4.036  15.360  1.4987  1.0533  0.9194
  766MPD2    H311368   3.611   3.873  15.169  2.2063 -1.1003 -0.4219
  766MPD2     N11369   3.864   4.120  14.905 -0.1144  0.9378 -0.2419
  766MPD2    H511370   3.849   4.056  14.828 -0.2862  0.7481 -0.0485
  766MPD2    N111371   3.741   4.260  15.357 -0.3330  0.1636  0.1170
  766MPD2    H711372   3.704   4.219  15.443 -2.2350  2.7113  0.5049
  767MPD2     C11373   3.586   4.415  14.999  0.0829  0.9049 -0.2968
  767MPD2    C111374   3.667   4.485  14.915  0.5706 -0.0053  0.2216
  767MPD2    C211375   3.668   4.447  14.781  0.4953 -0.3151 -0.1350
  767MPD2    C311376   3.595   4.344  14.741  0.4344 -0.2404  0.2248
  767MPD2    C411377   3.508   4.278  14.822  0.2748 -0.3485  0.4025
  767MPD2    C511378   3.505   4.313  14.956 -0.8439 -0.0924 -0.7426
  767MPD2     H11379   3.735   4.503  14.716 -0.8195  1.1153 -0.2549
  767MPD2    H111380   3.436   4.202  14.793 -0.0401 -0.5699  1.7403
  767MPD2    H211381   3.575   4.432  15.106  3.2764  1.4153 -0.0287
  767MPD2    H311382   3.438   4.268  15.028  0.2679  1.2792  1.1751
  767MPD2     N11383   3.616   4.301  14.612  0.0542 -0.5453 -0.4172
  767MPD2    H511384   3.671   4.363  14.553  0.8714 -0.1208  0.8029
  767MPD2    N111385   3.733   4.596  14.974 -0.4372  0.8614  0.7713
  767MPD2    H711386   3.746   4.591  15.075 -1.9293  0.3354  0.9271
  768MPD2     C11387   4.511   2.698  10.512  0.1304  0.2170 -0.0403
  768MPD2    C111388   4.447   2.622  10.608  0.3067 -0.3145  0.3656
  768MPD2    C211389   4.522   2.545  10.686 -0.5076  0.3597 -0.4296
  768MPD2    C311390   4.660   2.519  10.665 -0.1966 -0.6302  1.0326
  768MPD2    C411391   4.719   2.592  10.561  0.1029 -0.5547 -0.0622
  768MPD2    C511392   4.641   2.680  10.490  0.4806 -0.3937 -0.3789
  768MPD2     H11393   4.466   2.491  10.761  0.4646  0.5612  0.4425
  768MPD2    H111394   0.089   2.588  10.543 -0.2443 -0.8017 -2.0709
  768MPD2    H211395   4.454   2.765  10.448 -2.7377  1.4168  3.7015
  768MPD2    H311396   4.690   2.730  10.407  1.1705 -0.3151  0.0718
  768MPD2     N11397   0.003   2.427  10.734 -0.1142 -0.2569 -0.1423
  768MPD2    H511398   0.103   2.431  10.718  0.2202 -2.3329  1.4775
  768MPD2    N111399   4.309   2.639  10.640 -0.5096 -0.2323 -0.1854
  768MPD2    H711400   4.276   2.576  10.713 -0.9985  0.7943  0.4773
  769MPD2     C11401   0.929   1.248  14.641 -0.7100  0.9091  0.2118
  769MPD2    C111402   0.849   1.177  14.723 -0.6195 -0.7022 -0.4807
  769MPD2    C211403   0.885   1.163  14.853  0.5213 -0.6817 -0.0201
  769MPD2    C311404   1.006   1.213  14.901  0.3601  0.0599 -0.5595
  769MPD2    C411405   1.091   1.287  14.812  0.5614  0.3469  0.3295
  769MPD2    C511406   1.042   1.300  14.691  0.4840 -0.8047  0.8020
  769MPD2     H11407   0.818   1.112  14.921 -0.0962  0.1783  0.0063
  769MPD2    H111408   1.179   1.343  14.840  0.3753 -0.0520  1.7310
  769MPD2    H211409   0.895   1.273  14.541  0.5543 -0.3462 -0.5294
  769MPD2    H311410   1.093   1.362  14.619 -1.9633 -1.0982 -1.1908
  769MPD2     N11411   1.026   1.207  15.037  0.1717  0.9923  0.5072
  769MPD2    H511412   0.947   1.177  15.094  0.7762 -1.5735 -0.0343
  769MPD2    N111413   0.723   1.133  14.665 -0.0322  0.1767  0.5377
  769MPD2    H711414   0.715   1.155  14.566  1.2935 -1.7605 -0.0099
  770MPD2     C11415   4.704   0.456  14.703  0.1450 -0.0362  0.3595
  770MPD2    C111416   0.092   0.477  14.748  0.5717 -0.1438  0.3561
  770MPD2    C211417   0.153   0.603  14.735 -0.4031  0.1178  0.0818
  770MPD2    C311418   0.090   0.697  14.661 -0.2690  0.4832  0.4224
  770MPD2    C411419   4.706   0.669  14.604 -0.3223 -0.6735  0.6814
  770MPD2    C511420   4.647   0.551  14.623 -0.0630 -1.1607 -0.2854
  770MPD2     H11421   0.236   0.623  14.801  0.1407  2.7420 -1.4067
  770MPD2    H111422   4.662   0.746  14.542  2.4596 -0.9724 -1.6081
  770MPD2    H211423   4.654   0.360  14.714 -1.4726  0.7494 -0.0950
  770MPD2    H311424   4.552   0.518  14.581  0.1362 -1.9398 -0.1309
  770MPD2     N11425   0.126   0.830  14.653 -0.0720 -0.6562 -1.0079
  770MPD2    H511426   0.063   0.892  14.602 -3.0089 -2.0103  1.0041
  770MPD2    N111427   0.151   0.362  14.804 -0.2294  0.2420  0.0633
  770MPD2    H711428   0.089   0.283  14.814 -0.9067  0.5678 -1.4560
  771MPD2     C11429   1.850   4.197  13.438 -0.4733  0.3282  0.3893
  771MPD2    C111430   1.717   4.219  13.458 -0.9952  0.3192  0.0581
  771MPD2    C211431   1.624   4.118  13.456 -0.0387  0.1077  0.0062
  771MPD2    C311432   1.673   3.987  13.426  0.2170 -0.4123 -0.8207
  771MPD2    C411433   1.806   3.970  13.393  0.2395 -0.0063  0.8308
  771MPD2    C511434   1.893   4.073  13.405  0.2112 -0.3633 -0.0827
  771MPD2     H11435   1.518   4.131  13.474  0.1932  1.9768  0.0785
  771MPD2    H111436   1.851   3.876  13.366 -1.2855 -1.1796  2.3123
  771MPD2    H211437   1.915   4.284  13.435  0.2937 -0.1916  2.1401
  771MPD2    H311438   2.000   4.058  13.401  0.1839 -0.4360 -0.6113
  771MPD2     N11439   1.578   3.877  13.419  0.0172  0.6549 -0.1790
  771MPD2    H511440   1.478   3.889  13.422  0.2145  1.7837  1.5210
  771MPD2    N111441   1.684   4.351  13.496 -0.5068  0.9398 -0.1511
  771MPD2    H711442   1.761   4.418  13.499  0.5195 -0.1826 -1.6467
  772MPD2     C11443   1.123   0.201  13.839  0.3090  0.5229 -0.5745
  772MPD2    C111444   1.140   0.066  13.800  0.0352  0.1952 -0.0536
  772MPD2    C211445   1.034   4.715  13.828  0.0843 -0.6610 -0.1444
  772MPD2    C311446   0.919   0.031  13.880  0.1559 -0.1877 -0.7976
  772MPD2    C411447   0.906   0.159  13.925  0.2061  0.0753  0.1911
  772MPD2    C511448   1.005   0.244  13.898 -0.4045 -0.0463 -0.3139
  772MPD2     H11449   1.031   4.609  13.807  1.7354 -0.8993  0.7728
  772MPD2    H111450   0.818   0.203  13.971  0.2571  0.0689  0.2960
  772MPD2    H211451   1.204   0.269  13.815  1.1532  0.2028  1.3532
  772MPD2    H311452   0.998   0.350  13.923  0.0059 -0.4089  1.3514
  772MPD2     N11453   0.806   4.688  13.903  0.7347 -0.6445 -0.1942
  772MPD2    H511454   0.727   0.005  13.938 -0.0510 -0.4752 -2.2231
  772MPD2    N111455   1.257   0.011  13.744  0.0182 -0.1497 -0.9977
  772MPD2    H711456   1.260   4.646  13.746 -1.1696 -0.1940 -1.3317
  773MPD2     C11457   4.670   4.172   0.378 -0.7668  0.2495 -0.1789
  773MPD2    C111458   4.671   4.173   0.244  0.2231  0.3770  0.0450
  773MPD2    C211459   4.734   4.062   0.190 -0.1504  0.1901 -0.1856
  773MPD2    C311460   0.069   3.967   0.263 -0.2130 -0.5944 -0.3199
  773MPD2    C411461   0.067   3.974   0.401 -1.1890 -0.2746  0.9769
  773MPD2    C511462   4.734   4.079   0.453  0.0570 -0.4351 -0.5108
  773MPD2     H11463   0.003   4.070   0.082  2.6646 -2.5212 -0.2389
  773MPD2    H111464   0.122   3.908   0.466  0.9423 -1.9881 -2.5621
  773MPD2    H211465   4.614   4.243   0.437  2.1610  1.1373  1.5271
  773MPD2    H311466   4.720   4.088   0.560  0.3830 -2.5402 -0.2841
  773MPD2     N11467   0.148   3.862   0.198  0.2755 -0.8956  0.6027
  773MPD2    H511468   0.132   3.849   0.098 -1.2077  2.0556  0.4675
  773MPD2    N111469   4.600   4.274   0.164 -0.4447 -0.3445 -0.4698
  773MPD2    H711470   4.607   4.267   0.063 -3.0973 -1.8172 -0.5432
  774MPD2     C11471   0.138   4.330  13.419 -0.0525 -0.0926  0.5136
  774MPD2    C111472   0.021   4.385  13.380  0.7703  0.4991  0.4152
  774MPD2    C211473   0.024   4.492  13.293 -0.2590  0.6006 -0.0904
  774MPD2    C311474   0.142   4.542  13.240  0.2666 -0.3644  0.0868
  774MPD2    C411475   0.255   4.470  13.275 -1.5447  0.6283  0.5974
  774MPD2    C511476   0.256   4.378  13.366  0.2523  0.3446  0.5720
  774MPD2     H11477   4.668   4.543  13.267 -0.0919 -0.0369 -1.8741
  774MPD2    H111478   0.357   4.505  13.263 -0.8120 -1.2753  1.3251
  774MPD2    H211479   0.143   4.256  13.498  1.4904 -0.1769  0.3205
  774MPD2    H311480   0.355   4.350  13.402  0.4004 -0.5571 -0.5479
  774MPD2     N11481   0.147   4.647  13.148 -0.1561  0.1380  0.2552
  774MPD2    H511482   0.057   4.672  13.108  0.9127  2.1137 -0.8875
  774MPD2    N111483   4.648   4.329  13.444  0.3345 -0.4319 -0.9106
  774MPD2    H711484   4.668   4.265  13.520 -1.2127 -0.7243 -0.7492
  775MPD2     C11485   1.027   0.836  15.694 -0.0843  0.0428 -0.1700
  775MPD2    C111486   1.045   0.968  15.742 -0.1910 -0.1261  0.3986
  775MPD2    C211487   1.144   1.045  15.692 -0.2957  0.6444 -0.4336
  775MPD2    C311488   1.230   0.992  15.603 -0.1297  0.6622  0.1420
  775MPD2    C411489   1.213   0.860  15.557  0.1523  0.2705 -0.0481
  775MPD2    C511490   1.109   0.792  15.596  0.4993 -0.5928 -0.0017
  775MPD2     H11491   1.143   1.148  15.728 -3.7953 -0.0964  1.6042
  775MPD2    H111492   1.277   0.811  15.485 -2.0228 -1.1887 -0.9759
  775MPD2    H211493   0.949   0.775  15.737  0.0590  0.1106  0.1871
  775MPD2    H311494   1.105   0.689  15.560 -0.0367  0.4427 -2.8485
  775MPD2     N11495   1.342   1.062  15.557 -0.0868 -0.1088  0.0884
  775MPD2    H511496   1.394   1.019  15.481 -0.4009 -0.0463 -0.1632
  775MPD2    N111497   0.933   1.009  15.825  0.0662 -0.0197 -0.0906
  775MPD2    H711498   0.859   0.939  15.833 -1.2839  1.3392 -0.5489
  776MPD2     C11499   4.653   0.935  10.466  0.1482  0.5218  0.3074
  776MPD2    C111500   4.649   0.844  10.572  0.2437 -0.3425 -0.9616
  776MPD2    C211501   0.023   0.821  10.654  0.8338  0.0276  0.3377
  776MPD2    C311502   0.142   0.889  10.616  0.5060 -0.0154  0.0069
  776MPD2    C411503   0.138   0.981  10.510  0.2759  0.2743  0.1104
  776MPD2    C511504   0.026   1.012  10.439 -0.7982  0.3473  0.2840
  776MPD2     H11505   0.023   0.752  10.738  1.0307  1.4367  1.4935
  776MPD2    H111506   0.232   1.030  10.485 -0.5873  1.2724 -1.2110
  776MPD2    H211507   4.565   0.962  10.409  0.9541  3.3944  0.4228
  776MPD2    H311508   0.028   1.086  10.360 -0.4237 -1.5634 -1.4947
  776MPD2     N11509   0.266   0.876  10.687 -0.0930 -0.0237 -0.2636
  776MPD2    H511510   0.333   0.948  10.663 -1.2385  1.0258 -0.2731
  776MPD2    N111511   4.528   0.777  10.598  0.0021 -0.9861 -0.0604
  776MPD2    H711512   4.459   0.766  10.524  0.9571  3.3951 -1.6175
  777MPD2     C11513   0.766   3.042   0.641  0.4841  0.7914  0.2483
  777MPD2    C111514   0.689   3.115   0.728 -0.0794  0.6684 -0.3081
  777MPD2    C211515   0.555   3.127   0.691 -0.5730 -0.3867  0.4073
  777MPD2    C311516   0.496   3.054   0.592  0.2448 -0.1114 -0.1087
  777MPD2    C411517   0.582   2.977   0.512 -0.2939 -0.6321 -0.0236
  777MPD2    C511518   0.719   2.980   0.531  0.2711  0.2824  0.5898
  777MPD2     H11519   0.491   3.191   0.751  1.4543 -0.2363  2.3944
  777MPD2    H111520   0.543   2.919   0.429  0.8439  2.1848 -2.5159
  777MPD2    H211521   0.874   3.035   0.646  0.3224 -0.3018  2.4362
  777MPD2    H311522   0.786   2.933   0.460 -0.2230  0.5381 -0.0450
  777MPD2     N11523   0.357   3.075   0.560  0.4136 -0.1422 -0.3903
  777MPD2    H511524   0.311   3.147   0.615 -0.0692 -0.1485 -0.7884
  777MPD2    N111525   0.748   3.182   0.835  0.3998 -0.0449 -0.6572
  777MPD2    H711526   0.846   3.162   0.852 -0.7581 -3.5006  1.7186
  778MPD2     C11527   1.752   4.311  14.612  0.3097  0.3065  0.5412
  778MPD2    C111528   1.792   4.204  14.547 -0.0289 -0.4029  0.2339
  778MPD2    C211529   1.913   4.209  14.478  0.4879 -0.5039  0.3894
  778MPD2    C311530   1.996   4.324  14.480 -0.9435 -0.1240 -0.6912
  778MPD2    C411531   1.950   4.433  14.549 -0.2687 -0.1925 -0.2151
  778MPD2    C511532   1.826   4.425  14.608  0.0559  0.0131  0.3498
  778MPD2     H11533   1.943   4.117  14.430 -0.3063  1.2597 -3.5359
  778MPD2    H111534   2.009   4.523  14.551 -0.1011 -0.2925 -0.5087
  778MPD2    H211535   1.666   4.324  14.677 -2.1195 -2.9001 -2.0507
  778MPD2    H311536   1.789   4.504  14.672 -0.0977 -0.0138  0.2931
  778MPD2     N11537   2.122   4.320  14.415  0.2983  0.5810 -0.2845
  778MPD2    H511538   2.154   4.225  14.398 -2.3376 -0.4909  0.6530
  778MPD2    N111539   1.724   4.079  14.558 -0.3312  0.3208  0.0950
  778MPD2    H711540   1.746   3.996  14.504  1.1371  0.7582  0.0359
  779MPD2     C11541   1.274   2.643  13.863 -0.6292 -0.3581 -0.1238
  779MPD2    C111542   1.404   2.616  13.893 -0.2990  0.7346 -0.1220
  779MPD2    C211543   1.497   2.712  13.917 -0.2210 -0.0754  0.0531
  779MPD2    C311544   1.468   2.846  13.903 -0.1585 -0.0625 -0.2932
  779MPD2    C411545   1.335   2.876  13.886  0.2035 -0.3253  0.5489
  779MPD2    C511546   1.242   2.775  13.857 -0.8400 -0.3833 -0.3643
  779MPD2     H11547   1.599   2.685  13.942 -0.1817 -2.6607 -2.9958
  779MPD2    H111548   1.300   2.977  13.872 -0.5112 -0.7983 -1.0358
  779MPD2    H211549   1.202   2.563  13.848 -0.6914 -0.6487  1.8154
  779MPD2    H311550   1.139   2.797  13.832 -0.5548  1.5919  0.1929
  779MPD2     N11551   1.570   2.946  13.896 -0.3980 -0.3230  0.0222
  779MPD2    H511552   1.666   2.915  13.908 -0.3080  0.0107  0.1679
  779MPD2    N111553   1.457   2.486  13.904 -0.5822 -0.0477 -0.3315
  779MPD2    H711554   1.554   2.476  13.933 -0.3549  1.8256 -0.4609
  780MPD2     C11555   1.191   1.958   0.330 -0.0540 -0.5025  0.1404
  780MPD2    C111556   1.084   1.921   0.246 -0.3594 -0.8083  0.2610
  780MPD2    C211557   1.010   2.025   0.184 -0.0755 -0.5012  0.6066
  780MPD2    C311558   1.038   2.157   0.198 -0.6775  0.3336 -0.5156
  780MPD2    C411559   1.147   2.190   0.275 -0.5967 -0.5041 -0.1171
  780MPD2    C511560   1.216   2.094   0.338 -0.2316  0.2240  0.4950
  780MPD2     H11561   0.913   1.999   0.142 -0.3485  0.7399  0.4823
  780MPD2    H111562   1.181   2.291   0.292 -1.4190 -0.7281  2.7850
  780MPD2    H211563   1.260   1.884   0.368  1.3991  1.3366  1.0849
  780MPD2    H311564   1.306   2.131   0.385  0.1364 -0.7672  0.5690
  780MPD2     N11565   0.966   2.255   0.126  0.6722 -0.4607 -0.6521
  780MPD2    H511566   0.893   2.221   0.064  2.3368  0.6411 -3.2369
  780MPD2    N111567   1.036   1.792   0.267 -0.0449  0.7501 -0.1565
  780MPD2    H711568   1.086   1.731   0.331 -1.5897  0.4691  0.7745
  781MPD2     C11569   2.988   4.094  12.162  0.0681  0.2102 -0.0172
  781MPD2    C111570   2.953   3.964  12.140 -0.3165 -0.1348 -0.2086
  781MPD2    C211571   2.907   3.929  12.020  0.4306  0.2554  0.1462
  781MPD2    C311572   2.882   4.023  11.924  0.1190  0.6037  1.0496
  781MPD2    C411573   2.905   4.155  11.944 -0.0840  0.7970  0.4824
  781MPD2    C511574   2.966   4.192  12.062  0.2348 -0.5075  0.3781
  781MPD2     H11575   2.890   3.824  11.995 -2.7066  0.3812  1.7266
  781MPD2    H111576   2.872   4.223  11.867 -0.6255 -1.0633 -0.9261
  781MPD2    H211577   3.026   4.123  12.259  1.4807 -0.0190 -0.4999
  781MPD2    H311578   2.980   4.298  12.081  2.0624 -0.8492  0.9833
  781MPD2     N11579   2.837   3.999  11.793 -0.7375  0.0379 -0.0466
  781MPD2    H511580   2.808   4.082  11.742 -2.8035  0.4500  1.8346
  781MPD2    N111581   2.962   3.857  12.238  0.2647 -0.0484  0.2123
  781MPD2    H711582   2.951   3.758  12.216  1.2842 -0.0483 -0.2508
  782MPD2     C11583   0.187   4.634   9.941  0.0362  0.2995  0.1500
  782MPD2    C111584   0.311   4.635   9.889 -0.1580 -0.0358 -0.6201
  782MPD2    C211585   0.411   4.716   9.944 -0.3652  0.5482 -0.1710
  782MPD2    C311586   0.379   0.058  10.050  0.2365 -0.2328 -0.2983
  782MPD2    C411587   0.258   0.044  10.113 -0.1902 -0.2955  0.1271
  782MPD2    C511588   0.160   4.703  10.054  0.1237  0.3385 -0.9516
  782MPD2     H11589   0.508   4.721   9.896 -0.8231 -0.2061 -1.1640
  782MPD2    H111590   0.230   0.089  10.208 -0.7156  0.6719 -0.4839
  782MPD2    H211591   0.105   4.573   9.904 -0.0333 -0.2047  1.1285
  782MPD2    H311592   0.070   4.688  10.113  0.1376  2.5753 -0.3558
  782MPD2     N11593   0.484   0.136  10.099  0.3990 -0.0392  0.3122
  782MPD2    H511594   0.577   0.105  10.072  1.1613  2.1821  0.3656
  782MPD2    N111595   0.332   4.547   9.780  0.2589  0.3248  0.7115
  782MPD2    H711596   0.269   4.468   9.775  0.0043  0.6165 -0.9517
  783MPD2     C11597   4.691   3.911   9.939 -0.0681 -0.2328  0.5637
  783MPD2    C111598   4.678   4.045   9.923  0.1802  0.0149 -0.4961
  783MPD2    C211599   0.027   4.106   9.832 -0.2498 -0.1179 -0.0712
  783MPD2    C311600   0.128   4.043   9.768 -0.1995 -0.7999  0.0995
  783MPD2    C411601   0.139   3.904   9.774  0.1414 -0.9497  0.8185
  783MPD2    C511602   0.047   3.845   9.863 -0.9010  0.0494  0.5937
  783MPD2     H11603   0.027   4.211   9.808 -1.9032 -0.2146 -0.5013
  783MPD2    H111604   0.213   3.842   9.725  0.0763  0.7970 -1.5074
  783MPD2    H211605   4.637   3.853  10.012 -3.1197  0.9116 -0.8080
  783MPD2    H311606   0.038   3.737   9.864  0.4513 -0.0660 -1.9888
  783MPD2     N11607   0.220   4.126   9.706 -0.7937 -0.6093  0.4489
  783MPD2    H511608   0.198   4.225   9.706  3.5061  0.3184  1.3897
  783MPD2    N111609   4.596   4.117  10.014  0.7823  0.3810 -0.0064
  783MPD2    H711610   4.517   4.068  10.053  0.3081 -0.5838 -2.1838
  784MPD2     C11611   2.691   0.623   1.006 -0.1639  0.8215 -0.2925
  784MPD2    C111612   2.744   0.749   0.980 -0.3391 -0.9522 -0.2706
  784MPD2    C211613   2.660   0.851   0.937 -0.1465 -0.5325 -0.0319
  784MPD2    C311614   2.528   0.826   0.912 -0.7609  0.3674  0.4089
  784MPD2    C411615   2.475   0.698   0.939  0.0442 -0.0054 -0.0183
  784MPD2    C511616   2.556   0.599   0.990  0.4685  0.3874  0.2697
  784MPD2     H11617   2.687   0.955   0.944  2.2988 -1.1279 -0.5795
  784MPD2    H111618   2.373   0.662   0.924  0.0714  0.1243 -0.5192
  784MPD2    H211619   2.752   0.547   1.054 -0.6806  0.4864 -0.1673
  784MPD2    H311620   2.521   0.498   1.009 -2.9757  1.7767  1.3977
  784MPD2     N11621   2.450   0.927   0.860  0.3812 -0.6221 -0.0462
  784MPD2    H511622   2.486   1.022   0.858 -1.1082 -0.1084 -1.4030
  784MPD2    N111623   2.879   0.788   1.021  0.2640 -0.2777 -0.9937
  784MPD2    H711624   2.902   0.887   1.015  1.3492 -0.3661  2.2279
  785MPD2     C11625   2.290   2.938  11.029 -0.5064  0.1742  0.2647
  785MPD2    C111626   2.262   3.038  11.122 -0.2511  0.6785 -0.1152
  785MPD2    C211627   2.145   3.051  11.186  0.5821 -0.0180  0.0219
  785MPD2    C311628   2.050   2.956  11.170 -0.3851  0.1115  0.3527
  785MPD2    C411629   2.086   2.842  11.094  0.7966 -0.1850  1.0555
  785MPD2    C511630   2.204   2.832  11.021 -0.8672  0.4206 -0.8819
  785MPD2     H11631   2.117   3.141  11.239 -1.6664 -0.6923  0.0087
  785MPD2    H111632   2.026   2.752  11.097 -2.1614  1.7253  0.2211
  785MPD2    H211633   2.382   2.935  10.971 -0.8536  1.4511 -0.3438
  785MPD2    H311634   2.244   2.753  10.958  0.1169 -0.0306  0.3067
  785MPD2     N11635   1.929   2.965  11.231  0.1936  0.2154 -0.5375
  785MPD2    H511636   1.924   3.045  11.292  0.3922  1.0972 -1.6802
  785MPD2    N111637   2.363   3.131  11.123  0.6651 -0.0306  0.3467
  785MPD2    H711638   2.451   3.106  11.078 -0.5724 -0.8984 -1.5907
  786MPD2     C11639   1.675   1.843  14.458  0.1277 -0.3088  0.6330
  786MPD2    C111640   1.782   1.761  14.468 -0.3392 -0.3875 -0.3857
  786MPD2    C211641   1.877   1.771  14.566  0.5444  0.3006 -0.5334
  786MPD2    C311642   1.854   1.871  14.666 -0.2811 -0.4646  0.8074
  786MPD2    C411643   1.744   1.946  14.658  0.1397 -0.3424 -0.9935
  786MPD2    C511644   1.655   1.933  14.558  0.4351 -0.4055 -0.1229
  786MPD2     H11645   1.976   1.732  14.545  0.7021  0.7598 -0.6421
  786MPD2    H111646   1.733   2.032  14.723  0.7530  0.8350 -2.4560
  786MPD2    H211647   1.590   1.822  14.393  0.2487 -1.4973  0.8537
  786MPD2    H311648   1.569   1.998  14.563  0.7866  0.0040  0.7114
  786MPD2     N11649   1.933   1.897  14.781  0.1782  0.3830  0.0844
  786MPD2    H511650   1.911   1.982  14.833 -0.4949  0.6770 -0.6758
  786MPD2    N111651   1.799   1.665  14.361 -0.4432 -0.0538 -0.1065
  786MPD2    H711652   1.879   1.606  14.382 -0.5805 -0.6449 -1.2325
  787MPD2     C11653   1.559   0.876  14.231  0.3464  0.3044 -0.0110
  787MPD2    C111654   1.625   0.984  14.278 -0.5132  0.4882 -0.1684
  787MPD2    C211655   1.684   0.980  14.404  0.6813 -0.3592 -0.4714
  787MPD2    C311656   1.674   0.874  14.486  0.6029  0.2522 -0.0888
  787MPD2    C411657   1.594   0.769  14.450  0.2089  0.0880  0.3515
  787MPD2    C511658   1.543   0.770  14.322 -0.0802 -0.3778 -0.2052
  787MPD2     H11659   1.743   1.062  14.441  2.3847 -1.3270 -1.0326
  787MPD2    H111660   1.582   0.684  14.517  2.0761 -0.4346  0.0229
  787MPD2    H211661   1.526   0.862  14.128  0.1461 -0.7056  0.1900
  787MPD2    H311662   1.517   0.674  14.279 -1.2176 -0.5460  0.8551
  787MPD2     N11663   1.736   0.883  14.613 -0.0011 -0.3926  0.0466
  787MPD2    H511664   1.789   0.969  14.623 -1.3567  0.3198  1.1975
  787MPD2    N111665   1.615   1.100  14.200 -0.1245 -0.0912 -0.1999
  787MPD2    H711666   1.608   1.084  14.100  1.8925 -0.4574 -0.2799
  788MPD2     C11667   3.120   0.127   1.410  0.5410 -0.6522  0.0911
  788MPD2    C111668   3.188   0.040   1.324  0.0805 -0.5935  0.4340
  788MPD2    C211669   3.277   0.097   1.230  0.1679 -0.1368  0.6153
  788MPD2    C311670   3.301   0.235   1.231  0.1864 -0.2651  0.3817
  788MPD2    C411671   3.229   0.312   1.318  0.6643 -0.4811  0.3316
  788MPD2    C511672   3.143   0.257   1.403  0.0037 -0.0007 -0.3077
  788MPD2     H11673   3.323   0.039   1.151  0.3682  1.8075 -0.7068
  788MPD2    H111674   3.242   0.420   1.319  0.9077 -0.5077 -0.5161
  788MPD2    H211675   3.046   0.087   1.478 -1.1766 -0.6251 -1.7255
  788MPD2    H311676   3.080   0.325   1.458  0.9533  0.1056  0.6460
  788MPD2     N11677   3.394   0.297   1.141 -0.0586  0.0327 -0.1811
  788MPD2    H511678   3.385   0.398   1.143  1.8918  0.2201 -0.6573
  788MPD2    N111679   3.191   4.631   1.331  0.2220  0.0581 -0.4208
  788MPD2    H711680   3.250   4.584   1.263 -1.8667 -1.3910 -1.2324
  789MPD2     C11681   4.181   4.384  16.690  0.2624  0.0391  0.4053
  789MPD2    C111682   4.086   4.363  16.591  0.3176  0.1006  0.6568
  789MPD2    C211683   3.953   4.408  16.607 -0.2727 -0.4139 -0.4005
  789MPD2    C311684   3.916   4.475  16.723  0.6765  0.2217  0.3159
  789MPD2    C411685   4.015   4.484  16.822  0.5894  0.1740  1.1966
  789MPD2    C511686   4.141   4.432  16.806  0.2852  0.2647 -0.3464
  789MPD2     H11687   3.889   4.385  16.523  0.2461 -4.6277  0.3448
  789MPD2    H111688   3.989   4.510  16.923 -1.6382  1.8681  0.1729
  789MPD2    H211689   4.288   4.369  16.687  0.4519  1.2701  0.9108
  789MPD2    H311690   4.208   4.436  16.891  0.2900 -2.5010 -0.2309
  789MPD2     N11691   3.792   4.533  16.749  0.9773  0.3691 -0.0031
  789MPD2    H511692   3.780   4.576  16.840  1.7728 -1.7768  1.1408
  789MPD2    N111693   4.130   4.325  16.460  0.6316 -0.3304  0.5636
  789MPD2    H711694   4.062   4.337  16.386  0.3536 -2.3932  0.4720
  790MPD2     C11695   0.219   2.143  13.305  0.1343  0.1966 -0.6085
  790MPD2    C111696   0.278   2.023  13.337 -0.8399  0.2627 -0.0228
  790MPD2    C211697   0.249   1.912  13.257  0.3639 -0.1232  0.1774
  790MPD2    C311698   0.168   1.918  13.146  0.1584  0.7814  0.0128
  790MPD2    C411699   0.120   2.043  13.118 -0.1358 -0.2866  0.2440
  790MPD2    C511700   0.145   2.152  13.192  0.2045 -0.3205  0.4076
  790MPD2     H11701   0.301   1.818  13.274 -3.0638 -1.6445  2.3272
  790MPD2    H111702   0.065   2.053  13.025 -2.1262 -0.2024  1.4131
  790MPD2    H211703   0.232   2.230  13.368 -0.9826 -1.3663  1.7760
  790MPD2    H311704   0.107   2.250  13.169 -0.2738 -0.2060  1.6429
  790MPD2     N11705   0.143   1.804  13.055  0.0496 -0.0029 -0.3512
  790MPD2    H511706   0.184   1.716  13.083 -0.6375 -0.5179 -0.9581
  790MPD2    N111707   0.362   2.016  13.452  0.1314 -0.4886 -0.1547
  790MPD2    H711708   0.371   2.103  13.503  0.5212  0.3454 -1.6207
  791MPD2     C11709   4.217   1.582  12.715 -0.9883 -0.2049 -0.1427
  791MPD2    C111710   4.300   1.481  12.737 -0.2794 -0.3550 -0.1174
  791MPD2    C211711   4.247   1.357  12.763  1.0784  0.1367  0.0155
  791MPD2    C311712   4.116   1.325  12.745 -0.0842 -0.1526  0.2027
  791MPD2    C411713   4.036   1.433  12.711  0.2681  0.1610  0.1692
  791MPD2    C511714   4.089   1.553  12.699  0.2615 -1.0120  0.1909
  791MPD2     H11715   4.316   1.275  12.779 -0.2922 -0.9323  0.4186
  791MPD2    H111716   3.937   1.418  12.670  0.1034 -0.5287  0.8088
  791MPD2    H211717   4.254   1.683  12.709 -0.4169 -0.4778 -1.1693
  791MPD2    H311718   4.023   1.633  12.669 -0.2379 -0.5761  2.4801
  791MPD2     N11719   4.056   1.196  12.754 -0.6223 -0.3371 -0.4798
  791MPD2    H511720   4.118   1.124  12.789  0.1076  0.1714 -0.7330
  791MPD2    N111721   4.434   1.514  12.745  0.4984  0.5649 -0.5118
  791MPD2    H711722   4.449   1.614  12.746  1.2701  0.4036  3.0807
  792MPD2     C11723   4.137   0.925  10.863  0.7217 -0.6122 -0.7320
  792MPD2    C111724   4.204   0.950  10.744  0.2905  0.1282 -0.3967
  792MPD2    C211725   4.152   0.887  10.634  0.3996  0.1344 -0.0607
  792MPD2    C311726   4.056   0.790  10.640 -0.2206 -0.1933  0.3398
  792MPD2    C411727   3.991   0.770  10.761  0.7270 -0.2708  0.3339
  792MPD2    C511728   4.019   0.851  10.869  0.5829 -0.0540  0.1142
  792MPD2     H11729   4.185   0.907  10.533 -0.7769  0.5296 -0.3738
  792MPD2    H111730   3.908   0.702  10.772  3.1530 -3.0475  1.4496
  792MPD2    H211731   4.160   0.987  10.948 -0.7633  2.0867 -2.3033
  792MPD2    H311732   3.960   0.838  10.959  3.1895 -1.5583  1.6220
  792MPD2     N11733   4.013   0.712  10.533 -0.2210 -0.2571  0.2039
  792MPD2    H511734   3.949   0.638  10.560 -0.2860  0.2680  1.5041
  792MPD2    N111735   4.307   1.043  10.744 -0.3805  0.2269 -0.0792
  792MPD2    H711736   4.342   1.054  10.839 -1.0482 -4.2450  0.6973
  793MPD2     C11737   4.021   0.595   9.451 -0.1219 -0.6894  0.2211
  793MPD2    C111738   4.151   0.591   9.504 -0.2546  0.0104 -0.3226
  793MPD2    C211739   4.160   0.623   9.639  0.6039  0.2779 -0.3103
  793MPD2    C311740   4.045   0.640   9.718 -0.3720 -0.4348 -0.9987
  793MPD2    C411741   3.918   0.652   9.659 -0.5796  0.0807 -0.1893
  793MPD2    C511742   3.910   0.625   9.525  0.7814  0.1426  0.3645
  793MPD2     H11743   4.255   0.647   9.685  1.1707  1.1182 -1.8969
  793MPD2    H111744   3.820   0.667   9.704  0.2651 -0.3159  1.8039
  793MPD2    H211745   4.007   0.585   9.344 -0.4550 -0.1057  0.2096
  793MPD2    H311746   3.809   0.624   9.487  0.7582  1.2474  0.4062
  793MPD2     N11747   4.063   0.640   9.855  0.0004 -0.5026 -0.0284
  793MPD2    H511748   4.150   0.615   9.902  0.7694  0.4367 -0.9554
  793MPD2    N111749   4.261   0.541   9.420  0.3696 -0.7772  0.5140
  793MPD2    H711750   4.245   0.518   9.322  2.6735 -0.0611 -0.0202
  794MPD2     C11751   4.432   0.397   0.131  0.2524  0.0998  0.4296
  794MPD2    C111752   4.435   0.333   0.010  0.5645 -0.1088 -0.4550
  794MPD2    C211753   4.463   0.405  17.636  0.3514 -0.1018  0.1449
  794MPD2    C311754   4.473   0.542  17.639  0.3518 -0.2255  0.4628
  794MPD2    C411755   4.469   0.604   0.019 -0.2488 -0.4346 -0.6507
  794MPD2    C511756   4.445   0.535   0.135 -1.2072 -0.2347 -0.0629
  794MPD2     H11757   4.470   0.359  17.538 -0.1857  2.0219 -0.8717
  794MPD2    H111758   4.466   0.713   0.016 -2.4704 -0.4822 -0.0582
  794MPD2    H211759   4.416   0.346   0.226  0.8988 -0.2072  0.3761
  794MPD2    H311760   4.428   0.579   0.232 -2.1200 -0.5865 -0.0703
  794MPD2     N11761   4.496   0.626  17.522 -0.4170 -0.2912 -0.2396
  794MPD2    H511762   4.492   0.725  17.546  1.5065  0.0920 -1.5523
  794MPD2    N111763   4.424   0.194   0.001 -0.1147  0.0914  0.2258
  794MPD2    H711764   4.458   0.160  17.655 -1.4908  0.8974 -0.6115
  795MPD2     C11765   2.938   3.132  14.022  0.2934 -0.5863 -0.6525
  795MPD2    C111766   2.904   3.020  13.944  0.2595  0.0243 -0.2324
  795MPD2    C211767   2.981   2.904  13.962  0.4022  0.3403  0.1352
  795MPD2    C311768   3.081   2.898  14.057 -0.6752 -0.1486  0.3115
  795MPD2    C411769   3.129   3.017  14.110  0.8003  0.0710  0.6919
  795MPD2    C511770   3.063   3.139  14.092 -0.3034 -0.0708  0.1419
  795MPD2     H11771   2.965   2.819  13.897  1.3584  1.1981 -1.2227
  795MPD2    H111772   3.229   3.015  14.152  1.2479 -1.1103 -0.4651
  795MPD2    H211773   2.875   3.219  14.009 -0.7044 -1.4497 -1.5243
  795MPD2    H311774   3.093   3.223  14.153 -2.4315  0.1676  0.8596
  795MPD2     N11775   3.148   2.780  14.091 -0.2563 -0.1546 -0.2126
  795MPD2    H511776   3.234   2.783  14.144  2.2416 -1.6539 -4.2203
  795MPD2    N111777   2.799   3.023  13.848  0.1325  0.1930 -0.0627
  795MPD2    H711778   2.797   2.943  13.785  1.4574  1.2940 -1.4750
  796MPD2     C11779   2.195   4.394  15.504  0.2281 -0.2985 -0.7012
  796MPD2    C111780   2.264   4.494  15.574 -0.0434 -0.4685  0.0676
  796MPD2    C211781   2.206   4.618  15.588 -0.4629  0.0982 -0.1395
  796MPD2    C311782   2.076   4.644  15.551 -0.0636  0.6097 -0.8710
  796MPD2    C411783   2.004   4.536  15.497 -0.3638  0.4141 -0.5323
  796MPD2    C511784   2.062   4.412  15.478 -0.2181 -0.3415  0.0804
  796MPD2     H11785   2.269   4.696  15.629 -0.2147 -0.2681  0.1631
  796MPD2    H111786   1.905   4.547  15.456 -0.9316 -0.7079  0.5324
  796MPD2    H211787   2.219   4.290  15.487  3.3230  0.1255  1.2429
  796MPD2    H311788   1.995   4.334  15.443 -2.2126  2.0029 -1.3286
  796MPD2     N11789   2.024   0.036  15.565  0.6877  0.2264  0.8552
  796MPD2    H511790   2.094   0.109  15.568  0.6134  0.3316  0.0900
  796MPD2    N111791   2.379   4.446  15.640 -0.3853 -0.7106  0.6163
  796MPD2    H711792   2.411   4.351  15.626  1.0702  0.0311 -1.1459
  797MPD2     C11793   2.572   4.430  17.032  0.3292  0.3408  0.2684
  797MPD2    C111794   2.596   4.563  17.070  0.0330  0.1964  0.2420
  797MPD2    C211795   2.536   4.673  17.015 -0.0710 -0.2658 -0.8304
  797MPD2    C311796   2.455   4.649  16.906 -0.2291 -0.5135  0.2538
  797MPD2    C411797   2.428   4.522  16.860 -0.3194 -0.0620  0.0512
  797MPD2    C511798   2.488   4.413  16.930  0.2201 -0.0028  0.0497
  797MPD2     H11799   2.565   0.033  17.056 -0.5484 -0.5715  0.2296
  797MPD2    H111800   2.363   4.510  16.775 -1.7035 -1.0530  1.2571
  797MPD2    H211801   2.611   4.340  17.078 -0.6863 -0.6797 -0.8776
  797MPD2    H311802   2.470   4.313  16.893  2.0060 -1.1133  2.1470
  797MPD2     N11803   2.389   0.021  16.848 -0.6585  0.4540  0.4066
  797MPD2    H511804   2.360   0.010  16.751 -1.9960  0.4706  0.7974
  797MPD2    N111805   2.691   4.593  17.165 -0.2450  0.0715  0.0468
  797MPD2    H711806   2.702   4.692  17.184  0.1733  0.1302 -0.5076
  798MPD2     C11807   2.516   0.529  17.292  0.8334  0.2614  0.3475
  798MPD2    C111808   2.569   0.479  17.176  0.7636  0.1848  0.1589
  798MPD2    C211809   2.675   0.385  17.188  0.1530 -0.4368 -0.5076
  798MPD2    C311810   2.720   0.350  17.313 -0.0296  0.1001 -0.3162
  798MPD2    C411811   2.671   0.408  17.426 -0.5994  0.0998 -0.4467
  798MPD2    C511812   2.565   0.491  17.420  0.4720 -0.6989 -0.6939
  798MPD2     H11813   2.722   0.345  17.099 -1.2197 -0.2152 -1.3412
  798MPD2    H111814   2.717   0.398  17.524 -0.9586  0.5474 -0.2294
  798MPD2    H211815   2.434   0.599  17.298  0.1089 -0.2467 -3.4947
  798MPD2    H311816   2.523   0.526  17.513  1.5912  0.1556 -0.5205
  798MPD2     N11817   2.808   0.235  17.317 -0.5214  0.2152  0.3154
  798MPD2    H511818   2.832   0.184  17.233  0.8326  2.4300 -0.6567
  798MPD2    N111819   2.521   0.517  17.040  0.6806  0.0853  0.2753
  798MPD2    H711820   2.440   0.578  17.037  0.4316 -0.3768 -2.7790
  799MPD2     C11821   2.092   0.977  14.459 -0.3378  0.0894 -0.1640
  799MPD2    C111822   2.017   0.893  14.375 -0.7218  0.4315 -0.5863
  799MPD2    C211823   1.976   0.946  14.255 -0.0937  0.7917 -0.3403
  799MPD2    C311824   1.991   1.080  14.235 -0.0848 -0.0550  0.1234
  799MPD2    C411825   2.068   1.151  14.321 -0.2707 -0.5607 -0.8777
  799MPD2    C511826   2.129   1.102  14.429 -1.3103 -0.1535 -0.1407
  799MPD2     H11827   1.916   0.885  14.188 -0.2210 -2.2255  2.5219
  799MPD2    H111828   2.092   1.255  14.301 -1.1092 -0.3991 -1.0748
  799MPD2    H211829   2.133   0.934  14.549 -1.9413 -2.2850 -0.5628
  799MPD2    H311830   2.194   1.166  14.487 -0.7242 -2.1677  1.4116
  799MPD2     N11831   1.948   1.149  14.119  0.4823 -0.9595  0.1452
  799MPD2    H511832   1.976   1.246  14.116  0.8413 -1.0218  1.4840
  799MPD2    N111833   1.986   0.763  14.412 -0.4354 -0.1874  0.2387
  799MPD2    H711834   1.939   0.716  14.336  0.0615 -0.4375  0.0810
  800MPD2     C11835   2.772   2.167  14.867  0.4480  0.0194  0.5860
  800MPD2    C111836   2.864   2.136  14.768 -0.4363 -0.6838 -0.5231
  800MPD2    C211837   2.828   2.034  14.682 -0.5920  0.3335 -0.0363
  800MPD2    C311838   2.719   1.954  14.693  0.7106  0.3701  0.0982
  800MPD2    C411839   2.640   1.972  14.808 -0.2370  0.1397 -0.4044
  800MPD2    C511840   2.669   2.079  14.889  0.2766 -0.2816 -0.1449
  800MPD2     H11841   2.896   2.012  14.601  0.5684  2.5328  0.3362
  800MPD2    H111842   2.554   1.912  14.835  0.9881 -1.9360 -1.0276
  800MPD2    H211843   2.782   2.259  14.925  0.0251  0.3302  0.1614
  800MPD2    H311844   2.595   2.098  14.966 -0.1386  0.6886 -0.7803
  800MPD2     N11845   2.701   1.852  14.600 -0.3628 -0.0467  0.3289
  800MPD2    H511846   2.777   1.850  14.533  1.4362 -0.8580  2.3945
  800MPD2    N111847   2.985   2.215  14.747  0.8360 -0.9300 -0.1178
  800MPD2    H711848   2.988   2.305  14.792 -0.3468 -1.4738  1.0298
  801MPD2     C11849   3.003   2.858  14.420 -0.4125  0.1381 -0.1934
  801MPD2    C111850   2.997   2.776  14.536  0.6261 -0.3542  0.5315
  801MPD2    C211851   2.900   2.804  14.628 -0.3872  0.4726  0.1251
  801MPD2    C311852   2.802   2.893  14.603 -0.4583  0.8040  0.7174
  801MPD2    C411853   2.801   2.962  14.486  0.6183 -0.7367 -0.1127
  801MPD2    C511854   2.902   2.948  14.392  0.0264 -0.0954 -0.4271
  801MPD2     H11855   2.891   2.745  14.718 -1.3801 -1.9326 -1.5357
  801MPD2    H111856   2.721   3.035  14.480  0.5265 -0.7332  1.1168
  801MPD2    H211857   3.091   2.845  14.358 -1.5560 -1.7264 -1.4448
  801MPD2    H311858   2.907   3.007  14.301 -0.3863  0.8188  0.1361
  801MPD2     N11859   2.707   2.929  14.703  0.1848 -1.0912 -0.2826
  801MPD2    H511860   2.625   2.985  14.683  1.2242  0.0244 -1.4157
  801MPD2    N111861   3.075   2.654  14.548  0.1611  0.5443  0.2220
  801MPD2    H711862   3.044   2.583  14.613 -0.1530 -0.2094 -0.7649
  802MPD2     C11863   1.826   3.280   0.013 -0.2024  0.0634  0.9699
  802MPD2    C111864   1.706   3.217  17.711 -0.2838 -0.2847 -0.2686
  802MPD2    C211865   1.718   3.132  17.608 -0.5187 -0.2148  0.3222
  802MPD2    C311866   1.837   3.098  17.545  0.3301  0.4807  0.7056
  802MPD2    C411867   1.950   3.152  17.598 -0.1448  0.1256  0.0433
  802MPD2    C511868   1.949   3.240  17.705 -0.3239 -0.2299  0.7993
  802MPD2     H11869   1.635   3.074  17.570 -1.2658  0.3778  1.0791
  802MPD2    H111870   2.052   3.131  17.566 -0.5345 -1.3095 -0.2309
  802MPD2    H211871   1.821   3.355   0.091 -0.5604  1.8011 -0.7234
  802MPD2    H311872   2.046   3.269  17.743 -0.5559  1.4873  0.0755
  802MPD2     N11873   1.844   3.011  17.437  0.0958  0.8458 -0.1227
  802MPD2    H511874   1.758   2.987  17.389  0.1138 -1.0254  0.7716
  802MPD2    N111875   1.579   3.231   0.022  0.2677  0.7682 -0.0600
  802MPD2    H711876   1.502   3.168  17.743  0.3085  0.7571 -0.1694
  803MPD2     C11877   2.552   1.414  12.345 -0.0566  0.3920  0.3336
  803MPD2    C111878   2.683   1.408  12.389  0.5635 -0.5848  1.1532
  803MPD2    C211879   2.721   1.305  12.467 -0.2311 -0.7588 -0.2819
  803MPD2    C311880   2.626   1.208  12.500  0.2746  0.4414  0.1906
  803MPD2    C411881   2.493   1.225  12.462 -0.1778  0.0168  0.2309
  803MPD2    C511882   2.462   1.325  12.382 -0.7822 -0.9885 -0.5968
  803MPD2     H11883   2.823   1.293  12.501  0.0407  0.5563 -0.5958
  803MPD2    H111884   2.411   1.154  12.467 -0.1971  0.0263  0.0312
  803MPD2    H211885   2.522   1.497  12.281  0.3090  0.3197  0.0703
  803MPD2    H311886   2.359   1.330  12.350 -0.9651 -0.7410  0.0331
  803MPD2     N11887   2.654   1.085  12.568 -0.2237  0.5798 -0.3151
  803MPD2    H511888   2.575   1.036  12.608  1.1828 -1.0663  0.4863
  803MPD2    N111889   2.790   1.498  12.346 -0.2361  0.5225 -0.2270
  803MPD2    H711890   2.882   1.472  12.380 -0.9701  0.5159  1.7625
  804MPD2     C11891   2.705   2.534  16.802  0.6506  0.0565  0.1056
  804MPD2    C111892   2.668   2.551  16.936 -0.3156  0.3136 -0.2746
  804MPD2    C211893   2.731   2.662  17.001 -0.8893  0.1069  0.3069
  804MPD2    C311894   2.826   2.744  16.934 -0.0859  0.0609  0.4594
  804MPD2    C411895   2.857   2.712  16.803  0.7082  0.1403  0.2951
  804MPD2    C511896   2.798   2.608  16.737  0.2444  0.1225 -0.3744
  804MPD2     H11897   2.692   2.692  17.097  1.1177 -0.5924  1.3549
  804MPD2    H111898   2.924   2.767  16.737  0.5314  0.2460  0.2050
  804MPD2    H211899   2.671   2.447  16.748  0.3081  0.0994  0.2530
  804MPD2    H311900   2.825   2.577  16.637 -0.6728 -2.4056  0.1502
  804MPD2     N11901   2.885   2.860  17.003  0.3073 -0.0719 -0.0189
  804MPD2    H511902   2.835   2.875  17.091  1.7073  1.2827  0.5404
  804MPD2    N111903   2.576   2.454  16.987  0.1551 -0.5160 -0.2727
  804MPD2    H711904   2.561   2.456  17.087  0.4456  1.0296 -0.2582
  805MPD2     C11905   1.548   0.537  15.501  0.1821 -0.5221  0.6426
  805MPD2    C111906   1.666   0.547  15.442  0.3689 -0.0015 -0.4830
  805MPD2    C211907   1.749   0.648  15.488 -0.2104 -0.4692 -0.1678
  805MPD2    C311908   1.708   0.738  15.587 -0.2802  0.5799 -0.7980
  805MPD2    C411909   1.586   0.731  15.637 -0.5365  0.1281 -0.2915
  805MPD2    C511910   1.509   0.624  15.598 -0.0743 -0.1263 -0.3905
  805MPD2     H11911   1.846   0.657  15.440 -0.3722 -3.1083 -0.9877
  805MPD2    H111912   1.549   0.805  15.707  1.3775  0.4499  0.3860
  805MPD2    H211913   1.485   0.453  15.476 -0.1099 -0.2125  0.3238
  805MPD2    H311914   1.410   0.616  15.641 -0.1752 -2.5896 -1.0477
  805MPD2     N11915   1.794   0.844  15.635  0.3527  0.4086 -0.1492
  805MPD2    H511916   1.748   0.923  15.680  2.1308  1.4224 -0.1160
  805MPD2    N111917   1.705   0.469  15.328  0.7257  0.0675  0.2005
  805MPD2    H711918   1.780   0.512  15.276 -0.1169  0.6734 -0.5018
  806MPD2     C11919   2.167   0.445  17.728  0.2227 -0.3190 -0.1937
  806MPD2    C111920   2.055   0.522   0.008  0.1134  0.4698  0.1160
  806MPD2    C211921   2.042   0.640  17.685 -0.4000 -0.5244  0.5124
  806MPD2    C311922   2.132   0.668  17.579 -0.4319 -0.7452  0.0469
  806MPD2    C411923   2.226   0.579  17.547  0.1839  0.2838 -0.2609
  806MPD2    C511924   2.243   0.470  17.620 -0.3612 -0.2174 -0.0424
  806MPD2     H11925   1.967   0.708  17.723 -1.2099 -2.8785  3.1851
  806MPD2    H111926   2.275   0.576  17.450 -0.1877  1.4525 -0.4744
  806MPD2    H211927   2.182   0.352   0.038 -0.3514 -1.1175 -1.4171
  806MPD2    H311928   2.325   0.405  17.591 -1.3766 -1.0384 -1.0751
  806MPD2     N11929   2.119   0.799  17.524  0.3582 -0.0039 -0.9109
  806MPD2    H511930   2.037   0.851  17.552  2.1954  1.9548  0.7680
  806MPD2    N111931   1.982   0.491   0.126 -0.0037 -0.0771  0.0919
  806MPD2    H711932   2.019   0.416   0.184  0.3781  0.6489  0.7881
  807MPD2     C11933   1.406   0.048   0.373  0.6637 -0.1097  0.3042
  807MPD2    C111934   1.538   0.059   0.417 -0.0520 -0.6855  0.3816
  807MPD2    C211935   1.616   4.685   0.431 -0.2328  0.2604  0.2084
  807MPD2    C311936   1.558   4.557   0.446  0.0088  0.0195  0.4147
  807MPD2    C411937   1.424   4.550   0.407  0.4418 -0.3169 -0.0251
  807MPD2    C511938   1.363   4.658   0.360  0.1665  0.3024  0.5051
  807MPD2     H11939   1.722   4.694   0.454  0.1077 -2.5034 -0.2467
  807MPD2    H111940   1.369   4.457   0.409  0.9275 -0.6131 -0.3101
  807MPD2    H211941   1.346   0.136   0.352 -0.7867 -1.3741 -0.8300
  807MPD2    H311942   1.261   4.643   0.327  0.8860 -0.9205 -1.1874
  807MPD2     N11943   1.633   4.446   0.496 -0.6815 -0.1366  0.1124
  807MPD2    H511944   1.733   4.458   0.508 -0.7881  1.1528 -0.2851
  807MPD2    N111945   1.592   0.187   0.435 -0.0120 -0.6382  0.1861
  807MPD2    H711946   1.684   0.188   0.479 -0.3952  0.1246  0.9872
  808MPD2     C11947   2.781   1.452  10.246 -0.2758  0.4627 -0.3007
  808MPD2    C111948   2.652   1.507  10.236  0.2163 -0.1731 -0.6225
  808MPD2    C211949   2.635   1.646  10.252 -0.0653  0.2954  0.7386
  808MPD2    C311950   2.736   1.724  10.295  0.1773  0.2219 -0.0994
  808MPD2    C411951   2.857   1.669  10.314  0.3905 -0.0203  0.0705
  808MPD2    C511952   2.877   1.534  10.299  0.2245  0.2874 -0.4193
  808MPD2     H11953   2.530   1.675  10.249 -0.6709 -1.5844  3.7994
  808MPD2    H111954   2.942   1.725  10.353  0.6145  1.1280 -2.0693
  808MPD2    H211955   2.804   1.352  10.213 -0.8633  0.0989  0.3979
  808MPD2    H311956   2.976   1.490  10.312  0.8576  2.3126  1.7611
  808MPD2     N11957   2.724   1.859  10.315 -0.4811 -1.0195 -0.1128
  808MPD2    H511958   2.804   1.912  10.349  0.0967 -1.5665 -0.6186
  808MPD2    N111959   2.541   1.436  10.189  0.5016 -0.2884 -0.1776
  808MPD2    H711960   2.448   1.476  10.202  1.2046  1.2279  0.1199
  809MPD2     C11961   2.656   2.850   9.911 -0.3402  0.7257 -1.0663
  809MPD2    C111962   2.683   2.731   9.857  0.0517 -0.1350  0.9038
  809MPD2    C211963   2.656   2.615   9.929  0.2051  0.0916 -0.2208
  809MPD2    C311964   2.606   2.625  10.055  0.2098  0.5365 -0.5307
  809MPD2    C411965   2.584   2.748  10.108 -0.4514  0.9946  0.1805
  809MPD2    C511966   2.603   2.860  10.037 -0.4121 -0.0248 -0.0465
  809MPD2     H11967   2.685   2.520   9.885  0.3323  0.6845 -1.3869
  809MPD2    H111968   2.547   2.765  10.209  2.1832  0.7928  1.1786
  809MPD2    H211969   2.690   2.947   9.875 -2.6834  2.1693  0.6527
  809MPD2    H311970   2.592   2.955  10.089 -1.1642 -1.5960  2.6363
  809MPD2     N11971   2.592   2.512  10.144  0.7501 -0.1386 -0.6781
  809MPD2    H511972   2.570   2.534  10.241 -0.4003 -1.1675 -0.7088
  809MPD2    N111973   2.761   2.717   9.736  0.0154 -0.3824  0.3353
  809MPD2    H711974   2.769   2.619   9.709  1.7238 -0.2779  0.4553
  810MPD2     C11975   2.370   0.930  10.274 -0.1628  0.9278  0.0759
  810MPD2    C111976   2.236   0.941  10.296 -0.1946 -0.2124  0.0170
  810MPD2    C211977   2.193   1.035  10.391  0.4348 -0.0798 -0.2729
  810MPD2    C311978   2.283   1.093  10.475 -0.3529 -0.0925 -0.8126
  810MPD2    C411979   2.417   1.066  10.460  0.2353 -0.1155 -0.3445
  810MPD2    C511980   2.463   0.992  10.349 -0.4215 -0.6152 -0.3164
  810MPD2     H11981   2.090   1.068  10.387  0.8713  1.2856 -0.3780
  810MPD2    H111982   2.492   1.111  10.523  0.5781 -1.9136  0.5359
  810MPD2    H211983   2.418   0.863  10.204 -0.8352 -0.9836  1.4468
  810MPD2    H311984   2.565   0.975  10.318 -1.0526 -1.1916 -2.0543
  810MPD2     N11985   2.247   1.193  10.566  0.1392 -0.7158 -0.0433
  810MPD2    H511986   2.321   1.244  10.614  0.0892 -0.0561 -0.6682
  810MPD2    N111987   2.148   0.874  10.205 -0.1197  0.2305  0.2786
  810MPD2    H711988   2.188   0.832  10.122  0.6365 -0.2470  0.8807
  811MPD2     C11989   1.414   1.118   9.703 -0.8202  0.2738 -0.0054
  811MPD2    C111990   1.513   1.164   9.788  0.4187  0.1385  0.2611
  811MPD2    C211991   1.508   1.292   9.835 -0.4076 -0.5715 -0.2967
  811MPD2    C311992   1.407   1.382   9.791 -0.1700  0.0930 -0.0215
  811MPD2    C411993   1.310   1.332   9.705 -0.0077 -0.5387 -0.5988
  811MPD2    C511994   1.318   1.204   9.660 -0.4704 -0.1388 -0.4205
  811MPD2     H11995   1.575   1.333   9.910 -0.5407 -0.3242 -0.3133
  811MPD2    H111996   1.232   1.394   9.664  0.8384  0.9615  0.0563
  811MPD2    H211997   1.412   1.017   9.662  1.0416 -0.6604  2.1950
  811MPD2    H311998   1.243   1.170   9.590 -0.8575 -0.3553  0.1001
  811MPD2     N11999   1.417   1.513   9.839 -0.1188  0.3265  0.0879
  811MPD2    H512000   1.495   1.534   9.901 -0.7912  0.5576  0.8520
  811MPD2    N112001   1.605   1.063   9.828  0.5162 -0.0050 -0.4814
  811MPD2    H712002   1.587   0.969   9.793  0.5910 -1.2227  2.7630
  812MPD2     C12003   0.519   1.100  12.448  0.5419 -0.3857  0.7003
  812MPD2    C112004   0.568   1.087  12.319 -0.5321 -0.1269  0.1302
  812MPD2    C212005   0.700   1.124  12.291 -0.5983  0.9282 -0.1015
  812MPD2    C312006   0.777   1.179  12.391 -0.6077  0.3346  0.0898
  812MPD2    C412007   0.729   1.195  12.521  0.3547 -0.5903  0.6746
  812MPD2    C512008   0.600   1.154  12.546 -0.1265  0.0174 -0.0404
  812MPD2     H12009   0.755   1.115  12.198 -0.7824 -0.5375 -0.0821
  812MPD2    H112010   0.794   1.234  12.598  0.2314  1.0320 -0.0473
  812MPD2    H212011   0.418   1.070  12.471  0.4164 -0.9462 -0.6009
  812MPD2    H312012   0.560   1.160  12.647  0.0778 -0.7082  0.0794
  812MPD2     N12013   0.911   1.196  12.353  0.2280 -0.7257  0.4179
  812MPD2    H512014   0.946   1.168  12.262 -0.7678  0.8432 -0.4472
  812MPD2    N112015   0.484   1.028  12.223  0.2098 -0.0151  0.6129
  812MPD2    H712016   0.387   1.019  12.251  0.6117 -1.9421  1.3746
  813MPD2     C12017   4.680   2.859  12.525  0.1569 -0.6904  0.2414
  813MPD2    C112018   4.719   2.989  12.523 -0.2607 -0.2647 -0.0006
  813MPD2    C212019   4.711   3.068  12.636  0.7612 -0.7108  0.1223
  813MPD2    C312020   4.659   3.015  12.761 -0.1746  0.0044  0.3247
  813MPD2    C412021   4.627   2.881  12.756 -0.7210 -0.2303 -0.7243
  813MPD2    C512022   4.629   2.807  12.639  0.2809 -0.2294 -0.7692
  813MPD2     H12023   0.019   3.167  12.630 -1.8595  0.6921  3.9816
  813MPD2    H112024   4.587   2.832  12.844 -0.4500 -0.4834 -0.7414
  813MPD2    H212025   4.681   2.802  12.433  0.2782  0.1437 -0.2801
  813MPD2    H312026   4.608   2.701  12.642 -1.5143  0.2162  1.5057
  813MPD2     N12027   4.661   3.089  12.876  0.2344 -0.0935  0.2397
  813MPD2    H512028   4.692   3.186  12.868 -1.6301  0.5199  0.5944
  813MPD2    N112029   0.036   3.028  12.398  0.2788 -0.5599  0.0786
  813MPD2    H712030   0.047   2.950  12.333  1.2492  0.1957 -0.6549
  814MPD2     C12031   0.295   4.035  11.936  0.4076 -0.0222  0.2406
  814MPD2    C112032   0.263   4.162  11.894 -0.3618  0.2735 -0.3535
  814MPD2    C212033   0.319   4.270  11.963  0.0577  0.0498  0.2431
  814MPD2    C312034   0.378   4.252  12.080  0.3047 -0.4066 -0.2635
  814MPD2    C412035   0.395   4.129  12.133 -0.3824  0.2039 -0.1544
  814MPD2    C512036   0.353   4.020  12.057 -1.0313  0.2020  0.1610
  814MPD2     H12037   0.302   4.369  11.922 -4.1359 -0.0835  1.7227
  814MPD2    H112038   0.447   4.108  12.226  1.3208  0.5983 -1.0263
  814MPD2    H212039   0.278   3.949  11.873 -1.0697 -0.2971  1.0071
  814MPD2    H312040   0.376   3.920  12.093  0.3841  1.2461  2.1511
  814MPD2     N12041   0.416   4.351  12.168  0.5970 -0.4935  0.2438
  814MPD2    H512042   0.477   4.332  12.247 -0.3790  0.2673  1.1784
  814MPD2    N112043   0.205   4.199  11.767  0.0509  0.9015 -0.1490
  814MPD2    H712044   0.186   4.297  11.751 -1.2576  0.9059  1.5147
  815MPD2     C12045   0.511   1.281  11.927  0.2110  0.9169 -0.3447
  815MPD2    C112046   0.451   1.332  11.817 -0.0632  0.0407 -0.3729
  815MPD2    C212047   0.354   1.438  11.833  0.3743  0.2233  0.0223
  815MPD2    C312048   0.308   1.478  11.953  0.0993 -0.1061 -0.8068
  815MPD2    C412049   0.367   1.428  12.067 -0.1157 -0.6375  0.0153
  815MPD2    C512050   0.472   1.339  12.052  0.0203  0.4590 -0.3212
  815MPD2     H12051   0.302   1.479  11.747  0.3868 -2.4781 -1.3103
  815MPD2    H112052   0.343   1.459  12.169 -1.9538 -0.9832 -0.3119
  815MPD2    H212053   0.586   1.203  11.936 -0.2169  0.4021 -1.3529
  815MPD2    H312054   0.527   1.303  12.138 -2.1836 -2.3001 -0.0430
  815MPD2     N12055   0.213   1.587  11.950  0.3004 -0.8543  0.2747
  815MPD2    H512056   0.212   1.638  11.862 -1.4234 -3.3492 -1.1287
  815MPD2    N112057   0.490   1.273  11.693  0.4284 -0.4484  0.7111
  815MPD2    H712058   0.571   1.211  11.686  0.4912 -0.1609 -1.2698
  816MPD2     C12059   0.483   2.062  16.802 -0.5290  0.1533  0.2312
  816MPD2    C112060   0.582   2.147  16.818 -0.7324 -0.8119 -0.0927
  816MPD2    C212061   0.702   2.118  16.754 -0.2030  0.2963 -0.5780
  816MPD2    C312062   0.721   1.993  16.693 -0.1556  0.4310 -0.2014
  816MPD2    C412063   0.624   1.898  16.704 -0.5688  0.2392  0.0411
  816MPD2    C512064   0.505   1.937  16.753 -0.4962 -0.5568  0.1084
  816MPD2     H12065   0.778   2.195  16.754 -0.9256  1.0339 -3.7354
  816MPD2    H112066   0.644   1.797  16.668 -1.7706  0.1279 -0.2881
  816MPD2    H212067   0.382   2.074  16.840 -1.0804 -1.2986 -0.7846
  816MPD2    H312068   0.425   1.864  16.752 -1.4805  0.4972  1.1764
  816MPD2     N12069   0.837   1.972  16.626 -0.7627  0.2469  0.8708
  816MPD2    H512070   0.883   2.056  16.591 -1.5766 -0.9494 -3.0387
  816MPD2    N112071   0.554   2.265  16.896 -0.0708 -0.0389  0.1738
  816MPD2    H712072   0.456   2.279  16.918  1.2563  0.4885  5.7606
  817MPD2     C12073   4.718   3.241   9.897 -0.0171  0.0385  0.0022
  817MPD2    C112074   4.724   3.186   9.771 -1.2749 -0.0162 -0.0375
  817MPD2    C212075   4.710   3.267   9.663 -0.1593  0.2227 -0.4978
  817MPD2    C312076   4.688   3.405   9.676  0.3303 -0.1184  0.1019
  817MPD2    C412077   4.666   3.462   9.804 -0.0430  0.2829  0.1527
  817MPD2    C512078   4.691   3.380   9.914  0.3504  0.0269 -0.0259
  817MPD2     H12079   4.729   3.221   9.567  2.0960  1.0317 -0.4346
  817MPD2    H112080   4.652   3.568   9.817 -1.9200 -0.0032  0.4502
  817MPD2    H212081   4.716   3.187   9.991  0.4333 -1.1247 -0.6522
  817MPD2    H312082   4.692   3.424  10.012 -0.8565 -0.2656  0.1226
  817MPD2     N12083   4.671   3.485   9.556 -0.3467  0.0968 -0.2479
  817MPD2    H512084   4.685   3.443   9.465 -0.5982 -0.0844 -0.2056
  817MPD2    N112085   0.018   3.050   9.753  0.8817 -0.1118  0.7120
  817MPD2    H712086   0.005   3.023   9.656 -2.5452 -2.0946  1.6837
  818MPD2     C12087   3.734   3.532   9.791 -0.0384  0.1599 -0.4008
  818MPD2    C112088   3.658   3.452   9.871  0.5217 -0.5626  0.0300
  818MPD2    C212089   3.628   3.324   9.831 -0.0636  0.2299 -0.0881
  818MPD2    C312090   3.685   3.275   9.710 -0.3266  0.4619 -0.0639
  818MPD2    C412091   3.765   3.355   9.634  0.4020 -0.4548 -0.1880
  818MPD2    C512092   3.786   3.485   9.672  0.1774  0.1173 -0.5662
  818MPD2     H12093   3.563   3.266   9.895  0.7139  0.1230  0.6072
  818MPD2    H112094   3.807   3.325   9.539  0.8133 -0.4061 -0.0222
  818MPD2    H212095   3.773   3.629   9.819 -0.8634  0.2533  0.4056
  818MPD2    H312096   3.850   3.539   9.603  1.1729  1.1881  1.1817
  818MPD2     N12097   3.665   3.150   9.658 -0.3704  0.0365 -0.1741
  818MPD2    H512098   3.701   3.141   9.563  0.8511  2.0342  0.1088
  818MPD2    N112099   3.613   3.489  10.001  0.2412 -0.4960  0.1238
  818MPD2    H712100   3.538   3.432  10.040  1.3960  0.0549  3.1421
  819MPD2     C12101   2.866   1.022  15.770 -0.2126 -0.1770  0.1273
  819MPD2    C112102   2.920   0.903  15.725  0.9623  0.2897  0.2506
  819MPD2    C212103   3.058   0.883  15.744 -0.2270  0.8106  1.3121
  819MPD2    C312104   3.135   0.969  15.819 -0.0747 -0.1053  0.0354
  819MPD2    C412105   3.075   1.077  15.878  0.2934 -0.0233  0.0255
  819MPD2    C512106   2.943   1.103  15.845  0.2418  0.7114 -0.0219
  819MPD2     H12107   3.099   0.786  15.718 -0.5738  0.6777  1.2583
  819MPD2    H112108   3.120   1.142  15.953  1.8326  1.5126 -2.2372
  819MPD2    H212109   2.761   1.045  15.754  0.3333  1.8122 -0.5617
  819MPD2    H312110   2.899   1.190  15.894  0.5975  0.2415  1.1285
  819MPD2     N12111   3.266   0.934  15.844  0.2054 -0.4242  0.5461
  819MPD2    H512112   3.289   0.839  15.818 -0.7500 -0.4764 -0.1267
  819MPD2    N112113   2.843   0.804  15.658  0.1854  0.3359 -0.3755
  819MPD2    H712114   2.885   0.716  15.628 -0.3711 -0.0048 -0.1694
  820MPD2     C12115   2.197   0.650  14.925 -0.5577  0.0860  0.4411
  820MPD2    C112116   2.187   0.546  15.020  0.0678  0.0873  0.2823
  820MPD2    C212117   2.277   0.539  15.121 -0.5563  0.5874 -0.2944
  820MPD2    C312118   2.378   0.629  15.130  0.0252 -0.1686  0.2851
  820MPD2    C412119   2.383   0.735  15.036  0.5509  0.0660  0.6527
  820MPD2    C512120   2.304   0.735  14.926 -0.3784  0.2712  0.0368
  820MPD2     H12121   2.259   0.468  15.202  3.3785  2.5955  2.3660
  820MPD2    H112122   2.448   0.821  15.045 -0.2850  1.1033 -3.0066
  820MPD2    H212123   2.127   0.653  14.843 -1.4929 -1.3639  1.1921
  820MPD2    H312124   2.294   0.812  14.850  0.2242  1.2268  0.9394
  820MPD2     N12125   2.471   0.623  15.231  0.3632 -0.5083  0.1530
  820MPD2    H512126   2.541   0.696  15.236 -0.7870  0.4641  1.9423
  820MPD2    N112127   2.085   0.445  15.037  0.2793  0.0363  0.1170
  820MPD2    H712128   2.103   0.381  15.113  0.3247 -0.3871 -0.2493
  821MPD2     C12129   2.419   1.835  13.912  0.0958  0.2442  0.5953
  821MPD2    C112130   2.541   1.805  13.965 -0.5975  0.2640  0.5409
  821MPD2    C212131   2.655   1.849  13.903  0.5751 -0.0501 -0.4999
  821MPD2    C312132   2.652   1.902  13.775  0.1250  0.6176 -0.6270
  821MPD2    C412133   2.531   1.931  13.723 -0.9394  0.2130 -0.0029
  821MPD2    C512134   2.414   1.904  13.792 -0.6675 -0.0352 -0.5706
  821MPD2     H12135   2.749   1.807  13.936  1.2920  1.0272 -1.1826
  821MPD2    H112136   2.522   1.977  13.625 -1.8004 -2.4000 -1.1336
  821MPD2    H212137   2.331   1.796  13.963 -0.7696 -1.5958 -2.3304
  821MPD2    H312138   2.320   1.930  13.745  0.3460  0.1993 -2.4393
  821MPD2     N12139   2.767   1.925  13.697 -0.3021 -0.8339 -0.1123
  821MPD2    H512140   2.771   1.994  13.622  0.0371 -1.9319 -1.0987
  821MPD2    N112141   2.563   1.725  14.078  0.5061  0.4515  0.2529
  821MPD2    H712142   2.662   1.708  14.095  0.6569 -0.2187 -1.3400
  822MPD2     C12143   3.198   1.734  15.856 -0.0110 -0.2346 -0.3201
  822MPD2    C112144   3.190   1.716  15.994 -0.6696 -0.0790 -0.3810
  822MPD2    C212145   3.081   1.767  16.065  0.1174  0.0978  0.1606
  822MPD2    C312146   2.980   1.825  15.999 -0.0757  0.3913 -0.6422
  822MPD2    C412147   2.979   1.831  15.859 -0.1320 -0.2879  0.2214
  822MPD2    C512148   3.088   1.779  15.790  0.8672 -0.4381  0.4739
  822MPD2     H12149   3.080   1.772  16.173 -0.2173  0.7112  0.1326
  822MPD2    H112150   2.891   1.867  15.808 -0.0246  0.2133  0.3916
  822MPD2    H212151   3.282   1.711  15.793  0.9904 -0.0399  0.9420
  822MPD2    H312152   3.083   1.780  15.681 -0.3792  0.1416  0.5426
  822MPD2     N12153   2.882   1.878  16.080 -0.2361  0.9216 -0.2978
  822MPD2    H512154   2.898   1.867  16.179 -0.7931 -0.0002 -0.3059
  822MPD2    N112155   3.290   1.661  16.073 -0.5007  0.1578 -0.4458
  822MPD2    H712156   3.264   1.640  16.169  1.5485  1.4415  0.3974
  823MPD2     C12157   2.729   2.108  16.852 -0.8538 -0.3170  0.2738
  823MPD2    C112158   2.762   2.025  16.758  1.1952 -0.1657  0.3615
  823MPD2    C212159   2.834   1.915  16.793 -0.7123  0.4210 -0.8027
  823MPD2    C312160   2.869   1.887  16.924  0.1211 -0.0511 -0.6361
  823MPD2    C412161   2.831   1.974  17.018  0.0943  0.1907 -0.1163
  823MPD2    C512162   2.767   2.083  16.985 -0.9729  0.2809  0.7273
  823MPD2     H12163   2.870   1.847  16.717  0.0111 -2.0251  1.7172
  823MPD2    H112164   2.850   1.959  17.123 -0.6772  1.4946  0.2143
  823MPD2    H212165   2.688   2.206  16.833  1.6380  0.3589 -1.4870
  823MPD2    H312166   2.721   2.145  17.061  1.1735  0.2793  2.0283
  823MPD2     N12167   2.943   1.775  16.963 -0.0455  0.2699 -0.1932
  823MPD2    H512168   2.941   1.764  17.064 -0.6666 -0.1407 -0.2544
  823MPD2    N112169   2.716   2.049  16.626  0.0845  0.5205 -0.2456
  823MPD2    H712170   2.662   2.135  16.614  1.1025  0.4667 -5.3801
  824MPD2     C12171   3.856   1.070  16.143  0.5448  0.3533  0.2858
  824MPD2    C112172   3.850   1.148  16.032  0.5076  0.2589 -0.1136
  824MPD2    C212173   3.904   1.103  15.910  0.1829  0.3310 -0.2556
  824MPD2    C312174   3.969   0.985  15.906  0.6224 -0.2866  0.4116
  824MPD2    C412175   3.980   0.907  16.021  0.8069 -0.1290 -0.2067
  824MPD2    C512176   3.933   0.954  16.141  0.3917 -0.1087 -0.0840
  824MPD2     H12177   3.893   1.158  15.817 -0.9712  1.7090  0.6799
  824MPD2    H112178   4.037   0.815  16.031 -0.4830 -0.6611  2.3412
  824MPD2    H212179   3.804   1.082  16.237 -0.9997  0.7438 -0.6168
  824MPD2    H312180   3.935   0.895  16.232  0.3536  1.0752  0.6849
  824MPD2     N12181   4.032   0.942  15.784  0.0616  0.2994  0.4836
  824MPD2    H512182   4.037   1.007  15.706  1.9516 -0.7487 -0.2626
  824MPD2    N112183   3.793   1.279  16.039 -0.0026  0.3533  0.3022
  824MPD2    H712184   3.783   1.344  15.962 -1.9076  1.2766  1.3214
  825MPD2     C12185   4.579   1.095  15.158 -0.2902  0.1031  0.1599
  825MPD2    C112186   4.484   1.130  15.244 -0.3752 -0.2989  0.2467
  825MPD2    C212187   4.470   1.267  15.264 -0.4270 -0.1727  0.4183
  825MPD2    C312188   4.554   1.364  15.201 -0.5211  0.3530  0.4860
  825MPD2    C412189   4.650   1.313  15.114 -0.3374  0.0792 -0.2262
  825MPD2    C512190   4.663   1.180  15.091 -0.1425  0.2934 -0.4645
  825MPD2     H12191   4.388   1.301  15.327  0.0473  0.6705  0.5934
  825MPD2    H112192   4.713   1.387  15.068  0.3060  0.6171  1.5090
  825MPD2    H212193   4.584   0.990  15.131 -2.8301  0.1475 -0.4142
  825MPD2    H312194   0.009   1.158  15.024  0.7067 -0.0778  0.7152
  825MPD2     N12195   4.541   1.505  15.196 -0.2345  0.3554 -0.0874
  825MPD2    H512196   4.607   1.548  15.132  2.4695  0.2691  2.6812
  825MPD2    N112197   4.426   1.029  15.311  0.2468 -0.0425  0.0883
  825MPD2    H712198   4.469   0.939  15.294  1.2908  0.6298 -0.7989
  826MPD2     C12199   4.400   1.294  13.499 -0.2689 -0.4152 -0.2100
  826MPD2    C112200   4.280   1.224  13.489  0.9790  0.1852  0.4364
  826MPD2    C212201   4.164   1.303  13.514  0.1337 -0.1327 -1.4858
  826MPD2    C312202   4.162   1.440  13.530  0.5721 -0.3904  0.3508
  826MPD2    C412203   4.285   1.498  13.529  0.0781 -0.7271  0.9773
  826MPD2    C512204   4.394   1.429  13.511 -0.3097  0.2946 -0.1721
  826MPD2     H12205   4.072   1.246  13.501  1.0735 -1.8591 -0.5929
  826MPD2    H112206   4.290   1.605  13.540 -0.3358 -0.8669  2.5560
  826MPD2    H212207   4.499   1.252  13.485 -0.8954 -2.6953  2.2755
  826MPD2    H312208   4.489   1.481  13.505  1.1143 -2.2814 -0.0451
  826MPD2     N12209   4.054   1.521  13.560  0.2741  0.0751  0.6818
  826MPD2    H512210   4.065   1.609  13.609  0.3225  0.1692  0.5012
  826MPD2    N112211   4.292   1.082  13.456 -0.1784 -0.1902 -0.4462
  826MPD2    H712212   4.388   1.051  13.444 -0.3380 -1.2683  1.0166
  827MPD2     C12213   4.175   2.584   9.953  0.0938 -0.5038 -0.8953
  827MPD2    C112214   4.224   2.456   9.981  0.6450 -0.2246 -0.1912
  827MPD2    C212215   4.213   2.364   9.882 -0.5756 -0.9223  0.5005
  827MPD2    C312216   4.164   2.395   9.759  0.6304  0.1680 -0.3033
  827MPD2    C412217   4.120   2.522   9.726 -0.7101 -0.2681  0.7088
  827MPD2    C512218   4.130   2.614   9.828  0.3236 -0.1916 -0.0803
  827MPD2     H12219   4.235   2.259   9.897  0.6056 -0.4967  1.7126
  827MPD2    H112220   4.073   2.553   9.633  0.8961  0.9642  0.3154
  827MPD2    H212221   4.176   2.657  10.033 -0.7720 -2.3287  0.7749
  827MPD2    H312222   4.097   2.716   9.814  0.3717 -0.1093  0.3841
  827MPD2     N12223   4.159   2.287   9.674 -0.2483 -0.0041 -0.6339
  827MPD2    H512224   4.221   2.207   9.687  1.4909  1.3410 -0.6474
  827MPD2    N112225   4.273   2.432  10.108 -0.1602  0.0453 -0.0360
  827MPD2    H712226   4.274   2.512  10.170 -1.4441 -0.3551  0.5033
  828MPD2     C12227   2.575   1.959  11.187  0.0405  0.2771 -0.0183
  828MPD2    C112228   2.586   1.992  11.320 -0.3340  0.0550 -0.6548
  828MPD2    C212229   2.708   2.010  11.381 -0.1089  0.8236  0.4653
  828MPD2    C312230   2.825   1.993  11.303 -0.8518  0.5326 -0.0196
  828MPD2    C412231   2.811   1.965  11.171  0.0814 -0.1262 -0.0596
  828MPD2    C512232   2.687   1.948  11.115 -0.0168  0.0637 -0.0412
  828MPD2     H12233   2.710   2.043  11.484 -2.0886  1.3094  0.3369
  828MPD2    H112234   2.901   1.964  11.111 -1.8477  0.5633 -3.0065
  828MPD2    H212235   2.482   1.961  11.133 -1.4797  0.0057  2.5796
  828MPD2    H312236   2.675   1.940  11.008 -2.5841 -1.0211  0.3132
  828MPD2     N12237   2.962   2.003  11.339 -0.7052 -0.1412  0.1912
  828MPD2    H512238   3.028   1.987  11.264 -1.2440  1.1893 -0.5692
  828MPD2    N112239   2.474   2.011  11.401  0.2036 -0.2061 -0.5758
  828MPD2    H712240   2.493   2.010  11.501 -0.2001 -1.9439 -0.5235
  829MPD2     C12241   2.114   1.339  11.968  0.2276 -0.3294  0.1817
  829MPD2    C112242   2.049   1.362  11.847  0.2162  0.3880  0.1930
  829MPD2    C212243   2.067   1.484  11.790  1.1406 -0.5318  0.5313
  829MPD2    C312244   2.150   1.578  11.844  0.4208  0.2576  0.2938
  829MPD2    C412245   2.219   1.554  11.958  0.5909  0.1219 -0.2502
  829MPD2    C512246   2.201   1.431  12.020 -0.1594 -0.7073 -0.5967
  829MPD2     H12247   2.010   1.510  11.702 -0.1310  0.3857  1.6132
  829MPD2    H112248   2.281   1.627  12.009 -0.4170 -1.0302  2.6203
  829MPD2    H212249   2.094   1.252  12.028 -1.0289 -2.3979 -3.2064
  829MPD2    H312250   2.243   1.418  12.119 -1.5286 -0.0226  0.0752
  829MPD2     N12251   2.177   1.702  11.785  0.1679  0.7081  0.6041
  829MPD2    H512252   2.247   1.756  11.836  2.6251 -1.5495 -0.3551
  829MPD2    N112253   1.935   1.289  11.801  0.3022  0.2287 -0.3105
  829MPD2    H712254   1.874   1.333  11.732 -1.0137 -0.4379  0.4331
  830MPD2     C12255   3.768   0.434  15.596  0.2514 -0.3168 -0.4637
  830MPD2    C112256   3.787   0.566  15.608  0.0842  0.6335  0.3818
  830MPD2    C212257   3.849   0.639  15.501 -0.3038  0.1086 -0.0711
  830MPD2    C312258   3.891   0.568  15.390 -0.1364  0.5712  0.6342
  830MPD2    C412259   3.866   0.430  15.382  0.0247 -0.2924 -0.4248
  830MPD2    C512260   3.816   0.361  15.485  0.0348 -0.8612  0.0563
  830MPD2     H12261   3.874   0.743  15.521 -2.0457  0.2778  1.1893
  830MPD2    H112262   3.900   0.363  15.305 -0.0518 -0.2984 -0.4527
  830MPD2    H212263   3.735   0.384  15.686  2.1260 -0.9784 -0.1486
  830MPD2    H312264   3.799   0.255  15.477 -1.7982 -0.5090 -0.7405
  830MPD2     N12265   3.956   0.631  15.283  0.4717 -0.0720 -0.1683
  830MPD2    H512266   3.990   0.562  15.216 -0.6924 -3.1833  2.4677
  830MPD2    N112267   3.740   0.633  15.724  0.2748 -0.2851 -0.2621
  830MPD2    H712268   3.700   0.573  15.795  0.3979 -0.7014 -0.5366
  831MPD2     C12269   3.234   2.125  16.386  0.1643  0.2230  0.5298
  831MPD2    C112270   3.288   2.017  16.320  0.0724  0.5098  0.2520
  831MPD2    C212271   3.241   1.889  16.344 -0.1711  0.9265 -0.3423
  831MPD2    C312272   3.141   1.864  16.442 -0.0114  0.9535 -0.3801
  831MPD2    C412273   3.095   1.973  16.512  0.3633 -0.1949 -0.1296
  831MPD2    C512274   3.137   2.101  16.480  0.2070 -0.1417 -0.5924
  831MPD2     H12275   3.291   1.814  16.285 -0.3796  0.4495  0.0807
  831MPD2    H112276   3.017   1.956  16.585  1.7975  0.5118  1.5684
  831MPD2    H212277   3.258   2.229  16.371 -1.2301  0.1233 -2.6184
  831MPD2    H312278   3.093   2.188  16.527 -0.3834 -0.6629 -0.1840
  831MPD2     N12279   3.084   1.736  16.477 -0.1909  0.1974  0.3423
  831MPD2    H512280   3.013   1.733  16.550 -0.1128 -4.1053  0.2435
  831MPD2    N112281   3.380   2.041  16.217  0.2359  0.0355  0.2254
  831MPD2    H712282   3.363   2.132  16.176  0.2027 -0.0850 -0.0286
  832MPD2     C12283   1.744   3.218  16.969  0.4908 -0.2534 -0.8245
  832MPD2    C112284   1.719   3.342  16.931 -0.0377 -0.3656 -0.3454
  832MPD2    C212285   1.597   3.376  16.876  0.4381 -0.4124  0.2021
  832MPD2    C312286   1.510   3.275  16.837 -1.5551  0.0584  0.0493
  832MPD2    C412287   1.542   3.142  16.863  0.6469 -0.0239  0.0458
  832MPD2    C512288   1.654   3.116  16.933  0.5058 -0.4876  0.1561
  832MPD2     H12289   1.581   3.478  16.842 -0.2890 -0.2413  1.0348
  832MPD2    H112290   1.485   3.057  16.827 -0.6043  0.5793  0.6054
  832MPD2    H212291   1.839   3.190  17.014 -0.2635 -0.1968  0.8250
  832MPD2    H312292   1.683   3.012  16.940  3.8172  0.2950 -2.4447
  832MPD2     N12293   1.389   3.286  16.772 -0.0420  0.4721  0.1867
  832MPD2    H512294   1.339   3.204  16.740  2.3321 -0.8777 -0.0491
  832MPD2    N112295   1.821   3.434  16.957 -0.4747  0.4037  0.0452
  832MPD2    H712296   1.900   3.389  17.002 -0.4872  0.9487  0.6124
  833MPD2     C12297   3.470   0.033  12.689  0.3663 -0.3858 -0.2037
  833MPD2    C112298   3.555   0.141  12.656 -0.6748 -0.4274  0.2337
  833MPD2    C212299   3.655   0.126  12.558  0.2638 -0.6468  0.6287
  833MPD2    C312300   3.676   0.000  12.504 -0.0694  0.3933 -0.4166
  833MPD2    C412301   3.598   4.630  12.545  0.1107  0.1774 -0.2168
  833MPD2    C512302   3.493   4.649  12.628 -0.3177  0.6553  0.6613
  833MPD2     H12303   3.699   0.214  12.513  1.8185 -1.1923  1.0979
  833MPD2    H112304   3.615   4.531  12.506 -3.3338 -1.2038  1.7856
  833MPD2    H212305   3.381   0.045  12.749  2.1761  2.6436  1.9188
  833MPD2    H312306   3.429   4.564  12.651 -1.5245  1.3024 -0.2632
  833MPD2     N12307   3.770   4.711  12.402  0.4377 -0.1408  0.0662
  833MPD2    H512308   3.771   4.618  12.361  0.7522  0.5109 -1.4052
  833MPD2    N112309   3.524   0.270  12.713  0.0669 -0.9915  0.3386
  833MPD2    H712310   3.425   0.278  12.732  0.1873  2.1569 -0.3737
  834MPD2     C12311   3.250   4.279  11.840  0.8885  0.5131  0.9117
  834MPD2    C112312   3.350   4.281  11.741  0.7713  1.1463  0.0512
  834MPD2    C212313   3.462   4.365  11.758  0.7247  0.2972  0.2191
  834MPD2    C312314   3.467   4.438  11.880 -0.7406  0.0341  0.5749
  834MPD2    C412315   3.365   4.429  11.974  0.5255  0.1988  0.1492
  834MPD2    C512316   3.256   4.354  11.952  0.5596  0.3291  0.4638
  834MPD2     H12317   3.535   4.360  11.677 -0.3515 -4.1026 -0.4739
  834MPD2    H112318   3.355   4.497  12.058  3.4286  1.0452 -0.1840
  834MPD2    H212319   3.170   4.206  11.836  1.5028 -0.3431  3.8293
  834MPD2    H312320   3.172   4.363  12.020  0.5092  0.2302  0.4145
  834MPD2     N12321   3.591   4.504  11.910 -0.1634 -0.2456 -0.0896
  834MPD2    H512322   3.649   4.533  11.832 -3.1977 -1.6413 -2.8770
  834MPD2    N112323   3.320   4.193  11.640 -0.2671 -0.1391  0.0284
  834MPD2    H712324   3.248   4.123  11.653 -0.8362  0.5011  0.3248
  835MPD2     C12325   3.378   2.340  11.162  0.5885 -0.4748 -0.4809
  835MPD2    C112326   3.271   2.353  11.258  0.0950  0.1111  0.6424
  835MPD2    C212327   3.301   2.333  11.392 -0.3014  1.1662  0.6680
  835MPD2    C312328   3.424   2.315  11.441  0.1543 -0.5377 -0.0372
  835MPD2    C412329   3.531   2.312  11.352 -0.8527  0.1616 -0.6664
  835MPD2    C512330   3.502   2.320  11.215 -0.3098  0.0997  0.5988
  835MPD2     H12331   3.222   2.340  11.466 -0.6488  2.0127  0.2209
  835MPD2    H112332   3.633   2.308  11.389 -1.0084 -1.1156 -0.3647
  835MPD2    H212333   3.366   2.357  11.056  1.2208  0.9574 -0.3166
  835MPD2    H312334   3.588   2.319  11.149 -0.2528 -1.6394  0.6787
  835MPD2     N12335   3.461   2.303  11.581  0.5431  0.5336  0.2061
  835MPD2    H512336   3.558   2.283  11.603  0.7087  0.5924 -0.4597
  835MPD2    N112337   3.141   2.376  11.214 -0.3698  0.1955  0.2321
  835MPD2    H712338   3.060   2.375  11.275  0.4806 -0.4873  1.3558
  836MPD2     C12339   2.924   2.305  12.132 -0.7215 -0.2257 -0.4692
  836MPD2    C112340   3.049   2.337  12.189 -0.0617  0.0436  0.5137
  836MPD2    C212341   3.058   2.402  12.318  0.1849 -0.0305 -0.7517
  836MPD2    C312342   2.945   2.423  12.390 -0.2406 -0.1772  0.0657
  836MPD2    C412343   2.824   2.388  12.336 -0.5020 -0.0912  0.0921
  836MPD2    C512344   2.815   2.329  12.211  0.5080 -0.1403  0.5327
  836MPD2     H12345   3.158   2.427  12.353  0.1279 -1.6977  0.6041
  836MPD2    H112346   2.733   2.406  12.392 -0.1086 -1.5776  1.1915
  836MPD2    H212347   2.915   2.255  12.037 -2.6428 -1.7033  0.4995
  836MPD2    H312348   2.722   2.312  12.158  1.6773  0.2773 -1.6571
  836MPD2     N12349   2.948   2.487  12.518 -0.0644 -0.4621 -0.6613
  836MPD2    H512350   2.861   2.516  12.562  0.9208  1.7330 -0.1264
  836MPD2    N112351   3.165   2.316  12.107 -0.0265 -0.4120  0.0684
  836MPD2    H712352   3.143   2.292  12.011  2.3978  0.0306 -0.6077
  837MPD2     C12353   1.668   1.949  10.425  0.0737 -0.2808  1.4179
  837MPD2    C112354   1.551   1.992  10.370 -0.1093  0.4457 -0.2893
  837MPD2    C212355   1.506   2.112  10.411  0.8602 -0.1776 -0.9942
  837MPD2    C312356   1.552   2.184  10.524 -0.0724 -0.2954  0.2767
  837MPD2    C412357   1.660   2.130  10.596 -0.2824 -0.5773  0.0196
  837MPD2    C512358   1.717   2.016  10.541 -0.6682  0.3443  0.4446
  837MPD2     H12359   1.424   2.148  10.349  0.2145  0.3199  0.1346
  837MPD2    H112360   1.703   2.191  10.674 -2.8988  0.3356  0.7447
  837MPD2    H212361   1.720   1.868  10.375  0.2230  0.3589  0.5488
  837MPD2    H312362   1.811   1.983  10.584  0.7586  4.9454  0.8707
  837MPD2     N12363   1.492   2.309  10.546 -0.3409 -0.0310  0.1458
  837MPD2    H512364   1.414   2.330  10.486  1.0101 -2.4315 -2.4704
  837MPD2    N112365   1.489   1.945  10.262 -0.0662  0.1808 -0.1620
  837MPD2    H712366   1.396   1.983  10.249  0.1080  0.4702 -0.5538
  838MPD2     C12367   4.218   4.291  10.751  0.4358  0.1591  0.2708
  838MPD2    C112368   4.201   4.418  10.805  0.6350 -0.7223  0.3048
  838MPD2    C212369   4.094   4.449  10.878 -0.3788  0.0777 -0.7276
  838MPD2    C312370   4.004   4.346  10.906 -0.1471 -0.0356  1.2019
  838MPD2    C412371   4.023   4.214  10.860  0.2616  0.4740 -0.3979
  838MPD2    C512372   4.133   4.192  10.783 -0.0685 -0.8368 -0.1371
  838MPD2     H12373   4.086   4.550  10.916 -0.2410 -0.0906 -0.2559
  838MPD2    H112374   3.956   4.131  10.876 -0.6618  0.9774 -1.6114
  838MPD2    H212375   4.310   4.269  10.698  0.4734 -0.9728  0.8298
  838MPD2    H312376   4.150   4.098  10.732  4.2203  0.1364 -0.4664
  838MPD2     N12377   3.902   4.389  10.987 -0.2529 -0.2464  0.4591
  838MPD2    H512378   3.906   4.485  11.020  0.2508 -0.1877  0.2253
  838MPD2    N112379   4.300   4.520  10.787 -0.0625  0.8524  0.6243
  838MPD2    H712380   4.276   4.611  10.826  2.4515  2.0250 -0.5420
  839MPD2     C12381   4.223   4.669  11.371 -0.1468  0.5279 -0.6283
  839MPD2    C112382   4.246   4.620  11.244  0.4301  0.0835  0.2540
  839MPD2    C212383   4.304   4.701  11.147  0.5458 -0.2199 -0.3037
  839MPD2    C312384   4.352   0.089  11.191  0.5445 -0.1186  0.1377
  839MPD2    C412385   4.335   0.132  11.321 -0.2223 -0.4463  0.0415
  839MPD2    C512386   4.267   0.055  11.410  0.8969 -0.4122 -0.6677
  839MPD2     H12387   4.322   4.660  11.048  1.2508  0.0708 -0.2900
  839MPD2    H112388   4.380   0.228  11.346  0.4768 -0.8275  0.2426
  839MPD2    H212389   4.165   4.615  11.445 -0.3878 -1.4426 -2.2629
  839MPD2    H312390   4.254   0.106  11.504  0.3503 -0.5102 -0.6869
  839MPD2     N12391   4.401   0.170  11.089 -0.0783 -0.4300 -0.9108
  839MPD2    H512392   4.491   0.213  11.106  0.3434 -1.8251  0.4654
  839MPD2    N112393   4.238   4.483  11.212 -0.0427  0.4716 -0.4605
  839MPD2    H712394   4.276   4.454  11.122 -1.8536 -1.4534 -0.6107
  840MPD2     C12395   0.239   2.116  10.196  0.2669 -0.3648  0.5091
  840MPD2    C112396   0.183   2.162  10.313  0.2142 -0.3265  0.4891
  840MPD2    C212397   0.253   2.183  10.429  0.3503 -1.1380  0.0365
  840MPD2    C312398   0.390   2.167  10.422 -0.2958 -1.1361 -0.2542
  840MPD2    C412399   0.448   2.104  10.316 -0.1228  0.1278 -0.0442
  840MPD2    C512400   0.376   2.080  10.198 -0.1244  0.2142 -0.4508
  840MPD2     H12401   0.212   2.226  10.520 -0.9526 -2.0705 -0.1115
  840MPD2    H112402   0.554   2.083  10.308 -0.6291 -2.1012 -0.8970
  840MPD2    H212403   0.174   2.089  10.114  1.5178  0.3680 -0.7309
  840MPD2    H312404   0.424   2.032  10.114  0.7394  1.0855 -0.4482
  840MPD2     N12405   0.482   2.188  10.526  0.0540 -0.8292  0.1268
  840MPD2    H512406   0.579   2.163  10.510  0.1535 -1.2774  1.4509
  840MPD2    N112407   0.045   2.182  10.304  0.4523  0.4275  0.0632
  840MPD2    H712408   0.005   2.218  10.218 -0.1292  0.4881  0.3566
  841MPD2     C12409   0.523   2.581  13.901  0.3703  0.1320  0.6277
  841MPD2    C112410   0.590   2.488  13.979  0.8665 -0.1580  0.2681
  841MPD2    C212411   0.690   2.527  14.068  0.2434 -0.1049  0.0859
  841MPD2    C312412   0.740   2.655  14.061 -0.9287 -0.1277  0.1985
  841MPD2    C412413   0.692   2.741  13.972  0.5110 -0.2849 -0.1130
  841MPD2    C512414   0.584   2.708  13.897  0.3784 -0.2893 -0.3911
  841MPD2     H12415   0.720   2.470  14.156 -0.2146  0.9456  0.9340
  841MPD2    H112416   0.734   2.841  13.965 -0.3130  0.0162 -0.8546
  841MPD2    H212417   0.437   2.565  13.838  0.0589  1.2229  0.7737
  841MPD2    H312418   0.546   2.791  13.837  0.5344  2.7722  3.7569
  841MPD2     N12419   0.841   2.691  14.158 -0.2315  0.1247  0.6184
  841MPD2    H512420   0.875   2.615  14.217 -0.8568  0.2572  1.1574
  841MPD2    N112421   0.517   2.365  13.999 -0.1322 -0.0799 -0.2718
  841MPD2    H712422   0.432   2.358  13.944 -0.9942  0.0751  1.0409
  842MPD2     C12423   0.974   3.483  16.960 -0.1089  0.2912 -0.5099
  842MPD2    C112424   0.841   3.452  16.936  0.0126 -0.1343 -0.6095
  842MPD2    C212425   0.788   3.336  17.001 -1.3359 -0.8446 -0.0301
  842MPD2    C312426   0.862   3.267  17.097 -0.3417  0.1852  0.4655
  842MPD2    C412427   0.996   3.312  17.126  0.4782 -0.6575  0.1661
  842MPD2    C512428   1.047   3.421  17.060  0.1804 -0.3499 -0.3079
  842MPD2     H12429   0.683   3.310  16.987 -2.2180  2.8781 -0.2296
  842MPD2    H112430   1.058   3.271  17.204 -1.4104 -1.6911  1.1313
  842MPD2    H212431   1.009   3.577  16.921 -0.6930  0.3211 -0.9538
  842MPD2    H312432   1.144   3.462  17.086  0.2431 -0.1580 -0.8405
  842MPD2     N12433   0.815   3.146  17.164 -0.0779 -0.0588  0.5257
  842MPD2    H512434   0.883   3.081  17.202  1.7011  0.6862 -1.3898
  842MPD2    N112435   0.764   3.522  16.836  0.0605 -0.2148  0.5970
  842MPD2    H712436   0.816   3.591  16.783  0.8585 -2.0322 -1.0002
  843MPD2     C12437   2.484   0.098  17.555  0.6628  0.6538 -0.3792
  843MPD2    C112438   2.543   4.714  17.551  0.1229 -0.6663 -0.0837
  843MPD2    C212439   2.660   4.688  17.633  0.1923  0.4388 -0.0113
  843MPD2    C312440   2.717   0.057  17.711 -0.2501 -0.1024  0.5339
  843MPD2    C412441   2.660   0.185  17.701  0.8181  0.4183 -1.0227
  843MPD2    C512442   2.544   0.196  17.630  0.6046 -0.4080 -0.1566
  843MPD2     H12443   2.704   4.589  17.630 -1.5101 -0.2833 -0.9554
  843MPD2    H112444   2.701   0.264   0.018 -1.7927  0.8897  0.1281
  843MPD2    H212445   2.392   0.120  17.502  0.8772  0.5094 -0.8136
  843MPD2    H312446   2.495   0.292  17.631 -1.3857 -1.4033 -1.5818
  843MPD2     N12447   2.847   0.051   0.040 -0.4250  0.4586  0.2609
  843MPD2    H512448   2.884   0.139   0.074  2.7012  0.1938 -2.3663
  843MPD2    N112449   2.487   4.628  17.455 -0.3869  0.5778 -0.0693
  843MPD2    H712450   2.415   4.671  17.399 -0.9348 -4.3404 -3.1753
  844MPD2     C12451   1.200   3.112  16.134  0.1391  0.5175  0.3701
  844MPD2    C112452   1.327   3.062  16.148 -0.0307 -0.1875  0.0788
  844MPD2    C212453   1.422   3.139  16.214 -0.4679 -0.7351 -0.0972
  844MPD2    C312454   1.388   3.268  16.263  0.4099 -0.1117 -0.0509
  844MPD2    C412455   1.257   3.310  16.249 -0.0999  0.3350  0.3766
  844MPD2    C512456   1.159   3.232  16.188  0.3832  0.9354 -0.7455
  844MPD2     H12457   1.526   3.112  16.227  0.1548 -0.0410 -3.6321
  844MPD2    H112458   1.236   3.411  16.284  0.6686  0.3318  0.8511
  844MPD2    H212459   1.124   3.065  16.073 -0.0729  0.9038  0.3330
  844MPD2    H312460   1.067   3.281  16.157 -0.1553  0.9920  0.9344
  844MPD2     N12461   1.485   3.338  16.337 -0.4237 -0.2746  0.1246
  844MPD2    H512462   1.570   3.288  16.363 -0.8713 -0.4325  1.2554
  844MPD2    N112463   1.364   2.936  16.102  1.0289  0.2248 -0.5173
  844MPD2    H712464   1.463   2.920  16.086  0.6387 -2.7612  0.0036
  845MPD2     C12465   1.637   4.271  16.685 -0.7677 -0.3387  0.9536
  845MPD2    C112466   1.686   4.169  16.762  0.5979 -0.0172 -0.8433
  845MPD2    C212467   1.709   4.048  16.705  0.0123  0.1228  0.4630
  845MPD2    C312468   1.664   4.025  16.576 -0.1236  1.0603 -0.6395
  845MPD2    C412469   1.602   4.123  16.510 -0.0313 -0.0796 -0.6563
  845MPD2    C512470   1.593   4.252  16.560 -0.0429 -0.4857  0.0401
  845MPD2     H12471   1.755   3.969  16.763 -1.7741  0.1516  1.9285
  845MPD2    H112472   1.562   4.105  16.411 -0.9184  0.6082 -0.4265
  845MPD2    H212473   1.631   4.374  16.718 -0.4855 -0.0340  0.0669
  845MPD2    H312474   1.544   4.331  16.504  0.9563  0.6662  0.7716
  845MPD2     N12475   1.672   3.903  16.514  0.6048  0.0750  0.1183
  845MPD2    H512476   1.613   3.895  16.432  0.7241 -1.1534  0.1569
  845MPD2    N112477   1.723   4.209  16.890 -0.2618  0.6512 -0.2727
  845MPD2    H712478   1.700   4.302  16.925  0.2656  0.3898  0.7915
  846MPD2     C12479   3.336   4.129  13.897 -0.0909  0.1713 -0.5532
  846MPD2    C112480   3.232   4.219  13.887 -0.2265  0.4236 -0.3791
  846MPD2    C212481   3.182   4.263  14.003 -0.0122 -0.2222 -0.6526
  846MPD2    C312482   3.227   4.225  14.126  0.5419 -0.0793  0.7369
  846MPD2    C412483   3.319   4.123  14.132  0.0058  0.4993  0.0485
  846MPD2    C512484   3.382   4.079  14.018 -0.2266 -0.2505  0.6318
  846MPD2     H12485   3.098   4.332  14.001  0.9248  0.8541 -3.1593
  846MPD2    H112486   3.364   4.076  14.219 -2.5138 -2.3075 -0.1701
  846MPD2    H212487   3.382   4.090  13.806 -2.7435 -0.0601 -1.7862
  846MPD2    H312488   3.462   4.007  14.031  0.4218 -0.0046 -2.0244
  846MPD2     N12489   3.160   4.270  14.245  0.2477 -0.6169 -0.0658
  846MPD2    H512490   3.094   4.346  14.236  1.8223  0.7789  0.2258
  846MPD2    N112491   3.182   4.264  13.765  0.2975 -0.0643 -0.0282
  846MPD2    H712492   3.123   4.346  13.778 -1.5392 -1.2398 -0.8845
  847MPD2     C12493   2.757   0.247  14.652  0.0739 -0.0907  0.0450
  847MPD2    C112494   2.862   0.318  14.610 -0.0012  0.2900 -0.1176
  847MPD2    C212495   2.989   0.256  14.617  0.1423  0.1074  0.2120
  847MPD2    C312496   3.001   0.131  14.662 -0.0321  0.3784 -0.6180
  847MPD2    C412497   2.892   0.059  14.707  0.1829  0.7970 -0.5650
  847MPD2    C512498   2.768   0.122  14.700  0.0142 -0.2629 -0.0754
  847MPD2     H12499   3.071   0.317  14.581  1.7432 -0.9822  1.9913
  847MPD2    H112500   2.898   4.697  14.752  0.0712  0.9213 -0.2796
  847MPD2    H212501   2.662   0.297  14.664 -0.4796 -1.3250  0.8310
  847MPD2    H312502   2.678   0.069  14.731 -1.4010  3.4576  2.1088
  847MPD2     N12503   3.134   0.084  14.661 -0.9128 -0.3105  0.2222
  847MPD2    H512504   3.205   0.147  14.625 -1.2115  0.1041  0.3639
  847MPD2    N112505   2.860   0.455  14.561  0.5745  0.1459 -0.0504
  847MPD2    H712506   2.954   0.492  14.546 -0.4856  3.0830  0.4707
  848MPD2     C12507   0.959   3.724  16.203  0.5141 -0.2590  0.3738
  848MPD2    C112508   1.060   3.727  16.295 -0.1971  0.7578  0.0804
  848MPD2    C212509   1.130   3.846  16.322 -0.3516  0.7271  0.2517
  848MPD2    C312510   1.121   3.954  16.239  0.6728 -0.2132 -0.3465
  848MPD2    C412511   1.023   3.948  16.142 -0.3204 -0.1355 -0.2270
  848MPD2    C512512   0.946   3.839  16.124  0.0273  0.2156  0.0192
  848MPD2     H12513   1.211   3.839  16.395  0.8619  1.6510 -1.0079
  848MPD2    H112514   1.009   4.027  16.070  1.5070  0.1067 -0.2972
  848MPD2    H212515   0.888   3.643  16.194 -1.2946  1.2532  0.8943
  848MPD2    H312516   0.862   3.846  16.057  1.2653  0.4346 -1.5130
  848MPD2     N12517   1.180   4.079  16.260  0.4178  0.6584  0.2984
  848MPD2    H512518   1.144   4.153  16.201  1.6963  3.5924  3.2437
  848MPD2    N112519   1.079   3.621  16.383 -0.9427 -0.3727 -0.3034
  848MPD2    H712520   1.154   3.634  16.450 -1.5507 -0.6717  0.4267
  849MPD2     C12521   0.457   3.176  13.848  0.6146 -0.4659 -0.2028
  849MPD2    C112522   0.552   3.253  13.781  0.5485  0.4451  0.6016
  849MPD2    C212523   0.672   3.282  13.850  0.5386 -0.3213 -0.1817
  849MPD2    C312524   0.690   3.242  13.978 -0.4013  0.4634 -0.5538
  849MPD2    C412525   0.590   3.179  14.051 -0.5248 -0.5393  0.2614
  849MPD2    C512526   0.477   3.145  13.980 -0.3855 -0.7085  0.0766
  849MPD2     H12527   0.759   3.330  13.806  0.6354 -3.1648 -3.0501
  849MPD2    H112528   0.599   3.132  14.148  0.9710  2.3017  1.4960
  849MPD2    H212529   0.359   3.152  13.808 -0.5810  1.0310  1.8773
  849MPD2    H312530   0.395   3.093  14.028  0.6949 -1.3185  1.2707
  849MPD2     N12531   0.820   3.255  14.032 -0.3212 -0.1899  0.1676
  849MPD2    H512532   0.892   3.288  13.968  0.0478 -0.2483  0.5485
  849MPD2    N112533   0.523   3.295  13.649  0.0540 -0.6343  0.1075
  849MPD2    H712534   0.437   3.273  13.599 -1.2111 -0.3175  2.1505
  850MPD2     C12535   3.172   1.038  14.739  0.2656  0.0925 -0.3074
  850MPD2    C112536   3.155   1.165  14.785 -0.5863 -0.2058  0.5249
  850MPD2    C212537   3.269   1.243  14.811  0.4186  0.3959  0.1749
  850MPD2    C312538   3.398   1.196  14.803  0.7575  0.8342  0.4713
  850MPD2    C412539   3.403   1.062  14.765  0.6942 -0.1835 -0.4999
  850MPD2    C512540   3.295   0.989  14.726  0.0047 -0.0825 -0.1242
  850MPD2     H12541   3.256   1.341  14.857 -1.1288 -0.4389  1.5167
  850MPD2    H112542   3.504   1.027  14.746  1.1501 -0.4325  2.3143
  850MPD2    H212543   3.092   0.965  14.731  1.9357 -1.9590  1.7066
  850MPD2    H312544   3.311   0.884  14.703  0.3261 -0.6795  2.8764
  850MPD2     N12545   3.511   1.267  14.832  0.3052 -0.7210  0.1667
  850MPD2    H512546   3.595   1.210  14.829  0.3410 -0.5693 -1.7899
  850MPD2    N112547   3.017   1.196  14.818 -0.4322  0.1202  0.3521
  850MPD2    H712548   2.959   1.139  14.758 -0.7611  0.5081  0.3041
  851MPD2     C12549   3.591   1.388  15.401 -0.0932  0.2907 -0.1005
  851MPD2    C112550   3.544   1.305  15.301  0.8034 -0.2699 -0.5299
  851MPD2    C212551   3.620   1.219  15.223  0.1756  0.7189 -0.0355
  851MPD2    C312552   3.754   1.226  15.244 -0.3326 -0.2952 -0.0166
  851MPD2    C412553   3.803   1.307  15.341 -0.2037 -0.1260  0.3095
  851MPD2    C512554   3.724   1.384  15.423 -0.0560  0.6031  0.3592
  851MPD2     H12555   3.580   1.141  15.160  0.2023  1.7133 -1.2664
  851MPD2    H112556   3.908   1.335  15.341 -0.5339  1.1016  0.0594
  851MPD2    H212557   3.531   1.456  15.460  0.3637 -0.4829  1.2532
  851MPD2    H312558   3.771   1.460  15.484  0.4611  0.8130 -0.2939
  851MPD2     N12559   3.836   1.147  15.162 -0.0807 -0.4274  0.0309
  851MPD2    H512560   3.792   1.100  15.083 -0.7978 -1.0634  0.8205
  851MPD2    N112561   3.403   1.313  15.295 -0.0496  0.4128  0.4955
  851MPD2    H712562   3.363   1.401  15.327 -1.4698 -0.1682  0.3192
  852MPD2     C12563   1.484   3.158  10.652  0.3230  0.1570  0.0452
  852MPD2    C112564   1.611   3.129  10.693  0.3694 -0.0145  0.1712
  852MPD2    C212565   1.720   3.138  10.605 -0.1233  0.1440  0.2790
  852MPD2    C312566   1.694   3.170  10.473 -0.2603  1.0940 -0.1760
  852MPD2    C412567   1.559   3.200  10.431  0.3341 -0.6004  0.2828
  852MPD2    C512568   1.459   3.187  10.520 -0.2568  0.0040 -0.0763
  852MPD2     H12569   1.822   3.126  10.640  0.0682 -1.7832 -0.9803
  852MPD2    H112570   1.541   3.232  10.329 -2.6508 -1.1701  0.6369
  852MPD2    H212571   1.407   3.168  10.727  0.7902  0.2505  0.5127
  852MPD2    H312572   1.355   3.204  10.494 -0.4574  2.5353  2.3842
  852MPD2     N12573   1.807   3.192  10.389 -0.4603  0.5322 -0.0541
  852MPD2    H512574   1.895   3.184  10.439 -1.5766  0.4190  1.8915
  852MPD2    N112575   1.642   3.111  10.832  0.6735 -0.5597 -0.3366
  852MPD2    H712576   1.733   3.075  10.858  1.5594  0.1932 -2.3979
  853MPD2     C12577   4.490   3.202  12.214 -0.7034 -0.3858 -0.1035
  853MPD2    C112578   4.464   3.299  12.117 -0.2664  0.6758  0.5002
  853MPD2    C212579   4.466   3.265  11.979 -0.1863 -0.2682  0.4240
  853MPD2    C312580   4.480   3.131  11.950 -0.3530  0.6018  0.3102
  853MPD2    C412581   4.509   3.036  12.045 -0.0640 -0.6267 -0.6716
  853MPD2    C512582   4.514   3.070  12.177  0.0889 -0.0319  0.3871
  853MPD2     H12583   4.459   3.345  11.906 -0.5193  0.3715  1.1546
  853MPD2    H112584   4.519   2.931  12.024  3.5477 -0.2724 -0.8089
  853MPD2    H212585   4.489   3.225  12.320 -0.2183  1.0499 -0.4016
  853MPD2    H312586   4.520   2.993  12.254 -0.4177 -1.1026 -0.6462
  853MPD2     N12587   4.476   3.088  11.811 -0.0548  0.5330 -0.2177
  853MPD2    H512588   4.499   2.991  11.788 -1.4612  0.1369  0.0468
  853MPD2    N112589   4.441   3.426  12.171 -0.3577 -0.1073  0.9705
  853MPD2    H712590   4.441   3.424  12.272  1.7520  1.8506  1.0159
  854MPD2     C12591   2.172   4.188  12.715  0.6605  0.4958 -0.0728
  854MPD2    C112592   2.172   4.077  12.634  0.2431 -0.4302 -0.4041
  854MPD2    C212593   2.185   3.950  12.700 -0.1180  0.2432  0.5085
  854MPD2    C312594   2.190   3.945  12.836 -0.1571 -0.0388 -0.5830
  854MPD2    C412595   2.197   4.061  12.907  0.5610 -0.1456 -0.0411
  854MPD2    C512596   2.181   4.179  12.849  0.0133  0.2588  0.6847
  854MPD2     H12597   2.194   3.862  12.639 -4.0422 -1.4856  2.4089
  854MPD2    H112598   2.201   4.065  13.015  0.3224  0.8758 -0.0713
  854MPD2    H212599   2.170   4.289  12.677 -2.5931  1.1746  1.9318
  854MPD2    H312600   2.196   4.267  12.911 -0.6853  2.5420 -2.3537
  854MPD2     N12601   2.194   3.819  12.907  0.2226 -0.9486 -0.0566
  854MPD2    H512602   2.229   3.824  13.003  1.6061  0.4690 -0.6261
  854MPD2    N112603   2.156   4.088  12.491  0.1631  0.6884 -0.1135
  854MPD2    H712604   2.120   4.176  12.455  0.0914  1.3470  1.5663
  855MPD2     C12605   2.476   3.767  13.701  0.0226  0.0607 -0.1878
  855MPD2    C112606   2.450   3.635  13.680 -0.4900  0.5729 -0.1252
  855MPD2    C212607   2.432   3.589  13.551  0.4563 -0.5418  0.1318
  855MPD2    C312608   2.435   3.681  13.449  0.2567  0.7117 -0.4489
  855MPD2    C412609   2.459   3.813  13.472 -0.1751 -0.9351  0.4026
  855MPD2    C512610   2.483   3.853  13.593 -0.5036 -0.6481 -0.0351
  855MPD2     H12611   2.422   3.482  13.537 -2.5972 -0.4343  1.3795
  855MPD2    H112612   2.486   3.880  13.391 -1.3804  0.5677  1.2365
  855MPD2    H212613   2.478   3.808  13.801  4.4274 -1.2299  0.2565
  855MPD2    H312614   2.510   3.954  13.620 -1.5328 -0.7999  1.5768
  855MPD2     N12615   2.407   3.645  13.319 -0.9614 -0.3772 -0.1286
  855MPD2    H512616   2.420   3.715  13.246  2.1750  0.3749  1.1825
  855MPD2    N112617   2.442   3.544  13.786  0.2081 -0.6563  0.4998
  855MPD2    H712618   2.393   3.459  13.762 -0.4941 -0.1200  0.0425
  856MPD2     C12619   4.107   4.296  13.899 -0.7826  0.3929  0.0262
  856MPD2    C112620   4.215   4.380  13.878  0.2865  0.3738 -0.1065
  856MPD2    C212621   4.210   4.464  13.773  0.0166 -0.4182 -0.4689
  856MPD2    C312622   4.105   4.475  13.682  0.5243  0.4581  0.4365
  856MPD2    C412623   3.993   4.399  13.710  0.3201 -0.0239 -0.1905
  856MPD2    C512624   4.001   4.309  13.815 -0.1913  0.0581 -0.2142
  856MPD2     H12625   4.299   4.524  13.762 -0.1860 -0.1363 -0.5830
  856MPD2    H112626   3.907   4.407  13.644 -0.3427  1.4465  0.8217
  856MPD2    H212627   4.102   4.217  13.974  1.2888 -0.4346 -0.6874
  856MPD2    H312628   3.920   4.242  13.841  0.1576 -0.6145 -0.8681
  856MPD2     N12629   4.104   4.555  13.570  0.3019 -0.1402 -0.8172
  856MPD2    H512630   4.018   4.555  13.516 -0.2762  0.4028  0.1122
  856MPD2    N112631   4.329   4.388  13.962  0.8223  0.0946  0.5866
  856MPD2    H712632   4.409   4.448  13.944  0.5144 -0.0788 -1.4537
  857MPD2     C12633   1.584   1.992  12.597 -0.5188 -0.6027  0.6843
  857MPD2    C112634   1.510   1.947  12.701 -0.1759 -0.2095 -1.2676
  857MPD2    C212635   1.524   2.018  12.819  0.4081 -0.0830  0.5878
  857MPD2    C312636   1.608   2.126  12.827  0.4278  0.4914  0.5837
  857MPD2    C412637   1.675   2.176  12.715  0.0461 -0.0948 -0.4076
  857MPD2    C512638   1.662   2.108  12.597  0.6981 -0.5777 -0.4319
  857MPD2     H12639   1.464   1.984  12.902  1.8111  0.4327  1.8159
  857MPD2    H112640   1.731   2.270  12.713 -0.8315  0.4480  1.1140
  857MPD2    H212641   1.575   1.953  12.497 -0.4848  1.6349 -0.2001
  857MPD2    H312642   1.707   2.133  12.501  0.6668  1.4723  0.0918
  857MPD2     N12643   1.613   2.196  12.949 -0.7768 -0.4168  0.0932
  857MPD2    H512644   1.584   2.136  13.026  1.1669 -0.7400  0.5740
  857MPD2    N112645   1.429   1.833  12.675 -0.1921  0.0808  0.6673
  857MPD2    H712646   1.413   1.802  12.580  1.4887  0.0589  0.4002
  858MPD2     C12647   1.561   0.879  16.456  0.4628  0.5238 -0.2698
  858MPD2    C112648   1.691   0.915  16.472  0.1589  0.5606  0.3259
  858MPD2    C212649   1.733   1.006  16.572  0.1570  0.2094 -0.3037
  858MPD2    C312650   1.636   1.058  16.655 -0.2371 -0.1962  0.2417
  858MPD2    C412651   1.498   1.028  16.636 -0.9431 -0.5364 -0.4303
  858MPD2    C512652   1.466   0.937  16.537  0.4649  0.2053  0.8527
  858MPD2     H12653   1.840   1.017  16.581  0.1908 -1.2933  1.0677
  858MPD2    H112654   1.413   1.064  16.693 -1.1412  0.0171 -1.0799
  858MPD2    H212655   1.540   0.805  16.380  0.4323  1.2583 -0.9857
  858MPD2    H312656   1.366   0.896  16.527  0.2656  0.8532  0.2012
  858MPD2     N12657   1.670   1.151  16.761 -0.5709  0.2328 -0.4232
  858MPD2    H512658   1.592   1.171  16.824  0.8174  0.7270  1.1433
  858MPD2    N112659   1.788   0.846  16.391  0.2825  0.7144  0.4557
  858MPD2    H712660   1.755   0.769  16.333  2.6970  0.1724 -0.1678
  859MPD2     C12661   0.569   3.280  15.630  0.4191 -0.2364 -0.2529
  859MPD2    C112662   0.593   3.250  15.498 -0.6374  0.1590  0.2169
  859MPD2    C212663   0.581   3.114  15.459  0.3925 -0.0859  0.4332
  859MPD2    C312664   0.559   3.013  15.554 -0.3958  0.1523 -0.2335
  859MPD2    C412665   0.531   3.051  15.682 -0.0377  0.8483 -0.5204
  859MPD2    C512666   0.531   3.182  15.714  0.1639  0.0381 -1.3549
  859MPD2     H12667   0.599   3.090  15.355 -0.1958  2.3880 -0.2288
  859MPD2    H112668   0.504   2.982  15.761 -0.6656  0.4843 -1.0598
  859MPD2    H212669   0.581   3.379  15.672  1.0590  0.0446 -1.1044
  859MPD2    H312670   0.519   3.207  15.819  0.2616 -1.4507 -0.9875
  859MPD2     N12671   0.570   2.872  15.531  0.9049 -0.9426 -0.2327
  859MPD2    H512672   0.544   2.810  15.608  0.0840  1.7634  1.6494
  859MPD2    N112673   0.627   3.354  15.415  0.4243 -0.2279  0.0268
  859MPD2    H712674   0.634   3.445  15.459  0.2807 -0.4061  0.4172
  860MPD2     C12675   3.009   2.843  11.677 -0.2885  0.1697  0.2160
  860MPD2    C112676   2.996   2.971  11.733 -0.2450  0.3488  0.1095
  860MPD2    C212677   2.876   3.015  11.792  0.0496  0.3219 -0.9199
  860MPD2    C312678   2.767   2.934  11.785 -0.1460  0.1225 -0.3785
  860MPD2    C412679   2.780   2.805  11.731 -0.4763  0.1625 -0.8463
  860MPD2    C512680   2.898   2.764  11.677  0.7769  0.7845  0.4644
  860MPD2     H12681   2.864   3.111  11.842  0.5570  0.2775 -0.7211
  860MPD2    H112682   2.698   2.735  11.731 -0.6471  0.3640  1.5860
  860MPD2    H212683   3.103   2.818  11.629 -0.8477 -1.5950  0.0255
  860MPD2    H312684   2.900   2.673  11.619  0.2216  0.3559  1.1226
  860MPD2     N12685   2.643   2.982  11.831  0.1341 -0.2626 -0.6063
  860MPD2    H512686   2.644   3.074  11.875 -0.0664 -0.7369  0.3867
  860MPD2    N112687   3.098   3.067  11.749 -0.4821  0.6678 -0.5570
  860MPD2    H712688   3.076   3.152  11.801  1.0213 -0.0582  1.2792
  861MPD2     C12689   1.315   1.037  10.546  0.1922 -0.1560 -0.0810
  861MPD2    C112690   1.204   1.000  10.611  0.6785 -0.4688 -0.0887
  861MPD2    C212691   1.084   1.066  10.575  0.0680 -0.4721  0.8802
  861MPD2    C312692   1.080   1.173  10.481  0.1216  0.9502  0.4611
  861MPD2    C412693   1.200   1.204  10.418 -0.6014 -0.2196  0.4061
  861MPD2    C512694   1.310   1.134  10.455  0.0043  0.4049  0.0419
  861MPD2     H12695   0.991   1.034  10.622 -0.6631  0.8289  0.3243
  861MPD2    H112696   1.214   1.282  10.343  0.4798 -0.9540 -0.1549
  861MPD2    H212697   1.410   0.987  10.560 -0.4215 -0.9696  1.1745
  861MPD2    H312698   1.405   1.161  10.411  0.8383 -1.5134  0.6567
  861MPD2     N12699   0.961   1.257  10.474  0.4617 -0.4251 -0.4742
  861MPD2    H512700   0.877   1.232  10.526  0.0443  1.0961 -0.4194
  861MPD2    N112701   1.191   0.890  10.700 -0.2565  0.3952 -0.3696
  861MPD2    H712702   1.101   0.853  10.726 -1.0102  0.0909 -3.4702
  862MPD2     C12703   0.478   1.446   9.875  0.0013  0.4821  0.4908
  862MPD2    C112704   0.592   1.397   9.940  0.5581  0.7776 -0.0768
  862MPD2    C212705   0.659   1.294   9.879  0.5016  0.5666  0.1462
  862MPD2    C312706   0.597   1.224   9.777 -0.4133  0.1432  0.1517
  862MPD2    C412707   0.478   1.266   9.729 -0.3108 -0.3538  0.1814
  862MPD2    C512708   0.420   1.380   9.778 -0.0283 -0.9015 -0.5043
  862MPD2     H12709   0.750   1.252   9.920  1.0288 -1.0060 -2.6130
  862MPD2    H112710   0.433   1.220   9.642 -0.4048  0.2570 -0.0939
  862MPD2    H212711   0.415   1.525   9.916 -0.2916  0.1330  0.7097
  862MPD2    H312712   0.330   1.417   9.731 -1.0496 -1.8440  0.7293
  862MPD2     N12713   0.659   1.106   9.737  0.2950 -0.0903 -0.8021
  862MPD2    H512714   0.747   1.085   9.782 -0.1858 -2.0094 -0.7560
  862MPD2    N112715   0.636   1.445  10.068  0.0270  0.4490 -0.2990
  862MPD2    H712716   0.688   1.376  10.122  1.3285  1.2007 -0.5931
  863MPD2     C12717   4.609   0.267  16.996 -0.2411  0.1140  0.3461
  863MPD2    C112718   4.597   0.177  16.894 -0.1384 -0.1790  0.4580
  863MPD2    C212719   4.713   0.116  16.855 -0.3397 -0.1755  0.2168
  863MPD2    C312720   0.096   0.136  16.924  0.0300 -0.8043 -0.2232
  863MPD2    C412721   0.098   0.210  17.039  0.0709  0.8916 -0.1207
  863MPD2    C512722   4.721   0.279  17.073  0.0807  0.1274 -1.1072
  863MPD2     H12723   4.711   0.053  16.767  3.1793 -0.8111  0.5784
  863MPD2    H112724   0.193   0.228  17.088 -1.6572  1.7571  2.8306
  863MPD2    H212725   4.526   0.335  17.011  0.8565  1.6336 -0.4894
  863MPD2    H312726   4.731   0.348  17.155 -1.6017  0.7819 -1.4511
  863MPD2     N12727   0.215   0.065  16.882 -0.6250 -0.6094 -0.0772
  863MPD2    H512728   0.299   0.088  16.933 -0.6227  0.4483 -0.5511
  863MPD2    N112729   4.472   0.152  16.838  0.0958  0.3129  1.1366
  863MPD2    H712730   4.394   0.202  16.880 -1.7982 -0.8219 -1.0156
  864MPD2     C12731   4.685   1.273  16.410 -0.5852 -0.2486  0.0957
  864MPD2    C112732   0.039   1.288  16.510  0.3480 -0.1960  0.4664
  864MPD2    C212733   0.152   1.364  16.481 -0.2444  0.0687  0.7295
  864MPD2    C312734   0.164   1.424  16.360 -0.5179  0.1785 -0.1814
  864MPD2    C412735   0.064   1.403  16.261  0.3728  0.1909 -0.3259
  864MPD2    C512736   4.687   1.327  16.288 -0.6284  0.8519  0.1434
  864MPD2     H12737   0.229   1.376  16.556 -1.9238  3.1992  1.9741
  864MPD2    H112738   0.070   1.452  16.164 -0.2004 -1.3577 -1.1420
  864MPD2    H212739   4.594   1.216  16.426 -1.5310  1.2119 -0.0428
  864MPD2    H312740   4.613   1.293  16.216 -0.3777 -1.5196  1.0096
  864MPD2     N12741   0.269   1.519  16.334  0.1759 -0.2647 -0.0353
  864MPD2    H512742   0.268   1.564  16.242 -1.0939  0.5533  0.3875
  864MPD2    N112743   0.009   1.238  16.642  0.5252  0.1288 -0.2710
  864MPD2    H712744   4.666   1.176  16.655  0.5977  0.1298  0.1556
  865MPD2     C12745   0.699   1.711  15.830 -0.1165 -0.3830 -0.4930
  865MPD2    C112746   0.626   1.659  15.935 -0.3104  0.0570  0.1327
  865MPD2    C212747   0.531   1.731  16.007 -1.2791  0.4473 -0.4493
  865MPD2    C312748   0.532   1.871  15.977 -0.9524  0.1995 -0.2320
  865MPD2    C412749   0.602   1.916  15.870  1.0120  0.6508 -0.0520
  865MPD2    C512750   0.680   1.839  15.788  0.1041 -0.7809  0.0426
  865MPD2     H12751   0.467   1.697  16.087  0.5936  0.9605  1.2917
  865MPD2    H112752   0.604   2.023  15.851  2.8030  0.5601 -0.3393
  865MPD2    H212753   0.768   1.650  15.771  0.4726  0.5828 -0.8048
  865MPD2    H312754   0.736   1.884  15.707 -1.0714  1.8047  0.6646
  865MPD2     N12755   0.453   1.967  16.039  0.2872  0.2431 -0.4890
  865MPD2    H512756   0.436   2.059  16.000 -0.3543  0.6860  0.8116
  865MPD2    N112757   0.660   1.525  15.965  0.0090  0.5545 -0.0440
  865MPD2    H712758   0.734   1.488  15.906 -2.3676 -2.5858 -1.0380
  866MPD2     C12759   1.438   0.829  11.364  0.0578  0.3245 -0.3255
  866MPD2    C112760   1.486   0.861  11.243  0.0878 -0.0171  0.2693
  866MPD2    C212761   1.396   0.929  11.161 -0.5266  0.6366  0.7198
  866MPD2    C312762   1.267   0.956  11.204 -0.2720  0.2292 -0.3195
  866MPD2    C412763   1.224   0.922  11.330  0.2681 -0.1479 -0.5512
  866MPD2    C512764   1.316   0.857  11.413 -0.0473  0.2074  0.2173
  866MPD2     H12765   1.422   0.954  11.058 -0.6226  1.0003  0.7836
  866MPD2    H112766   1.125   0.947  11.368 -0.1871 -0.1981 -1.6998
  866MPD2    H212767   1.499   0.758  11.418  0.6311  0.1342 -1.2294
  866MPD2    H312768   1.291   0.815  11.510  1.0764 -0.1252  0.3611
  866MPD2     N12769   1.166   1.020  11.117  0.1121 -0.3403  0.6610
  866MPD2    H512770   1.073   1.025  11.157 -0.1053  1.4027 -0.0631
  866MPD2    N112771   1.618   0.821  11.212  0.8204 -0.6090 -0.3134
  866MPD2    H712772   1.670   0.774  11.286  0.8650  0.0882  0.0971
  867MPD2     C12773   4.540   1.355  17.081 -0.3141 -0.0354  0.0687
  867MPD2    C112774   4.578   1.283  17.188  0.2613  0.4392  0.4697
  867MPD2    C212775   4.655   1.347  17.287 -0.1518  0.2642  0.0609
  867MPD2    C312776   4.708   1.470  17.267 -0.3140  0.4008  0.7651
  867MPD2    C412777   4.677   1.530  17.143 -0.2983  0.0796  0.1676
  867MPD2    C512778   4.593   1.474  17.056  0.8113 -0.1901  0.0283
  867MPD2     H12779   4.677   1.289  17.376 -1.3973  1.9370  1.4464
  867MPD2    H112780   4.718   1.627  17.118  2.5769 -1.0712  0.3557
  867MPD2    H212781   4.475   1.321  17.001 -1.2049  0.9073  0.3854
  867MPD2    H312782   4.580   1.518  16.958 -2.2494 -1.2487 -0.0234
  867MPD2     N12783   0.052   1.547  17.348 -0.1733  0.6073 -0.2609
  867MPD2    H512784   0.098   1.630  17.312  0.8649  0.5253  0.8914
  867MPD2    N112785   4.535   1.149  17.189 -0.0391 -0.2968  0.8701
  867MPD2    H712786   4.477   1.112  17.114  1.5153 -0.3368 -0.3235
  868MPD2     C12787   1.138   1.021  13.041  0.3996  0.5826 -0.3773
  868MPD2    C112788   1.207   0.983  13.155 -0.1312  0.5194 -0.1472
  868MPD2    C212789   1.138   0.973  13.270 -0.2908  0.6051  0.4498
  868MPD2    C312790   1.002   0.981  13.272  0.0372 -0.1503 -0.0729
  868MPD2    C412791   0.930   1.011  13.159  0.9382  0.4635  0.2606
  868MPD2    C512792   1.001   1.036  13.046 -0.2615  0.1196 -0.2499
  868MPD2     H12793   1.185   0.943  13.363 -1.1937 -0.9264  0.4122
  868MPD2    H112794   0.822   1.001  13.158  0.9013  0.9434 -0.2524
  868MPD2    H212795   1.189   1.049  12.950 -0.1668 -0.2464 -0.9474
  868MPD2    H312796   0.947   1.056  12.954 -0.3679  0.4618 -0.1114
  868MPD2     N12797   0.944   0.943  13.395  0.6380 -0.2103 -0.4332
  868MPD2    H512798   1.014   0.912  13.462  0.6578  1.6072  0.3905
  868MPD2    N112799   1.351   0.988  13.143  0.0242  0.1959 -0.2054
  868MPD2    H712800   1.385   1.023  13.054  0.1845 -0.2351 -0.3114
  869MPD2     C12801   1.970   2.908   0.292  0.4066  0.2015  0.1207
  869MPD2    C112802   2.024   2.904   0.165 -0.6539 -0.1199 -0.3020
  869MPD2    C212803   2.129   2.990   0.141  0.4557  0.0365 -0.2235
  869MPD2    C312804   2.168   3.088   0.233 -0.4174  0.4886  0.2477
  869MPD2    C412805   2.114   3.086   0.360 -0.2632 -0.0296 -0.5299
  869MPD2    C512806   2.013   2.996   0.386  0.5469  0.3960  0.4334
  869MPD2     H12807   2.158   2.999   0.037 -1.4824  0.5801 -0.7108
  869MPD2    H112808   2.132   3.161   0.436  0.1839  0.0565 -0.7219
  869MPD2    H212809   1.888   2.840   0.312 -0.1087  0.6770 -0.3774
  869MPD2    H312810   1.956   3.000   0.478 -0.6498  4.3364 -0.5015
  869MPD2     N12811   2.261   3.195   0.200 -0.0067  0.0576  0.2076
  869MPD2    H512812   2.272   3.258   0.279 -1.1953  1.2208 -0.5401
  869MPD2    N112813   1.964   2.819   0.074 -0.5144  0.2031 -0.1289
  869MPD2    H712814   1.881   2.767   0.100 -0.0154 -0.5194  0.0151
  870MPD2     C12815   2.379   1.972   1.670 -0.3031 -0.8727  0.1773
  870MPD2    C112816   2.332   1.913   1.554  0.8679  0.0810  0.6761
  870MPD2    C212817   2.213   1.968   1.502  0.5844  0.2804  0.3248
  870MPD2    C312818   2.132   2.059   1.565  0.0050  0.2012 -0.9988
  870MPD2    C412819   2.184   2.109   1.687  0.7950 -0.0832  0.3752
  870MPD2    C512820   2.302   2.063   1.739  0.4603 -0.5387  0.0605
  870MPD2     H12821   2.170   1.923   1.414  1.7956 -0.7624  0.2670
  870MPD2    H112822   2.136   2.190   1.740 -1.8666 -2.0824  1.0108
  870MPD2    H212823   2.476   1.942   1.708  0.8963  2.6862 -0.0414
  870MPD2    H312824   2.337   2.097   1.836 -0.7505  0.1106  0.2704
  870MPD2     N12825   2.020   2.105   1.488 -0.2799 -0.1282  0.0593
  870MPD2    H512826   2.007   2.070   1.393  0.7069 -1.2211  0.3181
  870MPD2    N112827   2.409   1.807   1.493  0.5181  0.3886 -0.1571
  870MPD2    H712828   2.501   1.799   1.535  0.6284  0.8492 -0.3117
  871MPD2     C12829   3.345   1.306  16.496  0.3749 -0.2421  0.3189
  871MPD2    C112830   3.328   1.241  16.617 -0.1941 -0.0176 -0.5216
  871MPD2    C212831   3.376   1.112  16.635 -0.4804 -0.3501 -0.1862
  871MPD2    C312832   3.458   1.052  16.544  0.5669 -0.4944 -0.6423
  871MPD2    C412833   3.490   1.126  16.431 -0.3163 -0.0014  0.2750
  871MPD2    C512834   3.431   1.252  16.409 -0.3530 -0.0860  0.1621
  871MPD2     H12835   3.345   1.065  16.729  0.0351 -0.1685  0.0729
  871MPD2    H112836   3.561   1.086  16.358  1.0501 -1.3030  2.3116
  871MPD2    H212837   3.301   1.403  16.480 -0.1630 -0.9483 -2.4168
  871MPD2    H312838   3.459   1.308  16.321  3.7806  1.3210  2.3568
  871MPD2     N12839   3.531   0.938  16.567 -0.5015  0.0225 -0.1259
  871MPD2    H512840   3.508   0.888  16.652  1.4043  1.1558  1.0587
  871MPD2    N112841   3.250   1.313  16.713 -0.7092 -0.6104  0.0638
  871MPD2    H712842   3.229   1.410  16.688 -0.2538 -0.9912 -1.8279
  872MPD2     C12843   3.864   3.993  13.423 -0.2015 -0.3021  0.0999
  872MPD2    C112844   3.907   4.024  13.547  0.3964  0.4201 -0.3233
  872MPD2    C212845   3.835   3.978  13.658 -0.2355  0.0191  0.4119
  872MPD2    C312846   3.726   3.894  13.634 -0.0251  0.3762 -0.5295
  872MPD2    C412847   3.681   3.876  13.504  0.7820 -0.9088  0.2081
  872MPD2    C512848   3.749   3.927  13.398  0.1871  0.6640  0.2095
  872MPD2     H12849   3.880   3.987  13.756 -1.0575  1.2702  0.6755
  872MPD2    H112850   3.603   3.801  13.498  0.6299 -0.8442  1.4070
  872MPD2    H212851   3.934   4.018  13.345 -2.2148  0.2449 -1.5275
  872MPD2    H312852   3.724   3.893  13.298  0.9615 -0.6077  0.4421
  872MPD2     N12853   3.653   3.831  13.738  0.2985 -0.0330 -0.6763
  872MPD2    H512854   3.583   3.762  13.715  0.7517 -1.0019  0.8699
  872MPD2    N112855   4.029   4.088  13.572  0.2574  0.4243 -0.1133
  872MPD2    H712856   4.052   4.099  13.670 -0.4121  0.8774 -0.0067
  873MPD2     C12857   1.393   2.799   0.523  0.6643 -0.7769 -0.0011
  873MPD2    C112858   1.306   2.881   0.590  0.2355 -0.3460  0.8761
  873MPD2    C212859   1.184   2.827   0.617 -0.0757 -0.0478  0.2571
  873MPD2    C312860   1.145   2.693   0.596 -0.4579  0.6811 -0.5950
  873MPD2    C412861   1.237   2.608   0.540  0.1206 -0.0472 -0.0806
  873MPD2    C512862   1.349   2.675   0.492 -0.6447 -0.7269 -0.1098
  873MPD2     H12863   1.112   2.891   0.668  0.4549 -0.0058  0.9645
  873MPD2    H112864   1.215   2.510   0.500  1.9028 -0.6554  0.4176
  873MPD2    H212865   1.488   2.831   0.480  0.3161  0.0452 -0.1551
  873MPD2    H312866   1.412   2.614   0.428 -2.9471 -1.9895 -1.1793
  873MPD2     N12867   1.015   2.647   0.616 -0.9131 -0.2413  0.5661
  873MPD2    H512868   0.996   2.560   0.567  2.7685 -0.7902  0.1116
  873MPD2    N112869   1.340   3.011   0.631 -0.0935  0.0817 -0.0972
  873MPD2    H712870   1.436   3.035   0.609 -0.3176  1.0014 -0.0341
  874MPD2     C12871   0.612   3.992  16.132 -1.1543 -1.2845 -0.3777
  874MPD2    C112872   0.654   3.981  16.263 -0.8932  0.1539 -0.0739
  874MPD2    C212873   0.736   4.084  16.315 -0.4928 -0.4177 -0.1773
  874MPD2    C312874   0.796   4.174  16.232 -1.0403 -0.3010 -0.1767
  874MPD2    C412875   0.777   4.170  16.097  0.6995  0.3512 -0.9742
  874MPD2    C512876   0.683   4.079  16.048  0.1126  0.4549  0.4140
  874MPD2     H12877   0.748   4.094  16.422  3.5539 -2.7323 -0.3988
  874MPD2    H112878   0.820   4.237  16.023  2.1724 -2.9989 -3.1353
  874MPD2    H212879   0.538   3.924  16.092 -0.7890 -1.6158 -0.4974
  874MPD2    H312880   0.663   4.076  15.941  0.2802  1.2954  0.3596
  874MPD2     N12881   0.879   4.263  16.288  0.2715 -0.5303  0.0264
  874MPD2    H512882   0.886   4.247  16.388  0.1671  1.1995  0.3155
  874MPD2    N112883   0.604   3.875  16.341 -0.1140 -0.3909  0.4197
  874MPD2    H712884   0.526   3.822  16.303 -0.1675 -0.9582  1.3151
  875MPD2     C12885   1.918   2.162  14.322 -0.1195  0.0017 -0.6344
  875MPD2    C112886   1.783   2.203  14.329  0.8144  0.0606  0.3621
  875MPD2    C212887   1.736   2.260  14.447  0.3042 -0.1623  0.3580
  875MPD2    C312888   1.811   2.244  14.567 -0.2114  0.3524  1.2937
  875MPD2    C412889   1.939   2.194  14.557  0.1101  0.3328 -0.8548
  875MPD2    C512890   1.999   2.167  14.438  0.1450 -1.0890 -0.0897
  875MPD2     H12891   1.636   2.303  14.449  0.5246  0.2449  3.0046
  875MPD2    H112892   2.007   2.204  14.641  0.7777 -1.0949 -1.2186
  875MPD2    H212893   1.979   2.134  14.237  1.2853  0.5514  0.1960
  875MPD2    H312894   2.099   2.127  14.431  1.9254  3.6323 -1.4003
  875MPD2     N12895   1.763   2.297  14.688 -0.2118  0.1876 -0.3262
  875MPD2    H512896   1.687   2.363  14.682  0.2602  0.5348 -2.6489
  875MPD2    N112897   1.703   2.187  14.207  0.1715 -0.0482 -0.8434
  875MPD2    H712898   1.607   2.219  14.218  1.0946  1.5847  2.5410
  876MPD2     C12899   0.470   3.707  15.956  0.1671 -0.2243  0.0197
  876MPD2    C112900   0.606   3.684  15.923 -0.6883 -0.6646  0.4665
  876MPD2    C212901   0.672   3.583  15.982 -0.1974  0.6084 -0.0858
  876MPD2    C312902   0.614   3.492  16.060  0.8208 -0.6744  0.4919
  876MPD2    C412903   0.490   3.514  16.099  0.4838 -0.4039  0.2928
  876MPD2    C512904   0.421   3.614  16.047 -0.4262  0.7629  0.3464
  876MPD2     H12905   0.769   3.556  15.940 -0.6002 -2.5402  0.9864
  876MPD2    H112906   0.435   3.439  16.156 -0.5210  0.6954  0.7675
  876MPD2    H212907   0.402   3.781  15.917  0.1066 -1.1611 -1.6720
  876MPD2    H312908   0.315   3.614  16.072 -0.3455  0.3791  0.6867
  876MPD2     N12909   0.682   3.367  16.096  0.5745 -0.0510  0.3515
  876MPD2    H512910   0.771   3.356  16.048  1.1481 -1.7542  1.8139
  876MPD2    N112911   0.666   3.776  15.834  1.4341 -0.0925 -0.5159
  876MPD2    H712912   0.607   3.855  15.808 -0.7274 -1.2736  0.8325
  877MPD2     C12913   0.593   4.110  15.143  0.3716 -0.0968  0.7003
  877MPD2    C112914   0.726   4.124  15.171 -1.1809 -0.0161 -0.1095
  877MPD2    C212915   0.813   4.144  15.060  0.1861  0.8174  0.0885
  877MPD2    C312916   0.774   4.142  14.929 -0.3047  0.0718  0.0982
  877MPD2    C412917   0.634   4.129  14.911  0.0088  0.0755 -0.1492
  877MPD2    C512918   0.549   4.115  15.011  0.1893  0.5467 -0.5989
  877MPD2     H12919   0.915   4.163  15.091 -0.5526  2.0629  1.7316
  877MPD2    H112920   0.600   4.137  14.808 -2.4540 -2.7295  0.4742
  877MPD2    H212921   0.527   4.103  15.229  1.0893  1.0653  1.3435
  877MPD2    H312922   0.443   4.107  14.990 -0.1699 -1.3920  2.0134
  877MPD2     N12923   0.854   4.175  14.814 -0.4432  0.0448  0.5151
  877MPD2    H512924   0.806   4.192  14.726  0.5950 -0.5699 -0.1695
  877MPD2    N112925   0.785   4.130  15.306  0.3144  0.0959 -0.3449
  877MPD2    H712926   0.886   4.138  15.307  0.1390  1.9173  1.2678
  878MPD2     C12927   0.268   2.954  12.741  0.3953  0.1820  0.5261
  878MPD2    C112928   0.335   3.075  12.713  0.4796  0.3915  0.6961
  878MPD2    C212929   0.381   3.148  12.819 -0.1871  0.5225  0.4026
  878MPD2    C312930   0.367   3.096  12.943 -0.1192  0.2603 -0.1491
  878MPD2    C412931   0.300   2.985  12.971 -0.3063 -0.7170  0.0931
  878MPD2    C512932   0.245   2.907  12.871 -0.1676  0.4718  0.5256
  878MPD2     H12933   0.445   3.234  12.801 -1.7941  0.9373 -3.2739
  878MPD2    H112934   0.286   2.938  13.068 -0.0028 -1.4280 -0.2097
  878MPD2    H212935   0.220   2.901  12.659  0.8921 -1.2545  1.1700
  878MPD2    H312936   0.190   2.817  12.897  1.9075 -0.9583 -0.0067
  878MPD2     N12937   0.432   3.177  13.043  0.0931 -0.2516 -0.4543
  878MPD2    H512938   0.492   3.252  13.011 -1.3921  1.6282  1.1595
  878MPD2    N112939   0.327   3.111  12.579  0.3102 -0.0610 -0.2760
  878MPD2    H712940   0.283   3.045  12.516  1.0342 -0.0095 -0.8435
  879MPD2     C12941   1.314   4.067  16.971 -0.4378 -0.5846 -0.2931
  879MPD2    C112942   1.202   4.049  17.055  0.1776  0.1060  0.5485
  879MPD2    C212943   1.078   4.051  17.003 -0.0552 -0.0058  0.2978
  879MPD2    C312944   1.061   4.072  16.866  0.1673 -0.8930 -0.1884
  879MPD2    C412945   1.167   4.085  16.789 -0.0338 -0.1710  0.3028
  879MPD2    C512946   1.298   4.088  16.834  0.3801  0.0346  0.5295
  879MPD2     H12947   0.993   4.035  17.069  0.8199  3.2124  2.1990
  879MPD2    H112948   1.146   4.112  16.686  0.1290  4.9414  1.6196
  879MPD2    H212949   1.412   4.067  17.018 -0.2273 -1.6643 -0.7335
  879MPD2    H312950   1.381   4.089  16.763 -0.9331  0.3893 -1.0042
  879MPD2     N12951   0.938   4.086  16.808 -0.1429  0.6069  0.4611
  879MPD2    H512952   0.935   4.124  16.714  0.6323 -0.5143 -0.0121
  879MPD2    N112953   1.205   4.029  17.195  0.1523  0.8822 -0.0873
  879MPD2    H712954   1.125   3.990  17.245 -2.4408  2.6266 -2.8983
  880MPD2     C12955   1.890   1.485   0.091  0.1161  0.8756 -0.4657
  880MPD2    C112956   1.945   1.552   0.195  0.0948  0.2176  0.2013
  880MPD2    C212957   2.004   1.484   0.296  0.2347  0.2560  0.6897
  880MPD2    C312958   2.006   1.345   0.305 -0.2156 -0.1489  0.7506
  880MPD2    C412959   1.951   1.276   0.189 -0.9920 -0.6570  0.0500
  880MPD2    C512960   1.897   1.347   0.086  0.3706 -0.8750  0.1756
  880MPD2     H12961   2.046   1.538   0.381  0.6206 -1.1683  1.4151
  880MPD2    H112962   1.940   1.168   0.190 -0.7932 -0.6393  2.7576
  880MPD2    H212963   1.849   1.536   0.005  0.1974  2.1756  0.2648
  880MPD2    H312964   1.853   1.288   0.006 -1.2975  1.3320 -0.5269
  880MPD2     N12965   2.062   1.283   0.415  0.1028  0.3587  0.2106
  880MPD2    H512966   2.077   1.354   0.486  0.7752  1.1440 -0.7171
  880MPD2    N112967   1.920   1.693   0.205 -0.1025 -0.0744  0.1704
  880MPD2    H712968   1.886   1.741   0.122 -2.2583 -2.6628 -0.4528
  881MPD2     C12969   2.319   2.539  17.563 -0.4958 -0.4113  0.4333
  881MPD2    C112970   2.273   2.416  17.517 -1.5393 -0.8064 -0.3903
  881MPD2    C212971   2.220   2.331  17.612 -0.0431 -0.0689 -0.5780
  881MPD2    C312972   2.200   2.369   0.005  0.0345 -0.6588 -0.1407
  881MPD2    C412973   2.232   2.501   0.037  0.5379 -0.7362 -0.2944
  881MPD2    C512974   2.293   2.584  17.692  0.3978 -1.0570  0.4223
  881MPD2     H12975   2.203   2.226  17.587 -0.9400 -0.4182  1.4645
  881MPD2    H112976   2.221   2.544   0.135 -1.0120 -1.0809 -0.3183
  881MPD2    H212977   2.350   2.610  17.487 -3.3301 -2.2939 -2.4812
  881MPD2    H312978   2.312   2.687  17.720 -0.0113 -0.8588 -0.0375
  881MPD2     N12979   2.139   2.288   0.104  0.8923  0.4478  0.2873
  881MPD2    H512980   2.129   2.329   0.196 -1.6181  2.1615 -0.7359
  881MPD2    N112981   2.305   2.371  17.386  0.0489  0.1278 -0.2676
  881MPD2    H712982   2.354   2.434  17.323  1.8862 -0.0262  1.0020
  882MPD2     C12983   1.031   4.331  14.003 -0.5376 -0.4551  0.8416
  882MPD2    C112984   0.965   4.302  14.126 -0.1725  0.6799 -0.9788
  882MPD2    C212985   0.842   4.241  14.121  0.1694  0.1587 -0.8929
  882MPD2    C312986   0.787   4.189  14.006  0.7982  0.1635  0.1525
  882MPD2    C412987   0.855   4.200  13.887 -0.6212  0.9151 -0.0156
  882MPD2    C512988   0.974   4.272  13.892  0.8571  0.3906 -0.3666
  882MPD2     H12989   0.794   4.213  14.214  0.1972 -0.8575 -1.1772
  882MPD2    H112990   0.801   4.174  13.797  0.5106 -1.1092 -0.1005
  882MPD2    H212991   1.125   4.385  14.009 -1.2938  0.9803 -0.4933
  882MPD2    H312992   1.030   4.280  13.799  2.0509  1.7596  0.4680
  882MPD2     N12993   0.656   4.138  13.996  0.4869 -0.7255  0.6577
  882MPD2    H512994   0.626   4.104  13.905 -0.3430 -0.4607  0.8366
  882MPD2    N112995   1.026   4.342  14.249 -0.1338  0.8804  0.0424
  882MPD2    H712996   1.126   4.358  14.239  0.8302 -1.8354  5.1021
  883MPD2     C12997   2.601   3.817  16.132  0.2820  0.0377  0.0111
  883MPD2    C112998   2.662   3.861  16.017 -0.1317  0.6409 -0.0609
  883MPD2    C212999   2.746   3.973  16.026  0.2949 -0.0671 -0.3991
  883MPD2    C313000   2.776   4.032  16.143  0.5327 -0.7778 -0.8039
  883MPD2    C413001   2.706   3.993  16.257 -0.0763 -0.1150 -0.3100
  883MPD2    C513002   2.622   3.886  16.252  0.3230 -0.7345  0.9048
  883MPD2     H13003   2.804   4.005  15.940 -4.5258  2.3552 -2.7652
  883MPD2    H113004   2.727   4.035  16.355  0.1223 -2.0659  0.4902
  883MPD2    H213005   2.517   3.748  16.140 -1.0105  1.5344 -0.8498
  883MPD2    H313006   2.564   3.864  16.340  1.0123 -0.6012  1.3958
  883MPD2     N13007   2.873   4.132  16.150  0.1558 -0.5035 -0.2104
  883MPD2    H513008   2.924   4.157  16.067  2.0066 -0.5573  0.9187
  883MPD2    N113009   2.652   3.800  15.888 -0.3904 -0.1135  0.1755
  883MPD2    H713010   2.707   3.843  15.815  0.5822 -3.3059 -0.9610
  884MPD2     C13011   4.609   4.494  15.035 -0.1687  0.2513  0.4510
  884MPD2    C113012   4.620   4.631  15.039 -0.0141  0.8741  0.0246
  884MPD2    C213013   4.511   4.696  15.085  0.3606 -1.2304 -0.2256
  884MPD2    C313014   4.391   4.635  15.112 -0.6493 -0.7577 -0.1094
  884MPD2    C413015   4.380   4.498  15.102 -0.1597 -0.9231  0.2637
  884MPD2    C513016   4.489   4.433  15.057 -0.4128  0.0413 -0.5244
  884MPD2     H13017   4.511   0.068  15.100 -1.3078 -1.2220 -0.2157
  884MPD2    H113018   4.281   4.455  15.103 -0.5834  0.0854  1.9481
  884MPD2    H213019   4.696   4.437  15.004  0.5593  1.0879  0.9516
  884MPD2    H313020   4.471   4.327  15.043  0.6238 -0.2728  0.5034
  884MPD2     N13021   4.287   4.725  15.137  0.3276 -0.3082 -0.9789
  884MPD2    H513022   4.301   0.088  15.120 -0.3320 -0.1015 -0.3002
  884MPD2    N113023   0.006   4.704  15.022 -0.0153 -0.1435  0.5290
  884MPD2    H713024   4.729   0.068  15.022 -1.0392 -0.2751  2.8804
  885MPD2     C13025   2.758   0.726   0.255  0.3882 -0.0936 -0.1962
  885MPD2    C113026   2.806   0.603   0.204 -0.1767 -0.4639  0.3355
  885MPD2    C213027   2.821   0.592   0.068 -0.3740 -0.1092 -0.0110
  885MPD2    C313028   2.791   0.706  17.736 -0.0196 -0.6429 -0.4186
  885MPD2    C413029   2.736   0.823   0.036 -0.1400  0.2659 -0.3880
  885MPD2    C513030   2.710   0.828   0.169  0.5207  0.2482  0.0034
  885MPD2     H13031   2.857   0.499   0.026  0.0553  0.8956 -1.8536
  885MPD2    H113032   2.701   0.908  17.721 -0.8620  0.2108 -0.0456
  885MPD2    H213033   2.748   0.746   0.361  2.9587 -0.1730  0.0553
  885MPD2    H313034   2.670   0.922   0.206  0.8541  0.6155 -0.5633
  885MPD2     N13035   2.821   0.697  17.595 -0.3166 -0.1202  0.0041
  885MPD2    H513036   2.872   0.613  17.570 -1.6837 -1.1224  0.5365
  885MPD2    N113037   2.828   0.499   0.296  0.6355  0.2611  0.0943
  885MPD2    H713038   2.822   0.524   0.394 -1.2666  1.4110 -0.3052
  886MPD2     C13039   4.128   3.007  15.213 -0.0704  0.6586  0.4256
  886MPD2    C113040   4.229   3.063  15.295 -0.2015 -0.0038 -0.0619
  886MPD2    C213041   4.272   3.195  15.280 -0.2339 -0.1708 -0.1328
  886MPD2    C313042   4.219   3.262  15.169 -0.7705 -0.7676  0.2513
  886MPD2    C413043   4.122   3.206  15.085 -0.0888  0.9151  0.1911
  886MPD2    C513044   4.071   3.086  15.117  0.2628  0.5172 -0.1319
  886MPD2     H13045   4.338   3.232  15.357  0.0273 -1.1409  0.1139
  886MPD2    H113046   4.089   3.250  14.991 -1.4879  1.2781  0.8529
  886MPD2    H213047   4.084   2.909  15.221  3.1161 -0.7288  0.9128
  886MPD2    H313048   3.994   3.041  15.055 -0.7538  2.4281 -0.2287
  886MPD2     N13049   4.260   3.391  15.132  0.0603  0.5625  0.1284
  886MPD2    H513050   4.216   3.429  15.049 -3.3283 -0.8845  1.2629
  886MPD2    N113051   4.275   2.991  15.410 -0.2231 -0.3675 -0.6411
  886MPD2    H713052   4.348   3.037  15.463 -1.3106 -0.3311  0.7954
  887MPD2     C13053   4.439   3.108  16.100  0.0245 -0.0380 -0.4078
  887MPD2    C113054   4.439   3.132  15.962  0.7120 -0.3877  0.3097
  887MPD2    C213055   4.513   3.237  15.910  0.7667  0.4072  0.0031
  887MPD2    C313056   4.582   3.323  15.992  0.3188  0.6424  0.2634
  887MPD2    C413057   4.576   3.297  16.130 -0.8348 -0.4282 -0.3935
  887MPD2    C513058   4.511   3.189  16.186  0.3848  0.6537  0.1959
  887MPD2     H13059   4.525   3.241  15.802  0.1322 -1.8045 -0.1442
  887MPD2    H113060   4.635   3.358  16.197 -1.5453 -0.8776  0.6477
  887MPD2    H213061   4.403   3.021  16.153 -1.8663 -0.5581 -2.5763
  887MPD2    H313062   4.511   3.171  16.293 -2.2911 -0.8143 -0.0512
  887MPD2     N13063   4.654   3.423  15.925 -0.0492  0.0654  0.2861
  887MPD2    H513064   4.656   3.429  15.824  2.5852 -1.4637  0.2413
  887MPD2    N113065   4.378   3.049  15.874 -0.3698  0.2787  0.0729
  887MPD2    H713066   4.390   3.064  15.774 -2.8870  0.2012 -0.2314
  888MPD2     C13067   1.737   3.447  14.732 -0.4419  0.1202  0.1808
  888MPD2    C113068   1.685   3.510  14.838 -0.5792 -0.4401 -0.0218
  888MPD2    C213069   1.730   3.634  14.869  0.6479 -0.6775  0.1599
  888MPD2    C313070   1.831   3.700  14.795 -0.6341  0.2121 -0.4648
  888MPD2    C413071   1.887   3.627  14.685  0.3972 -0.1387 -0.4599
  888MPD2    C513072   1.834   3.507  14.651  0.1363 -0.0104 -0.5779
  888MPD2     H13073   1.686   3.674  14.960  1.0368  1.5262 -0.6215
  888MPD2    H113074   1.967   3.669  14.625 -0.1508  4.3193  1.9104
  888MPD2    H213075   1.718   3.343  14.707  0.4521  0.2829 -1.1429
  888MPD2    H313076   1.885   3.448  14.575  0.6267 -0.1233 -0.1621
  888MPD2     N13077   1.868   3.827  14.834 -0.3938 -0.2739  0.1797
  888MPD2    H513078   1.831   3.861  14.922 -0.1796 -0.4651  0.3436
  888MPD2    N113079   1.593   3.448  14.932 -0.0797 -0.3693  0.2214
  888MPD2    H713080   1.566   3.496  15.017  0.1998 -1.6777  1.0490
  889MPD2     C13081   1.453   2.951  12.896 -0.0336  0.1418  0.3430
  889MPD2    C113082   1.505   2.930  13.023  0.2743 -0.4885  0.2325
  889MPD2    C213083   1.521   3.036  13.108 -0.3943 -0.4484 -0.2500
  889MPD2    C313084   1.454   3.156  13.080  0.3973 -0.0360  0.3026
  889MPD2    C413085   1.383   3.169  12.965 -0.8438  0.4859  0.2151
  889MPD2    C513086   1.386   3.067  12.873  0.4844 -0.0334  0.1869
  889MPD2     H13087   1.568   3.035  13.206  0.9226  0.0544 -0.8808
  889MPD2    H113088   1.325   3.255  12.934 -0.0214  1.0608  0.2756
  889MPD2    H213089   1.454   2.867  12.826  0.6677  1.7386 -1.5646
  889MPD2    H313090   1.351   3.074  12.770  0.9711  0.3040  0.0455
  889MPD2     N13091   1.453   3.265  13.171  0.6177  0.1268  0.1193
  889MPD2    H513092   1.506   3.262  13.257  0.7143  0.8138  0.0788
  889MPD2    N113093   1.556   2.806  13.045  0.5497 -0.5139 -0.0718
  889MPD2    H713094   1.546   2.735  12.973 -1.3042  1.3935 -1.7209
  890MPD2     C13095   0.498   4.445  14.753 -0.6653 -0.4372  0.7512
  890MPD2    C113096   0.623   4.500  14.766 -0.4986  0.1849 -0.5670
  890MPD2    C213097   0.677   4.521  14.893  0.4865 -0.3167 -0.1362
  890MPD2    C313098   0.600   4.482  15.005  0.7550  0.0379  0.1001
  890MPD2    C413099   0.473   4.434  14.991  0.6074  0.0305  0.9320
  890MPD2    C513100   0.421   4.433  14.868 -0.0969  0.1599  0.0341
  890MPD2     H13101   0.772   4.569  14.914 -0.6360  1.7593  0.1309
  890MPD2    H113102   0.406   4.415  15.074 -0.2928 -0.0054  0.2022
  890MPD2    H213103   0.461   4.434  14.652 -0.2966  2.0408  0.3472
  890MPD2    H313104   0.317   4.401  14.865 -0.6673  1.7592  2.8752
  890MPD2     N13105   0.653   4.497  15.133 -0.6059  0.2319  0.1853
  890MPD2    H513106   0.746   4.538  15.139 -0.8380  0.6998  0.5114
  890MPD2    N113107   0.685   4.546  14.644 -0.8677  0.6208  0.0963
  890MPD2    H713108   0.626   4.535  14.563 -0.1149  0.4202 -0.4280
  891MPD2     C13109   3.546   3.161  16.329  0.0778 -0.1512  0.1513
  891MPD2    C113110   3.504   3.170  16.463 -0.0190  0.1221 -0.4035
  891MPD2    C213111   3.600   3.186  16.560 -0.3138  0.5294 -0.1343
  891MPD2    C313112   3.739   3.186  16.527 -0.0972  0.2453 -0.2445
  891MPD2    C413113   3.776   3.178  16.396  0.5256 -0.0580  0.0301
  891MPD2    C513114   3.681   3.167  16.300  0.2729  0.6207  0.1835
  891MPD2     H13115   3.575   3.193  16.665 -1.2037 -2.0633 -0.1657
  891MPD2    H113116   3.881   3.184  16.368  0.3905  0.9380 -0.2671
  891MPD2    H213117   3.475   3.173  16.248  0.2630 -0.2248 -0.0236
  891MPD2    H313118   3.710   3.165  16.195 -1.2317  0.4741 -0.2223
  891MPD2     N13119   3.827   3.211  16.629 -0.0655  0.2657 -0.8382
  891MPD2    H513120   3.791   3.226  16.723  0.4425 -1.9975 -0.2837
  891MPD2    N113121   3.366   3.170  16.491 -0.3127 -0.1561 -0.1682
  891MPD2    H713122   3.302   3.154  16.415  0.1284  1.3136 -0.8565
  892MPD2     C13123   4.721   4.201  14.740 -0.2209 -0.2591  0.7252
  892MPD2    C113124   4.645   4.141  14.637 -0.2279 -0.2655  0.0460
  892MPD2    C213125   4.708   4.122  14.514  0.4873  0.1963  0.1069
  892MPD2    C313126   0.102   4.161  14.492  0.9330  0.5303 -0.6198
  892MPD2    C413127   0.165   4.237  14.587 -0.8685  0.0401 -0.0744
  892MPD2    C513128   0.112   4.249  14.714  0.0348 -0.8929  0.2578
  892MPD2     H13129   4.659   4.055  14.444  0.3983  2.8279 -2.3213
  892MPD2    H113130   0.263   4.283  14.576 -0.0916 -1.5561  0.2732
  892MPD2    H213131   4.678   4.232  14.835  0.7778  0.3367  0.9726
  892MPD2    H313132   0.166   4.291  14.798  2.8216  0.1422 -2.0575
  892MPD2     N13133   0.176   4.148  14.376  0.1750  0.5289 -0.0070
  892MPD2    H513134   0.272   4.181  14.381  0.1723  0.4579  0.5454
  892MPD2    N113135   4.505   4.121  14.639 -0.3509  0.5950 -0.2201
  892MPD2    H713136   4.460   4.096  14.552 -1.8281  1.1037  0.3907
  893MPD2     C13137   0.822   2.419   0.933 -0.2816  0.6817 -1.1360
  893MPD2    C113138   0.900   2.371   0.831  0.4907  0.6061  0.0733
  893MPD2    C213139   0.832   2.311   0.728 -0.3872  0.8107  0.1605
  893MPD2    C313140   0.694   2.297   0.719  0.7500  1.1320  0.0555
  893MPD2    C413141   0.623   2.347   0.819  0.5703 -0.1141 -0.4532
  893MPD2    C513142   0.685   2.402   0.924  0.0189 -0.6472  0.1169
  893MPD2     H13143   0.891   2.270   0.646  1.4616  1.1026  1.3400
  893MPD2    H113144   0.517   2.333   0.838  0.9346 -1.4267  0.6546
  893MPD2    H213145   0.857   2.473   1.020  0.3408 -0.9955 -0.3497
  893MPD2    H313146   0.630   2.434   1.013  2.6098  2.5239  0.5599
  893MPD2     N13147   0.626   2.238   0.605  0.1752 -0.2805 -0.3902
  893MPD2    H513148   0.525   2.239   0.617 -0.0388 -1.9778 -2.0329
  893MPD2    N113149   1.040   2.374   0.842 -0.5023 -1.1042  0.1434
  893MPD2    H713150   1.076   2.442   0.908 -1.1979  1.0820 -1.7166
  894MPD2     C13151   4.367   4.416   1.298  0.3234 -0.1427 -0.3576
  894MPD2    C113152   4.362   4.553   1.255 -0.4352  0.3403 -0.6132
  894MPD2    C213153   4.457   4.608   1.168 -0.3684 -0.2367  0.0294
  894MPD2    C313154   4.570   4.539   1.131 -0.4145 -0.3080  0.2793
  894MPD2    C413155   4.579   4.408   1.171 -0.9829  0.1293 -0.4428
  894MPD2    C513156   4.480   4.349   1.255  0.1302  0.4265  0.3974
  894MPD2     H13157   4.453   4.713   1.141  1.0781 -0.7792 -2.2981
  894MPD2    H113158   4.664   4.348   1.144  0.3899  1.6932  0.4326
  894MPD2    H213159   4.298   4.371   1.368 -0.5461  1.2874 -0.2844
  894MPD2    H313160   4.494   4.246   1.286 -1.3491  0.5237  1.3414
  894MPD2     N13161   4.679   4.602   1.065  0.0437 -0.4349 -0.0211
  894MPD2    H513162   4.672   4.703   1.060  0.5861 -0.3892  0.0772
  894MPD2    N113163   4.254   4.634   1.289 -0.2780  0.0924  0.0787
  894MPD2    H713164   4.248   4.727   1.247 -0.1669  0.2479  0.4111
  895MPD2     C13165   4.274   3.467  13.672 -0.1625  0.5112 -0.0033
  895MPD2    C113166   4.199   3.349  13.662 -0.3177  0.7957 -0.3552
  895MPD2    C213167   4.270   3.232  13.674  0.4754  0.1407 -0.6397
  895MPD2    C313168   4.411   3.228  13.668  0.1077 -0.0636 -0.7563
  895MPD2    C413169   4.483   3.350  13.659 -0.4329  0.4443 -0.2991
  895MPD2    C513170   4.412   3.464  13.668  0.8904  0.7483 -0.4032
  895MPD2     H13171   4.209   3.142  13.675  0.0612  0.4412  0.3165
  895MPD2    H113172   4.591   3.358  13.663 -0.5403  0.2487  2.3625
  895MPD2    H213173   4.224   3.562  13.682 -1.0020 -0.0417  0.9999
  895MPD2    H313174   4.463   3.558  13.682  0.3688  0.6363  2.2502
  895MPD2     N13175   4.485   3.109  13.669 -0.1492 -0.2244 -0.4971
  895MPD2    H513176   4.581   3.135  13.651  0.4254 -2.4385 -0.6334
  895MPD2    N113177   4.061   3.347  13.656  0.0256 -0.2558 -1.0373
  895MPD2    H713178   4.018   3.256  13.657  0.3647 -0.4023  2.4003
  896MPD2     C13179   1.639   0.530   1.323 -0.6570  0.4564  0.6129
  896MPD2    C113180   1.544   0.602   1.264 -0.0857  0.0451  0.4509
  896MPD2    C213181   1.432   0.534   1.209  0.0453  0.2405  0.4414
  896MPD2    C313182   1.412   0.398   1.229 -0.0763  0.1336 -0.1370
  896MPD2    C413183   1.505   0.328   1.290  0.4144 -0.4471 -0.1567
  896MPD2    C513184   1.620   0.390   1.334  0.5034  0.1638 -0.5800
  896MPD2     H13185   1.361   0.592   1.150 -2.0039 -1.3852  1.3307
  896MPD2    H113186   1.503   0.219   1.295 -0.9433 -0.4831 -1.2231
  896MPD2    H213187   1.731   0.574   1.359  0.5756 -1.0555 -0.6741
  896MPD2    H313188   1.697   0.327   1.377 -0.6283 -0.5420  0.4549
  896MPD2     N13189   1.290   0.347   1.181  0.0126  0.5389 -0.7740
  896MPD2    H513190   1.220   0.415   1.154  0.1072  1.1637  0.5830
  896MPD2    N113191   1.570   0.739   1.253 -0.6254 -0.0156 -0.0045
  896MPD2    H713192   1.645   0.782   1.307 -0.4122 -0.8125  0.3272
  897MPD2     C13193   2.175   1.852  10.956  0.0889  1.0132 -0.6095
  897MPD2    C113194   2.118   1.883  10.839 -0.0258 -0.2456  0.2709
  897MPD2    C213195   1.978   1.855  10.819  0.2670  0.0474  0.9781
  897MPD2    C313196   1.913   1.772  10.907 -0.5741 -0.1531 -0.1655
  897MPD2    C413197   1.981   1.739  11.026 -0.3505 -0.3839  0.5050
  897MPD2    C513198   2.109   1.782  11.048  0.6587  0.9668 -0.0648
  897MPD2     H13199   1.937   1.875  10.721  1.3122 -1.0121  0.3291
  897MPD2    H113200   1.923   1.686  11.101  0.1489  0.2656  1.3516
  897MPD2    H213201   2.274   1.890  10.979 -0.4744  1.6978  0.7019
  897MPD2    H313202   2.166   1.764  11.139 -1.1310 -0.9551  0.6750
  897MPD2     N13203   1.780   1.725  10.878 -0.5756 -0.3183 -0.3726
  897MPD2    H513204   1.727   1.761  10.799  2.1423 -0.8378 -2.4356
  897MPD2    N113205   2.197   1.967  10.752  0.8920  0.0688 -0.6826
  897MPD2    H713206   2.293   1.982  10.783  1.2994 -1.2193 -1.3067
  898MPD2     C13207   3.307   3.627  17.527  0.2715  0.5654 -0.4578
  898MPD2    C113208   3.307   3.565  17.646 -0.7221  0.3076 -0.5294
  898MPD2    C213209   3.395   3.604   0.002 -0.1128  0.0743  0.3649
  898MPD2    C313210   3.472   3.714  17.724 -0.2529  0.2315  0.1004
  898MPD2    C413211   3.453   3.790  17.609 -0.1406  0.5411  0.4718
  898MPD2    C513212   3.373   3.746  17.505 -0.6785 -0.2862 -0.2575
  898MPD2     H13213   3.394   3.549   0.095 -1.2226 -0.7564 -0.1305
  898MPD2    H113214   3.508   3.879  17.581  0.0413  0.2564 -0.0877
  898MPD2    H213215   3.254   3.583  17.443  3.1362 -0.2822 -1.8150
  898MPD2    H313216   3.361   3.809  17.418 -1.2552  0.4309  0.3340
  898MPD2     N13217   3.570   3.745   0.074  0.0755 -0.0875  0.4114
  898MPD2    H513218   3.574   3.690   0.159 -0.1513 -1.8807 -0.7194
  898MPD2    N113219   3.221   3.453  17.679  0.0829 -0.0524  0.2369
  898MPD2    H713220   3.228   3.416   0.030 -0.1277  2.3369  1.1875
  899MPD2     C13221   0.515   4.049  17.218  0.6947  0.6116 -0.1353
  899MPD2    C113222   0.413   4.108  17.146 -0.0969 -0.0532 -0.1996
  899MPD2    C213223   0.292   4.035  17.147  0.6849 -1.2645 -0.6802
  899MPD2    C313224   0.279   3.916  17.221 -0.3952 -1.2878  0.2571
  899MPD2    C413225   0.379   3.855  17.290  0.1496 -0.6395  0.0833
  899MPD2    C513226   0.494   3.926  17.277 -0.1456 -0.9246  0.2499
  899MPD2     H13227   0.208   4.077  17.094  1.1704  0.9079  0.2469
  899MPD2    H113228   0.370   3.762  17.343  2.7692 -0.3028  1.1075
  899MPD2    H213229   0.619   4.078  17.203  0.2397  2.9952  1.4312
  899MPD2    H313230   0.580   3.884  17.328  1.8342  1.7478 -0.8719
  899MPD2     N13231   0.152   3.858  17.235 -0.3820 -0.9093  0.3438
  899MPD2    H513232   0.075   3.900  17.185 -1.5676 -0.3948  2.6526
  899MPD2    N113233   0.447   4.223  17.079  0.0306 -0.8122  0.2157
  899MPD2    H713234   0.533   4.269  17.105  0.0786 -0.2720 -0.8963
  900MPD2     C13235   4.359   0.993  12.486 -0.3769  0.5511 -0.3303
  900MPD2    C113236   4.249   0.920  12.442 -0.3804  0.2424  0.3136
  900MPD2    C213237   4.128   0.978  12.409 -0.4322 -0.3236 -0.0900
  900MPD2    C313238   4.113   1.112  12.416  0.3241  0.4685  0.0748
  900MPD2    C413239   4.216   1.188  12.468  0.4670  0.0449 -0.5806
  900MPD2    C513240   4.336   1.129  12.499 -0.0810 -0.0192  0.2429
  900MPD2     H13241   4.043   0.923  12.373  0.5109 -1.8908  0.0985
  900MPD2    H113242   4.207   1.295  12.481 -0.8484  0.0560 -1.6901
  900MPD2    H213243   4.451   0.952  12.525 -2.4473 -1.6256  2.2290
  900MPD2    H313244   4.413   1.191  12.542 -1.6713  2.3110 -0.2494
  900MPD2     N13245   3.985   1.168  12.390 -0.3537  0.1567  0.4168
  900MPD2    H513246   3.908   1.102  12.386  1.4169 -1.7731 -1.2663
  900MPD2    N113247   4.270   0.779  12.429  0.0903 -0.1536 -0.1539
  900MPD2    H713248   4.359   0.742  12.462  0.3692  1.4342  0.8453
  901MPD2     C13249   4.153   4.629  11.771 -0.3040 -0.2405 -0.5475
  901MPD2    C113250   4.270   4.621  11.848 -0.0740 -0.3886 -0.1233
  901MPD2    C213251   4.291   4.715  11.943 -0.0818 -0.1940 -0.5121
  901MPD2    C313252   4.210   0.085  11.966  0.2887  0.3677 -0.5479
  901MPD2    C413253   4.102   0.094  11.880  0.3310 -0.5281  0.6889
  901MPD2    C513254   4.064   0.000  11.788  0.9868  0.3137 -0.2002
  901MPD2     H13255   4.382   4.708  12.002 -0.0188 -1.5279 -0.7758
  901MPD2    H113256   4.037   0.181  11.883  0.2086 -0.5780 -0.4757
  901MPD2    H213257   4.117   4.556  11.699  0.7628  0.4614 -1.7906
  901MPD2    H313258   3.984   0.016  11.717  0.3573 -1.7622  0.0512
  901MPD2     N13259   4.236   0.174  12.065 -0.9730  0.7601 -0.7748
  901MPD2    H513260   4.307   0.136  12.127  0.6981  0.2053 -3.0518
  901MPD2    N113261   4.349   4.504  11.834 -0.2569 -0.1249  0.0108
  901MPD2    H713262   4.320   4.439  11.761  1.1258  1.5734 -2.0426
  902MPD2     C13263   3.773   3.595  12.578  0.0820 -0.3061  0.4433
  902MPD2    C113264   3.781   3.638  12.447 -0.3264 -0.0111 -0.3168
  902MPD2    C213265   3.852   3.556  12.352 -0.1401 -0.7207  0.8836
  902MPD2    C313266   3.903   3.432  12.392  0.2997 -0.1622  0.4225
  902MPD2    C413267   3.881   3.393  12.522 -0.3279 -0.7882  0.0013
  902MPD2    C513268   3.824   3.475  12.614 -0.1218  0.6527 -0.2595
  902MPD2     H13269   3.859   3.580  12.246  1.2602  2.2369  1.6613
  902MPD2    H113270   3.906   3.291  12.547  0.7018 -0.2531  1.1480
  902MPD2    H213271   3.718   3.655  12.650 -0.1167 -0.4028  0.3720
  902MPD2    H313272   3.815   3.442  12.718 -0.7948  1.1904 -0.1497
  902MPD2     N13273   3.967   3.342  12.299  0.2811  0.6889  0.5522
  902MPD2    H513274   3.988   3.253  12.343  0.9125  1.3650  1.6340
  902MPD2    N113275   3.718   3.760  12.411 -0.0795  0.2972  0.2866
  902MPD2    H713276   3.656   3.803  12.480 -0.9156 -3.4148  1.8394
  903MPD2     C13277   3.996   3.523  11.589 -0.0861  1.2178  0.0792
  903MPD2    C113278   3.975   3.389  11.642  0.2240  0.4643 -0.7922
  903MPD2    C213279   3.842   3.343  11.649  0.6487  0.3638 -0.5040
  903MPD2    C313280   3.734   3.415  11.607 -0.0815 -0.4435 -0.0110
  903MPD2    C413281   3.760   3.533  11.542 -0.3226  0.0997  0.9017
  903MPD2    C513282   3.882   3.587  11.539  0.6682  0.0084  0.1243
  903MPD2     H13283   3.821   3.254  11.707 -1.9204  0.0780 -1.8972
  903MPD2    H113284   3.686   3.596  11.496 -0.1451 -0.0998  0.3457
  903MPD2    H213285   4.096   3.566  11.583  0.5360 -0.0982  0.8650
  903MPD2    H313286   3.895   3.687  11.500  0.5430 -0.1520 -0.3300
  903MPD2     N13287   3.605   3.358  11.623  0.4591 -0.8113  0.4416
  903MPD2    H513288   3.588   3.273  11.677 -0.1809 -0.8812  0.1364
  903MPD2    N113289   4.084   3.325  11.710  0.0212 -0.7662  0.3840
  903MPD2    H713290   4.168   3.379  11.729 -0.4908 -0.2842  1.3132
  904MPD2     C13291   3.984   3.157  13.946  0.0288 -0.4083 -0.0032
  904MPD2    C113292   3.959   3.043  14.015 -0.5813 -0.0991  0.8318
  904MPD2    C213293   4.067   2.978  14.087 -0.8391  0.1554 -0.4070
  904MPD2    C313294   4.192   3.036  14.091  0.2647 -0.4830  1.0269
  904MPD2    C413295   4.208   3.164  14.037 -0.0782 -0.2893 -0.5804
  904MPD2    C513296   4.102   3.222  13.962  0.4238  0.4453 -0.6456
  904MPD2     H13297   4.047   2.879  14.126 -0.2014 -0.1474 -0.8555
  904MPD2    H113298   4.302   3.218  14.028  0.6528 -0.8589  3.6663
  904MPD2    H213299   3.911   3.202  13.880  1.1986  1.2215 -0.1843
  904MPD2    H313300   4.117   3.322  13.924  1.2155  0.5023 -0.2058
  904MPD2     N13301   4.296   2.968  14.151  0.6568 -0.1380  0.1545
  904MPD2    H513302   4.275   2.875  14.186 -2.2442  0.2891 -0.4040
  904MPD2    N113303   3.822   2.993  14.015 -0.2905 -0.3095 -0.6065
  904MPD2    H713304   3.756   3.028  13.947  0.0719  1.1602 -0.2014
  905MPD2     C13305   3.565   2.686  13.573 -0.0986 -0.2473 -0.4263
  905MPD2    C113306   3.617   2.799  13.624 -0.2400  0.5759 -0.4478
  905MPD2    C213307   3.742   2.840  13.588  0.7159  0.1940 -0.2251
  905MPD2    C313308   3.814   2.761  13.498  0.1862  0.2864  0.1723
  905MPD2    C413309   3.763   2.639  13.450 -0.1693  0.0681 -0.1830
  905MPD2    C513310   3.638   2.604  13.492  0.3529  0.0033 -0.3231
  905MPD2     H13311   3.781   2.929  13.635  1.1145 -0.7600  1.2684
  905MPD2    H113312   3.814   2.572  13.383 -2.4261  0.0729 -1.8943
  905MPD2    H213313   3.470   2.643  13.605 -1.7226  4.5657  1.1367
  905MPD2    H313314   3.590   2.512  13.460  2.1189 -1.2324  0.5576
  905MPD2     N13315   3.957   2.777  13.490  0.2258  0.3117  0.4592
  905MPD2    H513316   4.002   2.697  13.448  0.3246  0.3450  0.5019
  905MPD2    N113317   3.530   2.857  13.717 -0.1924 -0.4942  0.4930
  905MPD2    H713318   3.444   2.810  13.744  0.3026 -0.9324  1.3050
  906MPD2     C13319   0.587   1.955  11.278 -0.3745  0.3030  0.2537
  906MPD2    C113320   0.495   1.996  11.183  0.4337  0.1188 -0.1867
  906MPD2    C213321   0.372   1.938  11.179  0.3600  0.5092 -0.0371
  906MPD2    C313322   0.333   1.855  11.281  0.2726  0.0264 -0.3898
  906MPD2    C413323   0.425   1.832  11.381  0.3879 -0.0393  0.4804
  906MPD2    C513324   0.546   1.888  11.384  0.0180 -0.2860 -0.7418
  906MPD2     H13325   0.302   1.974  11.104  2.8120  0.2028 -2.4472
  906MPD2    H113326   0.398   1.768  11.465  2.8120 -1.6356  0.0363
  906MPD2    H213327   0.690   1.988  11.286 -0.4299  0.8012 -1.0792
  906MPD2    H313328   0.607   1.853  11.466  0.8229  0.3313 -1.0780
  906MPD2     N13329   0.202   1.795  11.294  0.0200  0.2620 -0.4380
  906MPD2    H513330   0.191   1.741  11.380  0.0655 -0.2491 -0.7576
  906MPD2    N113331   0.523   2.082  11.079  0.5341 -0.9846  0.1011
  906MPD2    H713332   0.469   2.069  10.994 -0.0551 -1.1006  0.5019
  907MPD2     C13333   4.257   2.211  15.558  0.4780 -0.2099 -0.4064
  907MPD2    C113334   4.310   2.091  15.592  0.1132 -0.1100  0.1068
  907MPD2    C213335   4.319   2.048  15.719  0.3181 -0.6846 -0.7434
  907MPD2    C313336   4.257   2.114  15.825  0.4807 -0.3480  0.2573
  907MPD2    C413337   4.206   2.234  15.791  0.1112 -0.3908  0.4081
  907MPD2    C513338   4.201   2.283  15.663  0.2870 -0.6170  0.0908
  907MPD2     H13339   4.371   1.954  15.736 -0.6643 -1.3310 -1.3551
  907MPD2    H113340   4.154   2.298  15.861 -0.2454  1.4154 -1.5228
  907MPD2    H213341   4.246   2.250  15.457 -1.3337 -0.9002 -0.4733
  907MPD2    H313342   4.139   2.368  15.638 -0.5895 -1.5773 -0.9874
  907MPD2     N13343   4.282   2.070  15.958  0.3826  0.0455  0.0361
  907MPD2    H513344   4.337   1.985  15.964 -0.4280 -0.3995  1.2371
  907MPD2    N113345   4.359   2.009  15.492  0.3868 -0.6080  0.1289
  907MPD2    H713346   4.397   1.919  15.520  2.1369  0.0995  0.0284
  908MPD2     C13347   2.125   1.950   9.794 -0.3225  0.2388 -0.7509
  908MPD2    C113348   2.222   1.879   9.857 -0.0559  0.2727 -0.0868
  908MPD2    C213349   2.264   1.930   9.981 -0.3177 -0.0377 -0.3940
  908MPD2    C313350   2.222   2.047  10.028 -0.0564 -0.1897 -0.0809
  908MPD2    C413351   2.136   2.125   9.964  0.2747 -0.3509 -0.5811
  908MPD2    C513352   2.089   2.073   9.848  0.1583 -0.4099 -0.2326
  908MPD2     H13353   2.338   1.871  10.034 -0.0598  0.6738  0.0316
  908MPD2    H113354   2.101   2.220  10.002  0.7174  0.0193 -1.1175
  908MPD2    H213355   2.085   1.927   9.696 -2.8466 -0.0828  0.3598
  908MPD2    H313356   2.022   2.131   9.786  1.5202 -0.9916 -2.2568
  908MPD2     N13357   2.264   2.073  10.165 -0.7136 -0.2643  0.0507
  908MPD2    H513358   2.328   2.003  10.202  0.1760  0.1312 -0.7439
  908MPD2    N113359   2.263   1.753   9.802 -0.6213 -0.2040  0.1663
  908MPD2    H713360   2.239   1.728   9.706 -0.9868  2.6798 -0.5017
  909MPD2     C13361   2.840   0.270  11.808 -0.5629 -0.0003  0.0131
  909MPD2    C113362   2.799   0.344  11.700  0.4006  0.3982 -1.1164
  909MPD2    C213363   2.666   0.374  11.685  0.3391  0.3914 -0.0089
  909MPD2    C313364   2.569   0.334  11.773 -0.0553 -0.6847  0.4092
  909MPD2    C413365   2.600   0.254  11.879 -0.1274 -0.5412  0.3620
  909MPD2    C513366   2.738   0.221  11.894  0.4287 -0.6614  0.5101
  909MPD2     H13367   2.641   0.428  11.594  0.0958 -1.2800 -0.9361
  909MPD2    H113368   2.533   0.208  11.951  0.0180 -2.0476 -0.4669
  909MPD2    H213369   2.946   0.251  11.819 -0.5048 -1.9635 -3.8784
  909MPD2    H313370   2.758   0.159  11.981 -0.9008 -0.2090  1.1472
  909MPD2     N13371   2.435   0.372  11.748  0.1452  0.6205 -0.7178
  909MPD2    H513372   2.423   0.433  11.669 -0.6690  0.6502 -0.5776
  909MPD2    N113373   2.881   0.390  11.599  0.5307  0.1878 -0.0798
  909MPD2    H713374   2.840   0.436  11.518 -0.5807  1.9273  1.4860
  910MPD2     C13375   3.905   2.679  15.843 -0.1217  0.1077 -0.3648
  910MPD2    C113376   3.885   2.544  15.810 -0.5704 -0.2680  0.6198
  910MPD2    C213377   3.900   2.503  15.676  0.1898 -0.0202  0.3757
  910MPD2    C313378   3.950   2.598  15.586 -0.3551  0.3900 -0.2568
  910MPD2    C413379   3.956   2.731  15.621 -0.1930 -0.6019 -0.1409
  910MPD2    C513380   3.947   2.775  15.753  0.0005  0.4580  0.2113
  910MPD2     H13381   3.886   2.398  15.650  0.7317  0.0609 -0.2273
  910MPD2    H113382   3.985   2.809  15.551  0.1621 -0.2192  0.4325
  910MPD2    H213383   3.876   2.716  15.940  1.6578  1.8748 -0.5182
  910MPD2    H313384   3.938   2.881  15.776  1.7880  0.5912  0.3326
  910MPD2     N13385   3.985   2.568  15.449  0.1274 -0.3424  0.1334
  910MPD2    H513386   4.021   2.644  15.391  2.2528 -2.7444 -1.7080
  910MPD2    N113387   3.840   2.446  15.903 -0.1559 -0.3785  0.1743
  910MPD2    H713388   3.820   2.359  15.855  1.2932 -0.2904 -0.5975
  911MPD2     C13389   1.695   3.153  15.935 -0.0934  0.0098  0.3448
  911MPD2    C113390   1.746   3.236  16.036 -0.5533  1.0540  0.1425
  911MPD2    C213391   1.680   3.361  16.060  1.4673 -0.4110 -0.7356
  911MPD2    C313392   1.558   3.385  15.995  0.0307  0.8180 -0.0562
  911MPD2    C413393   1.504   3.295  15.903 -0.4780  0.5321 -0.3708
  911MPD2    C513394   1.583   3.186  15.871 -0.6743 -0.0250 -0.1187
  911MPD2     H13395   1.716   3.424  16.141  2.6272 -0.1961 -1.4176
  911MPD2    H113396   1.412   3.312  15.848  0.1209  0.8500 -1.2597
  911MPD2    H213397   1.741   3.059  15.907  0.9068  0.6281 -0.0906
  911MPD2    H313398   1.554   3.116  15.793  0.5670 -0.9606  0.2634
  911MPD2     N13399   1.476   3.502  16.012 -0.0230  0.0213 -0.3472
  911MPD2    H513400   1.389   3.492  15.961  0.3336 -0.8084 -0.7870
  911MPD2    N113401   1.853   3.191  16.112 -0.4437  0.1465 -0.2245
  911MPD2    H713402   1.894   3.099  16.094 -1.7564 -0.7397  1.3827
  912MPD2     C13403   1.233   3.419  15.523  0.5540  0.3163 -0.5442
  912MPD2    C113404   1.202   3.398  15.652 -0.3825  0.2196  0.3280
  912MPD2    C213405   1.200   3.269  15.708 -0.1674  0.3216  0.4676
  912MPD2    C313406   1.239   3.160  15.627  0.2335 -0.0357  0.4804
  912MPD2    C413407   1.268   3.186  15.495 -0.2772  0.7831  0.2338
  912MPD2    C513408   1.266   3.312  15.444 -0.1735 -0.1667  0.3676
  912MPD2     H13409   1.178   3.244  15.811  0.7030 -1.1827  0.2860
  912MPD2    H113410   1.308   3.112  15.426  1.0252 -0.1218  1.9547
  912MPD2    H213411   1.261   3.514  15.480  0.2428  1.2686  1.3268
  912MPD2    H313412   1.300   3.329  15.343 -1.4398  2.3575  0.3752
  912MPD2     N13413   1.257   3.034  15.691 -0.6369  0.1400 -0.2170
  912MPD2    H513414   1.232   3.026  15.790 -0.5500  2.7005  0.0212
  912MPD2    N113415   1.176   3.521  15.726  0.1197 -0.2840  0.0987
  912MPD2    H713416   1.184   3.609  15.675  2.0057  0.5665  1.8579
  913MPD2     C13417   1.455   3.823  10.054 -0.2573  0.6006  0.0238
  913MPD2    C113418   1.559   3.873  10.136  0.2464  0.7331  0.2935
  913MPD2    C213419   1.680   3.912  10.073 -0.2634 -0.2196  0.0550
  913MPD2    C313420   1.695   3.903   9.936  0.6851 -0.3790  0.1035
  913MPD2    C413421   1.587   3.862   9.860 -0.0570  0.5764 -0.4267
  913MPD2    C513422   1.467   3.825   9.919  0.3936  0.4707  0.3494
  913MPD2     H13423   1.761   3.936  10.141  0.0970 -0.7048 -0.2057
  913MPD2    H113424   1.600   3.855   9.752  0.5309 -1.8692 -0.1791
  913MPD2    H213425   1.358   3.789  10.087  0.0675  1.0928  1.4849
  913MPD2    H313426   1.377   3.798   9.864  0.5012 -0.6481  0.7195
  913MPD2     N13427   1.819   3.922   9.865 -0.5805  0.6934 -0.0663
  913MPD2    H513428   1.826   3.910   9.765  0.3427 -1.3208  0.2312
  913MPD2    N113429   1.530   3.880  10.270 -0.3873 -0.0140 -1.0275
  913MPD2    H713430   1.442   3.842  10.303 -0.7126  0.7415 -1.0226
  914MPD2     C13431   3.828   4.001  11.620  0.2727  0.3605 -0.0912
  914MPD2    C113432   3.879   4.125  11.585  0.3329 -0.0031 -0.2223
  914MPD2    C213433   4.005   4.160  11.617  0.0219 -0.1922 -0.2201
  914MPD2    C313434   4.088   4.077  11.688  0.6588 -0.6229 -0.2173
  914MPD2    C413435   4.033   3.962  11.743  0.4033  0.2842 -0.7301
  914MPD2    C513436   3.902   3.926  11.709  0.0111 -0.5128 -0.2031
  914MPD2     H13437   4.049   4.251  11.580 -0.6340 -0.2788 -1.1952
  914MPD2    H113438   4.090   3.888  11.798 -0.3488  0.8145  0.7702
  914MPD2    H213439   3.733   3.966  11.581 -0.8826  1.5130  1.6573
  914MPD2    H313440   3.859   3.834  11.745 -0.9541  0.1068  0.2188
  914MPD2     N13441   4.220   4.105  11.724 -0.2150  0.1079 -0.0273
  914MPD2    H513442   4.243   4.202  11.707  1.0623 -0.1027  0.4659
  914MPD2    N113443   3.801   4.220  11.508  0.5091 -0.1358 -0.0145
  914MPD2    H713444   3.725   4.185  11.450  2.2335 -2.8244 -0.6649
  915MPD2     C13445   3.344   0.591  15.431  0.3229 -0.1920  0.6184
  915MPD2    C113446   3.214   0.545  15.426 -0.4314 -0.4206  0.0509
  915MPD2    C213447   3.142   0.529  15.537  0.6004 -0.2592  0.4168
  915MPD2    C313448   3.198   0.545  15.668 -0.0126  0.3974 -0.4538
  915MPD2    C413449   3.330   0.595  15.667 -0.7747 -0.0458 -0.3865
  915MPD2    C513450   3.398   0.618  15.550  0.7686 -0.2216 -0.9669
  915MPD2     H13451   3.042   0.489  15.525  0.1324  1.9781 -3.0850
  915MPD2    H113452   3.382   0.616  15.760  0.2192 -0.9765 -0.7290
  915MPD2    H213453   3.394   0.605  15.336 -2.4088 -0.2224 -0.8240
  915MPD2    H313454   3.499   0.658  15.550  0.6431  0.1092 -0.2803
  915MPD2     N13455   3.117   0.523  15.784  0.1528 -0.6312  0.1459
  915MPD2    H513456   3.031   0.469  15.787 -0.7630  0.7465 -1.4768
  915MPD2    N113457   3.162   0.517  15.298  0.2031  0.5126  0.2553
  915MPD2    H713458   3.221   0.504  15.217  0.4105  2.1135  0.1541
  916MPD2     C13459   0.883   3.076  15.604 -0.0367 -0.1742 -0.5523
  916MPD2    C113460   0.912   2.973  15.689  0.4101  0.1527  0.6659
  916MPD2    C213461   0.947   2.846  15.641 -0.2232 -0.3675  0.0763
  916MPD2    C313462   0.963   2.820  15.505  0.3303 -0.3737  0.0325
  916MPD2    C413463   0.948   2.929  15.419 -0.1807  0.1420 -0.2729
  916MPD2    C513464   0.908   3.051  15.465  0.2264  0.3987 -0.1538
  916MPD2     H13465   0.955   2.761  15.708  2.0563 -0.3354 -0.1430
  916MPD2    H113466   0.947   2.920  15.311  1.5144 -2.6670 -0.0304
  916MPD2    H213467   0.835   3.171  15.625 -3.2635 -1.8917 -0.0587
  916MPD2    H313468   0.870   3.120  15.391  2.0189 -0.1600 -1.5836
  916MPD2     N13469   0.993   2.692  15.463  0.2558 -0.3009  0.9114
  916MPD2    H513470   1.007   2.618  15.531  0.5116 -0.2237  0.9458
  916MPD2    N113471   0.891   3.010  15.824 -0.5030  0.4859  0.5318
  916MPD2    H713472   0.873   3.107  15.846  1.1332  0.8744  0.1532
  917MPD2     C13473   1.439   0.124  11.199  0.2115 -0.2392 -0.0920
  917MPD2    C113474   1.309   0.171  11.167 -0.8104 -0.2713 -0.3498
  917MPD2    C213475   1.293   0.225  11.038 -0.6027  0.2878  0.0682
  917MPD2    C313476   1.395   0.242  10.947  0.0544 -0.1629 -0.1067
  917MPD2    C413477   1.520   0.191  10.989 -0.3712  0.2419 -1.0807
  917MPD2    C513478   1.540   0.130  11.107 -0.0317  0.0316  0.0374
  917MPD2     H13479   1.191   0.249  11.009  0.9145  3.6190 -2.4150
  917MPD2    H113480   1.605   0.204  10.922  0.1277  2.0616 -0.0862
  917MPD2    H213481   1.458   0.077  11.295 -2.3141  0.3532  0.6801
  917MPD2    H313482   1.639   0.090  11.125  0.1108  1.0453  1.4565
  917MPD2     N13483   1.392   0.300  10.819  0.3142 -0.6255 -0.4481
  917MPD2    H513484   1.482   0.312  10.774  0.0688  0.9445 -0.5155
  917MPD2    N113485   1.202   0.155  11.264 -0.0799 -0.2000 -0.1070
  917MPD2    H713486   1.223   0.111  11.353 -2.0558  0.0137  0.4561
  918MPD2     C13487   1.220   0.052  12.149 -0.3584 -0.1215 -0.5476
  918MPD2    C113488   1.291   0.123  12.056 -0.1254  0.0543  0.6028
  918MPD2    C213489   1.241   0.137  11.931 -0.3195 -0.5039 -0.0971
  918MPD2    C313490   1.124   0.080  11.892  0.2110  0.3528 -0.9270
  918MPD2    C413491   1.049   0.011  11.985  0.2282  0.2331  1.1332
  918MPD2    C513492   1.104   4.730  12.109  0.0913  0.0407  0.2244
  918MPD2     H13493   1.292   0.194  11.854  0.5223 -1.6118 -0.3593
  918MPD2    H113494   0.945   4.721  11.970  0.8595 -0.7515 -1.7411
  918MPD2    H213495   1.261   0.035  12.248  0.8776 -1.2413 -1.2495
  918MPD2    H313496   1.053   4.675  12.188 -0.4427  0.1673 -0.0316
  918MPD2     N13497   1.088   0.097  11.754 -0.1529 -0.0356  0.4502
  918MPD2    H513498   1.145   0.166  11.706 -0.6191 -0.9164 -1.3577
  918MPD2    N113499   1.409   0.195  12.090 -0.6519 -0.6245  0.8644
  918MPD2    H713500   1.458   0.234  12.010 -1.1726 -1.0159  0.3517
  919MPD2     C13501   1.685   3.892  11.502 -0.1018 -0.9351  0.6662
  919MPD2    C113502   1.567   3.830  11.481  0.0736  0.7574 -0.8154
  919MPD2    C213503   1.479   3.870  11.380 -0.8731  0.1893 -0.4148
  919MPD2    C313504   1.513   3.979  11.300 -0.1810 -0.0928 -0.2551
  919MPD2    C413505   1.628   4.044  11.334 -0.4813 -0.1495  0.0102
  919MPD2    C513506   1.713   4.003  11.425  0.4507 -0.4719 -0.7946
  919MPD2     H13507   1.394   3.806  11.362 -0.9013 -0.2766  1.2963
  919MPD2    H113508   1.667   4.121  11.268  0.0175 -0.7226 -0.3638
  919MPD2    H213509   1.750   3.861  11.583 -0.2588 -1.9623  0.3997
  919MPD2    H313510   1.806   4.056  11.441  1.3526 -2.1305 -0.5003
  919MPD2     N13511   1.442   4.022  11.183 -0.0731  0.1774 -0.1013
  919MPD2    H513512   1.483   4.088  11.118 -0.8890  0.3358 -0.4501
  919MPD2    N113513   1.531   3.714  11.551 -0.9063 -0.4013  0.0059
  919MPD2    H713514   1.436   3.681  11.535 -0.3948 -0.3083 -3.2433
  920MPD2     C13515   1.539   4.268  10.258  0.0041 -0.2836  0.0558
  920MPD2    C113516   1.413   4.219  10.249  0.3985 -0.1856  0.5117
  920MPD2    C213517   1.338   4.184  10.362 -0.6700  0.6940  0.0852
  920MPD2    C313518   1.395   4.209  10.483  0.0573 -0.3779  0.1379
  920MPD2    C413519   1.520   4.265  10.496 -0.5605  0.4568 -0.2040
  920MPD2    C513520   1.595   4.289  10.382  0.1059  0.0837 -0.2813
  920MPD2     H13521   1.235   4.150  10.357 -0.8497  1.6297 -2.8264
  920MPD2    H113522   1.566   4.281  10.593  0.8458  0.7148 -0.9151
  920MPD2    H213523   1.600   4.297  10.174 -1.2842  1.7945 -0.1492
  920MPD2    H313524   1.701   4.314  10.377  0.3192 -0.6523  0.5265
  920MPD2     N13525   1.315   4.184  10.597 -0.3890  0.5940  0.2700
  920MPD2    H513526   1.226   4.137  10.586 -0.7003  0.7154  2.3084
  920MPD2    N113527   1.357   4.197  10.124 -0.2605 -0.6179  0.0718
  920MPD2    H713528   1.272   4.142  10.133  0.0372 -1.1150 -0.2020
  921MPD2     C13529   2.686   3.552  16.642 -0.4325  0.7842  0.0268
  921MPD2    C113530   2.657   3.422  16.681 -0.4068 -0.4380  0.1088
  921MPD2    C213531   2.545   3.360  16.621 -0.3556  0.5207  0.4659
  921MPD2    C313532   2.458   3.427  16.529  0.6903 -0.5871 -0.5339
  921MPD2    C413533   2.476   3.559  16.505  0.1656 -0.3614 -0.1991
  921MPD2    C513534   2.592   3.616  16.559 -0.5463  0.3695 -0.1922
  921MPD2     H13535   2.533   3.254  16.644 -0.2910  0.1039 -1.4520
  921MPD2    H113536   2.420   3.619  16.434  1.3398  0.9054 -0.0539
  921MPD2    H213537   2.760   3.618  16.684  1.7606 -2.2558  0.9047
  921MPD2    H313538   2.617   3.717  16.527 -3.1826  0.6409 -1.3353
  921MPD2     N13539   2.351   3.358  16.458 -0.0836  0.0683 -0.3051
  921MPD2    H513540   2.290   3.414  16.399  0.2078 -1.4314 -2.0177
  921MPD2    N113541   2.745   3.335  16.746 -0.4833  0.5184 -0.4000
  921MPD2    H713542   2.718   3.237  16.743  0.6777  0.2445 -2.3845
  922MPD2     C13543   3.496   1.507   0.062  0.6340  0.3144 -0.3019
  922MPD2    C113544   3.595   1.430   0.023  0.1127 -0.4804  0.0840
  922MPD2    C213545   3.570   1.300  17.737  0.4058 -0.1183  1.0386
  922MPD2    C313546   3.443   1.248   0.018  0.9092  0.3085 -0.1122
  922MPD2    C413547   3.341   1.330   0.057 -0.2678  0.1063  0.1832
  922MPD2    C513548   3.370   1.462   0.076  0.5375 -0.4692 -0.3409
  922MPD2     H13549   3.655   1.233  17.722 -0.3184 -1.1402  1.5361
  922MPD2    H113550   3.239   1.292   0.057 -1.5056  3.5012 -1.9454
  922MPD2    H213551   3.514   1.612   0.078  0.0663 -0.1174  3.1453
  922MPD2    H313552   3.299   1.534   0.114  0.9467 -1.2176  1.8505
  922MPD2     N13553   3.409   1.117  17.732  0.6833  0.0979 -0.2841
  922MPD2    H513554   3.312   1.091  17.742  0.1882  1.7842 -0.7156
  922MPD2    N113555   3.724   1.476   0.025 -0.1504 -0.3123 -0.6580
  922MPD2    H713556   3.791   1.403   0.002  1.5890  0.9988  0.2619
  923MPD2     C13557   3.850   2.399   8.894 -0.2671  0.4515 -0.1385
  923MPD2    C113558   3.830   2.523   8.947 -0.0548 -0.1886 -0.4493
  923MPD2    C213559   3.918   2.561   9.046 -0.3743  0.3703  0.2066
  923MPD2    C313560   4.021   2.483   9.100  0.4364  0.5567  0.4410
  923MPD2    C413561   4.046   2.364   9.035 -0.7329 -0.5617  0.3745
  923MPD2    C513562   3.951   2.320   8.942 -0.1759 -0.1394 -0.0202
  923MPD2     H13563   3.901   2.654   9.100  1.6770  0.9814 -0.2031
  923MPD2    H113564   4.114   2.298   9.089  0.8399  0.0878 -0.8125
  923MPD2    H213565   3.781   2.349   8.827 -0.5737 -0.4954  0.8695
  923MPD2    H313566   3.957   2.221   8.898 -2.1144  0.8345 -2.4736
  923MPD2     N13567   4.095   2.518   9.213 -0.2281  0.2147 -0.3164
  923MPD2    H513568   4.162   2.446   9.241 -0.9350  0.1876  1.3085
  923MPD2    N113569   3.719   2.601   8.905  0.4000 -0.5605  0.4457
  923MPD2    H713570   3.648   2.562   8.844 -0.3361 -0.2295  1.0839
  924MPD2     C13571   4.415   1.464  16.742 -0.3424  0.2194 -0.1836
  924MPD2    C113572   4.352   1.588  16.779 -0.5085  0.2957  0.3164
  924MPD2    C213573   4.360   1.698  16.692 -0.4081  0.4180 -0.3534
  924MPD2    C313574   4.403   1.683  16.563 -0.1536 -0.3688  0.1970
  924MPD2    C413575   4.461   1.562  16.527  0.6362 -0.4218 -0.1929
  924MPD2    C513576   4.470   1.459  16.619  1.0948 -0.2111  0.1846
  924MPD2     H13577   4.321   1.793  16.726 -0.6915  1.0141 -2.3515
  924MPD2    H113578   4.502   1.544  16.428  1.0369 -1.7651  0.2105
  924MPD2    H213579   4.414   1.371  16.797 -2.1150  2.2711  3.3052
  924MPD2    H313580   4.516   1.366  16.587  0.4835 -0.7586  0.8832
  924MPD2     N13581   4.392   1.792  16.479 -0.2466  0.2677 -0.5729
  924MPD2    H513582   4.355   1.880  16.515  4.1242  1.6450  0.5060
  924MPD2    N113583   4.266   1.609  16.895 -0.0205 -0.2018  0.1083
  924MPD2    H713584   4.223   1.700  16.902  2.2731  0.6190  3.6966
  925MPD2     C13585   3.591   3.435  14.488  0.1996  0.6501  0.1383
  925MPD2    C113586   3.470   3.482  14.433  0.5529 -1.0833 -0.2741
  925MPD2    C213587   3.358   3.422  14.480  0.5018  0.5274  0.0533
  925MPD2    C313588   3.351   3.320  14.576  0.6787  0.3253 -0.0507
  925MPD2    C413589   3.471   3.277  14.627 -0.2500 -0.1113  0.0911
  925MPD2    C513590   3.586   3.333  14.582 -0.0415  0.9095 -0.6274
  925MPD2     H13591   3.268   3.464  14.437  1.3610  1.4627 -0.8325
  925MPD2    H113592   3.480   3.202  14.704  1.6612  0.1987  0.1658
  925MPD2    H213593   3.685   3.472  14.448 -0.8829  0.2513 -2.7824
  925MPD2    H313594   3.683   3.294  14.608 -1.9894 -1.9241  2.2415
  925MPD2     N13595   3.235   3.252  14.612 -0.0831  0.2738  0.9671
  925MPD2    H513596   3.242   3.169  14.670  0.6963  0.0247  0.5171
  925MPD2    N113597   3.459   3.590  14.348  0.3088  0.5741 -0.2727
  925MPD2    H713598   3.378   3.596  14.288 -0.8428  0.2636  1.2347
  926MPD2     C13599   2.678   2.270  14.023 -0.1314  0.4568 -0.9487
  926MPD2    C113600   2.569   2.279  13.938 -0.2991 -0.2992  0.2702
  926MPD2    C213601   2.592   2.276  13.799 -0.5290  0.1935 -0.0240
  926MPD2    C313602   2.719   2.289  13.751 -0.5474  0.0721  0.7696
  926MPD2    C413603   2.826   2.290  13.839  0.9561 -0.0341  0.2491
  926MPD2    C513604   2.804   2.273  13.975  0.1492 -0.4176 -0.2216
  926MPD2     H13605   2.506   2.256  13.736 -1.3535  1.4213  0.7271
  926MPD2    H113606   2.929   2.306  13.810  0.5920 -1.0343 -1.6223
  926MPD2    H213607   2.656   2.274  14.129 -1.2039 -1.8284 -1.0826
  926MPD2    H313608   2.890   2.267  14.041  0.4870 -2.9645 -0.8918
  926MPD2     N13609   2.742   2.307  13.613 -0.4429 -0.2083  0.2007
  926MPD2    H513610   2.835   2.340  13.588  0.0177 -1.9920 -0.4506
  926MPD2    N113611   2.435   2.284  13.978  0.0480 -0.8929  0.1116
  926MPD2    H713612   2.358   2.247  13.922 -1.1448  1.2094  0.3607
  927MPD2     C13613   1.397   4.660  17.427  0.2271  0.5956  0.3725
  927MPD2    C113614   1.530   4.675  17.439 -0.0289  0.2324  0.1168
  927MPD2    C213615   1.604   4.720  17.329  0.1037  0.5961 -0.4388
  927MPD2    C313616   1.545   4.726  17.206 -0.3003  0.3480 -0.2499
  927MPD2    C413617   1.405   4.710  17.198 -0.8387  0.6271  1.0605
  927MPD2    C513618   1.334   4.686  17.313  0.0838 -0.6005  1.4011
  927MPD2     H13619   1.708   4.735  17.358 -0.0575  0.9718 -0.0568
  927MPD2    H113620   1.346   4.714  17.108 -0.1643  1.9477  0.6814
  927MPD2    H213621   1.344   4.628  17.516  1.6814  0.5435  1.2200
  927MPD2    H313622   1.228   4.669  17.298  0.1432 -0.0934  0.3920
  927MPD2     N13623   1.626   0.002  17.094  0.4401  0.1232  0.6329
  927MPD2    H513624   1.725   4.735  17.115  0.5258 -1.3774 -0.0256
  927MPD2    N113625   1.576   4.635  17.562  0.2267  0.2103 -0.0482
  927MPD2    H713626   1.514   4.601  17.635 -1.3355 -0.4248 -1.6454
  928MPD2     C13627   4.333   3.658   0.707 -0.4301  0.1259 -0.5596
  928MPD2    C113628   4.425   3.598   0.783 -1.0783  0.2247 -0.3450
  928MPD2    C213629   4.487   3.481   0.718  0.0080 -0.1813  0.0212
  928MPD2    C313630   4.458   3.431   0.590 -0.1405  0.1773 -0.3002
  928MPD2    C413631   4.367   3.504   0.514 -0.0811  0.2779  0.1816
  928MPD2    C513632   4.307   3.612   0.577  0.5010  0.1220 -0.0455
  928MPD2     H13633   4.554   3.421   0.780  0.4778  2.0791  1.6990
  928MPD2    H113634   4.328   3.466   0.421 -0.1851 -0.6060  0.5922
  928MPD2    H213635   4.268   3.738   0.742  0.8280  1.6478 -1.6972
  928MPD2    H313636   4.228   3.666   0.525  0.1095  0.4807  0.9120
  928MPD2     N13637   4.521   3.308   0.546 -0.1111  0.7362  0.0568
  928MPD2    H513638   4.509   3.270   0.452  0.6978  2.0189 -0.5608
  928MPD2    N113639   4.472   3.656   0.905  0.0291  0.7988  0.0312
  928MPD2    H713640   4.416   3.733   0.942  0.2277  0.3810  1.1935
  929MPD2     C13641   4.019   3.217   9.411  0.7272 -0.1282  0.8722
  929MPD2    C113642   3.983   3.110   9.488 -0.2151  0.3020  0.4122
  929MPD2    C213643   3.920   3.007   9.431 -0.0522 -0.7737  0.5798
  929MPD2    C313644   3.854   3.021   9.311 -0.1603 -0.4269  0.9313
  929MPD2    C413645   3.881   3.127   9.228  0.2960  0.0912  0.9475
  929MPD2    C513646   3.976   3.220   9.279  0.6702 -1.1697  0.1929
  929MPD2     H13647   3.894   2.920   9.489 -1.1997 -0.0611  1.1426
  929MPD2    H113648   3.837   3.133   9.129  0.1033 -0.6734  0.9874
  929MPD2    H213649   4.073   3.298   9.459  3.0572 -0.4691 -1.2111
  929MPD2    H313650   4.005   3.302   9.214 -1.1680 -1.3421 -0.8414
  929MPD2     N13651   3.770   2.926   9.250  0.1331 -0.6990  0.2818
  929MPD2    H513652   3.782   2.918   9.150  1.2492 -0.7840  0.4274
  929MPD2    N113653   4.015   3.101   9.622  0.2013  0.1279  0.3278
  929MPD2    H713654   4.070   3.174   9.666 -0.4825 -0.0208  1.4458
  930MPD2     C13655   1.888   0.373  13.894 -0.0952 -0.3098  0.7105
  930MPD2    C113656   2.024   0.345  13.884 -0.2976  0.4500  0.0519
  930MPD2    C213657   2.084   0.345  13.763 -0.1894 -0.1502  0.0741
  930MPD2    C313658   2.017   0.388  13.647 -0.3388  0.0111  0.4684
  930MPD2    C413659   1.885   0.411  13.656  0.3109 -0.3122  0.4214
  930MPD2    C513660   1.828   0.415  13.783  0.2386  0.3803 -0.5872
  930MPD2     H13661   2.188   0.317  13.758  0.3677  1.8488  0.4731
  930MPD2    H113662   1.821   0.440  13.574  0.9335 -0.3791 -0.0901
  930MPD2    H213663   1.821   0.365  13.979 -1.4795 -0.1882 -0.3814
  930MPD2    H313664   1.721   0.423  13.793  0.2216 -1.0298  0.3578
  930MPD2     N13665   2.072   0.390  13.516  0.0266 -0.0360 -0.0653
  930MPD2    H513666   2.011   0.410  13.437 -0.1049 -0.8339 -0.1690
  930MPD2    N113667   2.094   0.312  14.009  0.3395 -0.3440  0.0487
  930MPD2    H713668   2.046   0.326  14.097 -1.0522 -0.4975 -0.6867
  931MPD2     C13669   2.213   4.527   0.399  0.1235  0.5313 -0.0943
  931MPD2    C113670   2.148   4.409   0.383 -1.2247 -0.5051 -0.6970
  931MPD2    C213671   2.186   4.302   0.460 -0.5182 -0.7578  0.0734
  931MPD2    C313672   2.302   4.309   0.546  0.0736 -0.3683 -0.2945
  931MPD2    C413673   2.354   4.435   0.570 -0.7616 -0.0351  0.2218
  931MPD2    C513674   2.311   4.537   0.494  0.5346 -0.9433 -0.2206
  931MPD2     H13675   2.135   4.208   0.444 -2.3186  0.1585  0.4738
  931MPD2    H113676   2.426   4.456   0.648 -1.2010  1.0318  0.3327
  931MPD2    H213677   2.197   4.620   0.345  0.6488  1.0426  0.6289
  931MPD2    H313678   2.340   4.640   0.509  0.0435 -0.7963 -0.2637
  931MPD2     N13679   2.360   4.200   0.618  0.9527 -0.5395  0.1469
  931MPD2    H513680   2.444   4.230   0.666  1.6645  0.7300 -1.8966
  931MPD2    N113681   2.049   4.390   0.288  0.0731  0.3421  0.1059
  931MPD2    H713682   2.025   4.298   0.253 -0.0362  1.0701 -1.7107
  932MPD2     C13683   3.066   3.496  11.501 -0.0502  0.1096  0.7518
  932MPD2    C113684   3.174   3.516  11.418  0.8959 -0.0495 -0.2211
  932MPD2    C213685   3.237   3.411  11.352  0.3339  0.2480  0.2243
  932MPD2    C313686   3.197   3.280  11.370 -0.5793  0.2881  0.6483
  932MPD2    C413687   3.087   3.263  11.453 -0.0276  0.0942 -0.8759
  932MPD2    C513688   3.029   3.367  11.524 -0.1209 -0.2878  0.9892
  932MPD2     H13689   3.319   3.439  11.288 -2.7865  2.0405 -2.9473
  932MPD2    H113690   3.052   3.162  11.468  0.7225 -0.3712 -2.3819
  932MPD2    H213691   3.019   3.574  11.560  0.0570  1.3234 -0.7746
  932MPD2    H313692   2.942   3.337  11.581 -0.3492 -1.1801  0.1731
  932MPD2     N13693   3.259   3.161  11.316 -0.2068 -0.1764 -0.4765
  932MPD2    H513694   3.215   3.072  11.335  0.5824 -0.0998  1.5999
  932MPD2    N113695   3.211   3.648  11.385  0.6459  0.7068 -0.0726
  932MPD2    H713696   3.288   3.647  11.319 -0.8297  1.2018 -1.8026
  933MPD2     C13697   4.316   3.877   1.725 -0.1233  0.0007 -0.2648
  933MPD2    C113698   4.292   3.791   1.620  0.9208  0.5391 -0.3159
  933MPD2    C213699   4.170   3.726   1.608 -0.6546 -0.3367  0.7323
  933MPD2    C313700   4.072   3.739   1.705 -0.2797  0.3569 -0.2159
  933MPD2    C413701   4.091   3.818   1.815 -0.6957  0.0101  1.0008
  933MPD2    C513702   4.213   3.880   1.822  1.2187 -0.1291  0.3960
  933MPD2     H13703   4.156   3.649   1.533  0.6159  0.6984 -0.5881
  933MPD2    H113704   4.013   3.828   1.890  0.6039 -2.3799  2.6614
  933MPD2    H213705   4.412   3.922   1.745  0.8152 -1.6015 -1.1498
  933MPD2    H313706   4.223   3.944   1.909 -1.1842 -0.0805  0.6500
  933MPD2     N13707   3.962   3.662   1.686  0.0962 -0.0002 -0.1479
  933MPD2    H513708   3.961   3.600   1.606 -1.1467  1.4435 -1.2448
  933MPD2    N113709   4.393   3.767   1.526 -0.1811 -0.0569  0.2341
  933MPD2    H713710   4.487   3.802   1.541 -0.2134  0.0949  0.0835
  934MPD2     C13711   1.668   4.276   0.952 -0.2162  0.0827 -0.2475
  934MPD2    C113712   1.563   4.359   0.909  0.7625  0.0120 -0.4928
  934MPD2    C213713   1.437   4.301   0.899  0.2919  0.1752 -0.1168
  934MPD2    C313714   1.410   4.173   0.928  0.6251  0.3714  0.1978
  934MPD2    C413715   1.512   4.090   0.973 -0.1029  0.6245  0.0083
  934MPD2    C513716   1.637   4.143   0.982 -0.5267  0.0726 -0.5693
  934MPD2     H13717   1.349   4.354   0.865  0.2553  1.7661  2.5042
  934MPD2    H113718   1.507   3.987   1.005  1.6960  0.6091  0.2501
  934MPD2    H213719   1.770   4.310   0.965 -0.6103  1.0507  0.3193
  934MPD2    H313720   1.712   4.073   1.017 -1.7367 -1.5802 -1.2878
  934MPD2     N13721   1.274   4.124   0.928 -0.2615  0.3369 -0.2808
  934MPD2    H513722   1.200   4.189   0.905 -2.5679 -1.8959  0.8217
  934MPD2    N113723   1.577   4.498   0.890 -0.8520  0.0123  0.1809
  934MPD2    H713724   1.491   4.550   0.878 -0.1880  1.7587  2.9126
  935MPD2     C13725   0.661   3.415   0.543  0.0645  0.2146  0.1287
  935MPD2    C113726   0.599   3.492   0.643 -0.1555  0.2030 -0.2180
  935MPD2    C213727   0.664   3.565   0.734 -0.8581  0.3458 -0.1499
  935MPD2    C313728   0.796   3.570   0.731  0.1428 -0.1636  0.2281
  935MPD2    C413729   0.868   3.478   0.659  0.2775 -0.0124 -0.5693
  935MPD2    C513730   0.798   3.398   0.567  0.1608 -0.0764  0.2009
  935MPD2     H13731   0.606   3.631   0.797 -0.0403  1.9465 -1.0679
  935MPD2    H113732   0.972   3.454   0.680  0.5867  2.6082  0.9858
  935MPD2    H213733   0.613   3.370   0.456  2.0732 -1.3340 -0.1802
  935MPD2    H313734   0.853   3.330   0.504  2.5105  1.0530  1.0525
  935MPD2     N13735   0.869   3.677   0.795 -0.8079 -0.2284 -0.1459
  935MPD2    H513736   0.969   3.658   0.796 -1.2816 -2.6469  2.4356
  935MPD2    N113737   0.457   3.509   0.644 -0.4788  0.1138  0.7518
  935MPD2    H713738   0.419   3.558   0.724  0.8193  3.8189 -0.8858
  936MPD2     C13739   3.914   1.922  12.589 -0.2892 -0.1326  0.1179
  936MPD2    C113740   3.864   2.033  12.651  0.3006 -0.4296  0.2095
  936MPD2    C213741   3.819   2.137  12.582  0.8610 -0.5937  0.7384
  936MPD2    C313742   3.807   2.120  12.440  0.7082 -0.3058 -0.3838
  936MPD2    C413743   3.837   2.002  12.385 -0.4509 -0.2316  0.8319
  936MPD2    C513744   3.899   1.905  12.453 -0.1961 -0.8302  0.4361
  936MPD2     H13745   3.804   2.230  12.636 -0.8746 -0.4183 -0.0537
  936MPD2    H113746   3.812   1.966  12.287  1.0576 -1.8670  1.0439
  936MPD2    H213747   3.957   1.838  12.642 -0.8947 -0.1563  0.5676
  936MPD2    H313748   3.928   1.815  12.401  1.8681  1.9373 -3.1977
  936MPD2     N13749   3.777   2.233  12.359  0.1264 -0.3402 -0.1458
  936MPD2    H513750   3.787   2.229  12.258  0.7799 -0.5967 -0.0698
  936MPD2    N113751   3.877   2.056  12.791  0.6651  0.0036  0.2938
  936MPD2    H713752   3.858   2.149  12.828 -0.5033 -0.2100  0.2353
  937MPD2     C13753   1.700   2.919  11.659 -0.1688  0.2055 -0.2931
  937MPD2    C113754   1.776   3.029  11.689  0.2211  0.1926  0.0140
  937MPD2    C213755   1.905   3.033  11.644  0.1328 -0.2937 -0.0404
  937MPD2    C313756   1.964   2.931  11.576  0.3288  0.3386 -0.2943
  937MPD2    C413757   1.893   2.817  11.557 -0.4628  0.0259  0.7675
  937MPD2    C513758   1.759   2.816  11.590 -0.6417  0.6684  0.0412
  937MPD2     H13759   1.956   3.127  11.659 -0.0691 -0.4322  1.4921
  937MPD2    H113760   1.932   2.730  11.505  0.7649  1.0428 -0.0097
  937MPD2    H213761   1.593   2.917  11.673  0.0701  0.3435  1.6126
  937MPD2    H313762   1.699   2.732  11.556 -1.5441  1.1884  0.3600
  937MPD2     N13763   2.096   2.957  11.538 -0.0841 -0.4125 -0.7304
  937MPD2    H513764   2.136   3.049  11.555 -0.7155 -0.2643 -0.0536
  937MPD2    N113765   1.719   3.148  11.725 -0.1809  0.1407  0.5915
  937MPD2    H713766   1.782   3.226  11.712  0.5925 -1.2420 -3.9020
  938MPD2     C13767   4.589   4.052   1.054  0.4028  0.4521  0.4590
  938MPD2    C113768   4.717   4.108   1.045  0.3192 -0.1136  0.0427
  938MPD2    C213769   0.064   4.111   1.158  0.1444  0.5849 -0.1792
  938MPD2    C313770   0.012   4.059   1.276 -0.6003 -0.2287 -0.2970
  938MPD2    C413771   4.626   4.010   1.284 -0.2305 -0.1775  0.2649
  938MPD2    C513772   4.543   4.011   1.176  0.1007 -0.6098  0.2167
  938MPD2     H13773   0.162   4.157   1.155  1.1544 -1.4019  1.9168
  938MPD2    H113774   4.576   3.986   1.377  1.6129 -0.2717  1.2533
  938MPD2    H213775   4.534   4.047   0.960  1.0691 -0.1116  0.0996
  938MPD2    H313776   4.443   3.970   1.183  0.9239 -2.0560  3.1237
  938MPD2     N13777   0.085   4.064   1.398 -0.2593  0.2833  0.3898
  938MPD2    H513778   0.033   4.040   1.482 -1.3846 -1.5637 -0.8276
  938MPD2    N113779   0.037   4.178   0.933 -0.0320 -0.0326 -0.4532
  938MPD2    H713780   0.133   4.208   0.945 -0.1076  0.0268  0.0304
  939MPD2     C13781   0.736   0.514   0.593 -0.0382 -0.5112 -0.1543
  939MPD2    C113782   0.771   0.647   0.612 -0.4234 -0.6536  0.5583
  939MPD2    C213783   0.787   0.726   0.498  0.0451 -0.1645 -0.1405
  939MPD2    C313784   0.782   0.670   0.375  0.5848 -0.1966 -0.4722
  939MPD2    C413785   0.737   0.543   0.358 -0.0935 -0.9154 -0.1055
  939MPD2    C513786   0.704   0.476   0.472  0.0769  0.8852  0.8501
  939MPD2     H13787   0.822   0.828   0.501  0.1682 -0.2192  0.2725
  939MPD2    H113788   0.715   0.503   0.260 -0.5914 -0.7588 -0.0573
  939MPD2    H213789   0.707   0.451   0.676 -0.6545 -1.4214 -1.0575
  939MPD2    H313790   0.661   0.377   0.462 -0.6591  1.6068 -3.2456
  939MPD2     N13791   0.821   0.751   0.268  0.1148  0.1232 -0.4994
  939MPD2    H513792   0.830   0.850   0.288  1.3552 -0.4384  1.7375
  939MPD2    N113793   0.794   0.694   0.746  0.3504  0.0663 -0.1023
  939MPD2    H713794   0.767   0.631   0.821 -2.0093 -0.5186 -1.4242
  940MPD2     C13795   4.311   2.002  12.632 -0.1357  0.1084  0.6727
  940MPD2    C113796   4.422   1.942  12.691  0.0633  0.3590 -0.6995
  940MPD2    C213797   4.487   1.846  12.619 -0.5845 -0.5493  0.0077
  940MPD2    C313798   4.436   1.794  12.502  0.1645  0.4362  0.6374
  940MPD2    C413799   4.319   1.856  12.447  0.7121  0.1846  0.0968
  940MPD2    C513800   4.255   1.950  12.520 -0.3946 -0.0805 -0.6041
  940MPD2     H13801   4.582   1.812  12.658 -0.6222 -1.9068 -1.1115
  940MPD2    H113802   4.270   1.833  12.353 -1.5541 -1.5910  1.6998
  940MPD2    H213803   4.246   2.076  12.677  1.6299  1.1607  1.4986
  940MPD2    H313804   4.166   1.996  12.480  0.2337  2.4353  0.9434
  940MPD2     N13805   4.486   1.686  12.429  1.3455  0.5103  0.5610
  940MPD2    H513806   4.421   1.653  12.358  1.0335  0.0708  1.0551
  940MPD2    N113807   4.472   1.985  12.822  0.2786 -0.3972 -0.6772
  940MPD2    H713808   4.554   1.937  12.858  0.2018  0.7550  1.0040
  941MPD2     C13809   3.570   0.489   9.674  0.1811  0.2428  0.3534
  941MPD2    C113810   3.552   0.574   9.782 -0.0019  0.1917  0.1109
  941MPD2    C213811   3.599   0.532   9.901  0.1103 -0.9575 -0.1020
  941MPD2    C313812   3.674   0.417   9.912 -0.5043 -0.0009  0.7860
  941MPD2    C413813   3.705   0.339   9.800  0.2103 -0.1888 -0.1611
  941MPD2    C513814   3.650   0.381   9.684  0.7751 -0.2995 -0.2894
  941MPD2     H13815   3.590   0.590   9.992 -0.3663 -1.2437  0.0335
  941MPD2    H113816   3.763   0.248   9.803  1.0429  0.3667  0.9398
  941MPD2    H213817   3.523   0.512   9.579  1.6976 -0.0547 -0.4640
  941MPD2    H313818   3.653   0.311   9.601  1.6166  0.1665 -0.6461
  941MPD2     N13819   3.726   0.370  10.037  0.3587  0.3523  0.0178
  941MPD2    H513820   3.784   0.289  10.020  1.1709  0.6204  1.4802
  941MPD2    N113821   3.483   0.695   9.775 -0.1830  0.3423  0.1349
  941MPD2    H713822   3.513   0.756   9.851 -2.0587 -1.6470  2.4810
  942MPD2     C13823   2.806   3.054   9.192  0.1721  0.4537 -0.0362
  942MPD2    C113824   2.734   2.950   9.249 -0.0901  0.4390  0.4159
  942MPD2    C213825   2.760   2.819   9.194 -0.8790  0.3217 -0.3139
  942MPD2    C313826   2.863   2.798   9.099  0.9397  0.6986 -0.3299
  942MPD2    C413827   2.952   2.904   9.068  0.2452  0.2416  0.3717
  942MPD2    C513828   2.913   3.027   9.111 -0.1614 -0.6499  0.2508
  942MPD2     H13829   2.700   2.735   9.224 -0.6926  0.4896  0.5120
  942MPD2    H113830   3.040   2.901   9.005  0.7475 -1.3770  1.1532
  942MPD2    H213831   2.788   3.157   9.221 -2.0623  0.7116 -2.2834
  942MPD2    H313832   2.977   3.110   9.081 -0.0911 -0.8120 -0.0514
  942MPD2     N13833   2.910   2.676   9.058 -0.7021 -0.4205 -0.1173
  942MPD2    H513834   2.999   2.676   9.009 -0.8028  0.6514 -0.3000
  942MPD2    N113835   2.640   2.957   9.355  0.2561  0.4364 -0.1400
  942MPD2    H713836   2.583   2.882   9.392  2.7757 -0.2179  2.4289
  943MPD2     C13837   3.110   4.355   9.088 -0.2361 -0.6079 -0.6824
  943MPD2    C113838   3.025   4.436   9.159  0.1332  0.2454  0.0626
  943MPD2    C213839   2.944   4.521   9.086  0.1431  0.1197  0.6110
  943MPD2    C313840   2.958   4.530   8.948 -0.2441  0.3052  0.3359
  943MPD2    C413841   3.046   4.447   8.880  1.0461 -0.1427  0.5025
  943MPD2    C513842   3.122   4.355   8.944  0.5364 -0.7233 -0.1062
  943MPD2     H13843   2.872   4.581   9.141 -0.2590  1.5306 -1.4480
  943MPD2    H113844   3.074   4.462   8.777 -1.0104 -0.0409 -0.0307
  943MPD2    H213845   3.175   4.290   9.146  2.6933  1.3787 -1.7467
  943MPD2    H313846   3.197   4.294   8.895 -0.1842  0.4294 -2.6271
  943MPD2     N13847   2.875   4.615   8.866 -0.1298  0.2988 -0.7098
  943MPD2    H513848   2.877   4.606   8.765 -0.0065 -0.3308 -0.6516
  943MPD2    N113849   3.005   4.432   9.300 -0.4418 -0.3134  0.3624
  943MPD2    H713850   2.938   4.496   9.340 -0.6115  0.7332 -1.6429
  944MPD2     C13851   2.429   4.042  11.274 -0.4721 -0.1123 -0.1787
  944MPD2    C113852   2.384   4.173  11.265 -0.1581 -0.3075 -0.5123
  944MPD2    C213853   2.415   4.262  11.368 -0.1198 -0.5524  0.8912
  944MPD2    C313854   2.494   4.234  11.473 -0.4997 -0.8387  0.2757
  944MPD2    C413855   2.529   4.099  11.489  0.3683 -0.5417 -0.7262
  944MPD2    C513856   2.495   4.010  11.389 -0.5391 -0.3655 -0.6856
  944MPD2     H13857   2.378   4.364  11.367  1.2152 -0.0483  3.0571
  944MPD2    H113858   2.584   4.055  11.572 -1.0579 -0.3914  0.2982
  944MPD2    H213859   2.408   3.964  11.202 -0.9144  0.3066 -0.5025
  944MPD2    H313860   2.522   3.906  11.406  0.2714  0.0649  0.6739
  944MPD2     N13861   2.533   4.341  11.558  0.3751  0.1053 -0.4014
  944MPD2    H513862   2.490   4.432  11.541  0.1375  0.2325  0.8677
  944MPD2    N113863   2.296   4.213  11.166  0.2475 -0.1055  0.5154
  944MPD2    H713864   2.271   4.142  11.098  1.2798  0.2466 -0.2371
    1TMC1    C113865   0.851   1.526  14.845  0.6013  0.1311  0.8676
    1TMC1    C213866   0.739   1.538  14.766 -0.1491  0.1430  0.0488
    1TMC1    C313867   0.622   1.471  14.805 -0.0898  0.2001 -0.6087
    1TMC1    C413868   0.847   1.495  14.974  0.6165 -0.5771 -0.3321
    1TMC1    C513869   0.730   1.440  15.020 -0.1090  0.1559 -0.4328
    1TMC1    C613870   0.624   1.418  14.933 -1.0983 -0.0444 -0.4932
    1TMC1     C13871   0.968   1.605  14.811  0.4919 -0.7350  0.7081
    1TMC1     O13872   1.034   1.651  14.902 -0.0445 -0.1145 -0.1018
    1TMC1     H13873   0.741   1.579  14.666 -3.8158  0.5524  0.1502
    1TMC1    H113874   0.935   1.507  15.036  0.9177 -2.0049 -0.4831
    1TMC1    H213875   0.534   1.371  14.971 -1.8826  1.9046  0.0837
    1TMC1    C713876   0.748   1.345  15.126 -0.0512 -0.2150  0.2144
    1TMC1    C813877   0.548   1.414  14.694  0.3463 -0.2009  0.8269
    1TMC1    O113878   0.715   1.229  15.113 -0.8098 -0.4703  0.5524
    1TMC1    O213879   0.598   1.395  14.585 -0.0621  0.5399 -0.5581
    1TMC1    O313880   0.812   1.408  15.235  0.3296  0.5894  0.5324
    1TMC1    H313881   0.824   1.503  15.211 -1.8157  0.6803 -0.1086
    1TMC1    O513882   0.414   1.431  14.710 -0.6051  0.4536 -0.0608
    1TMC1    H513883   0.387   1.479  14.790 -1.6741 -0.1529 -0.0578
    2MPD2     C13884   1.261   1.907  14.513 -0.6651  0.0649  0.6512
    2MPD2    C113885   1.171   1.840  14.432  0.4513  0.4394  0.7398
    2MPD2    C213886   1.080   1.755  14.487  0.8032  0.0818 -0.8383
    2MPD2    C313887   1.084   1.718  14.623  0.2260  0.4277  0.3349
    2MPD2    C413888   1.168   1.788  14.707  0.0200  0.6949 -0.4855
    2MPD2    C513889   1.246   1.887  14.649 -0.1263 -0.0396 -0.4379
    2MPD2     H13890   1.003   1.709  14.426  0.5125 -0.3296 -0.1530
    2MPD2    H113891   1.189   1.769  14.812 -2.6864  0.9529  0.0874
    2MPD2    H213892   1.346   1.967  14.482 -1.4412  0.3423 -0.9374
    2MPD2    H313893   1.312   1.948  14.710  0.7848 -1.8421  0.3671
    2MPD2     N13894   0.979   1.632  14.673 -0.0516  0.0504 -0.6437
    2MPD2    H513895   0.922   1.591  14.599 -0.6950  0.4663 -0.3842
    2MPD2    N113896   1.150   1.897  14.303 -0.3269  0.8406 -0.1711
    2MPD2    H713897   1.196   1.983  14.278 -1.1688  1.2998 -0.1293
    3TMC2    C113898   1.047   1.933  14.104 -0.4578 -0.1770 -0.2953
    3TMC2    C213899   1.065   2.062  14.131 -0.4931  0.3126 -0.1551
    3TMC2    C313900   1.075   2.148  14.030  0.6429  0.9136  0.1417
    3TMC2    C413901   1.052   1.887  13.976 -0.5067  0.1660 -0.6287
    3TMC2    C513902   1.078   1.976  13.872  0.1891  0.0487  0.3297
    3TMC2    C613903   1.091   2.109  13.899  0.3015 -0.0890 -0.2520
    3TMC2     C13904   1.074   1.841  14.208  0.4224 -0.5848  0.1713
    3TMC2     O13905   1.040   1.723  14.196  0.0142 -0.3193  0.0180
    3TMC2     H13906   1.053   2.110  14.227  3.4113  0.3185  0.3172
    3TMC2    H113907   1.054   1.780  13.965  0.2226  0.2493 -1.3106
    3TMC2    H213908   1.124   2.184  13.828  2.4626 -0.1431  0.7110
    3TMC2    C713909   1.044   1.949  13.732 -1.1973  0.6295  0.1054
    3TMC2    C813910   1.082   2.287  14.066 -0.8156 -0.0512 -0.5641
    3TMC2    O113911   1.058   2.040  13.651 -0.4239  0.4579  0.2323
    3TMC2    O213912   1.134   2.329  14.169  0.1298 -0.4040  0.2448
    3TMC2    O513913   0.969   2.346  14.012 -0.7479  0.2480  0.2949
    3TMC2    H513914   0.937   2.296  13.934 -0.3270  0.3318  0.0659
    4TMC2    C113915   0.600   2.262  13.022  0.0095  0.1346 -0.3353
    4TMC2    C213916   0.513   2.184  12.946 -0.6937  0.0156 -0.7415
    4TMC2    C313917   0.527   2.049  12.969  0.1989  0.2071 -0.2904
    4TMC2    C413918   0.687   2.206  13.115  0.6408  0.5204  0.1927
    4TMC2    C513919   0.686   2.074  13.134 -0.4192  0.4886 -0.0331
    4TMC2    C613920   0.607   1.994  13.059 -0.0941  0.1812  0.3884
    4TMC2     C13921   0.544   2.388  13.066 -0.3636 -0.2903 -0.6582
    4TMC2     O13922   0.610   2.454  13.142 -0.3764 -0.5962  0.6639
    4TMC2     H13923   0.440   2.226  12.878 -1.7333 -0.3018  0.1751
    4TMC2    H113924   0.765   2.268  13.158  2.2276 -0.8243 -0.7423
    4TMC2    H213925   0.612   1.887  13.070 -0.4570  0.0531 -0.6532
    4TMC2    C713926   0.757   2.025  13.252  0.4287 -0.4017  0.0511
    4TMC2    C813927   0.444   1.960  12.893 -0.1937  0.0521  0.0830
    4TMC2    O113928   0.826   2.108  13.309 -0.2116  0.2920  0.1694
    4TMC2    O213929   0.353   1.998  12.818  0.4424  0.2244  0.1067
    4TMC2    O513930   0.544   1.880  12.849  0.6289  0.6992  0.4803
    4TMC2    H513931   0.635   1.899  12.880  1.7034  0.7260 -2.6208
    5MPD2     C13932   0.160   2.731  13.159  0.2176  0.6208 -1.0695
    5MPD2    C113933   0.110   2.633  13.075  0.0296  0.5417 -0.3459
    5MPD2    C213934   0.195   2.532  13.031 -0.8068  0.1337  0.4722
    5MPD2    C313935   0.333   2.532  13.069  0.0611  1.1320  0.1601
    5MPD2    C413936   0.381   2.640  13.139  0.6509  0.3561  0.2723
    5MPD2    C513937   0.293   2.742  13.190  0.2560  0.0724  0.1065
    5MPD2     H13938   0.167   2.449  12.968 -1.3936  0.4462  0.3226
    5MPD2    H113939   0.488   2.646  13.158  0.8052 -3.2253  0.5254
    5MPD2    H213940   0.089   2.808  13.188 -0.0809  0.7474 -2.1138
    5MPD2    H313941   0.320   2.821  13.259  1.6319 -0.7280  0.4788
    5MPD2     N13942   0.410   2.418  13.026 -0.3508  0.4381 -0.1965
    5MPD2    H513943   0.352   2.359  12.968  1.4700 -0.4839 -1.0874
    5MPD2    N113944   4.713   2.642  13.040 -0.2403 -0.6072 -0.6188
    5MPD2    H713945   4.670   2.732  13.062  0.4111 -0.3324 -0.4612
    6MPD1     C13946   3.697   4.178  12.891  0.4340 -0.3839 -0.0065
    6MPD1    C113947   3.770   4.159  12.778  0.5945  0.0716  0.4665
    6MPD1    C213948   3.866   4.057  12.770 -0.3842  0.1821 -0.0625
    6MPD1    C313949   3.870   3.962  12.869  0.3176 -0.0336  0.2319
    6MPD1    C413950   3.792   3.979  12.982 -0.7028 -0.0245  0.6513
    6MPD1    C513951   3.711   4.085  12.995 -0.1642 -0.2528  0.5555
    6MPD1     H13952   3.936   4.052  12.688 -0.1384  0.1159  0.1508
    6MPD1    H113953   3.785   3.913  13.067 -0.1875 -0.8323  0.0623
    6MPD1    H213954   3.630   4.261  12.908 -1.2212 -1.7217 -0.0841
    6MPD1    H313955   3.646   4.098  13.081 -1.1576  0.1327 -0.2483
    6MPD1     N13956   3.953   3.846  12.871 -0.0629  0.3668  0.2161
    6MPD1    H513957   3.957   3.801  12.962 -1.4048 -0.1450  0.0301
    6MPD1    N113958   3.771   4.273  12.691 -0.4712 -0.1112 -0.3671
    6MPD1    H613959   3.681   4.320  12.703  1.5540  3.7137 -0.1780
    6MPD1    H713960   3.790   4.265  12.592 -0.4508  0.2390 -0.3924
    7MPD2     C13961   4.374   3.307  13.241 -0.7214  0.7287 -0.1209
    7MPD2    C113962   4.302   3.267  13.137 -0.2859  0.1540 -0.0593
    7MPD2    C213963   4.283   3.138  13.113  0.3252  0.0325 -0.4618
    7MPD2    C313964   4.338   3.034  13.189  0.2474 -0.0588  0.2467
    7MPD2    C413965   4.397   3.077  13.299  0.1723 -0.5720 -0.4247
    7MPD2    C513966   4.417   3.209  13.328 -0.7349  0.2536 -0.0240
    7MPD2     H13967   4.227   3.116  13.023 -0.2732 -0.2825 -0.0046
    7MPD2    H113968   4.433   3.002  13.369  0.7862 -0.5174 -0.6849
    7MPD2    H213969   4.397   3.409  13.270  1.0760  0.1099  0.6331
    7MPD2    H313970   4.473   3.231  13.418  0.6609 -0.8524 -0.6451
    7MPD2     N13971   4.327   2.894  13.168 -0.0063 -0.0689 -0.3195
    7MPD2    H513972   4.368   2.838  13.242 -1.3471  0.5722  0.9037
    7MPD2    N113973   4.257   3.357  13.037  1.1197  0.3212  0.8956
    7MPD2    H713974   4.209   3.313  12.959  1.6922 -0.7408  1.1331
    8TMC3    C113975   4.299   2.699  13.021 -0.0279  0.4669 -0.5049
    8TMC3    C213976   4.434   2.667  13.038 -0.0622 -0.5617 -0.3989
    8TMC3    C313977   4.502   2.608  12.937 -0.3759  0.5153  0.4066
    8TMC3    C413978   4.237   2.671  12.903 -0.7373 -0.3248  0.5321
    8TMC3    C513979   4.314   2.624  12.805 -0.3029 -1.0732 -0.4421
    8TMC3    C613980   4.442   2.586  12.814  0.7243 -0.1927  0.6527
    8TMC3     C13981   4.272   2.837  13.055 -0.3673  0.3598  0.2616
    8TMC3     O13982   4.233   2.905  12.960  0.6292 -0.1594  0.4443
    8TMC3     H13983   4.498   2.691  13.123 -0.2005  1.7238 -0.9234
    8TMC3    H113984   4.134   2.700  12.881 -1.2739 -2.0585  0.7389
    8TMC3    H213985   4.503   2.549  12.732  1.9928  2.2645  0.4954
    8TMC3    C713986   4.294   2.693  12.677  0.1414 -0.5728  0.8115
    8TMC3    C813987   4.644   2.566  12.953 -0.0450  0.1137  0.6331
    8TMC3    O113988   4.304   2.639  12.573 -0.3619 -0.3146  0.1728
    8TMC3    O213989   4.684   2.480  12.876 -0.2525 -0.2610  0.1148
    9TMC3    C113990   4.115   3.691  12.781 -0.0707 -0.2487  0.1986
    9TMC3    C213991   4.153   3.618  12.672 -0.2898  0.1082 -0.0212
    9TMC3    C313992   4.247   3.526  12.679 -0.1031  0.1226 -0.2527
    9TMC3    C413993   4.157   3.657  12.906 -0.1947  0.4831  0.3514
    9TMC3    C513994   4.243   3.553  12.913  0.0088  0.6441 -0.6782
    9TMC3    C613995   4.291   3.480  12.804  0.1272 -0.5045 -0.0482
    9TMC3     C13996   4.023   3.807  12.757 -0.3622  0.0971  0.3388
    9TMC3     O13997   4.011   3.845  12.641  0.0923 -0.1445  0.4244
    9TMC3     H13998   4.111   3.651  12.577 -2.2511  1.1777  1.2024
    9TMC3    H113999   4.127   3.704  12.999  2.1673  3.1909 -0.2528
    9TMC3    H214000   4.350   3.390  12.810 -0.1295 -0.5643  1.4643
    9TMC3    C714001   4.265   3.489  13.041  0.9302  0.1107  0.3838
    9TMC3    C814002   4.237   3.425  12.575  0.1547 -0.3123  0.1229
    9TMC3    O114003   4.269   3.555  13.143  0.0262 -0.1183  0.3966
    9TMC3    O214004   4.287   3.446  12.466 -0.4093 -0.4991  0.8449
   10MPD2     C14005   4.263   2.907  12.484 -0.2158  0.0420  0.1322
   10MPD2    C114006   4.260   2.930  12.616 -0.1305  0.0842  0.0253
   10MPD2    C214007   4.253   3.061  12.663 -0.1802  0.6197  0.7613
   10MPD2    C314008   4.246   3.172  12.580  0.1207  0.5463 -0.9722
   10MPD2    C414009   4.244   3.152  12.444 -0.7322 -0.2330  0.1943
   10MPD2    C514010   4.251   3.019  12.404 -0.5481 -1.1246 -0.4208
   10MPD2     H14011   4.258   3.085  12.769 -2.6641 -0.9307  1.2479
   10MPD2    H114012   4.244   3.232  12.371  1.3018 -0.5898 -0.2089
   10MPD2    H214013   4.254   2.809  12.438 -0.3726  0.4845 -0.7797
   10MPD2    H314014   4.252   3.015  12.296 -0.8778  1.4928 -0.4975
   10MPD2     N14015   4.225   3.298  12.632  0.4460  0.1898 -0.4711
   10MPD2    H514016   4.201   3.296  12.730  2.3990  1.5950  0.0391
   10MPD2    N114017   4.269   2.824  12.710 -0.2149 -0.5189 -0.6246
   10MPD2    H714018   4.272   2.848  12.809  3.0311 -1.0681 -0.5915
   11MPD2     C14019   0.861   1.643  13.607  0.2094 -0.0987 -0.2566
   11MPD2    C114020   0.905   1.774  13.605 -0.1089 -0.3033 -0.8089
   11MPD2    C214021   0.872   1.859  13.495 -0.1435  0.2027 -0.0634
   11MPD2    C314022   0.783   1.816  13.393 -0.2945 -0.1938 -0.4892
   11MPD2    C414023   0.725   1.693  13.409 -0.3806 -0.0425  0.7043
   11MPD2    C514024   0.771   1.606  13.507  0.0750  0.4169  0.3366
   11MPD2     H14025   0.901   1.963  13.485  2.0808 -0.3411  0.6391
   11MPD2    H114026   0.661   1.657  13.329  0.0021  0.2741  0.2547
   11MPD2    H214027   0.896   1.578  13.687  1.5313 -0.1209 -0.8471
   11MPD2    H314028   0.725   1.508  13.506 -0.9072  0.8840 -0.0648
   11MPD2     N14029   0.729   1.896  13.283  0.3867 -0.6383 -0.0717
   11MPD2    H514030   0.667   1.853  13.215  2.7797 -3.1498 -0.6594
   11MPD2    N114031   0.974   1.830  13.717  0.1586  0.0461  0.0958
   11MPD2    H714032   0.984   1.760  13.790 -0.0245  2.3566  2.3384
    1MPD1     C14033   3.189   4.222  16.729 -0.4173 -0.1582 -0.1728
    1MPD1    C114034   3.119   4.159  16.622  0.2014 -0.3547 -0.8297
    1MPD1    C214035   3.186   4.077  16.536  0.0491  0.0330 -0.2029
    1MPD1    C314036   3.324   4.086  16.536  0.1039  0.3528  0.4044
    1MPD1    C414037   3.391   4.154  16.631 -0.3835  0.3868  0.6065
    1MPD1    C514038   3.327   4.216  16.739 -0.0466 -0.1739  0.7721
    1MPD1     H14039   3.130   4.022  16.462 -0.5748  2.5820 -1.6078
    1MPD1    H114040   3.499   4.148  16.635 -0.4867 -2.1922 -0.1727
    1MPD1    H214041   3.142   4.263  16.818 -0.0191  2.1386 -1.0055
    1MPD1    H314042   3.386   4.260  16.818 -2.0142  0.6503  1.7747
    1MPD1     N14043   3.410   4.020  16.445 -0.7578  0.3226 -0.4521
    1MPD1    H514044   3.509   4.015  16.467 -1.1258 -0.5195  1.0663
    1MPD1    N114045   2.980   4.168  16.624 -0.7710 -0.5444  0.5450
    1MPD1    H614046   2.944   4.253  16.668 -1.3780 -0.2652 -0.4799
    1MPD1    H714047   2.934   4.160  16.533 -1.1738 -2.2823  0.9149
    2MPD1     C14048   4.357   3.887  16.344  0.2286 -0.2073 -0.8856
    2MPD1    C114049   4.330   3.860  16.215 -0.2852  0.0373 -0.3863
    2MPD1    C214050   4.194   3.860  16.178  0.1939 -0.1401  0.0787
    2MPD1    C314051   4.089   3.870  16.272  0.4609 -0.6915  0.4897
    2MPD1    C414052   4.127   3.881  16.399 -0.6260 -0.3772  0.2745
    2MPD1    C514053   4.258   3.894  16.438  0.5775  0.0692  0.0159
    2MPD1     H14054   4.173   3.851  16.071 -2.8151 -0.7624  0.7140
    2MPD1    H114055   4.061   3.882  16.485 -1.1608  0.6427 -0.1513
    2MPD1    H214056   4.457   3.904  16.382 -1.0545  0.5379  2.1618
    2MPD1    H314057   4.284   3.908  16.543 -0.1126 -0.8741  0.3124
    2MPD1     N14058   3.955   3.855  16.221  0.2024 -0.1479  0.2897
    2MPD1    H514059   3.929   3.831  16.126 -1.4472 -2.0880  1.2274
    2MPD1    N114060   4.430   3.848  16.117 -0.0958  0.2803 -0.4980
    2MPD1    H614061   4.396   3.790  16.040 -1.8104 -2.4784  2.3686
    2MPD1    H714062   4.501   3.790  16.162 -0.5594  0.0835 -0.0129
    3TMC3    C114063   3.719   3.857  16.235 -0.3006  0.2325 -0.3873
    3TMC3    C214064   3.696   3.742  16.166  0.7850  0.1819  0.5547
    3TMC3    C314065   3.563   3.698  16.151 -0.0859 -0.2270 -0.1509
    3TMC3    C414066   3.611   3.921  16.291  0.0486 -0.2757  0.5766
    3TMC3    C514067   3.485   3.874  16.270 -0.6431 -0.7037  0.5379
    3TMC3    C614068   3.460   3.761  16.205  0.3260 -0.0966 -0.0370
    3TMC3     C14069   3.852   3.882  16.300 -0.0870 -0.2893  0.4089
    3TMC3     O14070   3.850   3.937  16.404 -0.1011  0.0845 -0.6578
    3TMC3     H14071   3.772   3.693  16.107  0.3175  0.2654 -0.1292
    3TMC3    H114072   3.624   4.019  16.335  0.3268  0.4106 -1.0582
    3TMC3    H214073   3.358   3.729  16.191 -0.0928  1.0360  0.4208
    3TMC3    C714074   3.371   3.939  16.337 -0.5106  0.3229  0.2967
    3TMC3    C814075   3.532   3.594  16.057 -0.0172 -0.2572 -1.0831
    3TMC3    O114076   3.258   3.919  16.287  0.2822  0.1608  0.0173
    3TMC3    O214077   3.424   3.588  16.005 -0.0483  0.2704 -0.3267
    4MPD1     C14078   3.681   3.212  15.745  0.1738  0.9839 -0.0374
    4MPD1    C114079   3.775   3.220  15.844  0.1503  0.4880 -0.8201
    4MPD1    C214080   3.756   3.318  15.953 -0.2123  0.0066  0.4142
    4MPD1    C314081   3.659   3.415  15.944 -0.3572  0.1735  0.4382
    4MPD1    C414082   3.571   3.407  15.835 -0.5433  0.3543  0.1023
    4MPD1    C514083   3.589   3.311  15.733 -0.5606  0.9814 -0.0917
    4MPD1     H14084   3.820   3.306  16.039 -1.4730 -0.6504  1.2690
    4MPD1    H114085   3.484   3.469  15.816 -2.0931 -2.3957 -1.7239
    4MPD1    H214086   3.676   3.135  15.669  0.3469  2.7017 -1.7747
    4MPD1    H314087   3.516   3.309  15.653  0.9050 -2.1309 -1.3019
    4MPD1     N14088   3.641   3.515  16.043  0.4901  0.2811 -0.4670
    4MPD1    H514089   3.709   3.508  16.119  0.9732  0.2435 -0.9049
    4MPD1    N114090   3.884   3.130  15.856 -0.2938 -0.3671  0.1876
    4MPD1    H614091   3.961   3.165  15.913  0.7997  1.0840 -2.1944
    4MPD1    H714092   3.920   3.106  15.764 -1.4150 -1.7467  0.1115
    1TCq1    O114093   3.720   0.998  10.697  0.0721 -0.3255  0.0259
    1TCq1    C114094   3.770   1.108  10.762  0.5975 -0.6661  0.0499
    1TCq1    O214095   3.765   1.129  10.884  0.4547  0.4505  0.4040
    1TCq1    C214096   3.843   1.188  10.667  0.1606  0.2161  0.5680
    1TCq1    C314097   3.806   1.203  10.535  0.1105  0.2059  0.0398
    1TCq1    C414098   3.874   1.302  10.465  0.5103 -0.5258 -0.0549
    1TCq1    C514099   3.994   1.349  10.512 -0.7718  0.7810  0.2724
    1TCq1    C614100   4.031   1.322  10.642  0.3435 -0.1922  0.0905
    1TCq1    C714101   3.956   1.241  10.716 -0.0841  1.3893 -0.2318
    1TCq1    C814102   4.145   1.397  10.694 -0.0846 -0.0805 -0.4233
    1TCq1    O414103   4.212   1.351  10.786 -0.5903  0.0530 -0.6549
    1TCq1    C914104   3.845   1.315  10.318 -0.5717  0.0487  0.0213
    1TCq1    O514105   3.795   1.211  10.271 -0.3767  0.3407  0.3230
    1TCq1    O614106   3.918   1.397  10.256 -0.0176  0.5259  0.7803
    1TCq1    H114107   3.750   0.997  10.604  1.3770  1.2617  0.4528
    1TCq1    H214108   3.721   1.156  10.486 -0.2527 -1.0893  1.9094
    1TCq1    H314109   4.052   1.411  10.445 -0.1437 -1.0679 -0.8907
    1TCq1    H414110   3.984   1.211  10.817 -1.8598 -1.6071 -0.6390
    2MPD1     C14111   4.466   1.803  10.693 -0.1999 -0.3908 -0.3051
    2MPD1    C114112   4.381   1.814  10.586  0.4409 -0.2944  0.6856
    2MPD1    C214113   4.285   1.717  10.565  0.8288 -0.7801 -0.5843
    2MPD1    C314114   4.274   1.609  10.647  0.2153  0.2352 -0.7095
    2MPD1    C414115   4.362   1.598  10.750 -0.3002  0.6092  0.3336
    2MPD1    C514116   4.466   1.686  10.774  0.3361 -0.2537 -0.2870
    2MPD1     H14117   4.209   1.744  10.492  0.7253  0.6563  0.0510
    2MPD1    H114118   4.362   1.511  10.815 -0.0496  1.2052  1.1389
    2MPD1    H214119   4.550   1.871  10.702  0.6259 -1.2145 -1.8094
    2MPD1    H314120   4.542   1.671  10.850  0.9684 -0.5565 -0.9736
    2MPD1     N14121   4.168   1.517  10.627  0.3208  0.6839 -0.1321
    2MPD1    H514122   4.095   1.544  10.563  1.1264  0.7013 -1.0378
    2MPD1    N114123   4.375   1.929  10.505 -0.0208  0.2981 -0.4609
    2MPD1    H614124   4.359   1.905  10.408 -0.3843  1.1743 -0.6130
    2MPD1    H714125   4.465   1.976  10.508  1.0879 -1.9103  1.9257
    1TMC1    C114126   3.672   1.439  17.396  0.5202  0.0688 -0.7268
    1TMC1    C214127   3.615   1.551  17.438  0.3762 -0.9500 -0.3258
    1TMC1    C314128   3.475   1.549  17.472 -0.0068 -0.6291  0.1834
    1TMC1    C414129   3.598   1.322  17.375 -0.2849 -0.2181 -0.0418
    1TMC1    C514130   3.463   1.332  17.393  0.3208 -0.3682  0.2025
    1TMC1    C614131   3.398   1.442  17.441 -1.0851  0.5243  0.4525
    1TMC1     C14132   3.816   1.427  17.372  0.1491 -0.4809 -0.4320
    1TMC1     O14133   3.850   1.320  17.321  0.4040 -0.0548  0.4887
    1TMC1     H14134   3.667   1.645  17.450  0.3264 -1.2430  2.0613
    1TMC1    H114135   3.638   1.233  17.327  1.8723  0.7122  0.0229
    1TMC1    H214136   3.291   1.438  17.460 -1.6642  0.5003 -2.7548
    1TMC1    C714137   3.394   1.208  17.355 -0.0904 -0.8120  0.1670
    1TMC1    C814138   3.400   1.664  17.518  0.2767 -0.0798 -0.4983
    1TMC1    O114139   3.445   1.097  17.367  0.8846 -0.1552 -0.0393
    1TMC1    O214140   3.287   1.679  17.476  0.1608 -0.0385  0.0126
    1TMC1    O314141   3.343   1.252  17.238  0.5371 -0.1979  1.1058
    1TMC1    H314142   3.319   1.347  17.229 -1.6958 -0.8420  0.3664
    1TMC1    O514143   3.478   1.765  17.551  0.2254  0.1059 -0.4824
    1TMC1    H514144   3.563   1.743  17.595 -0.0258  0.4863  0.1992
    2MPD1     C14145   4.287   1.604  17.345  0.5787 -0.4675 -0.0854
    2MPD1    C114146   4.207   1.696  17.412  0.3020 -0.1868  0.3120
    2MPD1    C214147   4.081   1.679  17.422 -0.2975 -0.1886 -0.2042
    2MPD1    C314148   4.024   1.555  17.384 -0.3483 -1.3577 -0.3297
    2MPD1    C414149   4.107   1.453  17.344  0.3182 -0.1456  0.0699
    2MPD1    C514150   4.235   1.477  17.319  0.8737 -0.1328 -0.0490
    2MPD1     H14151   4.025   1.762  17.464  1.2591  0.2518  1.0441
    2MPD1    H114152   4.077   1.352  17.320 -2.7734  0.4822  1.3088
    2MPD1    H214153   4.388   1.626  17.313  0.1661 -0.2494 -1.2165
    2MPD1    H314154   4.296   1.408  17.262 -1.7654 -2.9027  0.5033
    2MPD1     N14155   3.886   1.540  17.397 -0.6701  0.2221 -0.3918
    2MPD1    H514156   3.843   1.623  17.437 -1.4686 -0.8128  0.9054
    2MPD1    N114157   4.257   1.817  17.445  0.0606 -0.0448  0.2090
    2MPD1    H614158   4.352   1.813  17.482  0.1754  1.4342  0.0791
    2MPD1    H714159   4.203   1.862  17.520 -0.9251 -0.3725 -0.3062
    1MPD1     C14160   0.857   3.888  11.413  0.2764  0.3314 -0.1524
    1MPD1    C114161   0.891   3.763  11.460 -0.1505 -0.6319 -0.1658
    1MPD1    C214162   0.996   3.759  11.546 -0.3365  0.3586 -0.2226
    1MPD1    C314163   1.060   3.867  11.602  0.3443  0.1976 -0.5030
    1MPD1    C414164   1.013   3.992  11.568  0.3348  0.3211  0.1529
    1MPD1    C514165   0.908   4.002  11.477  0.3379 -0.8863  0.4784
    1MPD1     H14166   1.028   3.660  11.576 -2.4578 -0.8027 -1.8632
    1MPD1    H114167   1.042   4.086  11.614 -1.1020  0.4734  0.7259
    1MPD1    H214168   0.778   3.904  11.341  0.9943 -0.3796 -1.1159
    1MPD1    H314169   0.857   4.097  11.466  0.1461 -0.8728  1.4284
    1MPD1     N14170   1.151   3.835  11.708 -0.2263 -0.0551  0.2843
    1MPD1    H514171   1.148   3.739  11.740 -0.4460  0.1701  0.9279
    1MPD1    N114172   0.864   3.646  11.396 -0.1454 -0.0418  0.8555
    1MPD1    H614173   0.771   3.660  11.359  0.2137  0.6972  0.2252
    1MPD1    H714174   0.873   3.570  11.464  2.8705 -1.3261 -0.9519
    2MPD1     C14175   0.980   1.745  11.172  0.5711  0.4775 -0.1575
    2MPD1    C114176   0.987   1.797  11.298  0.2450  0.3223  0.1419
    2MPD1    C214177   1.010   1.930  11.322  0.6960  0.1239  0.6636
    2MPD1    C314178   1.012   2.017  11.209 -0.4965  0.0687 -0.8186
    2MPD1    C414179   0.992   1.966  11.084  0.7235  0.0182 -0.0507
    2MPD1    C514180   0.985   1.830  11.068 -0.6491 -0.2618 -0.6142
    2MPD1     H14181   1.029   1.960  11.424  0.5849  1.4183  0.3087
    2MPD1    H114182   0.990   2.026  10.994  1.5084 -1.1406 -0.8438
    2MPD1    H214183   0.971   1.640  11.146  2.9154  0.2049  0.1376
    2MPD1    H314184   0.962   1.781  10.974 -0.1858  0.0045 -0.8666
    2MPD1     N14185   1.031   2.157  11.220  0.3301 -0.5699  0.4294
    2MPD1    H514186   1.026   2.217  11.138 -0.6076  0.6491  1.3769
    2MPD1    N114187   0.994   1.704  11.409  0.7987  0.3008  0.0850
    2MPD1    H614188   0.959   1.748  11.494  0.4319  2.6224 -1.2678
    2MPD1    H714189   0.938   1.622  11.387  0.9834  0.3321 -0.5112
    3MPD1     C14190   0.596   3.065  11.264 -0.5896 -0.0987 -0.2022
    3MPD1    C114191   0.656   3.062  11.386 -0.3025 -0.7546  0.9189
    3MPD1    C214192   0.764   2.974  11.405 -0.3735  0.3645  0.1094
    3MPD1    C314193   0.792   2.874  11.307 -0.0341  0.2137  0.8235
    3MPD1    C414194   0.722   2.880  11.189  0.2641 -0.2377  0.5621
    3MPD1    C514195   0.623   2.965  11.174 -0.1010  0.0020 -0.8714
    3MPD1     H14196   0.829   2.973  11.492  0.0827 -0.6533 -0.2387
    3MPD1    H114197   0.746   2.818  11.103 -0.2675  1.1639 -0.5795
    3MPD1    H214198   0.533   3.146  11.227  0.7372  0.2473 -1.7391
    3MPD1    H314199   0.588   2.965  11.071 -2.7172 -0.2681  0.0135
    3MPD1     N14200   0.893   2.774  11.347  0.0937  0.9257  0.7998
    3MPD1    H514201   0.948   2.792  11.431  0.3212  2.1120  0.4007
    3MPD1    N114202   0.630   3.164  11.478  0.5431  0.4689 -0.4032
    3MPD1    H614203   0.531   3.187  11.482  0.2243 -1.1079  0.6130
    3MPD1    H714204   0.645   3.147  11.577 -1.2838  1.4737  0.0403
    4MPD2     C14205   1.860   3.599  11.900  0.1517 -0.4195 -0.0503
    4MPD2    C114206   1.756   3.592  11.987 -0.2922  0.6435  0.3151
    4MPD2    C214207   1.738   3.471  12.056  0.2338  0.2272 -0.0192
    4MPD2    C314208   1.825   3.366  12.027 -0.1608  0.0826 -0.1782
    4MPD2    C414209   1.926   3.375  11.933  0.4523 -0.2199 -0.3734
    4MPD2    C514210   1.945   3.496  11.870 -0.0010 -0.1563  0.1584
    4MPD2     H14211   1.658   3.461  12.128  1.4367 -0.7437  1.1909
    4MPD2    H114212   1.994   3.294  11.910 -1.1070 -1.1124 -1.8261
    4MPD2    H214213   1.883   3.688  11.841 -0.3996 -0.4079 -0.2479
    4MPD2    H314214   2.032   3.514  11.808 -0.7274  1.4239 -0.3840
    4MPD2     N14215   1.795   3.243  12.091 -0.1943 -0.4789 -0.3638
    4MPD2    H514216   1.712   3.245  12.150  1.1609 -2.9430  1.6638
    4MPD2    N114217   1.663   3.698  12.011 -0.6849  0.1131  0.2875
    4MPD2    H714218   1.587   3.674  12.074 -0.7761 -1.7267 -0.5353
    5TMC3    C114219   1.516   3.878  11.969  0.0871  0.6856  0.4208
    5TMC3    C214220   1.442   3.907  11.860 -0.0116 -0.4094  0.1849
    5TMC3    C314221   1.308   3.876  11.867  0.0207 -0.2850 -0.0070
    5TMC3    C414222   1.464   3.813  12.078  0.4412  0.0706  0.6237
    5TMC3    C514223   1.334   3.784  12.076 -0.3209 -0.2863  0.0595
    5TMC3    C614224   1.250   3.813  11.971 -0.3512  1.0611 -0.6869
    5TMC3     C14225   1.646   3.812  11.934 -0.3200 -0.5080  0.6531
    5TMC3     O14226   1.706   3.846  11.830  0.2887 -0.1629  0.0220
    5TMC3     H14227   1.489   3.940  11.768  0.6833  0.8468  0.9889
    5TMC3    H114228   1.522   3.808  12.169  0.1190  0.1869  0.8381
    5TMC3    H214229   1.146   3.782  11.959 -0.2857  0.0482  1.3880
    5TMC3    C714230   1.327   3.646  12.121  0.4544 -0.2865 -0.0449
    5TMC3    C814231   1.230   3.937  11.763 -0.1903  0.6494  0.0031
    5TMC3    O114232   1.431   3.578  12.135  0.0680  0.1449  0.0722
    5TMC3    O214233   1.252   4.054  11.735  0.3038 -0.1969  0.1198
    6TMC3    C114234   1.091   2.356  11.336 -0.0738 -1.0176  0.0159
    6TMC3    C214235   0.995   2.440  11.284  0.6500  0.6567 -0.4994
    6TMC3    C314236   1.002   2.573  11.316 -0.2229 -0.0808 -0.1707
    6TMC3    C414237   1.196   2.400  11.417 -0.5647 -0.1211  0.0236
    6TMC3    C514238   1.201   2.537  11.432 -0.7333 -0.1147  1.0845
    6TMC3    C614239   1.109   2.620  11.385 -0.8940 -0.2932 -0.4723
    6TMC3     C14240   1.090   2.208  11.330  0.1348 -0.3264 -0.2023
    6TMC3     O14241   1.145   2.147  11.421 -0.3762  0.1115  0.6557
    6TMC3     H14242   0.912   2.396  11.230  1.1163 -1.7920  0.7860
    6TMC3    H114243   1.270   2.333  11.460 -1.8881 -0.1882  2.1838
    6TMC3    H214244   1.127   2.725  11.408 -1.0089 -0.4228  0.2207
    6TMC3    C714245   1.285   2.585  11.531  0.3776  0.2032  0.1825
    6TMC3    C814246   0.898   2.656  11.277  0.4472  0.2212  0.0631
    6TMC3    O114247   1.240   2.647  11.626 -0.3777  0.1950 -0.3433
    6TMC3    O214248   0.831   2.620  11.181 -0.4782  0.4593  0.3733
    7MPD2     C14249   1.100   3.190  12.214  0.2510 -0.2355 -0.3382
    7MPD2    C114250   1.237   3.215  12.190 -0.1364  0.7502 -0.4377
    7MPD2    C214251   1.269   3.350  12.169  0.3742 -0.1134 -0.2181
    7MPD2    C314252   1.171   3.458  12.155  0.6995  0.3372  0.6700
    7MPD2    C414253   1.041   3.424  12.173 -0.0782 -0.2757  0.3741
    7MPD2    C514254   1.016   3.295  12.223  0.1036 -0.1798  1.0655
    7MPD2     H14255   1.372   3.373  12.145  0.2669  0.4417 -0.1608
    7MPD2    H114256   0.965   3.499  12.192 -0.8393 -0.7666 -0.7544
    7MPD2    H214257   1.062   3.088  12.215 -0.2003 -0.0586  0.6221
    7MPD2    H314258   0.913   3.274  12.248 -0.5592  0.3954 -1.1724
    7MPD2     N14259   1.204   3.596  12.122  0.2165 -0.0097  0.4861
    7MPD2    H514260   1.124   3.657  12.111  2.3298  2.6501  0.0469
    7MPD2    N114261   1.333   3.111  12.204 -0.0634  0.2443 -0.4971
    7MPD2    H714262   1.298   3.017  12.213  2.1724 -0.3640  1.9865
    8TMC3    C114263   1.550   3.016  12.230  0.3483 -0.3718  0.4629
    8TMC3    C214264   1.513   2.906  12.156  0.0709  0.5616 -0.2609
    8TMC3    C314265   1.599   2.859  12.059 -0.1420  0.2350  0.4368
    8TMC3    C414266   1.684   3.058  12.222 -0.1740  0.0334  0.1875
    8TMC3    C514267   1.769   3.012  12.123  0.0846  0.6003  0.2017
    8TMC3    C614268   1.722   2.915  12.038 -0.5100 -0.4789 -0.5045
    8TMC3     C14269   1.469   3.137  12.230  0.3023  0.4560  0.5206
    8TMC3     O14270   1.531   3.236  12.254  0.0831 -0.2653 -0.0900
    8TMC3     H14271   1.415   2.862  12.169  0.6270 -1.0402 -1.5186
    8TMC3    H114272   1.731   3.127  12.291 -2.0172  0.6402  0.8293
    8TMC3    H214273   1.794   2.890  11.960 -0.4117 -2.1132  0.1090
    8TMC3    C714274   1.845   3.120  12.065 -0.5932  0.1423 -0.2288
    8TMC3    C814275   1.540   2.767  11.966  0.0134  0.7464 -0.1677
    8TMC3    O114276   1.919   3.093  11.975 -0.5699  0.1536  0.0946
    8TMC3    O214277   1.418   2.750  11.960 -0.1266  0.2215 -0.2905
    9MPD2     C14278   1.733   2.527  11.764  0.6388 -0.5212 -0.7930
    9MPD2    C114279   1.628   2.604  11.804 -1.2376  0.4583 -0.6677
    9MPD2    C214280   1.515   2.605  11.717 -0.4297  0.1680 -0.4422
    9MPD2    C314281   1.511   2.523  11.612 -0.2538 -0.2866  0.0024
    9MPD2    C414282   1.618   2.439  11.578  0.2528 -0.7256  0.3020
    9MPD2    C514283   1.723   2.441  11.658  0.3258 -0.1825 -0.1313
    9MPD2     H14284   1.426   2.663  11.739 -2.8476 -2.9416 -2.1386
    9MPD2    H114285   1.601   2.363  11.502 -0.0454 -2.2710  1.9295
    9MPD2    H214286   1.820   2.525  11.829  0.0006 -0.8937  0.0493
    9MPD2    H314287   1.800   2.366  11.645  1.0543  0.2422  1.7316
    9MPD2     N14288   1.405   2.522  11.518  0.2961  0.0073  0.2508
    9MPD2    H514289   1.417   2.478  11.428 -0.5085  0.8536 -0.2764
    9MPD2    N114290   1.638   2.684  11.918 -0.8519 -0.0213  0.2228
    9MPD2    H714291   1.732   2.689  11.955 -1.4495 -0.7805  1.8353
    1MPD1     C14292   1.748   2.743  16.070  0.9614  0.0860 -0.6372
    1MPD1    C114293   1.696   2.620  16.032 -0.2464  0.4777 -0.1578
    1MPD1    C214294   1.581   2.573  16.091 -0.6264 -0.3051 -0.9220
    1MPD1    C314295   1.543   2.631  16.211  1.2650 -0.5453  0.0038
    1MPD1    C414296   1.587   2.760  16.242  0.8034 -0.1540  0.1625
    1MPD1    C514297   1.686   2.822  16.173 -0.3809 -0.2404 -0.3496
    1MPD1     H14298   1.535   2.480  16.058 -0.9072 -1.0254  1.4830
    1MPD1    H114299   1.543   2.820  16.321  2.0496  0.3723  0.4559
    1MPD1    H214300   1.841   2.783  16.031  0.8488  0.7349 -0.2320
    1MPD1    H314301   1.724   2.919  16.202  2.2569 -1.4343  0.1863
    1MPD1     N14302   1.430   2.590  16.290  0.2141  0.5555  0.4256
    1MPD1    H514303   1.413   2.644  16.375  1.3143  2.6933 -0.7074
    1MPD1    N114304   1.740   2.554  15.913 -0.0797  0.1629  0.0854
    1MPD1    H614305   1.841   2.562  15.913  0.0517 -1.7160  1.7022
    1MPD1    H714306   1.721   2.456  15.929 -0.8181 -0.1152 -2.3737
    2TMC2    C114307   1.077   2.356  16.457 -0.0926  0.3070  0.5677
    2TMC2    C214308   1.131   2.344  16.578 -0.1388  0.1426 -0.2699
    2TMC2    C314309   1.252   2.392  16.600 -0.2024  0.7984 -0.3779
    2TMC2    C414310   1.148   2.397  16.347  0.1295  0.6515 -0.2354
    2TMC2    C514311   1.271   2.452  16.371  0.3348 -0.0543  0.0561
    2TMC2    C614312   1.329   2.443  16.497  0.9407  0.6286  0.3706
    2TMC2     C14313   0.947   2.301  16.445 -0.2879 -0.4689  0.0765
    2TMC2     O14314   0.905   2.213  16.521 -0.1320  0.4310  0.1897
    2TMC2     H14315   1.066   2.298  16.652  2.7143  0.4610  2.4165
    2TMC2    H114316   1.115   2.397  16.244  0.5572 -1.1835 -0.3726
    2TMC2    H214317   1.427   2.483  16.516  0.2769  1.5022  1.9902
    2TMC2    C714318   1.351   2.483  16.262  0.1244 -0.2074  0.7748
    2TMC2    C814319   1.334   2.357  16.717  0.3707 -0.0632  0.4299
    2TMC2    O114320   1.338   2.428  16.151 -0.4399  0.5100 -0.3125
    2TMC2    O214321   1.449   2.317  16.698 -0.9071  0.3921 -0.0554
    2TMC2    O514322   1.248   2.324  16.820  0.4926  0.3503  0.8180
    2TMC2    H514323   1.176   2.391  16.816  0.1017 -0.1891 -1.7240
    3MPD1     C14324   0.486   2.266  16.221 -0.1763  1.1959 -1.0530
    3MPD1    C114325   0.572   2.344  16.147 -0.0230  0.1009  0.0740
    3MPD1    C214326   0.688   2.383  16.205 -0.5134 -0.3180 -0.0982
    3MPD1    C314327   0.739   2.320  16.318  0.5471 -0.0878 -0.4384
    3MPD1    C414328   0.655   2.233  16.385  0.5620  0.5512 -0.2208
    3MPD1    C514329   0.524   2.217  16.345  0.4813 -0.0648  0.3684
    3MPD1     H14330   0.754   2.448  16.149 -0.8854 -0.3585 -0.5757
    3MPD1    H114331   0.685   2.187  16.479  0.7812  0.6455 -0.2443
    3MPD1    H214332   0.385   2.238  16.193 -0.2517 -0.6066  0.9957
    3MPD1    H314333   0.452   2.161  16.403  2.1968 -0.5044  2.0930
    3MPD1     N14334   0.870   2.362  16.349  0.0569 -0.0451 -0.2692
    3MPD1    H514335   0.910   2.437  16.294  2.5250  0.8312  2.6838
    3MPD1    N114336   0.531   2.404  16.031 -0.0328  0.6697 -0.2884
    3MPD1    H614337   0.451   2.355  15.990  0.8456  1.6828 -3.1834
    3MPD1    H714338   0.603   2.413  15.960  1.0011 -0.4217  0.6270
    1TMC1    C114339   3.522   1.102  13.156  0.6261  0.7268 -0.1020
    1TMC1    C214340   3.584   1.029  13.252 -0.1293  1.4861 -0.4706
    1TMC1    C314341   3.518   0.926  13.312 -0.6987 -0.2996 -0.4478
    1TMC1    C414342   3.392   1.092  13.125  0.4150  0.8452  0.1505
    1TMC1    C514343   3.332   0.983  13.180  0.1178 -0.4774 -0.3253
    1TMC1    C614344   3.392   0.895  13.262  0.0455 -0.2964 -0.5189
    1TMC1     C14345   3.592   1.220  13.096 -0.1709  0.0168  0.1413
    1TMC1     O14346   3.529   1.305  13.035 -0.7249 -0.0310 -0.4603
    1TMC1     H14347   3.679   1.067  13.288  1.5069 -1.1275 -2.0517
    1TMC1    H114348   3.330   1.168  13.079 -1.7497 -1.8851 -1.4586
    1TMC1    H214349   3.337   0.812  13.304  0.0645 -1.0934 -2.0526
    1TMC1    C714350   3.193   1.001  13.203 -0.3852 -0.5920  0.2729
    1TMC1    C814351   3.579   0.852  13.412 -0.2741 -0.3409  0.0039
    1TMC1    O114352   3.136   0.973  13.303  0.2388  0.2696  0.2074
    1TMC1    O214353   3.518   0.775  13.484 -0.0760 -0.0165 -0.0153
    1TMC1    O314354   3.137   1.038  13.082 -0.7535  0.0886  0.8579
    1TMC1    H314355   3.208   1.058  13.017  0.0566 -2.1808  1.0445
    1TMC1    O514356   3.711   0.852  13.392  0.4258  0.4104  0.1110
    1TMC1    H514357   3.749   0.921  13.334  0.7761  2.4100  2.7252
    2MPD2     C14358   3.787   1.433  13.026  0.5241  0.1120 -0.3051
    2MPD2    C114359   3.817   1.323  13.099  0.3811 -0.0140 -0.5049
    2MPD2    C214360   3.948   1.305  13.139  0.4272 -0.5242 -0.5502
    2MPD2    C314361   4.038   1.408  13.106  0.1891  0.0143  0.0595
    2MPD2    C414362   4.005   1.520  13.027  0.2641 -0.7961  0.2653
    2MPD2    C514363   3.870   1.537  12.998  1.1877 -0.1634  0.0841
    2MPD2     H14364   3.979   1.231  13.212 -1.6715 -1.6070 -0.7545
    2MPD2    H114365   4.076   1.594  12.994  1.2280 -1.8966 -0.1393
    2MPD2    H214366   3.700   1.437  12.962  1.3897 -0.0502 -1.4751
    2MPD2    H314367   3.844   1.619  12.932  0.4953 -1.4622 -1.2726
    2MPD2     N14368   4.170   1.382  13.141  0.3798  0.0212  0.5549
    2MPD2    H514369   4.186   1.286  13.169  1.9468  0.0144 -0.3784
    2MPD2    N114370   3.722   1.226  13.138  0.6241  0.6847  0.2697
    2MPD2    H714371   3.764   1.147  13.186 -0.2238 -0.2472 -0.5145
    3TCq1    O114372   0.105   1.387  13.144  0.4564 -0.3958  0.6024
    3TCq1    C114373   0.018   1.464  13.215 -0.9517 -0.5136  0.0990
    3TCq1    O214374   0.026   1.584  13.216  0.2619  0.1045  0.1776
    3TCq1    C214375   4.630   1.397  13.196  0.4506 -0.3682  0.3427
    3TCq1    C314376   4.628   1.259  13.208  0.2344  0.4509 -0.9391
    3TCq1    C414377   4.519   1.186  13.172  0.7568  0.0306 -0.2752
    3TCq1    C514378   4.409   1.256  13.127  0.2183  0.0469 -0.1533
    3TCq1    C614379   4.410   1.392  13.116 -0.6611  0.3192 -0.5968
    3TCq1    C714380   4.523   1.463  13.139 -0.1217 -0.1380 -0.1143
    3TCq1    C814381   4.279   1.466  13.122 -0.1067  0.5920 -0.1688
    3TCq1    O414382   4.281   1.585  13.104 -0.1288  0.0684 -0.8523
    3TCq1    C914383   4.497   1.041  13.191 -0.0042  0.1802  0.1955
    3TCq1    O514384   4.401   0.987  13.135 -0.7428 -0.3302  0.3425
    3TCq1    O614385   4.549   1.008  13.299  0.1941 -0.3550  0.1767
    3TCq1    H114386   0.067   1.301  13.116 -1.4906  0.8906 -0.6983
    3TCq1    H214387   4.707   1.199  13.252  1.1665  2.0462 -0.4480
    3TCq1    H314388   4.322   1.191  13.119 -0.4827  1.0966 -1.0922
    3TCq1    H414389   4.519   1.572  13.139 -2.1024 -0.2118 -0.4219
    1MPD2     C14390   3.838   1.900  14.991  0.9483  0.2285  0.0553
    1MPD2    C114391   3.707   1.866  14.991 -0.6546 -0.2112 -0.3308
    1MPD2    C214392   3.648   1.799  14.886 -0.2114 -0.3538  0.3771
    1MPD2    C314393   3.722   1.767  14.775  0.0498  0.6740 -0.4496
    1MPD2    C414394   3.858   1.786  14.779 -0.3559  0.7648 -0.3239
    1MPD2    C514395   3.912   1.860  14.884  0.4593 -0.3839  0.1395
    1MPD2     H14396   3.542   1.778  14.884 -0.2167 -0.2287 -0.7073
    1MPD2    H114397   3.921   1.774  14.692 -1.5692 -2.5703 -0.7513
    1MPD2    H214398   3.879   1.955  15.075 -1.3379  1.4505  0.3757
    1MPD2    H314399   4.010   1.904  14.872 -0.5930  1.8829 -0.2771
    1MPD2     N14400   3.658   1.710  14.662 -0.2451  0.7299 -0.1969
    1MPD2    H514401   3.719   1.668  14.593  1.0558  1.2297  0.6507
    1MPD2    N114402   3.624   1.919  15.096  0.3519 -0.4013 -0.0483
    1MPD2    H714403   3.663   1.984  15.164  0.8082 -0.0818 -0.6141
    2TMC3    C114404   3.427   1.976  15.207  0.2459  0.1633 -0.2189
    2TMC3    C214405   3.306   1.923  15.246  0.6717  0.7310 -0.9053
    2TMC3    C314406   3.192   1.996  15.238 -0.4116  0.0154  0.7852
    2TMC3    C414407   3.438   2.104  15.168 -0.0419 -0.0481 -0.1149
    2TMC3    C514408   3.322   2.177  15.167  0.6230  0.4949  0.8880
    2TMC3    C614409   3.202   2.124  15.192 -0.1426  0.4684  0.7079
    2TMC3     C14410   3.485   1.894  15.113  1.0542  0.0234 -0.5177
    2TMC3     O14411   3.416   1.805  15.065 -0.5396 -0.1604  0.2359
    2TMC3     H14412   3.297   1.818  15.272  0.2632  0.9022 -0.3539
    2TMC3    H114413   3.532   2.149  15.137  0.0060  0.9210  1.4025
    2TMC3    H214414   3.117   2.177  15.152 -0.1644 -0.8260 -0.9528
    2TMC3    C714415   3.305   2.309  15.105 -0.0965 -0.3205  0.2341
    2TMC3    C814416   3.087   1.943  15.158  0.1676 -0.1799 -0.0832
    2TMC3    O114417   3.214   2.377  15.146  0.4517  0.1712 -0.4684
    2TMC3    O214418   2.976   1.986  15.173  0.6122 -0.2665  0.1287
    3TCq1    O114419   4.038   2.896  14.442  0.0054 -0.2096 -0.1068
    3TCq1    C114420   4.069   2.779  14.380 -0.6838 -0.3207  0.7591
    3TCq1    O214421   4.166   2.755  14.302 -0.0045 -0.2311  0.9023
    3TCq1    C214422   4.001   2.674  14.443 -0.9160  0.4364  0.4565
    3TCq1    C314423   4.072   2.564  14.488  0.5215 -0.1985 -0.4863
    3TCq1    C414424   4.005   2.465  14.555 -0.0432  0.6598 -0.6081
    3TCq1    C514425   3.876   2.478  14.579 -0.2710  0.7673 -0.8130
    3TCq1    C614426   3.812   2.583  14.525 -0.2507 -0.0875 -0.3589
    3TCq1    C714427   3.867   2.686  14.461 -0.2345  0.4454  0.3882
    3TCq1    C814428   3.669   2.602  14.565  0.0289  0.0772 -0.1314
    3TCq1    O414429   3.625   2.711  14.535  0.3412 -0.0884  0.3314
    3TCq1    C914430   4.085   2.353  14.606  0.0974 -0.2086  0.4419
    3TCq1    O514431   4.178   2.312  14.531 -0.8979  0.5554 -0.2631
    3TCq1    O614432   4.053   2.298  14.719  0.6271 -0.0967  0.2576
    3TCq1    H114433   3.984   2.877  14.522  1.8756 -2.5029  0.6055
    3TCq1    H214434   4.178   2.551  14.470  1.1080  3.5006  0.3268
    3TCq1    H314435   3.832   2.393  14.630  2.4239 -1.4852 -2.2605
    3TCq1    H414436   3.821   2.776  14.423 -1.1012 -0.1994 -0.0940
    4MPD2     C14437   3.434   2.637  14.748  0.0228 -0.0876 -0.3217
    4MPD2    C114438   3.512   2.525  14.738 -0.1855  0.3981 -0.6293
    4MPD2    C214439   3.490   2.421  14.828  0.4668  0.7051  1.1870
    4MPD2    C314440   3.392   2.429  14.919 -0.3944  0.2026  0.0065
    4MPD2    C414441   3.319   2.541  14.933 -0.2453 -0.6937  0.0329
    4MPD2    C514442   3.339   2.650  14.846  0.3734  0.1329 -0.2502
    4MPD2     H14443   3.555   2.335  14.827  1.0274  1.1355  1.0697
    4MPD2    H114444   3.237   2.556  15.003 -0.6428  1.2595 -0.8592
    4MPD2    H214445   3.438   2.723  14.681  1.1381  0.6206  0.6348
    4MPD2    H314446   3.275   2.737  14.842  0.8225  0.4298 -0.9958
    4MPD2     N14447   3.380   2.313  14.997 -0.3958 -0.1262  0.2328
    4MPD2    H514448   3.455   2.245  14.992 -1.6051 -1.3592 -1.3467
    4MPD2    N114449   3.620   2.504  14.656 -0.1247 -0.4601 -0.7242
    4MPD2    H714450   3.670   2.416  14.666  2.6882  1.0843 -1.2011
    5TMC2    C114451   3.277   1.479  14.510  0.2678  0.1461 -0.2537
    5TMC2    C214452   3.335   1.356  14.487 -0.1564  0.7085  0.4154
    5TMC2    C314453   3.472   1.364  14.491 -0.8413  0.5683 -0.1189
    5TMC2    C414454   3.345   1.598  14.520 -0.6610 -0.0569  0.3408
    5TMC2    C514455   3.483   1.595  14.542  0.0707  0.7700  0.4115
    5TMC2    C614456   3.546   1.477  14.521 -0.3299 -0.6643  0.1403
    5TMC2     C14457   3.153   1.489  14.585  0.6925 -0.8933  0.1698
    5TMC2     O14458   3.048   1.458  14.531  0.3646 -0.4429 -0.4197
    5TMC2     H14459   3.286   1.259  14.492 -0.4789  0.7653 -1.6530
    5TMC2    H114460   3.279   1.684  14.522  1.0535  1.2902 -0.8013
    5TMC2    H214461   3.653   1.455  14.522 -0.3639 -0.8071  0.4334
    5TMC2    C714462   3.523   1.701  14.635  0.7371  0.2010  0.6635
    5TMC2    C814463   3.551   1.242  14.467  0.3793 -0.5695 -0.3497
    5TMC2    O114464   3.434   1.779  14.667 -0.3453 -0.1532  0.5409
    5TMC2    O214465   3.671   1.244  14.484 -0.0535  0.2152 -0.2485
    5TMC2    O514466   3.479   1.137  14.413  0.0249 -0.0942  0.2190
    5TMC2    H514467   3.384   1.153  14.395 -0.5971 -0.8630  2.7734
    6MPD2     C14468   2.934   1.778  14.954  0.8394  0.6302 -0.1659
    6MPD2    C114469   3.070   1.785  14.969  0.4155 -0.6278  0.0875
    6MPD2    C214470   3.142   1.695  14.898 -0.4265  0.1652 -0.0790
    6MPD2    C314471   3.092   1.613  14.800  0.6997  0.5053 -0.3298
    6MPD2    C414472   2.955   1.606  14.788  0.4499  0.5818 -0.0310
    6MPD2    C514473   2.876   1.686  14.869  0.0050  0.1786  0.0349
    6MPD2     H14474   3.248   1.691  14.920 -0.5701 -1.1360  0.3484
    6MPD2    H114475   2.909   1.536  14.720  0.4756 -0.3424  0.8970
    6MPD2    H214476   2.867   1.844  15.009 -0.0953 -0.0949 -0.4409
    6MPD2    H314477   2.768   1.681  14.872  0.0808 -0.7079  1.1344
    6MPD2     N14478   3.176   1.557  14.705  0.1302 -0.3472  0.2360
    6MPD2    H514479   3.275   1.561  14.728  0.0816  1.6711  0.0802
    6MPD2    N114480   3.140   1.862  15.064 -0.5923  0.3893  0.2949
    6MPD2    H714481   3.242   1.863  15.061 -0.7047 -0.1980 -3.1952
  945NH4     N114482   1.334   3.411   1.435 -0.0439 -0.1522  0.4824
  945NH4     H214483   1.283   3.421   1.525 -0.7210  0.4060  0.0280
  945NH4     H314484   1.382   3.319   1.449 -0.6836 -0.5315  0.1508
  945NH4     H414485   1.409   3.480   1.412 -0.2035 -1.3230 -3.5253
  945NH4     H514486   1.271   3.395   1.354  2.3734  1.6892 -1.7703
  946SOD     NA14487   3.917   1.035  10.305  0.6882 -0.2329  0.1143
  947SOD     NA14488   0.589   1.033  15.079 -0.6659  0.5152 -0.1821
  948SOD     NA14489   1.519   3.387  12.587 -0.5734  0.3391 -0.3124
  949SOD     NA14490   0.239   4.346  16.427 -0.0442 -0.0528  0.7751
  950SOD     NA14491   1.568   1.064  10.882  0.0882 -0.0497  0.1488
  951SOD     NA14492   3.605   1.120  10.214  0.1381  0.2509  0.8026
  952SOD     NA14493   3.014   3.944  16.734 -0.1541 -0.4427  0.0928
  953SOL     OW14494   0.230   2.948  11.518 -0.4897  0.3675 -0.5062
  953SOL    HW114495   0.288   2.895  11.464  0.1734  1.7188 -1.1348
  953SOL    HW214496   0.147   2.913  11.486 -1.9775  1.4292  2.1425
  954SOL     OW14497   1.559   2.233   6.386  0.3441  0.3399  0.0164
  954SOL    HW114498   1.630   2.296   6.386  0.0223  0.7227 -2.3033
  954SOL    HW214499   1.588   2.167   6.322  0.9361 -2.9754  3.6676
  955SOL     OW14500   2.651   2.774   8.548 -0.0707 -0.2810  0.9404
  955SOL    HW114501   2.588   2.843   8.526  0.0858 -0.2227  0.6647
  955SOL    HW214502   2.734   2.808   8.583 -0.4467 -0.6370  2.1788
  956SOL     OW14503   2.310   2.178   7.809 -0.1228 -0.0647 -0.3977
  956SOL    HW114504   2.290   2.272   7.809 -0.0767 -0.0400  1.4948
  956SOL    HW214505   2.228   2.135   7.834 -1.2368  0.3931 -3.3766
  957SOL     OW14506   2.727   2.238   0.714 -0.0475  0.0921  0.0277
  957SOL    HW114507   2.748   2.212   0.803 -2.1761  1.3579  0.8832
  957SOL    HW214508   2.737   2.148   0.681  2.1688  0.7379 -1.0901
  958SOL     OW14509   4.498   3.778   3.301 -0.0254  0.0933 -0.6800
  958SOL    HW114510   4.462   3.717   3.237  0.1409  0.7738 -1.4068
  958SOL    HW214511   4.448   3.851   3.267  0.2781  1.1195  1.0734
  959SOL     OW14512   2.821   3.607   4.023 -0.5167  0.2020  0.2565
  959SOL    HW114513   2.844   3.699   4.007 -0.2301 -0.1736 -1.4905
  959SOL    HW214514   2.889   3.569   4.078  0.5711  0.4439 -0.9191
  960SOL     OW14515   1.894   3.492   5.681  0.3709  0.0010  0.4641
  960SOL    HW114516   1.850   3.543   5.749  0.3698 -2.0775  1.9988
  960SOL    HW214517   1.950   3.561   5.646  0.9451 -0.0477  1.3182
  961SOL     OW14518   1.588   4.489   2.572 -0.1648 -0.3451  0.5961
  961SOL    HW114519   1.592   4.455   2.661  0.8167 -0.9844  0.2998
  961SOL    HW214520   1.556   4.579   2.581  1.0366  0.0682  0.8065
  962SOL     OW14521   2.782   1.735   7.271  0.0940 -0.4135  0.2875
  962SOL    HW114522   2.768   1.814   7.219 -1.6798 -0.6685  0.3484
  962SOL    HW214523   2.691   1.711   7.289 -0.4199  1.7862  0.6420
  963SOL     OW14524   1.368   2.916   5.370  0.3333 -0.0748  0.1905
  963SOL    HW114525   1.369   2.931   5.464  2.1569  0.3189  0.1194
  963SOL    HW214526   1.460   2.912   5.344  0.5715  1.8676  0.7323
  964SOL     OW14527   1.956   2.358   9.287  0.1051 -0.3068 -0.2272
  964SOL    HW114528   2.010   2.434   9.310 -0.4305 -0.0242  0.0837
  964SOL    HW214529   1.965   2.350   9.192  0.3640  0.9084 -0.3016
  965SOL     OW14530   0.699   1.484   2.366 -0.3741  0.6926  0.1305
  965SOL    HW114531   0.767   1.497   2.432 -0.4696  1.3687  0.0918
  965SOL    HW214532   0.686   1.575   2.341 -3.3694  0.1731 -0.2019
  966SOL     OW14533   1.605   0.609  13.591 -0.3166  0.0993  0.1719
  966SOL    HW114534   1.680   0.628  13.534 -0.8791 -2.9026 -1.6041
  966SOL    HW214535   1.599   0.694  13.633 -0.4266  0.1564  0.0419
  967SOL     OW14536   1.715   2.527   5.328  0.4746  0.2082  0.5188
  967SOL    HW114537   1.794   2.485   5.361 -0.2459  0.0882  2.0701
  967SOL    HW214538   1.707   2.601   5.387 -0.5775  0.2063  0.3915
  968SOL     OW14539   2.593   0.941   1.824  0.1156  0.1486 -0.9498
  968SOL    HW114540   2.634   0.867   1.869  2.7525  1.1211 -1.7657
  968SOL    HW214541   2.656   0.959   1.754  0.8737  1.0330 -0.0355
  969SOL     OW14542   0.594   2.500   8.578 -0.2904  0.2775 -0.6887
  969SOL    HW114543   0.576   2.500   8.672 -1.0785  1.8205 -0.8434
  969SOL    HW214544   0.590   2.405   8.564 -0.8611  0.3036 -0.6960
  970SOL     OW14545   3.944   3.741   2.112  0.2739 -0.2509 -0.0825
  970SOL    HW114546   3.907   3.737   2.023 -1.0124  2.1263  0.3533
  970SOL    HW214547   4.038   3.734   2.097 -0.1675 -1.9494 -2.1795
  971SOL     OW14548   3.441   3.503   4.231 -0.4650  0.5412  0.3722
  971SOL    HW114549   3.431   3.597   4.224  0.5318  0.7341  1.4591
  971SOL    HW214550   3.363   3.482   4.282  0.5863  1.1688  2.2208
  972SOL     OW14551   3.976   0.613   6.888 -0.5055  0.6967 -0.2028
  972SOL    HW114552   3.950   0.547   6.953  2.2132  2.5648  2.7559
  972SOL    HW214553   4.018   0.553   6.826 -0.8066 -1.0702  1.3039
  973SOL     OW14554   1.885   2.651   7.967 -0.2081  0.2827 -0.1815
  973SOL    HW114555   1.806   2.598   7.967  0.1483 -0.2534  0.2672
  973SOL    HW214556   1.869   2.703   7.888  0.1191  0.6847  0.0148
  974SOL     OW14557   0.032   2.791  15.570  0.9424 -0.2265  0.1098
  974SOL    HW114558   0.105   2.823  15.516 -0.3456 -2.0283 -2.6922
  974SOL    HW214559   4.709   2.781  15.496  0.8050  0.5187  0.1202
  975SOL     OW14560   2.056   1.731   8.577 -0.1802 -0.4208 -0.3528
  975SOL    HW114561   2.048   1.796   8.647 -0.0213  0.6864 -1.3539
  975SOL    HW214562   1.986   1.669   8.597 -0.5183 -0.0602 -0.4067
  976SOL     OW14563   4.370   1.654   2.173  0.0200 -0.5186  0.1081
  976SOL    HW114564   4.403   1.579   2.222 -1.0097  0.6808  2.6202
  976SOL    HW214565   4.413   1.721   2.226  0.6978  0.1818 -1.3177
  977SOL     OW14566   0.989   1.790   5.920 -0.5590  0.4626 -0.8041
  977SOL    HW114567   0.964   1.747   6.002  1.0989 -0.6059 -0.8413
  977SOL    HW214568   0.937   1.870   5.925 -1.8298 -0.4638  0.8079
  978SOL     OW14569   0.184   2.363   4.009  0.1414 -0.2626  0.6156
  978SOL    HW114570   0.264   2.372   3.957 -0.5759 -0.9039 -0.6098
  978SOL    HW214571   0.179   2.447   4.054 -1.0010 -0.3334  0.6259
  979SOL     OW14572   1.587   3.929   8.196  0.0868  0.2622  0.2677
  979SOL    HW114573   1.650   3.906   8.265 -0.6580  2.5184  1.6776
  979SOL    HW214574   1.543   4.004   8.236 -1.1273 -0.9564  1.2375
  980SOL     OW14575   2.581   4.573   9.182 -0.6029 -0.2373  0.3216
  980SOL    HW114576   2.593   4.628   9.105  1.7098 -1.5740 -0.2855
  980SOL    HW214577   2.488   4.578   9.201 -0.7406  1.8587 -1.0012
  981SOL     OW14578   0.371   0.271   3.144 -0.5654  0.2123 -0.1479
  981SOL    HW114579   0.422   0.277   3.224 -0.7798 -0.4131  0.0328
  981SOL    HW214580   0.283   0.275   3.182  0.1117  0.6622  1.3532
  982SOL     OW14581   3.124   2.426   3.375 -0.8231  0.1371 -0.2918
  982SOL    HW114582   3.059   2.411   3.307 -0.0168 -0.1484 -0.9969
  982SOL    HW214583   3.119   2.521   3.374  0.0450  0.2126  2.6165
  983SOL     OW14584   3.072   0.545   9.420 -0.3088 -0.3328  0.1099
  983SOL    HW114585   3.064   0.563   9.326 -2.1605  0.7916  0.4881
  983SOL    HW214586   2.987   0.582   9.443  1.2963  2.3218  1.7226
  984SOL     OW14587   2.437   0.767  16.502 -0.2838  0.2870  0.4060
  984SOL    HW114588   2.475   0.852  16.479 -3.5481  1.6765  0.1762
  984SOL    HW214589   2.352   0.782  16.543 -0.8334 -3.5042  0.7193
  985SOL     OW14590   0.170   1.259   3.381 -0.1702  0.3143  0.0250
  985SOL    HW114591   0.136   1.347   3.397  0.3663  0.7870 -1.4146
  985SOL    HW214592   0.118   1.229   3.307 -2.2698  0.4268  1.4464
  986SOL     OW14593   0.464   3.101   2.127  0.1629 -0.3628 -0.2075
  986SOL    HW114594   0.429   3.099   2.039  0.1710 -1.4373 -0.1869
  986SOL    HW214595   0.406   3.038   2.170  1.1351 -0.7802  0.4956
  987SOL     OW14596   0.729   3.733  12.239 -0.3992  0.0629 -0.0124
  987SOL    HW114597   0.668   3.667  12.271 -1.2253 -0.1637 -2.0566
  987SOL    HW214598   0.787   3.743  12.314 -0.2318  0.7774 -0.2365
  988SOL     OW14599   2.790   2.806   6.344 -0.0555 -0.2591  0.0743
  988SOL    HW114600   2.791   2.743   6.272 -1.9437  0.0903 -0.2637
  988SOL    HW214601   2.732   2.760   6.405  2.2544 -1.6013  1.2262
  989SOL     OW14602   2.010   1.435   9.849  0.1322 -0.1088 -0.2456
  989SOL    HW114603   1.960   1.444   9.930 -0.9206 -0.6091 -0.8409
  989SOL    HW214604   1.985   1.518   9.808 -0.5055  0.2601  0.8971
  990SOL     OW14605   4.702   1.976   2.770  0.3404 -0.0326 -0.2330
  990SOL    HW114606   0.008   1.931   2.842  0.2531 -1.9368 -1.3679
  990SOL    HW214607   4.627   1.918   2.758 -0.2673  0.8801 -0.8991
  991SOL     OW14608   4.574   2.630   0.834  0.0439 -0.0790  0.0525
  991SOL    HW114609   4.626   2.551   0.814 -0.9521 -0.6803 -0.1617
  991SOL    HW214610   4.587   2.637   0.928  0.1837 -0.2869  0.0483
  992SOL     OW14611   1.170   2.876  12.182  0.8116 -0.3730 -0.0661
  992SOL    HW114612   1.184   2.782  12.190  2.7897 -0.1342 -0.6111
  992SOL    HW214613   1.141   2.878  12.090  0.7234 -1.7257 -0.0606
  993SOL     OW14614   1.564   2.672  12.776 -0.2381  0.0658  0.0435
  993SOL    HW114615   1.539   2.584  12.747  1.9456 -0.8998  1.0394
  993SOL    HW214616   1.660   2.667  12.774 -0.2483 -0.3203  0.3858
  994SOL     OW14617   4.144   1.578   7.001 -0.1317  0.2547 -0.6471
  994SOL    HW114618   4.232   1.539   6.995  0.1497  0.7487  0.2956
  994SOL    HW214619   4.148   1.669   6.973 -0.4805  0.4412 -0.0696
  995SOL     OW14620   3.552   4.367  15.757  0.0120  0.0761 -0.1667
  995SOL    HW114621   3.623   4.427  15.778 -0.4251  0.1254  1.2128
  995SOL    HW214622   3.526   4.334  15.843  2.4274 -0.4933  0.3384
  996SOL     OW14623   4.127   2.375   3.352 -0.0854  0.3447  0.3929
  996SOL    HW114624   4.182   2.452   3.365 -1.7318  1.9444 -2.2573
  996SOL    HW214625   4.183   2.316   3.403  0.5112 -1.3790 -2.2727
  997SOL     OW14626   4.290   1.027   8.223 -0.1152 -0.2279 -0.0558
  997SOL    HW114627   4.226   1.081   8.176 -1.0408 -0.4742  0.9306
  997SOL    HW214628   4.253   1.033   8.311 -0.6965  0.1395 -0.3242
  998SOL     OW14629   0.759   0.749   6.422 -0.7588 -0.6845 -0.1622
  998SOL    HW114630   0.705   0.673   6.447  0.2213 -0.8776  1.3804
  998SOL    HW214631   0.722   0.821   6.474  2.8763 -0.7920  2.5729
  999SOL     OW14632   1.978   0.720   7.764 -0.0302  0.2410  0.0293
  999SOL    HW114633   1.964   0.788   7.830 -2.7266 -0.5170  0.2070
  999SOL    HW214634   1.890   0.692   7.741 -0.5247  3.2821 -1.7982
 1000SOL     OW14635   1.233   3.309   3.672 -0.4175 -0.4797 -0.0337
 1000SOL    HW114636   1.309   3.319   3.615 -0.8558  1.5929 -0.2809
 1000SOL    HW214637   1.168   3.365   3.628 -0.6857 -1.9296 -1.4661
 1001SOL     OW14638   3.391   2.741   4.557  0.0065 -0.3945 -0.4999
 1001SOL    HW114639   3.417   2.799   4.628 -1.2554 -0.8718  0.3490
 1001SOL    HW214640   3.346   2.669   4.601 -2.4139  1.3438 -0.1407
 1002SOL     OW14641   2.933   2.877  11.311  0.7912  0.6205 -0.0180
 1002SOL    HW114642   2.974   2.857  11.227  1.9113 -1.6385  1.0667
 1002SOL    HW214643   2.843   2.849  11.295  1.4904 -2.5571  1.5715
 1003SOL     OW14644   0.729   0.694   3.776  0.3313 -0.1070 -0.1940
 1003SOL    HW114645   0.685   0.741   3.705  1.3922  2.2865  0.7221
 1003SOL    HW214646   0.661   0.641   3.819 -0.2532  1.2623  0.5626
 1004SOL     OW14647   1.651   4.358   2.806  0.3243  0.4885  0.1365
 1004SOL    HW114648   1.598   4.284   2.776  1.4922 -0.3135  0.0518
 1004SOL    HW214649   1.742   4.337   2.783 -0.4338 -2.1432 -0.4757
 1005SOL     OW14650   0.065   1.697   1.553  0.0396 -0.0040 -0.9417
 1005SOL    HW114651   0.038   1.774   1.603 -0.0350  0.4988 -1.7551
 1005SOL    HW214652   0.138   1.659   1.602 -1.4360  0.6711  1.7572
 1006SOL     OW14653   3.753   1.037   7.420 -0.1383  0.1763  0.4739
 1006SOL    HW114654   3.814   0.997   7.358  0.1587 -1.2978  1.6971
 1006SOL    HW214655   3.814   1.031   7.494  2.4969  0.6148 -1.6529
 1007SOL     OW14656   2.534   0.362   4.644 -0.7378  0.6919  0.3453
 1007SOL    HW114657   2.628   0.382   4.647 -0.5118 -0.2330 -0.7228
 1007SOL    HW214658   2.508   0.451   4.667 -0.0589  1.4365 -1.7798
 1008SOL     OW14659   2.373   4.624  15.285  0.9608 -0.2482 -0.0273
 1008SOL    HW114660   2.357   4.710  15.324  0.1304 -0.1740 -0.5374
 1008SOL    HW214661   2.286   4.613  15.248  0.8413  2.0909 -0.4766
 1009SOL     OW14662   2.106   3.072   8.563 -0.0980 -0.2237  0.5702
 1009SOL    HW114663   2.131   2.980   8.565 -0.2684 -0.3115 -1.9270
 1009SOL    HW214664   2.084   3.081   8.656 -0.0305  1.0833  0.4595
 1010SOL     OW14665   4.203   1.083  17.145 -0.1931 -0.5191  0.0382
 1010SOL    HW114666   4.111   1.088  17.172 -0.8430  1.3834 -2.5966
 1010SOL    HW214667   4.193   1.059  17.053  0.1515  0.0186 -0.1343
 1011SOL     OW14668   2.623   1.132   8.994  0.2879 -0.4642 -0.4774
 1011SOL    HW114669   2.591   1.200   8.935 -0.1438 -0.1087  0.1743
 1011SOL    HW214670   2.712   1.119   8.960  1.6303  0.8251  2.5560
 1012SOL     OW14671   4.229   3.803   7.102  0.2590 -0.0565 -0.4820
 1012SOL    HW114672   4.181   3.831   7.024 -1.3906 -0.4001  0.4180
 1012SOL    HW214673   4.165   3.748   7.146  0.7303 -0.5971 -0.4695
 1013SOL     OW14674   3.057   2.790   3.020 -0.7212  0.1608 -0.1843
 1013SOL    HW114675   3.083   2.876   2.987  1.5756  0.4499  2.3049
 1013SOL    HW214676   3.142   2.749   3.007 -1.9786 -2.6687  0.5938
 1014SOL     OW14677   0.881   3.986   6.875 -0.2189 -0.1744 -0.0670
 1014SOL    HW114678   0.859   4.072   6.910  1.1509  1.1301 -2.4262
 1014SOL    HW214679   0.813   3.976   6.809  0.6468 -0.1996 -0.9499
 1015SOL     OW14680   0.957   1.186   2.524  0.8565 -0.0844  0.0387
 1015SOL    HW114681   1.037   1.228   2.492  0.9035  0.2501  0.5985
 1015SOL    HW214682   0.983   1.103   2.565  1.2945  0.1283  0.1903
 1016SOL     OW14683   0.762   0.193   6.438  0.3680  0.1331 -0.2279
 1016SOL    HW114684   0.761   0.207   6.343  1.2726 -2.8008 -0.6557
 1016SOL    HW214685   0.686   0.250   6.450  0.6250  0.8559 -2.0888
 1017SOL     OW14686   3.900   0.023   9.123  0.0352 -0.4677  0.4591
 1017SOL    HW114687   3.834   0.049   9.059  0.8309  0.8537  0.1772
 1017SOL    HW214688   3.893   0.103   9.176 -1.3693  0.9263 -1.8540
 1018SOL     OW14689   2.582   1.839   4.484 -0.2840 -0.6777 -0.3760
 1018SOL    HW114690   2.673   1.810   4.480  0.6419  2.1047  0.9255
 1018SOL    HW214691   2.579   1.876   4.572 -2.3023  2.3013 -1.6978
 1019SOL     OW14692   1.526   4.386   7.509 -0.1133  0.5643 -0.3265
 1019SOL    HW114693   1.529   4.450   7.580  1.4329 -0.4341  0.4890
 1019SOL    HW214694   1.467   4.319   7.543 -0.1602  0.6575 -0.2244
 1020SOL     OW14695   2.639   1.975   2.341  0.0588 -0.1000  0.2516
 1020SOL    HW114696   2.579   1.917   2.388 -0.2238  1.2716  1.5756
 1020SOL    HW214697   2.602   2.061   2.360  0.7978 -0.4837  3.3986
 1021SOL     OW14698   3.732   1.975   7.544  0.3822 -0.1263  0.8471
 1021SOL    HW114699   3.812   1.950   7.499  0.0697 -0.0684  0.2517
 1021SOL    HW214700   3.747   1.958   7.637  2.1503 -0.6055  0.4710
 1022SOL     OW14701   4.022   3.488   8.116 -0.1311  0.0660  0.1658
 1022SOL    HW114702   3.927   3.491   8.105 -0.0021 -1.0492 -1.1266
 1022SOL    HW214703   4.040   3.559   8.179  2.3867 -1.4347  1.1379
 1023SOL     OW14704   2.601   3.680   4.518 -0.6573  0.4084 -0.5444
 1023SOL    HW114705   2.524   3.645   4.563 -0.8914 -1.3749 -2.3105
 1023SOL    HW214706   2.549   3.739   4.465 -1.6176 -0.6552 -0.7857
 1024SOL     OW14707   2.071   4.057   6.900 -0.7718  0.2186  0.2133
 1024SOL    HW114708   2.058   4.146   6.931 -0.9051  0.5847 -0.8878
 1024SOL    HW214709   2.100   4.074   6.810 -1.1970 -0.4310 -0.0468
 1025SOL     OW14710   2.218   0.944   7.849 -0.0728  0.0205 -0.2602
 1025SOL    HW114711   2.173   1.005   7.790 -0.1379  0.8308  0.6373
 1025SOL    HW214712   2.245   0.881   7.782 -0.1792 -0.1572 -0.1356
 1026SOL     OW14713   1.934   0.351   3.575 -0.2183  0.1719 -0.2405
 1026SOL    HW114714   1.853   0.317   3.538 -1.0826 -0.6274  2.4019
 1026SOL    HW214715   1.903   0.419   3.635 -0.0363 -0.9329  1.1077
 1027SOL     OW14716   4.270   0.175   4.380 -0.2430 -0.5269 -0.1353
 1027SOL    HW114717   4.363   0.152   4.387  0.6531  2.2756 -2.5566
 1027SOL    HW214718   4.262   0.231   4.303  0.9510  0.0010  0.1301
 1028SOL     OW14719   0.327   0.671   2.808 -0.2944  0.0749  0.2017
 1028SOL    HW114720   0.394   0.736   2.831  1.1010 -0.9673 -0.9613
 1028SOL    HW214721   0.381   0.613   2.755 -2.1218 -1.0388 -0.4110
 1029SOL     OW14722   2.317   0.219   9.609 -0.0608  0.2824 -0.0074
 1029SOL    HW114723   2.331   0.149   9.547  1.8627  1.0929 -0.4874
 1029SOL    HW214724   2.337   0.167   9.687  1.5691  3.1199  1.4664
 1030SOL     OW14725   0.245   3.059   7.308 -0.0192  0.0405  0.5315
 1030SOL    HW114726   0.210   3.015   7.230 -0.1740  4.4017 -1.8289
 1030SOL    HW214727   0.169   3.117   7.313  0.5908  0.8154  0.7998
 1031SOL     OW14728   1.739   0.664   3.405  0.3178  0.2092  0.5724
 1031SOL    HW114729   1.808   0.635   3.346 -0.8750 -0.4202 -0.5187
 1031SOL    HW214730   1.758   0.627   3.491  1.0805 -0.3965  0.1427
 1032SOL     OW14731   2.689   3.848   2.721  0.4108  0.1524  0.1643
 1032SOL    HW114732   2.708   3.755   2.735  0.9312  0.4456  1.4056
 1032SOL    HW214733   2.642   3.872   2.800  1.6423  2.3066  0.2356
 1033SOL     OW14734   2.205   1.894   4.227 -0.3973 -0.0821 -0.4220
 1033SOL    HW114735   2.194   1.804   4.195 -0.2224 -0.4061  0.4409
 1033SOL    HW214736   2.231   1.937   4.146 -1.1694 -2.2218 -1.8258
 1034SOL     OW14737   0.749   3.522   6.711 -0.6914  0.1689 -0.5580
 1034SOL    HW114738   0.696   3.449   6.679 -1.3310 -0.1812  1.3176
 1034SOL    HW214739   0.822   3.527   6.649 -0.0794  1.0620  0.2314
 1035SOL     OW14740   0.501   3.289   8.683  0.5713 -0.2846 -0.5991
 1035SOL    HW114741   0.562   3.270   8.754  0.6315  0.1468 -0.5319
 1035SOL    HW214742   0.523   3.214   8.629  0.5370  0.0220 -1.0355
 1036SOL     OW14743   0.236   1.257  16.068 -0.0879  0.2854  0.0279
 1036SOL    HW114744   0.253   1.340  16.113 -0.1847  0.5208 -0.3686
 1036SOL    HW214745   0.223   1.193  16.138 -1.3200  0.2066 -0.2811
 1037SOL     OW14746   0.725   2.916   3.296 -0.2447 -0.0896 -0.3349
 1037SOL    HW114747   0.783   2.978   3.340  0.7718 -0.4307 -1.2131
 1037SOL    HW214748   0.639   2.950   3.319 -0.5617 -0.7963 -0.4546
 1038SOL     OW14749   2.022   1.108   6.571 -0.1640  0.7832 -0.5299
 1038SOL    HW114750   2.079   1.164   6.519  0.3259  2.1634  1.4879
 1038SOL    HW214751   2.080   1.032   6.562 -0.1737  0.6293  0.7803
 1039SOL     OW14752   0.021   3.815   7.651  0.0114  0.0524  0.6732
 1039SOL    HW114753   0.094   3.800   7.592 -0.7586  1.6392 -0.7064
 1039SOL    HW214754   0.058   3.865   7.724 -1.2746 -0.1666  1.4704
 1040SOL     OW14755   2.865   1.522   8.513 -0.0714 -0.1484  0.7866
 1040SOL    HW114756   2.875   1.443   8.460 -0.7407  1.1458 -1.2381
 1040SOL    HW214757   2.837   1.569   8.435  1.3264 -1.4698 -0.5282
 1041SOL     OW14758   4.340   4.281   7.313  0.2124 -0.0269  0.5765
 1041SOL    HW114759   4.379   4.199   7.282  1.4209  0.8599 -0.2282
 1041SOL    HW214760   4.381   4.279   7.400 -2.0537  1.4242  1.6662
 1042SOL     OW14761   2.336   4.065   7.049  0.5653  0.5274 -0.3413
 1042SOL    HW114762   2.325   4.082   7.143 -2.1813 -1.2898 -0.3367
 1042SOL    HW214763   2.257   4.021   7.017  1.3737  1.3390 -3.4660
 1043SOL     OW14764   2.101   3.178   4.537 -0.0353  0.0901 -0.0131
 1043SOL    HW114765   2.088   3.228   4.617 -1.4101 -1.6153  0.8093
 1043SOL    HW214766   2.136   3.249   4.482 -1.4119  0.9948  0.2851
 1044SOL     OW14767   2.273   1.586   7.892  0.5989 -0.2050 -0.3568
 1044SOL    HW114768   2.192   1.633   7.910 -0.1432 -0.5721 -2.7129
 1044SOL    HW214769   2.242   1.504   7.931 -0.0799  0.0984 -0.2763
 1045SOL     OW14770   3.808   0.545   1.630 -0.2317 -0.3052 -0.5020
 1045SOL    HW114771   3.903   0.555   1.619 -0.3327  2.3131  1.1276
 1045SOL    HW214772   3.777   0.633   1.607  0.9059 -0.4298 -2.5207
 1046SOL     OW14773   3.769   4.633  17.012  0.4425 -0.5586 -0.0602
 1046SOL    HW114774   3.692   4.677  17.048  0.5346 -0.3749 -0.0863
 1046SOL    HW214775   3.842   4.646  17.073  0.4762  0.4474 -0.3218
 1047SOL     OW14776   0.948   2.355   8.742 -0.0527  0.6770 -0.3748
 1047SOL    HW114777   0.969   2.361   8.835  1.5665  0.3692 -0.7162
 1047SOL    HW214778   0.858   2.323   8.749  0.2887 -0.1622  0.2505
 1048SOL     OW14779   2.623   3.712  16.910  0.2559  0.5795  0.1699
 1048SOL    HW114780   2.647   3.633  16.861  1.0436  0.6372  0.4604
 1048SOL    HW214781   2.568   3.665  16.974  0.9740 -1.2183 -0.5201
 1049SOL     OW14782   0.848   3.415  12.827 -0.4066  0.4377 -0.1306
 1049SOL    HW114783   0.899   3.343  12.865 -1.3550 -1.0321 -1.6361
 1049SOL    HW214784   0.923   3.450  12.779  0.7767 -0.6695  0.8900
 1050SOL     OW14785   1.411   1.287   6.511 -0.1218  0.2095 -0.0637
 1050SOL    HW114786   1.326   1.279   6.468 -0.4900 -0.9128  0.8638
 1050SOL    HW214787   1.395   1.264   6.603  0.4646  0.5937  0.1334
 1051SOL     OW14788   1.507   0.759   6.329  0.1014  0.2923  0.1364
 1051SOL    HW114789   1.522   0.705   6.252 -0.4945  2.9589 -1.8266
 1051SOL    HW214790   1.434   0.810   6.293 -1.7053 -2.5734 -0.3232
 1052SOL     OW14791   3.921   3.074  12.678  0.1583  0.0279 -0.0049
 1052SOL    HW114792   3.940   2.981  12.669  0.4975 -0.1669  2.6894
 1052SOL    HW214793   3.885   3.080  12.589 -1.8883  3.4240  1.0396
 1053SOL     OW14794   1.363   2.602   6.947  0.1123 -0.1393 -0.4213
 1053SOL    HW114795   1.273   2.621   6.976  1.0391  3.3405  0.1998
 1053SOL    HW214796   1.388   2.690   6.920  0.0143  0.5647  1.7658
 1054SOL     OW14797   3.882   1.365  10.012  0.5338 -0.3943 -0.2634
 1054SOL    HW114798   3.881   1.382  10.106 -0.9124 -0.5138 -0.2585
 1054SOL    HW214799   3.869   1.456   9.988  2.7672  0.6348  2.4342
 1055SOL     OW14800   1.612   3.905  15.087 -0.1642  0.3275  0.0345
 1055SOL    HW114801   1.584   3.873  15.173 -0.4234 -0.1928 -0.2421
 1055SOL    HW214802   1.538   3.884  15.030  0.3630  0.6502 -0.7690
 1056SOL     OW14803   2.968   0.791   8.539 -0.1517 -0.2228 -0.2762
 1056SOL    HW114804   2.979   0.721   8.475  0.6863 -0.4817  0.1499
 1056SOL    HW214805   3.058   0.823   8.536  0.1786 -1.0210  0.8192
 1057SOL     OW14806   0.893   1.216   9.507 -0.3532 -0.2233  0.1050
 1057SOL    HW114807   0.945   1.288   9.472 -0.0152 -0.3269  0.3971
 1057SOL    HW214808   0.921   1.214   9.598  3.5508  0.7168 -1.0833
 1058SOL     OW14809   2.307   0.292   3.921  0.4502 -0.0881 -0.0399
 1058SOL    HW114810   2.382   0.235   3.938  1.0434  1.0821  1.2816
 1058SOL    HW214811   2.342   0.339   3.846 -0.2822  0.2914 -0.1372
 1059SOL     OW14812   3.036   0.991   4.864 -0.0284 -0.4622 -0.0991
 1059SOL    HW114813   3.127   0.961   4.871  0.7361  1.3672 -2.4048
 1059SOL    HW214814   3.041   1.061   4.930  2.4156 -0.0133 -0.7586
 1060SOL     OW14815   2.294   1.577   8.686 -0.0325  0.0424 -0.1935
 1060SOL    HW114816   2.225   1.643   8.676 -0.0410 -0.3136 -2.6936
 1060SOL    HW214817   2.248   1.501   8.651 -0.8954  0.2133  0.5768
 1061SOL     OW14818   2.818   4.638   2.880  0.1118 -0.0171 -0.0768
 1061SOL    HW114819   2.871   4.715   2.900  0.2834 -0.5853  1.6107
 1061SOL    HW214820   2.739   4.674   2.920  0.9357  0.2403  1.3247
 1062SOL     OW14821   2.156   4.072  11.506 -0.0459  0.1792 -0.4614
 1062SOL    HW114822   2.239   4.110  11.476 -0.9179  2.2654 -0.2516
 1062SOL    HW214823   2.160   4.107  11.595  0.4591  0.0980 -0.4539
 1063SOL     OW14824   1.667   0.846   7.516 -0.1268  0.2788  0.5231
 1063SOL    HW114825   1.727   0.821   7.446 -0.0579 -0.5845  0.8757
 1063SOL    HW214826   1.719   0.902   7.573  1.5716 -1.7480  0.9994
 1064SOL     OW14827   3.681   2.687  17.462 -0.0915 -0.2624  0.1918
 1064SOL    HW114828   3.605   2.667  17.407 -0.0998  4.1121 -1.3759
 1064SOL    HW214829   3.647   2.680  17.551 -0.2102  0.4052  0.1975
 1065SOL     OW14830   1.996   1.144   7.702 -0.2051 -0.3035 -0.1034
 1065SOL    HW114831   2.044   1.208   7.650  0.5405 -1.4021 -0.7662
 1065SOL    HW214832   1.976   1.186   7.786 -1.9591  0.8423 -1.0879
 1066SOL     OW14833   0.206   2.053  16.583 -0.3582 -0.3911 -0.0405
 1066SOL    HW114834   0.262   2.130  16.596 -2.2111  1.1096 -0.8105
 1066SOL    HW214835   0.142   2.066  16.512 -1.9778  0.3355  1.5349
 1067SOL     OW14836   0.732   1.785   5.156 -0.3513 -0.8466  0.5571
 1067SOL    HW114837   0.814   1.829   5.179  0.9932 -2.6746 -0.7853
 1067SOL    HW214838   0.746   1.769   5.063  4.1331 -2.9118  1.5896
 1068SOL     OW14839   4.647   2.461   0.485  0.0057 -0.2228 -0.1344
 1068SOL    HW114840   4.612   2.378   0.452  1.6760 -0.6280 -0.9035
 1068SOL    HW214841   4.638   2.518   0.409  0.1891 -1.5109 -1.1325
 1069SOL     OW14842   0.260   3.426  15.731  0.0980  0.1019 -0.6056
 1069SOL    HW114843   0.295   3.487  15.667  4.6167  0.0775  1.8550
 1069SOL    HW214844   0.168   3.423  15.706  0.7451 -0.7392 -2.8696
 1070SOL     OW14845   0.560   2.876  15.990  0.0872 -0.0461 -0.2633
 1070SOL    HW114846   0.487   2.936  15.978  0.8751  1.1564  1.0194
 1070SOL    HW214847   0.538   2.834  16.073  1.5943 -1.6886 -0.7032
 1071SOL     OW14848   3.769   2.909  14.903 -0.2012  0.0635  0.0950
 1071SOL    HW114849   3.719   2.836  14.938  1.2435 -0.2558  1.4897
 1071SOL    HW214850   3.693   2.966  14.892  0.6427  0.9589 -1.1187
 1072SOL     OW14851   3.309   1.981  14.810  0.1329 -0.3522  0.1077
 1072SOL    HW114852   3.217   1.989  14.786 -0.2916 -0.6551  1.6001
 1072SOL    HW214853   3.339   1.913  14.750 -0.0178 -0.2154 -0.1227
 1073SOL     OW14854   2.599   1.765  12.899 -0.0831 -0.1249 -0.3428
 1073SOL    HW114855   2.685   1.804  12.913 -1.8746  2.9814  1.9132
 1073SOL    HW214856   2.583   1.718  12.981 -1.9291 -0.3751 -0.8467
 1074SOL     OW14857   0.137   4.193   5.604 -0.3381 -0.3577 -0.2855
 1074SOL    HW114858   0.128   4.103   5.635  4.1038 -0.9089 -0.5572
 1074SOL    HW214859   0.060   4.216   5.551 -0.8129 -0.5906  0.3102
 1075SOL     OW14860   0.904   3.559   9.372  0.1698 -0.4257  0.0796
 1075SOL    HW114861   0.861   3.638   9.339  0.2650  0.5330  2.2342
 1075SOL    HW214862   0.838   3.529   9.435  1.9414 -0.2471  2.0438
 1076SOL     OW14863   1.784   1.215  15.959  0.4498 -0.0092  0.4547
 1076SOL    HW114864   1.852   1.223  16.027 -1.5722  1.1770  2.3179
 1076SOL    HW214865   1.739   1.299  15.968 -1.0729 -0.5645 -1.9446
 1077SOL     OW14866   1.324   3.337   2.120 -0.1592  0.2685  0.3425
 1077SOL    HW114867   1.384   3.411   2.133  0.0539 -0.1997  2.0891
 1077SOL    HW214868   1.236   3.374   2.124 -0.0793  0.3482  1.4767
 1078SOL     OW14869   0.611   0.560   2.423  0.0814  0.2857  0.5247
 1078SOL    HW114870   0.631   0.632   2.363 -0.6523 -0.1084 -0.1882
 1078SOL    HW214871   0.629   0.611   2.502  2.2392  1.5413 -0.7515
 1079SOL     OW14872   3.479   2.099  10.994 -0.3492  0.0235 -0.4177
 1079SOL    HW114873   3.427   2.171  11.030 -1.3909 -1.7175  1.5859
 1079SOL    HW214874   3.486   2.044  11.072  1.6991 -0.3123 -0.8404
 1080SOL     OW14875   3.590   3.874   3.366 -0.0417  0.0966  0.6438
 1080SOL    HW114876   3.635   3.790   3.358  0.0626  0.2028  0.1543
 1080SOL    HW214877   3.621   3.912   3.449  1.4251  1.3249 -0.4691
 1081SOL     OW14878   4.613   1.582   0.684 -0.1387 -0.8465  0.2679
 1081SOL    HW114879   4.689   1.616   0.637 -0.8539 -2.0201 -1.7375
 1081SOL    HW214880   4.554   1.568   0.610  0.2125 -1.2932  0.0736
 1082SOL     OW14881   0.417   2.648   5.549 -0.1092 -0.4793 -0.0564
 1082SOL    HW114882   0.428   2.555   5.528  1.6061 -0.3329  0.1683
 1082SOL    HW214883   0.322   2.656   5.538 -0.4897 -3.0129  1.2586
 1083SOL     OW14884   2.064   1.573   5.797  0.2097 -0.4839  0.4230
 1083SOL    HW114885   1.976   1.542   5.814 -0.0833  1.6500  2.7369
 1083SOL    HW214886   2.108   1.536   5.873 -1.0324 -0.4374  1.1433
 1084SOL     OW14887   1.209   2.607   4.447 -0.8481 -0.4689  0.5814
 1084SOL    HW114888   1.194   2.605   4.352 -0.8386  1.5499  0.5255
 1084SOL    HW214889   1.203   2.520   4.486 -0.7519  0.2628  2.2329
 1085SOL     OW14890   0.680   3.412   6.292 -0.5111 -0.4147  0.4836
 1085SOL    HW114891   0.671   3.395   6.386 -1.0696 -0.9390  0.3344
 1085SOL    HW214892   0.740   3.342   6.265 -1.2728 -1.5145  1.6499
 1086SOL     OW14893   2.810   1.647   7.716 -0.1885  0.2837  0.1797
 1086SOL    HW114894   2.810   1.578   7.650  1.6487  0.7601 -0.3046
 1086SOL    HW214895   2.732   1.700   7.696 -0.8411 -0.5109  0.6131
 1087SOL     OW14896   2.939   0.861   3.624 -0.1132  0.0582  0.1008
 1087SOL    HW114897   2.964   0.953   3.631 -1.1388  0.5841 -3.3030
 1087SOL    HW214898   3.001   0.807   3.673 -0.2504  0.3147  0.5583
 1088SOL     OW14899   3.697   4.428   2.509 -0.3990  0.1211 -0.0505
 1088SOL    HW114900   3.761   4.357   2.508  0.5887  1.0131 -0.3762
 1088SOL    HW214901   3.716   4.476   2.428  2.7830  0.1004  0.6756
 1089SOL     OW14902   4.015   3.009  11.016 -0.6862  0.2614 -0.3210
 1089SOL    HW114903   3.981   3.090  10.978  0.4704  0.7807 -0.2364
 1089SOL    HW214904   4.085   2.979  10.958 -0.1399 -1.1224  1.0492
 1090SOL     OW14905   2.107   3.933   7.296  0.5566 -0.1743 -0.1437
 1090SOL    HW114906   2.047   3.901   7.364 -0.0705 -3.6548 -2.3555
 1090SOL    HW214907   2.049   3.992   7.248 -0.4372  1.0093  2.5166
 1091SOL     OW14908   3.483   2.758   0.784 -0.1857 -0.1902  0.7747
 1091SOL    HW114909   3.452   2.816   0.715  0.2064  1.5952  2.0982
 1091SOL    HW214910   3.568   2.799   0.798 -1.3026  1.7293  1.8572
 1092SOL     OW14911   2.613   1.398   5.427 -0.4225 -0.1209 -0.3981
 1092SOL    HW114912   2.608   1.433   5.516  0.6236  0.1392 -0.4442
 1092SOL    HW214913   2.523   1.406   5.394 -0.1232 -0.3074 -1.2399
 1093SOL     OW14914   0.784   0.656  15.996  0.1607 -1.1406 -0.7147
 1093SOL    HW114915   0.704   0.704  16.017  0.5810 -0.9005  0.3436
 1093SOL    HW214916   0.773   0.659  15.901 -2.2883  1.2371 -0.3483
 1094SOL     OW14917   2.305   4.666   2.836  0.3228 -0.1129 -0.1204
 1094SOL    HW114918   2.315   4.588   2.783  2.5869 -0.4638  0.8365
 1094SOL    HW214919   2.248   4.716   2.778  0.1339  2.2012  2.0425
 1095SOL     OW14920   0.210   4.680   3.848  0.0932  0.2174  0.1688
 1095SOL    HW114921   0.287   4.623   3.848 -1.2170 -1.5465 -1.7430
 1095SOL    HW214922   0.253   0.012   3.797  0.3758 -1.0298 -1.2710
 1096SOL     OW14923   0.662   0.619  17.649 -0.2139 -0.0409  0.5610
 1096SOL    HW114924   0.737   0.585  17.698  0.9651 -0.0115 -1.2407
 1096SOL    HW214925   0.695   0.596  17.563 -2.8388 -1.4143 -0.0693
 1097SOL     OW14926   4.121   3.549   6.287 -0.6171 -0.1638 -0.3798
 1097SOL    HW114927   4.070   3.479   6.328 -2.2941  1.1181 -0.3031
 1097SOL    HW214928   4.048   3.600   6.252 -0.2756  0.4369 -0.2012
 1098SOL     OW14929   0.929   2.371   7.703  0.7298  0.5040 -0.3893
 1098SOL    HW114930   0.959   2.297   7.756  0.4858  0.8558  0.2346
 1098SOL    HW214931   0.880   2.430   7.760  3.2977  0.5217  1.7742
 1099SOL     OW14932   1.417   0.824   9.474 -0.2468  0.5006  0.5131
 1099SOL    HW114933   1.417   0.883   9.399 -1.2527 -2.7890 -2.1074
 1099SOL    HW214934   1.326   0.794   9.467  0.0028  0.1190 -0.9802
 1100SOL     OW14935   2.268   3.804   4.268 -0.3811 -0.1599  0.4960
 1100SOL    HW114936   2.305   3.771   4.186 -0.5123 -1.2269  0.8598
 1100SOL    HW214937   2.302   3.738   4.328  1.0387 -0.1409 -0.2975
 1101SOL     OW14938   4.014   3.804   7.870 -0.2834  0.1823  0.1603
 1101SOL    HW114939   4.064   3.873   7.914  0.3171  0.2829 -0.6778
 1101SOL    HW214940   3.923   3.831   7.875 -0.0709  1.0070 -0.4694
 1102SOL     OW14941   0.397   0.365   4.419 -0.3624 -0.3850  0.8341
 1102SOL    HW114942   0.342   0.293   4.450 -0.4108 -0.5124  0.4494
 1102SOL    HW214943   0.464   0.373   4.487 -1.0836  2.1126  1.2476
 1103SOL     OW14944   2.754   1.983   0.611  0.4882 -0.4477  0.3357
 1103SOL    HW114945   2.682   1.919   0.614  0.4796 -0.4412  0.2569
 1103SOL    HW214946   2.823   1.927   0.576  1.9637  0.0823  2.3857
 1104SOL     OW14947   0.868   2.419  12.525 -0.4902  0.7090 -0.2145
 1104SOL    HW114948   0.889   2.411  12.618 -0.4263 -1.1314 -0.3807
 1104SOL    HW214949   0.802   2.488  12.524  0.1455  1.3287  3.7752
 1105SOL     OW14950   3.741   2.366   8.291 -0.2215 -0.2852 -0.0278
 1105SOL    HW114951   3.791   2.378   8.373  0.4189 -0.8810 -0.3361
 1105SOL    HW214952   3.767   2.276   8.273  1.7987  0.0402  1.1615
 1106SOL     OW14953   3.996   1.259   6.595 -0.5522  0.3057  0.5536
 1106SOL    HW114954   3.938   1.205   6.649  0.5923 -1.4866  0.0073
 1106SOL    HW214955   4.038   1.312   6.663 -0.4443 -1.0473  1.5452
 1107SOL     OW14956   1.365   3.195   9.911 -0.3101  0.3054  0.0683
 1107SOL    HW114957   1.321   3.138   9.974  2.1219 -1.4630  0.1904
 1107SOL    HW214958   1.339   3.162   9.825  0.8448  0.2794 -0.2790
 1108SOL     OW14959   3.724   3.486   4.748 -0.1000 -0.2459 -0.1492
 1108SOL    HW114960   3.770   3.402   4.751 -0.0154 -0.2711 -2.2756
 1108SOL    HW214961   3.750   3.532   4.828  0.4202 -0.2146 -0.3353
 1109SOL     OW14962   1.460   2.807   1.424 -0.3782  0.4773  0.1191
 1109SOL    HW114963   1.469   2.766   1.338  0.1241  1.7891 -0.4651
 1109SOL    HW214964   1.371   2.784   1.448 -1.1532  4.2406  0.8935
 1110SOL     OW14965   4.712   0.553   1.309  0.5273  0.1642  0.4782
 1110SOL    HW114966   4.728   0.535   1.402 -1.0903  0.3048  0.7811
 1110SOL    HW214967   0.039   0.487   1.281  4.0645  2.6319  2.4984
 1111SOL     OW14968   0.066   1.533   3.206 -0.0977  0.3874 -0.0041
 1111SOL    HW114969   0.044   1.626   3.205 -2.6892 -0.2167 -1.4014
 1111SOL    HW214970   0.038   1.499   3.291  0.3599 -2.1119 -0.8369
 1112SOL     OW14971   4.696   1.091  13.498  0.0150 -0.1647 -0.0647
 1112SOL    HW114972   4.648   1.030  13.554 -0.1332  0.7099  0.7563
 1112SOL    HW214973   4.658   1.061  13.415  2.8414  0.2766 -1.4968
 1113SOL     OW14974   3.366   0.073  12.009  0.5887  0.0385  0.1736
 1113SOL    HW114975   3.432   0.072  12.079  1.5191 -0.0184 -0.7113
 1113SOL    HW214976   3.374   0.163  11.979 -1.2717 -0.2753 -1.2254
 1114SOL     OW14977   1.203   0.272  16.571 -0.2789  0.0085 -0.6027
 1114SOL    HW114978   1.208   0.220  16.491  1.5899  0.2420 -0.6206
 1114SOL    HW214979   1.227   0.218  16.646 -0.0909 -2.9291 -2.7900
 1115SOL     OW14980   1.167   1.214   3.748  0.3322  0.0889 -0.0574
 1115SOL    HW114981   1.256   1.227   3.718  0.4967  2.7288  1.6088
 1115SOL    HW214982   1.147   1.302   3.779 -0.7705  0.3724 -1.6007
 1116SOL     OW14983   0.888   1.601   3.481 -0.3902  0.3120  0.6038
 1116SOL    HW114984   0.887   1.605   3.386  1.3306 -1.8005  0.4935
 1116SOL    HW214985   0.894   1.506   3.494  0.8081  0.4960  1.4313
 1117SOL     OW14986   2.216   2.036   0.442  0.0300 -0.0993 -0.5180
 1117SOL    HW114987   2.184   1.985   0.517  0.5736  0.3173 -0.0096
 1117SOL    HW214988   2.217   1.973   0.369  1.5238  1.1510 -1.5680
 1118SOL     OW14989   2.940   1.823   3.080 -0.1075 -0.4627  0.0801
 1118SOL    HW114990   2.889   1.883   3.025 -1.3479 -0.4365  1.2478
 1118SOL    HW214991   2.991   1.778   3.012  0.3713 -0.3738  0.3793
 1119SOL     OW14992   4.044   3.454   6.837  0.1095 -0.2301 -0.2750
 1119SOL    HW114993   3.974   3.435   6.773  1.3620 -3.6767 -0.6204
 1119SOL    HW214994   4.052   3.548   6.824 -0.0193  0.3661  4.1620
 1120SOL     OW14995   3.681   3.733  10.752  0.5114  0.0109 -0.6032
 1120SOL    HW114996   3.723   3.793  10.814  0.0548 -0.3972  0.0912
 1120SOL    HW214997   3.724   3.650  10.772 -1.5246 -0.6753  0.9357
 1121SOL     OW14998   3.680   1.573   4.451  0.1566  0.0149  0.4036
 1121SOL    HW114999   3.673   1.629   4.528 -0.1132 -1.1331  1.2120
 1121SOL    HW215000   3.700   1.641   4.387 -1.3520  1.0234  1.0153
 1122SOL     OW15001   1.334   1.918   5.150  0.7449  0.3602  0.6611
 1122SOL    HW115002   1.385   1.843   5.119 -1.1337 -1.3007  1.5937
 1122SOL    HW215003   1.343   1.927   5.245 -0.5342  0.8836  0.7356
 1123SOL     OW15004   0.173   4.514  14.452 -0.1525  0.2397  0.0318
 1123SOL    HW115005   0.219   4.454  14.392  2.6155  3.1499 -0.7956
 1123SOL    HW215006   0.239   4.584  14.453 -0.1616  0.2149  1.8824
 1124SOL     OW15007   0.075   0.718   4.115  0.1712 -0.2186 -0.0010
 1124SOL    HW115008   0.051   0.671   4.195 -2.2873  0.4339 -0.3340
 1124SOL    HW215009   4.727   0.709   4.069  1.1279 -1.9427 -1.4042
 1125SOL     OW15010   3.636   0.550   5.729  0.1340 -0.4117  0.4683
 1125SOL    HW115011   3.626   0.642   5.705  3.2580  0.1154  1.2226
 1125SOL    HW215012   3.580   0.518   5.658 -0.3153 -0.8765  1.0367
 1126SOL     OW15013   0.226   2.123   8.825  0.2053 -0.2632  0.0283
 1126SOL    HW115014   0.245   2.038   8.864 -1.0565 -1.5194 -2.0931
 1126SOL    HW215015   0.305   2.171   8.849  0.1472  0.6661 -1.6156
 1127SOL     OW15016   4.574   2.443  17.004  0.1937 -0.2645  0.2999
 1127SOL    HW115017   4.531   2.463  17.087 -0.9869 -0.8958 -0.1578
 1127SOL    HW215018   4.500   2.438  16.943 -0.8362 -0.9525  1.6123
 1128SOL     OW15019   4.656   2.875  15.178 -0.2058 -0.4474 -0.5429
 1128SOL    HW115020   4.736   2.871  15.126 -0.4839 -1.5512 -0.8747
 1128SOL    HW215021   4.598   2.863  15.103 -0.4439 -0.6315 -0.3294
 1129SOL     OW15022   3.180   1.342   4.531 -0.0715  0.1857 -0.8358
 1129SOL    HW115023   3.216   1.396   4.460  0.7312 -0.2720 -0.7732
 1129SOL    HW215024   3.241   1.355   4.603  1.1435 -0.4730 -1.7321
 1130SOL     OW15025   2.429   4.288   7.936 -0.1812  0.4923  0.6871
 1130SOL    HW115026   2.450   4.250   8.021  0.7999  2.1334  1.1835
 1130SOL    HW215027   2.349   4.336   7.959 -1.4272 -1.4556  0.3878
 1131SOL     OW15028   2.963   4.533   8.568 -0.3285  0.4780  0.3773
 1131SOL    HW115029   2.935   4.481   8.492  2.4660  1.1486 -1.1149
 1131SOL    HW215030   3.044   4.572   8.535 -0.4937 -0.6217 -1.3480
 1132SOL     OW15031   4.155   3.579   4.630 -0.1747  0.0564 -0.1969
 1132SOL    HW115032   4.091   3.645   4.657  0.2415  0.7540 -0.9129
 1132SOL    HW215033   4.199   3.623   4.557 -0.2087  0.3889 -0.0198
 1133SOL     OW15034   4.102   4.727  10.685 -0.3317  0.0896  0.1425
 1133SOL    HW115035   4.071   4.668  10.616  0.1860 -1.2421  1.0530
 1133SOL    HW215036   4.153   0.056  10.636 -0.6388 -1.9100 -2.8409
 1134SOL     OW15037   4.066   1.466  15.749  0.1775 -0.1985 -0.2282
 1134SOL    HW115038   4.137   1.512  15.705 -0.4014  0.5623 -0.3740
 1134SOL    HW215039   4.049   1.404  15.677  0.5329  0.0750 -0.5460
 1135SOL     OW15040   0.833   3.897   0.203 -0.5339 -0.2009 -0.5049
 1135SOL    HW115041   0.880   3.905   0.120  0.5566 -0.6807  0.0671
 1135SOL    HW215042   0.777   3.823   0.179  0.0185 -0.6083 -0.5353
 1136SOL     OW15043   4.012   0.131   6.260 -0.3812 -0.0224 -0.1300
 1136SOL    HW115044   3.979   0.194   6.324  1.1324  2.2608 -1.6079
 1136SOL    HW215045   4.072   0.087   6.320 -2.1131 -2.7272 -0.3796
 1137SOL     OW15046   0.506   3.467  12.935 -0.8064 -0.1450  0.1164
 1137SOL    HW115047   0.554   3.474  12.852 -0.2905 -1.0435  0.3340
 1137SOL    HW215048   0.556   3.535  12.980 -2.0241  0.2007  0.9329
 1138SOL     OW15049   2.652   1.406   2.012  0.3370 -0.1183 -0.6475
 1138SOL    HW115050   2.725   1.366   2.060 -0.0801  0.7350  0.6781
 1138SOL    HW215051   2.582   1.341   2.005  1.3385 -1.5025  2.0673
 1139SOL     OW15052   0.933   3.110  10.222 -0.5523 -0.3747  0.2398
 1139SOL    HW115053   1.014   3.161  10.219 -0.1500 -1.2153 -3.1142
 1139SOL    HW215054   0.898   3.129  10.135  1.7953  1.1215 -0.3788
 1140SOL     OW15055   4.332   4.271  13.101 -0.6649 -0.1561 -0.1311
 1140SOL    HW115056   4.380   4.298  13.180  0.4364  0.7272 -1.1014
 1140SOL    HW215057   4.385   4.302  13.028  0.7971  2.0343  1.8341
 1141SOL     OW15058   2.448   3.427   0.899 -0.5851  0.0725  0.2773
 1141SOL    HW115059   2.382   3.460   0.960  0.3152 -1.1134  1.8856
 1141SOL    HW215060   2.527   3.478   0.914 -0.2702 -0.7062  1.3255
 1142SOL     OW15061   4.091   4.524  10.491 -0.0633  0.4632  0.1435
 1142SOL    HW115062   4.089   4.593  10.424 -1.2012 -0.2129 -0.5222
 1142SOL    HW215063   4.186   4.528  10.507  0.1812 -0.1553 -1.1419
 1143SOL     OW15064   1.417   0.541   8.095  0.1416  0.6909 -0.2750
 1143SOL    HW115065   1.353   0.612   8.097 -1.7275 -1.0487  2.3904
 1143SOL    HW215066   1.505   0.578   8.085  1.0761 -0.9927  1.8089
 1144SOL     OW15067   4.524   4.453  11.061 -0.1017  0.0336  0.0758
 1144SOL    HW115068   4.594   4.483  11.119 -1.2036 -1.2249  2.0582
 1144SOL    HW215069   4.574   4.423  10.985 -0.4245  0.0095 -0.1257
 1145SOL     OW15070   1.082   4.147   2.624 -1.1112  0.0206 -0.1775
 1145SOL    HW115071   1.092   4.066   2.673  0.9268  2.8005  3.9269
 1145SOL    HW215072   1.165   4.185   2.651 -0.3376 -0.4843 -1.8298
 1146SOL     OW15073   4.513   1.116   7.683  0.3774 -0.1296 -0.5415
 1146SOL    HW115074   4.471   1.125   7.598  1.3946 -1.2424 -1.1572
 1146SOL    HW215075   4.534   1.023   7.690 -2.0218 -0.5079  1.9808
 1147SOL     OW15076   3.135   0.400  14.353 -0.8891  0.0430 -0.2936
 1147SOL    HW115077   3.111   0.329  14.294 -1.9909  0.5788 -0.4897
 1147SOL    HW215078   3.201   0.367  14.413 -0.6586 -3.3081 -2.3799
 1148SOL     OW15079   1.304   3.699   3.844  0.3885 -0.7033  0.3349
 1148SOL    HW115080   1.332   3.645   3.918 -0.6120  0.3473  1.4693
 1148SOL    HW215081   1.211   3.680   3.847  0.4713 -1.2501 -0.4496
 1149SOL     OW15082   3.596   3.947   4.321  0.1456  1.1054  0.2880
 1149SOL    HW115083   3.527   3.964   4.386 -0.3839  4.9240 -1.2378
 1149SOL    HW215084   3.536   3.929   4.249  1.9727 -2.0650 -0.3877
 1150SOL     OW15085   0.571   2.327   3.334  0.1657 -0.4845 -0.0071
 1150SOL    HW115086   0.479   2.305   3.345  0.3236 -0.6787  0.8634
 1150SOL    HW215087   0.568   2.415   3.296 -1.5726 -0.0447  1.1692
 1151SOL     OW15088   3.843   3.082   0.905  0.3633  0.1672 -0.3248
 1151SOL    HW115089   3.876   3.162   0.944 -0.5414  0.4357 -0.0976
 1151SOL    HW215090   3.909   3.019   0.932  0.1397 -0.1395 -0.4825
 1152SOL     OW15091   3.406   1.136   4.785  0.7133 -0.1356  0.3455
 1152SOL    HW115092   3.327   1.126   4.838 -0.6856  1.4773 -1.4496
 1152SOL    HW215093   3.382   1.077   4.714 -0.0875  0.8602 -0.2006
 1153SOL     OW15094   3.925   4.527   0.646  0.4116  0.2142 -0.3969
 1153SOL    HW115095   4.012   4.523   0.605  0.1176  1.1331 -1.1094
 1153SOL    HW215096   3.925   4.622   0.657  0.6991  0.0684  0.8659
 1154SOL     OW15097   2.267   4.280  13.166  0.1692 -0.2866  0.3236
 1154SOL    HW115098   2.285   4.262  13.258 -0.0094  1.3076  0.6661
 1154SOL    HW215099   2.173   4.294  13.174 -0.2874 -3.5568  0.8401
 1155SOL     OW15100   0.655   3.687   4.101  0.1444  0.8889  0.4678
 1155SOL    HW115101   0.584   3.630   4.073  0.0181  1.3885 -0.2456
 1155SOL    HW215102   0.706   3.679   4.020 -0.9615 -0.8059 -0.0668
 1156SOL     OW15103   0.013   2.221  13.607 -0.3018 -0.3222 -0.0997
 1156SOL    HW115104   0.082   2.191  13.666  0.8414 -0.2217 -1.3824
 1156SOL    HW215105   0.051   2.303  13.576 -3.1026  0.0760 -2.4797
 1157SOL     OW15106   4.379   2.999   0.672  0.3261  0.3850 -0.7906
 1157SOL    HW115107   4.375   3.045   0.756  2.6855 -0.9738  0.0770
 1157SOL    HW215108   4.463   2.952   0.674  0.6530  0.9701 -0.6915
 1158SOL     OW15109   4.422   4.231  15.304  0.1977  0.1527 -0.2697
 1158SOL    HW115110   4.468   4.170  15.246 -0.1986 -0.3544 -0.0559
 1158SOL    HW215111   4.331   4.221  15.275  0.9842 -2.7814 -1.8035
 1159SOL     OW15112   2.458   2.158  15.315  0.0675 -0.4370 -0.2391
 1159SOL    HW115113   2.517   2.181  15.387 -0.4734 -1.1774  0.4379
 1159SOL    HW215114   2.474   2.235  15.260  1.0349  0.2108  0.9445
 1160SOL     OW15115   4.372   0.220   1.713 -0.0297  0.2010  0.3148
 1160SOL    HW115116   4.330   0.222   1.799 -0.4696 -0.3828  0.1180
 1160SOL    HW215117   4.462   0.197   1.737 -0.0126  0.6807  0.7082
 1161SOL     OW15118   1.350   0.506   5.453 -0.1542 -0.1505 -0.1235
 1161SOL    HW115119   1.350   0.427   5.399  1.9542  0.4707 -1.0189
 1161SOL    HW215120   1.291   0.564   5.405 -0.8336 -1.1397 -0.4850
 1162SOL     OW15121   0.786   0.700  12.382  0.3187  0.0189  0.2351
 1162SOL    HW115122   0.876   0.732  12.369 -0.0236  0.6147 -0.6689
 1162SOL    HW215123   0.797   0.610  12.413  1.4347 -0.4011 -1.3856
 1163SOL     OW15124   3.141   3.902   7.986  0.1268 -0.4355  0.5957
 1163SOL    HW115125   3.163   3.983   7.941 -0.8621  0.9131  2.5445
 1163SOL    HW215126   3.108   3.837   7.923 -3.0842 -1.0076  2.8831
 1164SOL     OW15127   0.271   1.966   3.152  0.3409 -0.6129 -0.2677
 1164SOL    HW115128   0.271   2.011   3.237  1.9463  0.5582 -0.8837
 1164SOL    HW215129   0.361   1.934   3.145  1.2883  1.3444  2.6934
 1165SOL     OW15130   1.877   2.199   5.044  0.6681 -0.1756 -0.0830
 1165SOL    HW115131   1.823   2.238   4.976 -0.5943 -0.2484  0.8864
 1165SOL    HW215132   1.956   2.253   5.036 -0.6442  1.7374 -0.1917
 1166SOL     OW15133   0.138   1.481   7.411  0.2256  0.1697  0.5438
 1166SOL    HW115134   0.206   1.458   7.475 -0.1590 -1.9730  0.2025
 1166SOL    HW215135   0.146   1.575   7.398 -0.9269  0.2457  0.3880
 1167SOL     OW15136   1.209   0.780   5.372  0.0561  0.0759 -0.1714
 1167SOL    HW115137   1.134   0.823   5.329 -0.3011  0.6054  0.9808
 1167SOL    HW215138   1.280   0.838   5.346  1.0547 -1.7071 -1.4166
 1168SOL     OW15139   4.072   0.098   5.350 -0.1964  0.1679  0.6577
 1168SOL    HW115140   4.010   0.037   5.310 -0.7732  1.2385 -0.0830
 1168SOL    HW215141   4.017   0.151   5.409 -0.2531 -0.3822  1.1040
 1169SOL     OW15142   2.437   1.488   5.709 -0.2587 -0.1587 -0.0212
 1169SOL    HW115143   2.504   1.555   5.695  1.4300 -1.7547  0.4426
 1169SOL    HW215144   2.442   1.478   5.804  0.4481  0.2635 -0.0105
 1170SOL     OW15145   1.310   0.584  11.632  0.2849 -0.3428  0.5766
 1170SOL    HW115146   1.390   0.633  11.653 -0.4321  0.8929  0.4099
 1170SOL    HW215147   1.241   0.628  11.682  0.4882  0.3784  0.2243
 1171SOL     OW15148   3.769   2.348  11.603  0.5007  0.6917 -0.2901
 1171SOL    HW115149   3.838   2.380  11.661  1.3565 -1.2747 -0.2538
 1171SOL    HW215150   3.753   2.432  11.559  1.0197  1.8058  1.6508
 1172SOL     OW15151   3.104   4.700   1.754 -0.4693 -0.7034  0.2489
 1172SOL    HW115152   3.091   4.651   1.673 -5.7550 -0.7486  1.1204
 1172SOL    HW215153   3.037   4.649   1.799 -1.6276  0.4308 -0.1813
 1173SOL     OW15154   2.001   0.761   1.662  0.0466 -0.2894 -1.1574
 1173SOL    HW115155   1.986   0.667   1.672  0.6677 -0.1446  1.0004
 1173SOL    HW215156   1.985   0.789   1.752 -0.8854 -0.1263 -1.3720
 1174SOL     OW15157   0.435   2.599   5.246 -0.1331 -0.3428  0.2848
 1174SOL    HW115158   0.407   2.585   5.156  2.3983  1.1883 -0.7340
 1174SOL    HW215159   0.520   2.555   5.246 -2.0203 -4.0262 -2.8450
 1175SOL     OW15160   4.262   2.217   3.908 -0.3401 -0.4863 -0.3947
 1175SOL    HW115161   4.190   2.154   3.904 -1.4546  0.7271  0.8735
 1175SOL    HW215162   4.330   2.165   3.951  0.2964 -0.9922 -2.0070
 1176SOL     OW15163   1.357   0.267  17.342 -0.6227 -0.0957  0.2006
 1176SOL    HW115164   1.290   0.240  17.404 -1.7523 -0.3499 -1.1276
 1176SOL    HW215165   1.329   0.224  17.261  0.8705 -0.7049  0.0216
 1177SOL     OW15166   3.701   2.269  17.472  0.2158  0.0373 -0.8416
 1177SOL    HW115167   3.788   2.241  17.441 -0.4522  0.1238 -2.8184
 1177SOL    HW215168   3.646   2.261  17.394 -0.2983 -2.4569 -0.2064
 1178SOL     OW15169   2.601   2.655   8.051 -0.0942 -0.1681  0.3749
 1178SOL    HW115170   2.688   2.622   8.028 -0.2982 -0.6598  0.3063
 1178SOL    HW215171   2.615   2.738   8.097  0.5468 -0.7613  1.2513
 1179SOL     OW15172   3.519   1.184   5.846 -0.0307 -0.2091  0.1006
 1179SOL    HW115173   3.445   1.216   5.795  1.1147  0.2008 -1.3363
 1179SOL    HW215174   3.577   1.261   5.852  0.8338 -0.8045 -0.5477
 1180SOL     OW15175   1.665   1.974  10.957  0.7793  0.0324  0.1331
 1180SOL    HW115176   1.760   1.972  10.970  0.7809  0.3473  0.1508
 1180SOL    HW215177   1.644   1.964  11.050  0.7407  0.4377  0.1653
 1181SOL     OW15178   4.111   2.155   6.063  1.0385  0.1617 -0.4690
 1181SOL    HW115179   4.168   2.231   6.063  1.7015 -0.3383  0.2845
 1181SOL    HW215180   4.053   2.175   6.137  0.2277  2.0956 -1.6395
 1182SOL     OW15181   0.070   2.654  11.699 -0.2802 -0.0919  0.6570
 1182SOL    HW115182   0.130   2.659  11.624  0.1868  1.4849  1.1493
 1182SOL    HW215183   0.024   2.581  11.657  1.2941 -0.3106 -0.6884
 1183SOL     OW15184   1.004   0.103   6.344 -0.8396  0.3788 -0.4777
 1183SOL    HW115185   0.970   0.051   6.271  0.8106 -2.3521  0.6752
 1183SOL    HW215186   0.930   0.114   6.404 -0.2169  1.0071  0.1724
 1184SOL     OW15187   3.116   4.369   7.269 -0.2295  0.3456 -0.7765
 1184SOL    HW115188   3.211   4.382   7.265 -0.2614  1.7535  2.5982
 1184SOL    HW215189   3.116   4.333   7.181 -1.0994 -2.5477  0.4197
 1185SOL     OW15190   3.667   1.603   3.192 -0.5177 -0.1720 -0.2433
 1185SOL    HW115191   3.729   1.631   3.259  0.1988  2.8927 -2.1767
 1185SOL    HW215192   3.721   1.583   3.116 -1.3623  2.9428 -1.6452
 1186SOL     OW15193   3.607   0.899   7.146 -0.4422  0.8245  0.1188
 1186SOL    HW115194   3.593   0.818   7.196 -1.2248  0.4759 -0.6705
 1186SOL    HW215195   3.616   0.859   7.059  2.7227 -1.2933  1.4200
 1187SOL     OW15196   2.567   4.247   2.620  0.3228  0.2670  0.3966
 1187SOL    HW115197   2.516   4.318   2.579  0.8935  0.1063 -0.6054
 1187SOL    HW215198   2.649   4.295   2.628 -0.6244  1.9516  0.2549
 1188SOL     OW15199   3.782   0.599   3.063 -0.2688 -0.1099 -0.1321
 1188SOL    HW115200   3.750   0.518   3.023 -0.7849 -1.0630  2.2423
 1188SOL    HW215201   3.865   0.561   3.093  1.0263  3.0326  0.1787
 1189SOL     OW15202   1.230   3.826   9.000  0.2329  0.0710 -0.2670
 1189SOL    HW115203   1.207   3.822   8.907  1.5682 -0.0065 -0.6005
 1189SOL    HW215204   1.316   3.785   8.990 -0.1955 -0.8939 -0.0425
 1190SOL     OW15205   0.442   2.048   2.348 -0.1184 -0.1633 -0.5245
 1190SOL    HW115206   0.361   2.072   2.303  0.0852 -0.7735 -1.2172
 1190SOL    HW215207   0.410   2.052   2.438 -0.5635 -1.5702 -0.6189
 1191SOL     OW15208   1.995   0.716   1.298 -0.2849  0.3401  0.0162
 1191SOL    HW115209   1.957   0.749   1.217  0.0554 -0.1843 -0.3586
 1191SOL    HW215210   2.014   0.627   1.270 -2.6268 -0.1390 -0.0274
 1192SOL     OW15211   3.691   3.621   4.081  0.0452  0.2766  0.1974
 1192SOL    HW115212   3.674   3.528   4.074  0.2608  0.2182  0.4413
 1192SOL    HW215213   3.686   3.626   4.176 -0.4049  1.2757  0.1274
 1193SOL     OW15214   0.866   0.722   8.452  0.3768  0.5208  0.0464
 1193SOL    HW115215   0.856   0.814   8.478  0.8200  0.1008  1.6747
 1193SOL    HW215216   0.909   0.742   8.369  0.1733 -1.9604 -0.6493
 1194SOL     OW15217   2.494   0.301   9.348  0.4624 -0.1911  0.1484
 1194SOL    HW115218   2.405   0.304   9.312  2.0248 -3.4616 -3.9335
 1194SOL    HW215219   2.542   0.371   9.305  0.6098 -0.0511  0.5367
 1195SOL     OW15220   1.161   3.098   9.181 -0.1555  0.0762  0.3105
 1195SOL    HW115221   1.195   3.023   9.132 -1.3117 -0.4309  0.2932
 1195SOL    HW215222   1.144   3.155   9.106 -2.6137 -1.3520 -0.2237
 1196SOL     OW15223   4.664   3.893   1.604  0.0050  0.5884 -0.6335
 1196SOL    HW115224   4.678   3.866   1.695  1.8375  0.7165 -0.8668
 1196SOL    HW215225   4.637   3.984   1.617  0.6026  0.6936 -0.1423
 1197SOL     OW15226   1.378   0.111   7.220 -0.2575  0.5640  0.3927
 1197SOL    HW115227   1.418   0.034   7.261  0.0209  0.2437 -0.4679
 1197SOL    HW215228   1.373   0.076   7.131 -1.5789  1.9178 -0.0460
 1198SOL     OW15229   0.620   1.898   3.430 -0.4519  0.5237  0.1096
 1198SOL    HW115230   0.612   1.829   3.495 -1.8176  0.7188  0.1454
 1198SOL    HW215231   0.576   1.975   3.468 -0.0060  1.7202 -1.7615
 1199SOL     OW15232   2.525   0.130   4.267 -0.1229  0.0694  0.2436
 1199SOL    HW115233   2.461   0.174   4.323 -1.1109 -1.8275  0.5727
 1199SOL    HW215234   2.598   0.191   4.279  1.5800 -1.4230 -2.5395
 1200SOL     OW15235   2.641   4.497   1.214 -0.3531 -0.1101 -0.1387
 1200SOL    HW115236   2.555   4.464   1.185 -0.8975  0.8952  0.3399
 1200SOL    HW215237   2.658   4.423   1.272 -0.5522  0.1315  0.2264
 1201SOL     OW15238   1.698   0.157   8.461  0.1543  0.0544  0.1702
 1201SOL    HW115239   1.747   0.223   8.511  0.1031  0.1496  0.0929
 1201SOL    HW215240   1.612   0.198   8.473 -0.3440 -0.6098 -1.1410
 1202SOL     OW15241   4.532   4.006  14.088 -0.2777 -0.1008  0.4995
 1202SOL    HW115242   4.615   4.013  14.136  0.6154 -3.3426 -0.5370
 1202SOL    HW215243   4.563   4.058  14.014 -2.5931 -0.5728 -0.7995
 1203SOL     OW15244   0.468   4.542  11.830 -0.4636  0.9121  0.7519
 1203SOL    HW115245   0.561   4.529  11.847  0.0760  2.0377 -1.4873
 1203SOL    HW215246   0.421   4.556  11.912 -2.3135  2.0201 -0.5105
 1204SOL     OW15247   0.011   1.779  16.337 -0.4866  0.2850  0.5650
 1204SOL    HW115248   0.012   1.687  16.364 -0.4075  0.2055  0.2824
 1204SOL    HW215249   4.699   1.770  16.255  1.9986 -0.2812 -0.8212
 1205SOL     OW15250   0.043   1.187   2.307 -0.1634  0.2322 -0.4661
 1205SOL    HW115251   0.129   1.154   2.282 -0.0195 -0.4263  0.9254
 1205SOL    HW215252   0.047   1.203   2.401 -1.2949  3.7570 -1.0141
 1206SOL     OW15253   1.128   1.349   2.761 -0.0532 -0.3504 -0.2105
 1206SOL    HW115254   1.129   1.427   2.817  0.4284 -0.5884  0.1117
 1206SOL    HW215255   1.038   1.333   2.734 -0.5487  0.5746  0.9252
 1207SOL     OW15256   2.832   1.569  16.156  0.4064  0.0295 -0.2441
 1207SOL    HW115257   2.742   1.579  16.185  1.2233  2.5150  1.4252
 1207SOL    HW215258   2.815   1.513  16.080  1.2553  0.6362 -0.8820
 1208SOL     OW15259   4.210   4.246   8.267 -0.7384  0.2287  0.1917
 1208SOL    HW115260   4.134   4.255   8.210 -2.7638 -0.9526  2.7506
 1208SOL    HW215261   4.178   4.245   8.357 -0.3137 -0.4906  0.3337
 1209SOL     OW15262   4.604   1.443  15.951  0.1090 -0.0498  0.0584
 1209SOL    HW115263   4.572   1.478  16.034  0.0684 -1.0768  0.4680
 1209SOL    HW215264   4.519   1.418  15.915 -0.3048 -1.1519  1.8397
 1210SOL     OW15265   3.001   2.970  13.032  0.0695 -0.4571  0.1644
 1210SOL    HW115266   3.095   2.954  13.035 -0.1349 -1.6872  0.2784
 1210SOL    HW215267   2.978   2.987  13.123  0.5096  0.7565  0.0410
 1211SOL     OW15268   2.927   4.626  15.618  0.6260 -0.2092  0.1847
 1211SOL    HW115269   2.923   4.704  15.674  0.9278 -0.6555  0.8403
 1211SOL    HW215270   3.022   4.609  15.616  0.5916 -0.3073 -0.5135
 1212SOL     OW15271   0.715   3.964   8.026 -0.3560  0.5711  0.1335
 1212SOL    HW115272   0.734   4.058   8.021 -1.4712  0.6740 -2.0328
 1212SOL    HW215273   0.782   3.922   7.972  0.2449  2.2592 -0.4372
 1213SOL     OW15274   1.570   3.441   2.267 -0.1551 -0.2986  0.1259
 1213SOL    HW115275   1.572   3.463   2.361  3.5315 -1.3501  0.2878
 1213SOL    HW215276   1.631   3.501   2.224  1.3812 -1.2334  0.9915
 1214SOL     OW15277   3.060   1.248  10.245  0.3401  0.0636 -0.1834
 1214SOL    HW115278   2.992   1.198  10.199 -1.2076  1.7849  0.2153
 1214SOL    HW215279   3.141   1.232  10.197  1.5417 -1.7169  2.4249
 1215SOL     OW15280   1.951   1.674   3.609  0.3099 -0.0740  0.0270
 1215SOL    HW115281   2.023   1.612   3.617 -0.6310 -1.0078  1.3203
 1215SOL    HW215282   1.879   1.614   3.630  0.4401  0.0159  0.7329
 1216SOL     OW15283   2.731   2.848   3.021 -0.5320 -0.1729 -0.0793
 1216SOL    HW115284   2.701   2.894   3.100  1.4162  1.1365 -0.1067
 1216SOL    HW215285   2.815   2.819   3.056 -1.7806 -4.1367 -0.3465
 1217SOL     OW15286   3.152   1.395   2.963 -0.3331 -0.2980  0.1725
 1217SOL    HW115287   3.205   1.446   2.901 -1.9833  0.9654 -0.1950
 1217SOL    HW215288   3.219   1.365   3.025  0.6614 -1.1570 -1.3265
 1218SOL     OW15289   2.621   2.840   1.821 -0.2781  0.1663 -0.4123
 1218SOL    HW115290   2.612   2.917   1.765  0.7610  0.5707 -0.0186
 1218SOL    HW215291   2.716   2.832   1.812 -0.5261  0.1120 -2.8888
 1219SOL     OW15292   0.469   3.450   6.796 -0.1233  0.4421  0.2143
 1219SOL    HW115293   0.524   3.481   6.868 -0.0206 -0.3185  0.4673
 1219SOL    HW215294   0.380   3.463   6.828  0.1011  0.4039  0.8672
 1220SOL     OW15295   1.479   1.673   5.135  0.3247 -0.0898 -0.6811
 1220SOL    HW115296   1.409   1.616   5.103  0.6841 -1.2745  0.6006
 1220SOL    HW215297   1.465   1.669   5.230  1.3873 -0.8146 -0.5498
 1221SOL     OW15298   1.653   1.368   3.605  0.2837  0.6692  0.6162
 1221SOL    HW115299   1.723   1.326   3.555 -0.9758  0.2940 -0.8063
 1221SOL    HW215300   1.697   1.390   3.688  0.6374 -2.1643  1.1993
 1222SOL     OW15301   3.163   1.997   7.876  0.0125 -0.0964  0.0844
 1222SOL    HW115302   3.215   2.010   7.797 -0.4500  1.3169  0.0131
 1222SOL    HW215303   3.214   2.058   7.930 -1.5747 -0.0049  1.4699
 1223SOL     OW15304   1.528   4.263   4.405 -0.1311  0.2779 -0.8862
 1223SOL    HW115305   1.450   4.242   4.457  2.0572 -0.7376  2.0326
 1223SOL    HW215306   1.549   4.195   4.341 -2.4593 -2.4835  1.3068
 1224SOL     OW15307   0.355   1.673   6.877  0.0254  0.5093  0.0049
 1224SOL    HW115308   0.430   1.679   6.937  0.3554  0.3285 -0.3867
 1224SOL    HW215309   0.321   1.762   6.891  1.5701  0.9797  0.7909
 1225SOL     OW15310   3.517   1.131   1.371  0.0383  0.1514 -0.5527
 1225SOL    HW115311   3.499   1.223   1.354  0.3498  0.3498  0.1547
 1225SOL    HW215312   3.611   1.121   1.354 -0.0952 -2.2669  0.1799
 1226SOL     OW15313   3.009   2.583   9.936 -0.4403 -0.3851 -0.2528
 1226SOL    HW115314   3.094   2.621   9.959 -0.8749  1.5143 -1.8195
 1226SOL    HW215315   3.031   2.490   9.937  0.1348 -0.2663 -1.4775
 1227SOL     OW15316   0.004   2.061   8.117 -0.5896 -0.4498  0.2373
 1227SOL    HW115317   4.669   2.003   8.144  0.3276 -1.5915  0.1872
 1227SOL    HW215318   0.062   2.053   8.192  2.2005 -0.6000 -1.9092
 1228SOL     OW15319   4.113   1.824   1.120 -0.2314 -0.5538 -0.0899
 1228SOL    HW115320   4.179   1.762   1.087  1.5198  1.4820 -0.4657
 1228SOL    HW215321   4.135   1.811   1.212  0.1881 -1.0504 -0.2603
 1229SOL     OW15322   2.496   2.333   6.214  0.4100  0.3354 -0.6349
 1229SOL    HW115323   2.518   2.281   6.137  0.5973 -1.7300  0.7820
 1229SOL    HW215324   2.429   2.390   6.176 -2.5055 -2.2792  0.5162
 1230SOL     OW15325   0.724   2.147   7.541  0.1760  0.3215  0.2655
 1230SOL    HW115326   0.761   2.212   7.600  0.7517  0.4094 -0.1935
 1230SOL    HW215327   0.759   2.066   7.578  1.6757  1.2045  0.7538
 1231SOL     OW15328   3.786   1.351   7.048  0.3961 -0.0844  0.3434
 1231SOL    HW115329   3.790   1.263   7.012 -0.8962 -0.3520  0.8691
 1231SOL    HW215330   3.741   1.339   7.132  2.3692 -0.1120  1.4132
 1232SOL     OW15331   4.069   1.300   6.344 -0.0193 -0.7804 -0.0916
 1232SOL    HW115332   3.996   1.268   6.291  0.0313 -0.6331 -0.2499
 1232SOL    HW215333   4.027   1.285   6.429  0.4600  1.0362  0.4671
 1233SOL     OW15334   0.105   0.518  12.030  0.5325 -0.0513 -0.2017
 1233SOL    HW115335   0.104   0.486  11.940  1.6942  0.8215 -0.5239
 1233SOL    HW215336   0.045   0.454  12.070 -0.0060  0.2417 -0.5328
 1234SOL     OW15337   1.700   3.160   9.240 -0.4729  0.1573 -0.5428
 1234SOL    HW115338   1.618   3.191   9.201 -0.3017  1.6067  0.2230
 1234SOL    HW215339   1.755   3.137   9.166 -1.8046 -1.9644 -0.8950
 1235SOL     OW15340   1.204   2.333   4.220  0.4686  0.3521 -0.7105
 1235SOL    HW115341   1.120   2.303   4.256  0.3126 -0.9034 -2.0799
 1235SOL    HW215342   1.268   2.321   4.289  0.2520  0.4844 -0.4875
 1236SOL     OW15343   4.186   3.878  15.798 -0.5388  0.4826  0.5841
 1236SOL    HW115344   4.182   3.965  15.838  2.7233  1.1247 -0.4951
 1236SOL    HW215345   4.155   3.896  15.709 -1.8769  0.1752  0.9875
 1237SOL     OW15346   2.035   4.569   2.394 -0.0399 -0.1451 -0.1072
 1237SOL    HW115347   1.981   4.606   2.324 -0.7087  0.2787  0.6293
 1237SOL    HW215348   2.047   4.647   2.449  1.6069  0.6050 -1.5256
 1238SOL     OW15349   1.152   4.192  12.737 -0.3463  1.7557  0.0764
 1238SOL    HW115350   1.207   4.257  12.693 -0.3375  1.4518 -0.3684
 1238SOL    HW215351   1.131   4.248  12.811  0.7624 -0.0535  1.7530
 1239SOL     OW15352   4.171   4.141  12.799 -0.0709  0.3821  0.2645
 1239SOL    HW115353   4.109   4.199  12.755  2.1539  2.8769  0.4256
 1239SOL    HW215354   4.134   4.153  12.886  1.3678 -1.0506  1.0789
 1240SOL     OW15355   3.982   3.597   2.939  0.5271 -0.5917  0.3079
 1240SOL    HW115356   3.963   3.524   2.880  0.2969 -0.2177 -0.0797
 1240SOL    HW215357   3.972   3.674   2.883 -0.8427 -0.5916  0.5577
 1241SOL     OW15358   3.848   1.052  16.731 -0.5954 -0.0969 -0.4907
 1241SOL    HW115359   3.845   1.103  16.650 -1.9775  0.2057 -0.2465
 1241SOL    HW215360   3.758   1.025  16.749 -0.7670  0.3212 -0.7236
 1242SOL     OW15361   4.442   2.044   3.455  0.0582 -0.7292 -0.2060
 1242SOL    HW115362   4.505   2.110   3.486  0.9383 -1.7478  0.1892
 1242SOL    HW215363   4.498   1.975   3.420  0.4082  0.6761 -2.4519
 1243SOL     OW15364   3.229   4.605  14.029  0.2638  0.0767  0.2436
 1243SOL    HW115365   3.278   4.603  14.111  1.8704 -2.3552 -0.7617
 1243SOL    HW215366   3.301   4.619  13.967  0.7133 -0.6438  0.5980
 1244SOL     OW15367   3.537   4.377   0.855  0.1992  0.1980 -0.2272
 1244SOL    HW115368   3.518   4.455   0.907 -4.3544 -1.3594  0.4282
 1244SOL    HW215369   3.458   4.369   0.803 -0.6451  2.4718  0.7011
 1245SOL     OW15370   2.439   0.058   3.725 -0.2142 -0.2275  0.1662
 1245SOL    HW115371   2.413   4.706   3.752 -0.9218 -0.6636 -1.9150
 1245SOL    HW215372   2.478   0.098   3.802  0.1168 -0.7900  0.2947
 1246SOL     OW15373   1.205   0.653   3.798 -0.3133  0.7501 -0.1040
 1246SOL    HW115374   1.263   0.653   3.875 -0.4251  0.6594 -0.0209
 1246SOL    HW215375   1.123   0.618   3.833  0.9205 -0.3439  1.6702
 1247SOL     OW15376   0.118   4.653  15.386  0.1674  0.5068 -0.7243
 1247SOL    HW115377   0.137   4.664  15.479  0.4388  1.3278 -0.8742
 1247SOL    HW215378   0.131   0.000  15.342  2.5087  1.1426  1.1698
 1248SOL     OW15379   1.527   1.907  17.601 -0.2063  0.8051 -0.3672
 1248SOL    HW115380   1.441   1.914  17.559  0.5219  1.6178 -1.7272
 1248SOL    HW215381   1.581   1.966  17.549  2.4924  0.3473  1.9053
 1249SOL     OW15382   2.825   0.650   1.354 -0.5392  0.7866  0.0125
 1249SOL    HW115383   2.913   0.649   1.393 -1.5466  0.9819  2.2874
 1249SOL    HW215384   2.826   0.558   1.325 -0.4526  0.1056  2.1933
 1250SOL     OW15385   1.925   0.328   4.380  0.2843  0.0792 -0.5427
 1250SOL    HW115386   1.961   0.284   4.303  2.4502  0.2415  0.3656
 1250SOL    HW215387   2.002   0.352   4.432 -2.3160  2.3231  2.2485
 1251SOL     OW15388   3.216   2.156   8.100  0.2492 -0.2582  0.4580
 1251SOL    HW115389   3.213   2.067   8.136  1.5268 -0.8819 -0.9790
 1251SOL    HW215390   3.303   2.186   8.128 -0.4687  0.8277  1.5272
 1252SOL     OW15391   0.499   0.894   8.812  0.0042  0.2278  0.5297
 1252SOL    HW115392   0.540   0.981   8.807  1.7985 -0.6311  0.1962
 1252SOL    HW215393   0.417   0.923   8.851  1.1671  1.9539  1.7099
 1253SOL     OW15394   1.001   3.518   6.559  0.3426 -0.3736 -0.1322
 1253SOL    HW115395   1.097   3.524   6.557  0.6333 -4.4274  2.1729
 1253SOL    HW215396   0.998   3.550   6.469 -1.6138 -2.5103 -0.8073
 1254SOL     OW15397   4.063   1.250   4.395 -0.1880 -0.5079  0.0027
 1254SOL    HW115398   4.098   1.205   4.471  2.7080 -1.5451 -1.9409
 1254SOL    HW215399   3.972   1.259   4.423 -0.0370 -5.2138  1.9849
 1255SOL     OW15400   2.471   0.410   7.778  0.3675  0.2495  0.4009
 1255SOL    HW115401   2.406   0.343   7.799  0.5124  0.0317  0.1582
 1255SOL    HW215402   2.544   0.367   7.823 -0.0554 -0.6972  0.2004
 1256SOL     OW15403   3.207   0.385  16.545 -0.0598  0.1730  0.2703
 1256SOL    HW115404   3.301   0.377  16.533 -0.1146  0.3400 -0.2813
 1256SOL    HW215405   3.202   0.354  16.635  0.1488  2.2489  0.9911
 1257SOL     OW15406   2.355   0.063   8.941 -0.6985 -0.3244  0.0605
 1257SOL    HW115407   2.398   4.714   8.934  0.3017 -0.1186  3.6334
 1257SOL    HW215408   2.265   0.038   8.924 -1.1919  1.8664 -0.4931
 1258SOL     OW15409   1.312   3.773   2.221 -0.4611  0.4982  0.2086
 1258SOL    HW115410   1.231   3.742   2.261 -1.1110  2.7070  0.5919
 1258SOL    HW215411   1.288   3.863   2.201 -0.0595  0.3798 -0.7899
 1259SOL     OW15412   1.521   1.045   0.807  0.2837 -0.6530 -0.3789
 1259SOL    HW115413   1.502   1.124   0.757  0.9345 -0.2138  0.0669
 1259SOL    HW215414   1.475   1.068   0.888 -0.1284  1.2719 -1.1810
 1260SOL     OW15415   3.480   4.133   5.179 -0.1763 -0.2889 -0.1088
 1260SOL    HW115416   3.495   4.078   5.102 -2.9669 -0.5161 -0.4737
 1260SOL    HW215417   3.545   4.093   5.237  1.8825 -1.6916 -3.3573
 1261SOL     OW15418   0.872   3.782  12.468 -0.3187  0.9763 -0.2018
 1261SOL    HW115419   0.820   3.853  12.506  1.6538  0.9734  2.5382
 1261SOL    HW215420   0.956   3.826  12.455  0.0540  0.4916  0.5287
 1262SOL     OW15421   2.372   3.554   4.686 -0.4889 -0.1205  0.3927
 1262SOL    HW115422   2.403   3.470   4.653 -1.6174  0.1210 -1.2463
 1262SOL    HW215423   2.422   3.567   4.767  0.8152 -0.8452 -0.2898
 1263SOL     OW15424   4.043   2.256   1.255  0.0495  0.1378 -0.2374
 1263SOL    HW115425   4.102   2.316   1.301 -2.3241  0.6272  2.1803
 1263SOL    HW215426   4.012   2.312   1.183 -2.2012 -0.4103  0.3055
 1264SOL     OW15427   4.212   2.942  17.525 -0.2171  0.0761  0.4168
 1264SOL    HW115428   4.231   2.978  17.612 -2.4713 -0.9505  1.3237
 1264SOL    HW215429   4.117   2.946  17.517 -0.4111 -0.1010  2.7489
 1265SOL     OW15430   0.825   4.659   9.657  0.6377 -0.0991 -0.5129
 1265SOL    HW115431   0.855   0.003   9.613  1.5098  0.5757  1.3053
 1265SOL    HW215432   0.730   4.659   9.669  0.3293 -1.2304 -2.8898
 1266SOL     OW15433   1.639   3.604   4.645  0.1628 -0.4276 -0.1850
 1266SOL    HW115434   1.567   3.554   4.606  0.1580  1.1051 -2.1282
 1266SOL    HW215435   1.683   3.639   4.568  2.0791  3.3733  2.6791
 1267SOL     OW15436   1.773   1.007   8.023  0.0363 -0.3090 -0.6487
 1267SOL    HW115437   1.803   1.098   8.021 -0.5373 -0.1110 -0.3423
 1267SOL    HW215438   1.806   0.980   8.109  0.6894  1.6199 -0.3078
 1268SOL     OW15439   4.591   4.283  16.834  0.3019 -0.4721 -0.0106
 1268SOL    HW115440   4.640   4.210  16.873  2.1054  0.4259 -0.5794
 1268SOL    HW215441   4.535   4.229  16.778 -1.5637  1.6075 -0.1437
 1269SOL     OW15442   0.248   2.813  16.039 -0.3128 -0.0529 -0.2312
 1269SOL    HW115443   0.277   2.901  16.017  2.0535 -1.2249 -1.8377
 1269SOL    HW215444   0.199   2.791  15.959 -0.8789  0.5344 -0.0453
 1270SOL     OW15445   0.807   4.251   4.486 -0.1283 -0.1538  0.1107
 1270SOL    HW115446   0.841   4.335   4.454 -0.0462 -0.2372 -0.0181
 1270SOL    HW215447   0.715   4.275   4.499 -0.4487 -1.2320 -0.1873
 1271SOL     OW15448   3.936   3.537  14.993 -0.0035 -0.4358 -0.5947
 1271SOL    HW115449   3.995   3.562  14.921 -0.7903  0.8830 -0.7893
 1271SOL    HW215450   3.867   3.603  14.996 -2.2484 -2.9252  2.3772
 1272SOL     OW15451   2.399   3.733   3.065 -0.3213 -0.0699 -0.2067
 1272SOL    HW115452   2.425   3.642   3.075 -0.1369 -0.0991 -0.9227
 1272SOL    HW215453   2.383   3.737   2.971 -0.2876  1.0998 -0.1722
 1273SOL     OW15454   3.710   4.268   4.123  0.0622 -0.0378 -0.8547
 1273SOL    HW115455   3.724   4.352   4.167 -1.2170 -0.4719  0.3913
 1273SOL    HW215456   3.750   4.294   4.040 -0.0339  4.0030  0.3343
 1274SOL     OW15457   2.968   1.493   8.083  0.3849 -0.1496 -0.0168
 1274SOL    HW115458   3.042   1.454   8.037  0.1609  0.3235 -0.7830
 1274SOL    HW215459   2.947   1.423   8.145 -1.0650  1.7473  1.6251
 1275SOL     OW15460   4.372   4.613  13.173 -0.0316 -0.3267 -0.2477
 1275SOL    HW115461   4.296   4.591  13.119 -0.8638  1.1342  0.3299
 1275SOL    HW215462   4.395   4.528  13.213 -1.2562 -0.2939  0.5329
 1276SOL     OW15463   4.504   4.497   5.826 -0.7298  0.2736  0.7003
 1276SOL    HW115464   4.415   4.524   5.848 -1.5697 -0.0994 -2.1656
 1276SOL    HW215465   4.487   4.483   5.732  1.4822  0.9582  0.1986
 1277SOL     OW15466   0.067   1.427  15.768  0.1630  0.0518  0.0211
 1277SOL    HW115467   0.013   1.444  15.845  0.1664  0.5419 -0.0835
 1277SOL    HW215468   0.018   1.486  15.710 -0.7310 -1.1564 -0.4426
 1278SOL     OW15469   4.649   3.756   3.736  0.3384  0.4521  0.6667
 1278SOL    HW115470   4.585   3.775   3.805  0.4543  0.2902  0.8176
 1278SOL    HW215471   4.612   3.800   3.659  0.6981  0.5371  0.5428
 1279SOL     OW15472   4.327   1.643   2.656 -0.7112  0.0555  0.1002
 1279SOL    HW115473   4.365   1.558   2.636  1.3720  1.0972 -0.2893
 1279SOL    HW215474   4.239   1.648   2.618 -1.0900 -1.4193  0.7855
 1280SOL     OW15475   0.682   3.448  12.373 -0.0842 -0.3985  0.1299
 1280SOL    HW115476   0.703   3.373  12.428  2.7687  0.6225  0.4365
 1280SOL    HW215477   0.687   3.420  12.282 -1.3391 -0.1512 -0.0080
 1281SOL     OW15478   0.456   2.201   7.463  0.6103  0.0500  0.4751
 1281SOL    HW115479   0.548   2.175   7.476 -0.5481 -3.2355  1.9788
 1281SOL    HW215480   0.416   2.139   7.524 -0.2770  0.2277  0.0699
 1282SOL     OW15481   0.486   2.809   7.738  0.1437  0.3853 -0.4367
 1282SOL    HW115482   0.569   2.762   7.735 -0.7099 -1.2526  1.7108
 1282SOL    HW215483   0.516   2.899   7.749  0.8679  0.0682  0.1240
 1283SOL     OW15484   2.431   0.430  10.600 -0.0165  0.1574 -0.2632
 1283SOL    HW115485   2.516   0.390  10.585  0.2981  0.5653  0.3916
 1283SOL    HW215486   2.380   0.401  10.525 -0.9158  1.8004 -0.2939
 1284SOL     OW15487   1.761   0.875   4.496 -0.0217  0.1452  0.1605
 1284SOL    HW115488   1.725   0.859   4.583 -2.9337  3.2848 -0.4507
 1284SOL    HW215489   1.846   0.832   4.506 -0.3487 -0.6247 -0.3350
 1285SOL     OW15490   3.484   3.636  14.778  0.3637  0.4020 -0.2748
 1285SOL    HW115491   3.391   3.660  14.767  0.6615  2.1146  1.1159
 1285SOL    HW215492   3.516   3.584  14.705 -1.8067 -0.4856 -0.6160
 1286SOL     OW15493   3.547   0.174  11.174  0.3642 -0.3654  0.1828
 1286SOL    HW115494   3.591   0.236  11.232 -0.8369  1.2700 -0.6573
 1286SOL    HW215495   3.504   0.111  11.232 -0.1620  1.4952  1.8102
 1287SOL     OW15496   1.201   4.172   1.304  0.4263  0.0208 -0.0025
 1287SOL    HW115497   1.238   4.258   1.286 -0.4980  0.0141 -1.8888
 1287SOL    HW215498   1.278   4.116   1.318  1.8387  1.9859  0.1186
 1288SOL     OW15499   4.584   4.558  12.720 -0.8652 -0.4925 -0.9535
 1288SOL    HW115500   4.677   4.571  12.704 -0.2365 -0.9708  2.4207
 1288SOL    HW215501   4.538   4.642  12.710  0.3717  0.5369  1.9446
 1289SOL     OW15502   3.587   1.585   3.855 -0.1060 -0.0385  0.9056
 1289SOL    HW115503   3.591   1.501   3.901 -1.6832  0.4488  1.9045
 1289SOL    HW215504   3.493   1.596   3.848 -0.0401  2.0860  3.3988
 1290SOL     OW15505   0.430   0.657  15.926 -0.1461  0.5995 -0.0551
 1290SOL    HW115506   0.426   0.742  15.970  2.7835  0.9326 -0.4391
 1290SOL    HW215507   0.408   0.689  15.839  1.6347  1.8670 -0.0562
 1291SOL     OW15508   2.127   0.925   8.714  0.7139  0.1880 -0.1813
 1291SOL    HW115509   2.202   0.913   8.657 -0.2689 -0.2417 -1.3898
 1291SOL    HW215510   2.063   0.874   8.665  0.3319 -0.1484  0.6691
 1292SOL     OW15511   3.051   4.660  10.973 -0.5672 -0.3190  0.6233
 1292SOL    HW115512   3.073   0.010  10.940  0.4710 -1.6249 -2.1068
 1292SOL    HW215513   3.000   4.687  11.050 -2.8257  2.5396 -1.8979
 1293SOL     OW15514   3.620   0.059   6.324 -0.2901 -0.1851  0.2544
 1293SOL    HW115515   3.608   4.706   6.294  0.5636 -0.0326 -0.5218
 1293SOL    HW215516   3.646   0.094   6.239  0.4834 -1.3085  0.0320
 1294SOL     OW15517   2.047   1.720   3.359 -0.1043  0.1421 -0.6428
 1294SOL    HW115518   2.023   1.637   3.318 -0.8382 -0.5243  1.1083
 1294SOL    HW215519   2.017   1.699   3.448  4.0373  0.1744  0.7475
 1295SOL     OW15520   0.080   1.154  13.009 -0.0711  0.4569 -0.5896
 1295SOL    HW115521   0.128   1.191  12.934  0.8729  0.2181 -0.0941
 1295SOL    HW215522   0.128   1.071  13.011  2.2775  1.8139 -0.4512
 1296SOL     OW15523   0.306   3.192   3.888 -0.0078  0.7164  0.7916
 1296SOL    HW115524   0.282   3.191   3.980 -2.1166 -3.2006  0.1942
 1296SOL    HW215525   0.393   3.153   3.895 -0.5661 -1.0302 -1.7709
 1297SOL     OW15526   1.438   0.944  12.572  0.3191  0.8853 -0.3602
 1297SOL    HW115527   1.519   0.975  12.533  0.0204  0.9780 -0.9090
 1297SOL    HW215528   1.459   0.957  12.664  3.1369  0.1712 -0.9134
 1298SOL     OW15529   1.276   2.343  17.444 -0.5143  0.5920 -0.0490
 1298SOL    HW115530   1.186   2.347  17.410 -0.1782  0.7239 -0.9273
 1298SOL    HW215531   1.329   2.320  17.368 -1.7094  1.3842 -1.1208
 1299SOL     OW15532   0.096   4.106  10.996  0.6934  0.0352 -0.3051
 1299SOL    HW115533   0.165   4.153  11.043 -0.8438  2.6942 -0.6723
 1299SOL    HW215534   0.028   4.171  10.978 -0.2190 -1.4974 -2.4972
 1300SOL     OW15535   1.958   2.329   2.333 -0.3251 -0.8136 -0.2146
 1300SOL    HW115536   1.907   2.254   2.362  0.9939 -0.8968  1.9323
 1300SOL    HW215537   2.000   2.359   2.414 -3.1201  1.4451  0.4085
 1301SOL     OW15538   1.732   1.054   0.425 -0.0460 -0.0342 -0.4078
 1301SOL    HW115539   1.728   0.960   0.441  0.0844  0.3157  1.6045
 1301SOL    HW215540   1.817   1.074   0.387 -0.5048 -0.3897 -1.6347
 1302SOL     OW15541   2.076   4.429  16.132  0.3863  0.3880 -0.5360
 1302SOL    HW115542   2.055   4.337  16.144  1.8662  0.5829  3.4209
 1302SOL    HW215543   2.037   4.442  16.045  1.7317  0.4439 -1.1254
 1303SOL     OW15544   1.035   2.645   3.253  0.4256  0.2597  0.2151
 1303SOL    HW115545   1.023   2.731   3.295 -2.0145  0.4035 -0.7922
 1303SOL    HW215546   1.124   2.659   3.221  0.9448  0.8466  1.9044
 1304SOL     OW15547   3.734   1.732  11.125  0.1797  0.1576 -0.1823
 1304SOL    HW115548   3.714   1.638  11.124  1.6294 -0.1430 -0.8666
 1304SOL    HW215549   3.701   1.756  11.212 -3.0922 -0.0517 -1.4051
 1305SOL     OW15550   0.917   1.919   3.411  0.2004 -0.3405  0.2218
 1305SOL    HW115551   0.827   1.925   3.440  0.5757  0.2438  1.2418
 1305SOL    HW215552   0.952   2.001   3.445  0.5178  0.7982 -2.8384
 1306SOL     OW15553   4.325   2.053   2.468  0.3132 -0.2180 -0.4893
 1306SOL    HW115554   4.302   2.062   2.560  1.1453  0.1071 -0.3057
 1306SOL    HW215555   4.281   2.127   2.427  0.0413 -0.1218 -0.0173
 1307SOL     OW15556   4.540   0.919   1.772  0.1971  0.7739 -0.1258
 1307SOL    HW115557   4.603   0.990   1.785 -0.3425  1.1566  0.3745
 1307SOL    HW215558   4.591   0.856   1.822  0.0232 -0.0660 -1.0079
 1308SOL     OW15559   3.402   0.855   1.954  0.4451  0.5032 -0.1491
 1308SOL    HW115560   3.359   0.889   2.032 -3.0092  0.8526 -2.1974
 1308SOL    HW215561   3.440   0.780   1.998 -2.3486  0.1233  1.6346
 1309SOL     OW15562   2.700   2.427   2.399 -0.1486  0.3762 -0.6575
 1309SOL    HW115563   2.751   2.347   2.414  0.4219  0.8991  0.1582
 1309SOL    HW215564   2.695   2.466   2.486  1.2789  0.7866 -0.7556
 1310SOL     OW15565   4.574   2.551   6.470 -0.4722  0.2623 -0.0493
 1310SOL    HW115566   4.637   2.607   6.515  0.2627 -0.6172  0.0301
 1310SOL    HW215567   4.628   2.499   6.409  0.8956  2.2360 -0.5208
 1311SOL     OW15568   2.461   0.765  17.597 -0.0950 -0.1249 -0.0235
 1311SOL    HW115569   2.412   0.785  17.517 -0.9682 -1.6467  0.1331
 1311SOL    HW215570   2.542   0.812  17.576 -0.1113 -0.2432 -0.3617
 1312SOL     OW15571   1.378   1.281   5.442 -0.0910 -0.3378  0.4199
 1312SOL    HW115572   1.341   1.200   5.476 -0.1614  0.1613  1.5613
 1312SOL    HW215573   1.314   1.335   5.490 -1.2529 -1.0276 -0.3663
 1313SOL     OW15574   4.079   1.538  16.014  0.2819 -0.2927  0.4272
 1313SOL    HW115575   4.068   1.632  16.032 -1.9857 -0.3704 -0.4538
 1313SOL    HW215576   4.058   1.529  15.921 -0.0126  1.3007  0.3312
 1314SOL     OW15577   1.021   2.244   6.310 -0.0404  0.4051 -0.5617
 1314SOL    HW115578   1.099   2.245   6.366  0.1852  0.6614 -0.8833
 1314SOL    HW215579   1.040   2.325   6.263  2.4891 -0.0982 -0.4317
 1315SOL     OW15580   2.315   2.798  17.289 -0.0977  0.2794 -0.1209
 1315SOL    HW115581   2.232   2.752  17.275 -0.2442  0.2587  0.8438
 1315SOL    HW215582   2.302   2.864  17.357  0.9748  2.2191 -1.8120
 1316SOL     OW15583   0.960   0.088   5.397 -0.2235  0.1937 -0.2324
 1316SOL    HW115584   1.016   0.012   5.383  0.8016  1.4121 -2.7976
 1316SOL    HW215585   0.969   0.110   5.490  0.7150  4.3091 -1.2627
 1317SOL     OW15586   2.549   1.539   7.360  0.0463 -0.3614 -0.4696
 1317SOL    HW115587   2.603   1.527   7.282  0.0581  0.0018 -0.5165
 1317SOL    HW215588   2.596   1.492   7.429  0.9982  0.3040 -0.6647
 1318SOL     OW15589   2.532   3.974   4.084  0.2754 -0.7845  0.2711
 1318SOL    HW115590   2.563   4.033   4.152  0.4549 -1.2478  0.5872
 1318SOL    HW215591   2.599   3.986   4.017  0.8612 -0.2781  0.9518
 1319SOL     OW15592   2.378   3.741   1.315  0.2891 -0.4558 -0.1194
 1319SOL    HW115593   2.323   3.763   1.240 -0.5489 -0.0296  0.6244
 1319SOL    HW215594   2.451   3.799   1.294  0.0275  0.3274  1.1556
 1320SOL     OW15595   3.728   0.567   8.500 -0.0568  0.0362 -0.4871
 1320SOL    HW115596   3.759   0.608   8.419 -0.7673  0.6270 -0.4644
 1320SOL    HW215597   3.673   0.497   8.466 -1.0370 -0.4857  2.1691
 1321SOL     OW15598   0.168   0.185  11.420  0.2662 -0.0359  0.0107
 1321SOL    HW115599   0.250   0.166  11.466  1.0591  1.2807 -0.8590
 1321SOL    HW215600   0.154   0.274  11.452  0.7226 -0.7361  2.1474
 1322SOL     OW15601   0.023   3.198   7.333 -0.2158  0.3415  0.8340
 1322SOL    HW115602   4.679   3.183   7.382 -3.3027  0.6343 -4.1898
 1322SOL    HW215603   0.005   3.279   7.286  1.0884  0.2706  0.1934
 1323SOL     OW15604   0.298   3.045   5.602  0.2710  0.4703 -0.0204
 1323SOL    HW115605   0.331   3.123   5.647 -2.6196 -0.3441  3.4730
 1323SOL    HW215606   0.255   3.073   5.521  0.9179 -0.5163 -0.7149
 1324SOL     OW15607   2.544   0.912   8.768  0.4172  0.2895 -0.8973
 1324SOL    HW115608   2.581   0.894   8.682  1.2524  0.3885 -0.5528
 1324SOL    HW215609   2.461   0.952   8.741 -0.8515 -1.5412  0.2535
 1325SOL     OW15610   0.782   4.298   8.560 -0.0426  0.1120  0.2155
 1325SOL    HW115611   0.694   4.336   8.567 -0.2308 -0.4996  1.0911
 1325SOL    HW215612   0.772   4.220   8.615  2.6116 -1.9999 -2.3516
 1326SOL     OW15613   0.582   0.750   8.598  0.1034 -0.5212 -0.0285
 1326SOL    HW115614   0.538   0.800   8.667 -1.5794 -0.7491 -0.9327
 1326SOL    HW215615   0.641   0.691   8.645  0.6561  0.1038  0.0578
 1327SOL     OW15616   4.345   2.830   7.421 -0.2242 -0.4468  0.4357
 1327SOL    HW115617   4.306   2.870   7.499 -0.2182 -2.8145  1.6388
 1327SOL    HW215618   4.385   2.910   7.388 -2.1155  0.3148  0.0214
 1328SOL     OW15619   1.390   3.779  12.415  0.4900 -0.2035 -0.6123
 1328SOL    HW115620   1.403   3.872  12.432  0.9694 -0.3465 -0.1724
 1328SOL    HW215621   1.371   3.743  12.502  2.1076 -0.7313 -0.4794
 1329SOL     OW15622   2.526   3.472   6.005  0.0639  0.0510  0.3970
 1329SOL    HW115623   2.524   3.380   6.030  1.1294 -0.4589 -1.3602
 1329SOL    HW215624   2.449   3.472   5.949  1.3174  1.9530 -1.3412
 1330SOL     OW15625   0.725   0.472  17.192  0.3025  0.3793  0.1252
 1330SOL    HW115626   0.746   0.430  17.109  0.2957  1.3336 -0.3628
 1330SOL    HW215627   0.707   0.561  17.161 -0.3362  0.3624  0.4337
 1331SOL     OW15628   3.521   0.026  10.362  0.1130  0.2683 -0.6529
 1331SOL    HW115629   3.433   4.726  10.369  0.4822 -0.6350 -0.8128
 1331SOL    HW215630   3.515   0.096  10.428  2.0389  0.7223 -0.9627
 1332SOL     OW15631   1.388   0.963   8.963 -0.0135 -0.0403  0.7212
 1332SOL    HW115632   1.483   0.954   8.963  0.0617  0.6846 -1.2335
 1332SOL    HW215633   1.368   0.991   9.052 -1.3066  0.0776  0.4005
 1333SOL     OW15634   2.785   3.525   7.036  0.3535 -0.2833  0.0550
 1333SOL    HW115635   2.740   3.493   7.114  1.2121 -3.4749 -0.7437
 1333SOL    HW215636   2.715   3.543   6.975  0.5137  2.3119  0.6429
 1334SOL     OW15637   2.537   0.278   1.357 -0.1955 -0.1015  0.0160
 1334SOL    HW115638   2.567   0.200   1.403  1.2193  0.3106 -0.1902
 1334SOL    HW215639   2.585   0.342   1.411  1.9257 -1.7741  0.1178
 1335SOL     OW15640   0.084   0.015   7.602  0.1305 -0.1568 -0.0735
 1335SOL    HW115641   0.089   0.047   7.512  0.0445 -0.9465 -0.3527
 1335SOL    HW215642   0.043   0.094   7.639  0.6322  0.2058 -0.2839
 1336SOL     OW15643   1.531   1.863   3.859  0.2279  0.0886 -0.2334
 1336SOL    HW115644   1.561   1.773   3.842 -0.5515 -0.1573 -0.3327
 1336SOL    HW215645   1.459   1.852   3.922  0.1814  2.9640  0.1916
 1337SOL     OW15646   0.804   0.454  12.062 -0.1277 -0.1163  0.6041
 1337SOL    HW115647   0.877   0.516  12.066 -0.3391  0.3170 -2.1611
 1337SOL    HW215648   0.737   0.521  12.078  1.2821  1.3654  0.3406
 1338SOL     OW15649   2.962   0.018   5.494  0.6376  0.3505  0.1956
 1338SOL    HW115650   2.960   4.724   5.585  0.7827 -0.8851 -0.2153
 1338SOL    HW215651   3.002   4.684   5.443 -1.6064 -0.5699 -0.3143
 1339SOL     OW15652   3.847   0.095   9.478 -0.0745  0.3025  0.5341
 1339SOL    HW115653   3.772   0.036   9.469 -0.5109  0.8029  0.8831
 1339SOL    HW215654   3.877   0.071   9.566 -0.0176 -0.1116  0.4037
 1340SOL     OW15655   2.698   0.617   8.530 -0.1492  0.2485 -0.5744
 1340SOL    HW115656   2.764   0.608   8.461  1.0632 -0.3797  0.6819
 1340SOL    HW215657   2.680   0.525   8.549 -1.6373 -0.0620 -3.5351
 1341SOL     OW15658   3.992   0.532   3.258 -0.1756 -0.1703 -0.1300
 1341SOL    HW115659   3.981   0.458   3.318 -4.9107 -1.7788 -2.9928
 1341SOL    HW215660   4.073   0.571   3.292 -0.5129 -0.1084  0.6033
 1342SOL     OW15661   1.256   3.219   6.816 -0.1742  0.3698 -0.8591
 1342SOL    HW115662   1.198   3.269   6.759 -0.9121 -1.1717 -1.4693
 1342SOL    HW215663   1.325   3.194   6.755  1.3810  1.8623  0.2900
 1343SOL     OW15664   0.263   2.968   8.671  0.0971 -0.8298  0.3878
 1343SOL    HW115665   0.216   2.913   8.734 -1.2727 -0.6982 -0.5254
 1343SOL    HW215666   0.317   3.009   8.739 -1.1840  1.1590  0.1723
 1344SOL     OW15667   1.648   0.318  16.200 -0.6763  0.4943 -0.1027
 1344SOL    HW115668   1.731   0.353  16.231 -1.7778  1.7798  1.3895
 1344SOL    HW215669   1.599   0.304  16.280 -0.3170 -1.3746 -0.2218
 1345SOL     OW15670   0.581   2.803   9.847 -0.6011  0.4663  0.5078
 1345SOL    HW115671   0.554   2.866   9.913 -2.0832  1.1768 -0.7877
 1345SOL    HW215672   0.651   2.760   9.898 -0.2164 -0.1498 -0.5367
 1346SOL     OW15673   0.508   3.748   9.570 -0.1421  0.0577  0.3218
 1346SOL    HW115674   0.575   3.784   9.629 -0.9447  0.9666  0.6848
 1346SOL    HW215675   0.443   3.819   9.566 -1.8075 -1.5335 -0.6968
 1347SOL     OW15676   0.187   3.526   6.799 -0.6412 -0.3848 -0.2857
 1347SOL    HW115677   0.202   3.613   6.836  1.3172 -0.5228 -0.7873
 1347SOL    HW215678   0.091   3.526   6.807 -0.6001 -1.1840  0.2240
 1348SOL     OW15679   0.039   0.076   2.963 -0.2733  0.3031  0.0365
 1348SOL    HW115680   0.005   0.001   3.012 -1.0924  0.0672 -0.8838
 1348SOL    HW215681   0.130   0.049   2.955 -0.4883 -0.4506  0.1292
 1349SOL     OW15682   0.152   0.976   7.775 -0.7823 -0.1557  0.4357
 1349SOL    HW115683   0.125   0.894   7.816 -1.4800  0.6450  1.5743
 1349SOL    HW215684   0.122   1.038   7.841 -0.2994 -1.6577  2.0566
 1350SOL     OW15685   4.482   3.340   1.213  0.1771  0.5801 -0.1846
 1350SOL    HW115686   4.516   3.328   1.125 -1.0603  2.6299 -0.9487
 1350SOL    HW215687   4.400   3.387   1.201 -1.1201 -2.2414 -2.2994
 1351SOL     OW15688   1.115   2.056   7.219 -0.5070  0.2327  0.3300
 1351SOL    HW115689   1.106   1.991   7.290  0.4441  0.0412  0.2759
 1351SOL    HW215690   1.051   2.029   7.154 -0.9900 -0.2829  1.0095
 1352SOL     OW15691   4.671   4.104   3.675  0.1984 -0.2098  0.0246
 1352SOL    HW115692   4.685   4.036   3.741  0.4716 -2.1771 -2.0577
 1352SOL    HW215693   4.586   4.071   3.645  1.7151 -1.7693 -2.6207
 1353SOL     OW15694   0.402   2.198   8.329 -0.1011 -0.1025  0.1507
 1353SOL    HW115695   0.331   2.238   8.279 -1.5028 -3.3710 -0.5126
 1353SOL    HW215696   0.471   2.195   8.261 -0.5833 -0.1867 -0.3350
 1354SOL     OW15697   2.480   2.401  15.180 -0.0406 -0.3064 -0.1541
 1354SOL    HW115698   2.549   2.466  15.169 -1.7900  1.3812 -1.1650
 1354SOL    HW215699   2.446   2.374  15.095 -1.6053  1.4032 -0.0647
 1355SOL     OW15700   2.414   1.955  16.328 -0.0183  0.8001  0.1517
 1355SOL    HW115701   2.358   1.922  16.258  1.9588 -2.3640  0.0930
 1355SOL    HW215702   2.377   2.042  16.343 -0.7837  0.8190 -1.9121
 1356SOL     OW15703   3.466   3.007  12.241 -0.4493 -0.5618  0.2237
 1356SOL    HW115704   3.453   3.009  12.146  3.7758 -2.7201 -0.4269
 1356SOL    HW215705   3.459   2.913  12.260  0.3244 -0.1568  2.4783
 1357SOL     OW15706   3.292   1.697  11.172 -0.0429  0.3745 -0.3635
 1357SOL    HW115707   3.364   1.635  11.178 -1.0813 -0.5642  2.5374
 1357SOL    HW215708   3.339   1.778  11.194  0.0878 -0.3444  1.9942
 1358SOL     OW15709   3.818   2.262   4.034  0.7105  0.2415 -0.7778
 1358SOL    HW115710   3.744   2.320   4.051 -0.1935 -1.1342  0.0401
 1358SOL    HW215711   3.892   2.321   4.047  2.4067 -2.3234  1.2041
 1359SOL     OW15712   1.348   0.765   5.648  0.2184 -0.1356 -0.5121
 1359SOL    HW115713   1.299   0.749   5.567 -1.1243  0.0499  0.2707
 1359SOL    HW215714   1.288   0.720   5.708 -0.2005  2.5562  1.0471
 1360SOL     OW15715   3.526   0.405   6.831  0.2141  0.2283 -0.5921
 1360SOL    HW115716   3.443   0.445   6.857  0.3022  0.5583 -0.8279
 1360SOL    HW215717   3.519   0.320   6.875  1.7359 -0.3246 -1.4056
 1361SOL     OW15718   4.600   2.212   2.890  0.1830 -0.4979 -0.4790
 1361SOL    HW115719   4.592   2.125   2.851  2.9162 -0.7706 -0.4075
 1361SOL    HW215720   4.681   2.253   2.861 -0.8079  1.9886  0.2881
 1362SOL     OW15721   0.463   3.851   4.648 -0.2522  0.1294  0.0623
 1362SOL    HW115722   0.441   3.894   4.731  0.4865  0.2486  0.2020
 1362SOL    HW215723   0.515   3.776   4.676 -0.7671 -0.4020 -0.4365
 1363SOL     OW15724   3.974   3.942   3.036  0.3554 -0.0513  0.0678
 1363SOL    HW115725   3.895   3.992   3.058  1.5579  1.7541  0.2477
 1363SOL    HW215726   3.960   3.931   2.942  1.2803  0.8660 -0.1721
 1364SOL     OW15727   0.746   3.898   7.160  0.0984 -0.1125 -0.2384
 1364SOL    HW115728   0.670   3.948   7.190 -2.2720 -2.7785 -1.8525
 1364SOL    HW215729   0.717   3.859   7.078 -1.1991 -0.1642  0.2397
 1365SOL     OW15730   3.017   3.323   4.663  0.5643  0.3905 -0.8355
 1365SOL    HW115731   2.932   3.318   4.620 -0.1637  0.1937  0.6138
 1365SOL    HW215732   2.991   3.315   4.755  0.9297 -0.9482 -0.8416
 1366SOL     OW15733   3.499   1.534  11.198  0.0202 -0.4889  0.1055
 1366SOL    HW115734   3.514   1.491  11.282  1.6164  2.8896  1.5479
 1366SOL    HW215735   3.496   1.456  11.141  0.1934 -1.1115  0.9517
 1367SOL     OW15736   2.023   0.124   2.998 -0.0864 -0.1442 -0.3799
 1367SOL    HW115737   1.966   0.123   2.921 -0.5333  0.6882 -0.0530
 1367SOL    HW215738   2.086   0.189   2.969 -2.0880  1.8531 -0.2870
 1368SOL     OW15739   4.179   4.321   2.995  0.2763  0.4620  0.1403
 1368SOL    HW115740   4.150   4.242   3.041 -0.0082  0.5209  0.0601
 1368SOL    HW215741   4.103   4.378   3.006 -0.2487 -0.1893 -0.1377
 1369SOL     OW15742   1.861   2.343  12.368  0.0084 -0.4361  0.0066
 1369SOL    HW115743   1.899   2.260  12.398  0.8128 -0.6575 -1.6345
 1369SOL    HW215744   1.868   2.387  12.453 -1.3251 -2.6124  1.2580
 1370SOL     OW15745   0.015   1.483   0.923  0.6054 -0.3603 -0.5332
 1370SOL    HW115746   0.005   1.388   0.935  0.2591 -0.0988  1.3297
 1370SOL    HW215747   4.690   1.499   0.852 -0.2435  1.2751  0.5569
 1371SOL     OW15748   0.315   3.662  11.917 -0.0953 -0.1403  0.1476
 1371SOL    HW115749   0.280   3.602  11.983 -0.4394 -0.6882 -0.5339
 1371SOL    HW215750   0.234   3.699  11.882 -0.8985 -1.5746  0.4835
 1372SOL     OW15751   2.670   2.073   5.081  0.2606  0.0334  0.6146
 1372SOL    HW115752   2.578   2.048   5.080  0.9255 -2.2528 -2.4465
 1372SOL    HW215753   2.709   1.997   5.038 -0.7501 -1.0612  1.6093
 1373SOL     OW15754   4.608   0.771  14.905 -0.0341  0.0220  0.5248
 1373SOL    HW115755   4.561   0.845  14.867  0.1743  0.3612  0.9297
 1373SOL    HW215756   4.647   0.739  14.824 -0.2774 -2.5927  1.4451
 1374SOL     OW15757   1.522   0.501   3.375 -0.6212  0.0139  0.0467
 1374SOL    HW115758   1.469   0.486   3.453 -2.2099 -0.3294 -1.1062
 1374SOL    HW215759   1.594   0.556   3.406 -0.2237 -1.6070  1.9844
 1375SOL     OW15760   1.028   1.476   9.919 -0.2973  0.1678 -0.1075
 1375SOL    HW115761   1.059   1.471   9.829 -0.4542  1.7492 -0.2423
 1375SOL    HW215762   1.000   1.567   9.918 -0.2361  0.1954  0.4867
 1376SOL     OW15763   1.128   1.019   8.498 -0.3278  0.3752  0.1543
 1376SOL    HW115764   1.223   1.008   8.500 -0.6203 -1.8062  2.8494
 1376SOL    HW215765   1.100   1.017   8.590 -2.9260 -0.4131 -0.6613
 1377SOL     OW15766   1.005   0.525   6.957 -0.4471  0.0563 -0.1979
 1377SOL    HW115767   0.967   0.442   6.987  0.0219  0.7646  2.3393
 1377SOL    HW215768   1.097   0.504   6.940 -0.3748 -0.3166  0.6270
 1378SOL     OW15769   2.867   1.132   6.000 -0.0004 -0.3175  0.1582
 1378SOL    HW115770   2.890   1.045   6.033 -0.4372 -1.1269 -1.6917
 1378SOL    HW215771   2.894   1.195   6.067 -0.2149 -2.3143  2.1294
 1379SOL     OW15772   4.092   3.149   0.013  0.4205  0.1893 -0.1359
 1379SOL    HW115773   4.181   3.114   0.023 -0.3205 -1.0644  2.0782
 1379SOL    HW215774   4.033   3.078   0.038 -1.6291  0.6915 -3.5446
 1380SOL     OW15775   4.579   0.868   7.738  0.6091  0.6797 -0.4302
 1380SOL    HW115776   4.665   0.826   7.738 -1.3862 -3.3874  0.1953
 1380SOL    HW215777   4.523   0.822   7.801  2.2642 -0.9203 -0.1174
 1381SOL     OW15778   3.828   0.254   7.933 -0.2957  0.2799  0.0619
 1381SOL    HW115779   3.784   0.336   7.909  0.6580  0.8510  0.2491
 1381SOL    HW215780   3.857   0.268   8.023  0.6245  2.1076 -0.5004
 1382SOL     OW15781   0.310   3.344  15.439  0.0343 -0.0382 -0.3302
 1382SOL    HW115782   0.221   3.313  15.453  0.1710 -0.0589  0.5154
 1382SOL    HW215783   0.377   3.290  15.479  0.3790  1.4409  1.0927
 1383SOL     OW15784   0.024   3.329  14.713  1.4027 -0.5877  0.0506
 1383SOL    HW115785   4.696   3.263  14.738  0.0846  0.4560 -0.5745
 1383SOL    HW215786   0.054   3.347  14.802  2.1507 -0.6293 -0.1959
 1384SOL     OW15787   1.060   2.237   5.239 -0.0686  0.2884 -0.3394
 1384SOL    HW115788   1.017   2.316   5.208 -2.5638 -0.8447  0.1832
 1384SOL    HW215789   1.147   2.249   5.202  0.4257  1.1591  1.1008
 1385SOL     OW15790   4.618   2.034   4.639 -0.0770  0.9331 -0.4683
 1385SOL    HW115791   4.562   2.037   4.717  2.2281  1.7157  1.1829
 1385SOL    HW215792   4.656   2.122   4.644  1.6595  0.1438  0.3719
 1386SOL     OW15793   2.340   4.150   8.486 -0.3222 -0.2936  0.2878
 1386SOL    HW115794   2.256   4.159   8.531 -1.4316  0.6061 -1.9725
 1386SOL    HW215795   2.308   4.106   8.407  0.9350 -0.7599  0.0406
 1387SOL     OW15796   0.773   0.733   7.437  0.2039  0.2183 -0.1980
 1387SOL    HW115797   0.788   0.825   7.416  0.5081  0.0532 -0.7088
 1387SOL    HW215798   0.791   0.695   7.351  1.4155 -0.1375  0.2118
 1388SOL     OW15799   1.132   0.226   2.801  0.3810  0.1092 -0.4580
 1388SOL    HW115800   1.178   0.285   2.860 -0.1902  0.1498 -0.0526
 1388SOL    HW215801   1.042   0.242   2.827  0.3195 -1.2568  0.1759
 1389SOL     OW15802   4.115   1.612   3.292 -0.3193  0.3186  0.1431
 1389SOL    HW115803   4.143   1.653   3.210  0.7711 -1.1919 -0.2423
 1389SOL    HW215804   4.037   1.663   3.312  0.2686  0.6150  1.6708
 1390SOL     OW15805   4.015   3.356   7.772 -0.4429 -0.2660  0.3573
 1390SOL    HW115806   3.990   3.283   7.830 -1.6685 -0.8478 -0.9003
 1390SOL    HW215807   4.046   3.424   7.832  1.7863 -0.2404 -0.8421
 1391SOL     OW15808   2.373   4.416   7.219 -0.4578 -0.3520 -0.3049
 1391SOL    HW115809   2.367   4.330   7.261  0.7154 -0.1850  0.1903
 1391SOL    HW215810   2.378   4.477   7.292 -3.7765  0.7526 -0.9764
 1392SOL     OW15811   0.607   3.789   2.668 -0.3955  0.1889  0.2563
 1392SOL    HW115812   0.661   3.851   2.717 -2.6854  2.5028 -0.1445
 1392SOL    HW215813   0.580   3.850   2.600  0.5933 -0.0398 -0.3424
 1393SOL     OW15814   4.117   2.075  15.156  0.7057 -0.7690  0.0187
 1393SOL    HW115815   4.123   2.105  15.065 -0.9741 -0.7146 -0.0645
 1393SOL    HW215816   4.204   2.103  15.185  0.1781  0.8786 -0.0290
 1394SOL     OW15817   1.538   2.271   4.897  0.0195 -0.8620 -0.4089
 1394SOL    HW115818   1.595   2.343   4.869 -1.8069  0.3077 -1.1719
 1394SOL    HW215819   1.514   2.302   4.984 -2.0889 -1.1380 -0.8959
 1395SOL     OW15820   4.653   3.765  13.443 -0.3121 -0.2704  0.5128
 1395SOL    HW115821   4.661   3.691  13.383  0.1680 -0.5218  0.8856
 1395SOL    HW215822   4.718   3.825  13.408  1.9866 -2.8868  0.3055
 1396SOL     OW15823   0.597   4.370   6.956 -0.2711 -0.0280  0.4803
 1396SOL    HW115824   0.593   4.323   7.039  0.3556 -0.1051  0.4621
 1396SOL    HW215825   0.623   4.299   6.897 -0.7018  2.0841 -2.2747
 1397SOL     OW15826   0.699   1.104   1.955 -0.6979 -0.0973  0.5144
 1397SOL    HW115827   0.785   1.062   1.945 -0.9125 -0.1794 -1.0291
 1397SOL    HW215828   0.705   1.156   1.874  0.7694 -1.4372 -0.2419
 1398SOL     OW15829   2.741   0.511   4.759  0.0576  0.1754  0.2626
 1398SOL    HW115830   2.784   0.556   4.686  0.4992 -2.4842 -1.1280
 1398SOL    HW215831   2.684   0.583   4.783 -0.4864  0.0942 -0.7941
 1399SOL     OW15832   3.370   4.646   2.408 -0.1197  0.3245  0.4563
 1399SOL    HW115833   3.444   4.694   2.447 -0.5809 -0.1100  1.8758
 1399SOL    HW215834   3.412   4.623   2.326 -0.9195 -0.3934  0.2502
 1400SOL     OW15835   0.269   3.138   8.475  0.3463  0.4003  0.1559
 1400SOL    HW115836   0.246   3.079   8.547  0.2373 -0.1394 -0.3114
 1400SOL    HW215837   0.352   3.101   8.444  0.2091  1.4480 -1.4340
 1401SOL     OW15838   1.448   0.118   5.842 -0.3207  0.1417 -0.1332
 1401SOL    HW115839   1.446   0.032   5.884  1.3159 -0.8603 -2.1344
 1401SOL    HW215840   1.467   0.173   5.918  2.0713 -2.7890  1.3749
 1402SOL     OW15841   3.007   2.537   2.780 -0.7040  0.0607 -0.1343
 1402SOL    HW115842   2.928   2.506   2.824 -0.6833  1.6501  1.0249
 1402SOL    HW215843   2.991   2.629   2.757 -2.5775 -0.7564 -2.0699
 1403SOL     OW15844   3.035   1.299   1.360 -0.6193  0.6559  0.2523
 1403SOL    HW115845   3.004   1.385   1.331 -0.4227  0.5724 -0.1965
 1403SOL    HW215846   3.033   1.247   1.280  1.9138  1.6246 -0.4443
 1404SOL     OW15847   0.150   0.280   3.692  0.5877  0.2252  0.5378
 1404SOL    HW115848   0.137   0.266   3.786  3.2941  1.2178  1.0537
 1404SOL    HW215849   0.082   0.343   3.666 -0.4741 -0.8097  0.8041
 1405SOL     OW15850   2.960   3.879   2.924  0.4722 -1.1209 -0.0319
 1405SOL    HW115851   2.991   3.968   2.908 -0.5495 -0.6272  0.7582
 1405SOL    HW215852   2.917   3.859   2.841 -2.5307  2.8887  0.5543
 1406SOL     OW15853   4.588   4.685  17.141  0.6187  0.3185  0.0855
 1406SOL    HW115854   4.529   0.015  17.105 -1.8167 -1.8702  0.0671
 1406SOL    HW215855   4.617   4.630  17.068  2.6986  0.6027  0.7052
 1407SOL     OW15856   2.284   0.203   2.620 -0.1567  0.1309 -0.0175
 1407SOL    HW115857   2.278   0.122   2.571  1.5024 -0.5341  0.8479
 1407SOL    HW215858   2.310   0.266   2.553  0.6151  1.1295  1.1913
 1408SOL     OW15859   1.293   2.542   8.639  0.2391 -0.3339  0.4882
 1408SOL    HW115860   1.278   2.585   8.723 -1.0359  0.2837 -0.0627
 1408SOL    HW215861   1.214   2.563   8.589  0.4033  1.8515  1.1638
 1409SOL     OW15862   3.912   0.173   7.033 -0.6709 -0.6348  0.3216
 1409SOL    HW115863   3.837   0.114   7.043  0.6288 -2.3950 -0.3786
 1409SOL    HW215864   3.937   0.133   6.950 -1.8813  0.7438 -0.7107
 1410SOL     OW15865   3.474   0.127   3.982 -0.6085 -0.2481  0.6210
 1410SOL    HW115866   3.435   0.167   3.904  0.7903  1.3127  0.7352
 1410SOL    HW215867   3.463   0.034   3.959 -2.1168 -0.3072  1.5519
 1411SOL     OW15868   2.365   1.103   3.039  0.1352  0.7579 -0.0473
 1411SOL    HW115869   2.350   1.036   3.106 -0.5638  2.6146  1.6417
 1411SOL    HW215870   2.299   1.084   2.973  1.7278 -1.9194 -0.8571
 1412SOL     OW15871   1.097   0.057  12.480 -0.1939  0.4300  0.4447
 1412SOL    HW115872   1.040   0.132  12.462 -1.0193 -0.0469  1.0412
 1412SOL    HW215873   1.032   4.723  12.468 -0.5276  0.7531  0.3581
 1413SOL     OW15874   2.138   2.325   6.899  0.5022  0.6142  0.2664
 1413SOL    HW115875   2.204   2.355   6.836  1.8529 -1.2053  0.8111
 1413SOL    HW215876   2.065   2.338   6.839 -1.0759 -0.7780  1.8890
 1414SOL     OW15877   1.554   1.644  15.095 -0.2460 -0.2810  0.5328
 1414SOL    HW115878   1.561   1.550  15.076 -2.1706 -0.3979  0.3779
 1414SOL    HW215879   1.645   1.663  15.119 -0.5165  1.3733  0.2167
 1415SOL     OW15880   2.733   2.082   5.786  0.3079 -0.1159  0.3534
 1415SOL    HW115881   2.752   1.989   5.784  1.1242  0.0365  0.7703
 1415SOL    HW215882   2.748   2.106   5.694  4.9981 -0.6816  0.9667
 1416SOL     OW15883   1.858   0.519   1.716  0.2155 -0.1024  0.2960
 1416SOL    HW115884   1.776   0.491   1.756  0.0746  0.0245  0.0929
 1416SOL    HW215885   1.875   0.454   1.647 -2.0596 -0.2247 -0.1388
 1417SOL     OW15886   3.765   0.983   9.411 -0.0953  0.2383  0.4597
 1417SOL    HW115887   3.805   0.958   9.494  0.3419  1.8907  0.7520
 1417SOL    HW215888   3.766   1.079   9.405 -0.7522  0.3684  2.2238
 1418SOL     OW15889   1.745   3.213   2.841  0.0501  0.1880 -0.4496
 1418SOL    HW115890   1.840   3.217   2.837 -0.1039  2.5177 -2.0133
 1418SOL    HW215891   1.738   3.142   2.904  2.1517  1.5173  1.2413
 1419SOL     OW15892   2.352   1.063  14.116  0.0957  0.1091 -0.3098
 1419SOL    HW115893   2.257   1.060  14.124  0.2436 -1.4035  0.8185
 1419SOL    HW215894   2.361   1.151  14.080  2.3274 -0.1488 -0.3846
 1420SOL     OW15895   4.570   1.215  14.344 -0.0904  0.2172 -0.9286
 1420SOL    HW115896   4.666   1.211  14.337 -0.0297 -1.6125  1.1014
 1420SOL    HW215897   4.543   1.196  14.255  0.5522 -0.9724 -0.8709
 1421SOL     OW15898   2.461   2.599   3.280 -0.3595 -0.4216 -0.0832
 1421SOL    HW115899   2.535   2.541   3.266 -0.0250 -0.7666  2.9695
 1421SOL    HW215900   2.434   2.630   3.194 -0.8612  0.2721  0.3183
 1422SOL     OW15901   3.322   3.446  16.969 -0.2978 -0.2681  0.9757
 1422SOL    HW115902   3.298   3.450  16.876 -0.6801  0.4851  1.1083
 1422SOL    HW215903   3.369   3.362  16.972 -0.6627 -0.5051  0.0649
 1423SOL     OW15904   0.814   2.023  11.603  0.2601 -0.3966  0.1563
 1423SOL    HW115905   0.867   1.944  11.596 -0.7466 -1.0543 -0.0911
 1423SOL    HW215906   0.843   2.046  11.691  0.4325 -3.3117  0.8810
 1424SOL     OW15907   0.511   4.535   8.018 -0.3153  1.2278 -0.4108
 1424SOL    HW115908   0.540   4.445   8.002  0.2646  1.3791 -0.2126
 1424SOL    HW215909   0.557   4.583   7.949  1.1747  1.1207  0.4874
 1425SOL     OW15910   3.749   2.232   3.771 -0.6959 -0.0985 -0.1467
 1425SOL    HW115911   3.801   2.302   3.731 -0.1586  0.8568  2.2091
 1425SOL    HW215912   3.781   2.226   3.861  0.3325 -0.9964 -0.5709
 1426SOL     OW15913   1.090   1.396  16.973 -0.2379  0.9290 -0.4848
 1426SOL    HW115914   1.003   1.378  16.936  0.0818 -0.2766 -0.6384
 1426SOL    HW215915   1.154   1.354  16.916 -1.0023  1.9607 -2.0968
 1427SOL     OW15916   4.599   4.163  16.452  0.2959  0.3406  0.2521
 1427SOL    HW115917   4.571   4.143  16.542 -0.9264  1.3443  0.0807
 1427SOL    HW215918   4.542   4.239  16.446 -0.2473  0.1192  2.3531
 1428SOL     OW15919   2.063   4.198   5.580 -1.0323  0.1676 -0.1292
 1428SOL    HW115920   1.994   4.136   5.557 -3.2950  1.3318  3.5341
 1428SOL    HW215921   2.018   4.280   5.601  1.8542  2.5024 -3.1853
 1429SOL     OW15922   4.571   4.340   7.573  0.4653 -0.4598 -0.0300
 1429SOL    HW115923   4.620   4.268   7.611 -2.5439 -1.7267  1.4595
 1429SOL    HW215924   4.632   4.404   7.537  1.5254 -1.4277  0.0746
 1430SOL     OW15925   3.559   0.198  15.763 -0.2501  1.0242  0.6258
 1430SOL    HW115926   3.522   0.221  15.678  2.1584 -4.3016 -1.8830
 1430SOL    HW215927   3.632   0.138  15.749 -0.2831  0.6268  2.1842
 1431SOL     OW15928   2.653   0.132  10.863 -0.1708 -0.2527  0.0508
 1431SOL    HW115929   2.714   0.099  10.797  0.2911 -1.3648  1.0402
 1431SOL    HW215930   2.580   0.070  10.854 -1.0446  0.4653  2.3625
 1432SOL     OW15931   2.077   2.168   6.588 -0.3633 -0.4041 -0.1639
 1432SOL    HW115932   2.067   2.080   6.550  0.7381  0.2298 -1.9613
 1432SOL    HW215933   2.168   2.190   6.566 -0.3322  1.9166  2.2640
 1433SOL     OW15934   0.420   2.860   5.282  0.1834 -0.2229 -0.0900
 1433SOL    HW115935   0.335   2.857   5.327 -0.4223 -0.0052 -1.2158
 1433SOL    HW215936   0.450   2.770   5.291  0.0242  0.1039  3.6121
 1434SOL     OW15937   2.456   0.887   4.561  0.2750  0.5073 -0.0176
 1434SOL    HW115938   2.371   0.930   4.567  0.4244  0.8467 -0.4114
 1434SOL    HW215939   2.439   0.840   4.479 -0.8782 -0.7341  0.9120
 1435SOL     OW15940   4.092   1.164   4.791  0.5913 -0.4353 -0.3944
 1435SOL    HW115941   4.177   1.155   4.749  0.1443  1.5734 -1.7020
 1435SOL    HW215942   4.107   1.243   4.842 -4.0780 -1.3206  2.3267
 1436SOL     OW15943   0.199   0.445   2.943  0.2836  0.5774 -0.4033
 1436SOL    HW115944   0.215   0.523   2.891 -0.8470  0.9494 -0.1959
 1436SOL    HW215945   0.234   0.375   2.887  0.8221 -0.9867  1.8863
 1437SOL     OW15946   0.124   2.466  13.516  0.0258  0.3302  0.3990
 1437SOL    HW115947   0.055   2.468  13.450 -0.9927  2.6087  1.5502
 1437SOL    HW215948   0.202   2.483  13.462 -0.7503 -1.4144 -1.2877
 1438SOL     OW15949   4.275   1.200   2.270  0.1846 -0.2478 -0.5072
 1438SOL    HW115950   4.240   1.210   2.359  1.5241 -1.2774  0.1350
 1438SOL    HW215951   4.252   1.107   2.260  0.6543 -0.2356 -1.6007
 1439SOL     OW15952   0.986   4.525   6.810  0.2623  0.6094  0.5427
 1439SOL    HW115953   1.064   4.576   6.787 -0.1172  1.5770  1.4124
 1439SOL    HW215954   0.967   4.554   6.899  2.7525  3.1256  0.2577
 1440SOL     OW15955   2.112   1.524   0.624  0.4840  0.3483 -0.7781
 1440SOL    HW115956   2.022   1.541   0.650  0.4031 -1.9849  0.5398
 1440SOL    HW215957   2.146   1.516   0.713 -0.9752 -1.1995 -0.3540
 1441SOL     OW15958   2.212   0.734  10.792  0.4509 -0.0271  0.2181
 1441SOL    HW115959   2.260   0.741  10.709  1.3103 -1.2903  0.6089
 1441SOL    HW215960   2.128   0.704  10.759  0.4904  0.6629 -0.5091
 1442SOL     OW15961   2.330   0.682   0.108  0.1153 -0.0418  0.0405
 1442SOL    HW115962   2.256   0.675   0.048  0.1969  2.0990 -0.2768
 1442SOL    HW215963   2.391   0.724   0.048 -0.4118  1.2506  0.4090
 1443SOL     OW15964   3.958   0.368   8.210  0.0069 -0.3328 -0.3574
 1443SOL    HW115965   4.018   0.360   8.284 -0.1030 -0.0612 -0.2380
 1443SOL    HW215966   3.906   0.288   8.215 -2.0304  1.0626  0.7042
 1444SOL     OW15967   0.391   3.405   5.938  0.0806  0.1880  0.1027
 1444SOL    HW115968   0.402   3.430   6.030 -1.4450 -1.1160  0.6445
 1444SOL    HW215969   0.309   3.355   5.940  0.9058 -1.3111 -2.9322
 1445SOL     OW15970   3.184   4.348   3.317 -0.2472 -0.0572 -0.0034
 1445SOL    HW115971   3.199   4.368   3.224 -3.3606  0.6715 -0.3415
 1445SOL    HW215972   3.109   4.406   3.325  1.1485  1.8723 -0.7281
 1446SOL     OW15973   4.724   0.357   8.557  0.9111  0.3313 -0.0988
 1446SOL    HW115974   4.642   0.391   8.593 -0.3659 -2.0176 -0.7793
 1446SOL    HW215975   4.700   0.362   8.464 -1.0135  2.0540  0.4773
 1447SOL     OW15976   0.460   3.903   2.404 -0.4266  0.0477 -0.1950
 1447SOL    HW115977   0.494   3.981   2.447 -1.9792 -0.3799  1.7863
 1447SOL    HW215978   0.470   3.926   2.312 -2.0771  1.7781  0.0629
 1448SOL     OW15979   1.656   2.936   6.904 -0.2780  0.1265  0.3417
 1448SOL    HW115980   1.615   2.902   6.984 -1.0015 -2.2543 -1.0310
 1448SOL    HW215981   1.718   2.863   6.893 -1.7970 -1.2392  0.7249
 1449SOL     OW15982   0.057   0.727   7.514  0.8393 -0.5013  0.1270
 1449SOL    HW115983   0.097   0.686   7.591  2.5590 -2.7993 -2.0079
 1449SOL    HW215984   0.118   0.800   7.505  0.1227  0.0161 -0.5210
 1450SOL     OW15985   0.166   3.877   3.688 -0.1204 -0.1931 -0.0681
 1450SOL    HW115986   0.087   3.825   3.701 -0.7576  0.5391 -1.0554
 1450SOL    HW215987   0.234   3.809   3.686  0.1350  0.0281  1.0491
 1451SOL     OW15988   3.205   3.942  15.795 -0.2198  0.0385  0.2264
 1451SOL    HW115989   3.267   3.871  15.807 -0.1753 -0.0230 -0.3472
 1451SOL    HW215990   3.236   4.006  15.859 -0.6539  0.2103  0.2679
 1452SOL     OW15991   3.056   1.563   0.190 -0.0617 -0.1269  0.0544
 1452SOL    HW115992   3.058   1.597   0.101 -0.4830 -0.0035  0.0930
 1452SOL    HW215993   2.980   1.610   0.226  1.4743  1.7205  0.9247
 1453SOL     OW15994   1.860   1.402   5.316  0.2885 -0.0487 -0.3510
 1453SOL    HW115995   1.815   1.385   5.234 -2.3174  2.5423  0.5493
 1453SOL    HW215996   1.913   1.323   5.325  1.0278  0.3388 -1.3792
 1454SOL     OW15997   0.913   2.002   8.988  0.3796 -0.3757 -0.3852
 1454SOL    HW115998   0.860   2.067   9.034  1.2308 -0.9947  1.4712
 1454SOL    HW215999   0.988   1.985   9.043  0.7970  2.8581  0.0434
 1455SOL     OW16000   3.755   2.836  16.122 -0.3989 -0.6488 -0.2484
 1455SOL    HW116001   3.794   2.750  16.138 -1.2530 -0.7946  0.9513
 1455SOL    HW216002   3.833   2.891  16.108  0.1391 -1.3495 -0.0055
 1456SOL     OW16003   2.481   2.645  14.661 -0.4152 -0.3931  0.5309
 1456SOL    HW116004   2.541   2.583  14.702 -0.7785 -1.1277 -0.0263
 1456SOL    HW216005   2.482   2.607  14.573 -2.2335  0.3675  0.1730
 1457SOL     OW16006   3.457   1.459   3.287  0.0232  0.5581 -0.2387
 1457SOL    HW116007   3.540   1.494   3.257  0.0712 -1.1182 -2.0790
 1457SOL    HW216008   3.426   1.522   3.352  1.7090 -1.4028  2.4556
 1458SOL     OW16009   3.530   2.076   6.667  0.1013  0.1130 -0.0231
 1458SOL    HW116010   3.541   2.006   6.603 -2.3167  1.0581 -1.4631
 1458SOL    HW216011   3.616   2.120   6.673 -0.9210  2.2278 -0.8243
 1459SOL     OW16012   1.579   3.652  10.982  0.1194 -0.6909 -0.3234
 1459SOL    HW116013   1.595   3.747  10.981 -0.5594 -0.5859 -0.7328
 1459SOL    HW216014   1.545   3.643  11.071 -1.1688  1.5103 -0.5699
 1460SOL     OW16015   1.256   3.432   2.941 -0.4319  1.0564  0.0244
 1460SOL    HW116016   1.213   3.372   3.002  0.0720 -0.7205 -1.3848
 1460SOL    HW216017   1.265   3.368   2.871 -0.8481  1.0802 -0.0455
 1461SOL     OW16018   1.203   1.316  13.126  0.5961 -0.0595  0.2581
 1461SOL    HW116019   1.126   1.368  13.102  0.3624 -0.2145  0.6624
 1461SOL    HW216020   1.173   1.225  13.120 -2.7863  1.2175 -1.9933
 1462SOL     OW16021   0.742   0.203   2.291 -0.0520  0.1722 -0.1398
 1462SOL    HW116022   0.662   0.248   2.262 -0.2008 -0.3322 -0.5139
 1462SOL    HW216023   0.802   0.249   2.232  0.5032 -0.1795  0.1595
 1463SOL     OW16024   3.740   3.933   6.438 -0.1106  0.1084  0.5156
 1463SOL    HW116025   3.800   3.859   6.445  0.8145  0.7531 -0.7494
 1463SOL    HW216026   3.739   3.956   6.531  1.0999  0.2827  0.4762
 1464SOL     OW16027   4.587   4.479   6.658  0.1435 -0.3868 -0.0346
 1464SOL    HW116028   4.591   4.398   6.607 -1.5802 -1.1549  1.0476
 1464SOL    HW216029   4.677   4.476   6.690  0.8885 -2.9487 -2.3160
 1465SOL     OW16030   0.717   0.734  15.729  0.0934  0.4115  0.1928
 1465SOL    HW116031   0.636   0.684  15.730 -0.3885  1.2502  2.0802
 1465SOL    HW216032   0.733   0.734  15.634 -0.7892  1.2111  0.0435
 1466SOL     OW16033   4.265   0.821   5.148  0.0129  0.1278  0.4396
 1466SOL    HW116034   4.173   0.807   5.124  0.2569 -0.9055  0.1184
 1466SOL    HW216035   4.302   0.733   5.151 -1.2424 -0.4070  0.3769
 1467SOL     OW16036   4.573   0.854   4.747  0.1176  0.8507 -0.2473
 1467SOL    HW116037   4.646   0.856   4.809 -0.1887 -0.5659  0.1437
 1467SOL    HW216038   4.564   0.949   4.741  0.5320  0.8574 -0.7109
 1468SOL     OW16039   0.286   0.816   3.775  0.4061 -0.3821  0.1648
 1468SOL    HW116040   0.335   0.734   3.780 -1.0355 -1.3821 -2.0042
 1468SOL    HW216041   0.248   0.800   3.689  1.1740  0.5186 -0.3361
 1469SOL     OW16042   0.816   1.867  12.895 -0.2041 -0.3102 -0.3622
 1469SOL    HW116043   0.887   1.893  12.837 -1.2931 -0.3971 -1.7226
 1469SOL    HW216044   0.854   1.801  12.953  0.3043  0.2512 -0.0659
 1470SOL     OW16045   4.564   4.521  16.512 -0.6613 -0.5345  0.1266
 1470SOL    HW116046   4.563   4.564  16.598  1.2749 -2.3383  1.0422
 1470SOL    HW216047   4.485   4.467  16.513 -2.3001  1.8217 -1.3999
 1471SOL     OW16048   0.320   4.087  13.133 -0.1365  0.4803  0.7366
 1471SOL    HW116049   0.349   4.014  13.077  1.1658 -0.7724  3.0525
 1471SOL    HW216050   0.338   4.049  13.219 -2.6079 -1.5274  0.3542
 1472SOL     OW16051   4.605   2.998   1.986  0.3805 -0.0432  0.1482
 1472SOL    HW116052   4.621   2.966   2.075 -0.1921 -1.3187 -0.2100
 1472SOL    HW216053   4.597   3.093   1.992 -2.0421 -0.1414 -1.7074
 1473SOL     OW16054   0.290   1.088   8.904 -1.5141  0.2885  0.0862
 1473SOL    HW116055   0.324   1.173   8.876  0.5233 -0.1177  1.2610
 1473SOL    HW216056   0.233   1.077   8.828  0.2446 -0.1776 -1.1598
 1474SOL     OW16057   4.229   0.281   2.453  0.2291 -0.6816 -0.2950
 1474SOL    HW116058   4.301   0.276   2.516 -0.6340  1.1823  0.8759
 1474SOL    HW216059   4.279   0.324   2.384 -1.1348  2.5556  0.6932
 1475SOL     OW16060   2.954   4.602   6.291  0.2402 -0.8552 -0.3179
 1475SOL    HW116061   2.967   4.673   6.355  1.3943 -0.7078 -0.7176
 1475SOL    HW216062   3.043   4.569   6.295  0.6067  0.3170  1.5619
 1476SOL     OW16063   1.977   4.377   1.109  0.1330  0.2847 -0.4295
 1476SOL    HW116064   1.915   4.426   1.054  0.4007  0.5369 -0.5114
 1476SOL    HW216065   2.052   4.361   1.051  0.8693 -1.4718  1.0268
 1477SOL     OW16066   3.801   1.090  14.665  0.5085 -0.1182 -0.0326
 1477SOL    HW116067   3.874   1.040  14.628  0.1721  0.1938 -1.1262
 1477SOL    HW216068   3.768   1.124  14.582  1.2976 -0.8184 -0.6322
 1478SOL     OW16069   0.097   1.840   2.994  0.8638 -0.0794 -0.9011
 1478SOL    HW116070   0.151   1.761   2.984 -1.6417 -2.0595  1.1738
 1478SOL    HW216071   0.158   1.894   3.045 -0.5279  0.9244 -0.3197
 1479SOL     OW16072   2.856   3.617   3.288 -0.8971 -0.0703 -0.6092
 1479SOL    HW116073   2.905   3.628   3.207  0.1818  0.3722  0.1103
 1479SOL    HW216074   2.786   3.556   3.264 -1.9474  1.3914 -1.2672
 1480SOL     OW16075   4.503   0.622   8.056 -0.3971 -0.3005  0.8541
 1480SOL    HW116076   4.535   0.612   7.967  2.0765  0.8629  1.6057
 1480SOL    HW216077   4.474   0.714   8.057 -1.0217 -0.5098  1.6632
 1481SOL     OW16078   2.226   2.119   1.175  0.1043  0.0137  0.3533
 1481SOL    HW116079   2.289   2.179   1.215  1.2802  1.0176 -3.0151
 1481SOL    HW216080   2.226   2.150   1.085  1.4448  0.4080  0.4897
 1482SOL     OW16081   2.621   1.393  12.929 -0.1264 -0.3166 -0.1037
 1482SOL    HW116082   2.547   1.367  12.984  0.3892 -0.5730  0.4627
 1482SOL    HW216083   2.687   1.349  12.983 -1.4689  0.8228  2.4907
 1483SOL     OW16084   2.177   4.471   5.886  0.0417  0.0103  0.2212
 1483SOL    HW116085   2.237   4.470   5.811 -2.5267  3.2787 -1.9082
 1483SOL    HW216086   2.239   4.480   5.958 -1.8532 -1.1880  1.9712
 1484SOL     OW16087   0.373   3.901  12.951  0.0830  0.0561 -0.3396
 1484SOL    HW116088   0.421   3.849  12.887 -0.0502 -1.8692  1.1329
 1484SOL    HW216089   0.293   3.918  12.902 -0.4985 -1.8460 -0.0394
 1485SOL     OW16090   0.472   0.683   7.330 -0.1540  0.2191 -0.1856
 1485SOL    HW116091   0.524   0.724   7.261 -0.6187  0.8198 -0.1803
 1485SOL    HW216092   0.386   0.691   7.291 -0.0402  1.2290 -0.2382
 1486SOL     OW16093   0.200   0.964   0.986 -0.2824 -0.1102  0.4583
 1486SOL    HW116094   0.182   1.057   1.000 -2.0677 -0.1440 -1.5242
 1486SOL    HW216095   0.285   0.982   0.947 -0.4741 -0.2735 -0.0329
 1487SOL     OW16096   3.226   2.082   6.206 -0.0971 -0.2616 -0.9378
 1487SOL    HW116097   3.197   2.049   6.121 -2.1662  0.9916 -0.7105
 1487SOL    HW216098   3.182   2.021   6.264  1.1088 -1.5476 -1.3674
 1488SOL     OW16099   3.584   0.966   5.015 -0.2102  0.8168  0.3342
 1488SOL    HW116100   3.591   1.043   5.071 -1.0773  2.4155 -1.7662
 1488SOL    HW216101   3.640   0.905   5.063 -0.4912  0.6416  0.4402
 1489SOL     OW16102   2.737   1.001   4.121  0.3403  0.5240  0.1179
 1489SOL    HW116103   2.691   0.928   4.162  0.6837 -0.3725 -1.0820
 1489SOL    HW216104   2.826   0.990   4.152  0.1076  0.1083  0.6329
 1490SOL     OW16105   0.318   2.831   0.118  0.4427  0.5628 -0.2271
 1490SOL    HW116106   0.391   2.772   0.105  0.1932  0.2418 -0.1584
 1490SOL    HW216107   0.333   2.846   0.211 -2.3607  0.5730  0.2140
 1491SOL     OW16108   4.288   3.184   7.738  0.2096 -0.1517 -0.0411
 1491SOL    HW116109   4.353   3.245   7.774 -0.1253  0.3046 -0.2012
 1491SOL    HW216110   4.208   3.234   7.752  0.6097  0.5192 -0.1130
 1492SOL     OW16111   4.252   2.476   3.006  0.4875 -0.3014 -0.4849
 1492SOL    HW116112   4.311   2.549   3.025 -0.3077 -0.3501  2.1234
 1492SOL    HW216113   4.287   2.442   2.923 -0.3443  0.8280 -1.3093
 1493SOL     OW16114   3.850   0.297  16.043  0.8818  0.4045 -0.1648
 1493SOL    HW116115   3.893   0.383  16.043 -0.1228  0.9202 -0.4638
 1493SOL    HW216116   3.786   0.330  15.980 -0.2231  0.4310  0.9702
 1494SOL     OW16117   3.847   0.882   5.105  0.2027 -0.9440 -0.5432
 1494SOL    HW116118   3.850   0.787   5.099  0.4168 -1.0266  0.9927
 1494SOL    HW216119   3.867   0.885   5.198  0.2315 -1.8234 -0.5208
 1495SOL     OW16120   1.220   2.367   6.662 -0.6102  0.2297 -0.1141
 1495SOL    HW116121   1.163   2.326   6.728 -0.7904 -0.5354 -0.7432
 1495SOL    HW216122   1.237   2.288   6.610 -1.9326 -0.1062 -0.0454
 1496SOL     OW16123   2.350   0.628  11.154  0.2061 -0.3596 -0.4533
 1496SOL    HW116124   2.363   0.624  11.059  0.4109 -0.8752 -0.4071
 1496SOL    HW216125   2.332   0.535  11.171 -1.0354  0.1688  1.0363
 1497SOL     OW16126   4.306   0.769   1.363 -0.7754  0.1821 -0.5270
 1497SOL    HW116127   4.275   0.680   1.351  0.2247  0.0359 -1.9932
 1497SOL    HW216128   4.375   0.752   1.427 -0.1533  0.3692 -1.1410
 1498SOL     OW16129   4.398   3.095   4.720  0.1219 -0.5002 -0.0302
 1498SOL    HW116130   4.359   3.021   4.673  1.0601  1.1037 -3.3071
 1498SOL    HW216131   4.348   3.165   4.677  1.9583  0.3097 -0.8335
 1499SOL     OW16132   4.038   4.109   7.268  0.1291  0.5014 -0.7012
 1499SOL    HW116133   4.078   4.192   7.295 -1.0325  0.4382  1.1923
 1499SOL    HW216134   4.005   4.131   7.181  1.1926 -1.1649 -1.5117
 1500SOL     OW16135   1.826   0.047   2.034 -0.2706  0.4596  0.5180
 1500SOL    HW116136   1.861   4.696   2.047 -0.7185  0.1546 -0.3235
 1500SOL    HW216137   1.745   0.026   1.987  0.3050 -1.3046  0.3336
 1501SOL     OW16138   3.210   0.417   8.047  0.2012 -0.3951  0.3707
 1501SOL    HW116139   3.258   0.498   8.031 -0.3263 -0.4256 -1.3408
 1501SOL    HW216140   3.187   0.391   7.957  0.1986 -0.8333  0.4950
 1502SOL     OW16141   0.572   3.069   2.538  0.0242  0.4631 -0.5260
 1502SOL    HW116142   0.573   2.994   2.598  1.9973  1.3806  0.5678
 1502SOL    HW216143   0.559   3.144   2.596 -2.3157  0.4762 -1.0490
 1503SOL     OW16144   2.247   0.673  17.008  0.1420 -0.1129  0.3882
 1503SOL    HW116145   2.213   0.739  17.068 -0.4264 -0.0242 -0.0286
 1503SOL    HW216146   2.217   0.595  17.054 -0.4299 -1.5489 -2.4109
 1504SOL     OW16147   2.715   0.452   5.035 -0.4680  0.2194 -0.7149
 1504SOL    HW116148   2.666   0.370   5.028  0.8768 -0.6106 -0.4376
 1504SOL    HW216149   2.715   0.456   4.939 -1.3484 -0.6796 -0.7474
 1505SOL     OW16150   4.570   2.536   4.532  0.6885 -0.1338  0.3278
 1505SOL    HW116151   4.550   2.629   4.542  0.5441 -0.1044 -0.2286
 1505SOL    HW216152   4.514   2.521   4.456  3.1038  2.4854 -1.9316
 1506SOL     OW16153   2.914   4.620   4.843  0.2872 -0.3702  0.2734
 1506SOL    HW116154   2.853   4.564   4.891  0.4774 -2.1619 -1.5861
 1506SOL    HW216155   2.987   4.629   4.905  0.4878  0.3732 -0.0736
 1507SOL     OW16156   3.747   4.385   8.349 -0.6512 -0.5689 -0.0036
 1507SOL    HW116157   3.725   4.376   8.256  1.2084  2.7833 -0.7780
 1507SOL    HW216158   3.723   4.477   8.364  0.1068 -0.0730 -1.8656
 1508SOL     OW16159   3.740   4.137  16.530 -0.7154  0.3074  0.2849
 1508SOL    HW116160   3.793   4.061  16.507 -2.0512 -0.6289  0.2947
 1508SOL    HW216161   3.774   4.162  16.616  1.8450 -3.8194  0.4650
 1509SOL     OW16162   2.837   2.887   5.925 -0.2254 -0.2329  0.0747
 1509SOL    HW116163   2.754   2.841   5.943 -0.4210 -0.6176 -1.8735
 1509SOL    HW216164   2.864   2.822   5.861  2.4896  1.0512 -0.0402
 1510SOL     OW16165   1.621   0.017   7.419  0.5455 -0.0109  0.0870
 1510SOL    HW116166   1.707   0.058   7.422 -0.6856  2.3755  2.6194
 1510SOL    HW216167   1.654   4.664   7.407  0.4536 -0.0693  0.2823
 1511SOL     OW16168   4.010   4.140   5.789 -0.4035  0.0076 -0.7705
 1511SOL    HW116169   3.989   4.165   5.878 -1.4105  0.2978 -1.0938
 1511SOL    HW216170   4.031   4.046   5.792 -0.1238  0.0824 -0.4329
 1512SOL     OW16171   0.128   1.102   5.803  0.6264 -0.0025  0.3174
 1512SOL    HW116172   0.062   1.032   5.799 -0.2781  0.7491  2.2297
 1512SOL    HW216173   0.209   1.053   5.808  2.4515  2.8160 -1.5671
 1513SOL     OW16174   0.066   2.814   5.294  0.1926 -0.1967  0.3267
 1513SOL    HW116175   0.034   2.904   5.307 -1.0271 -0.4744 -0.7713
 1513SOL    HW216176   0.047   2.796   5.202 -2.4492  1.2547  0.5910
 1514SOL     OW16177   2.031   1.964   9.460  0.6207 -0.2884 -0.5058
 1514SOL    HW116178   2.009   2.048   9.499  0.7444 -0.0321 -0.9852
 1514SOL    HW216179   1.965   1.912   9.506 -0.0637  1.1136  0.0599
 1515SOL     OW16180   3.523   3.033  14.852 -0.3180  0.3550  0.2997
 1515SOL    HW116181   3.556   3.026  14.762  2.1887 -0.2600  1.2495
 1515SOL    HW216182   3.430   3.049  14.840 -0.3793 -0.7623 -0.6916
 1516SOL     OW16183   0.079   0.800   8.803  0.1199  0.0774 -0.2943
 1516SOL    HW116184   0.094   0.820   8.711 -1.4848 -2.9829 -1.2443
 1516SOL    HW216185   4.733   0.751   8.796  1.2440 -2.1276  1.8190
 1517SOL     OW16186   2.105   4.196   4.406  0.5498  0.4952  0.4944
 1517SOL    HW116187   2.041   4.158   4.346  1.4176  0.3469 -0.3345
 1517SOL    HW216188   2.048   4.221   4.479  1.5266 -0.6026  1.6447
 1518SOL     OW16189   4.153   2.907   0.343 -1.0407 -0.2148  0.3385
 1518SOL    HW116190   4.086   2.839   0.342 -0.8049 -0.4507  1.0833
 1518SOL    HW216191   4.218   2.860   0.395  0.2639  2.7635  1.4324
 1519SOL     OW16192   3.938   0.733   2.146 -0.1237  0.3884  0.1454
 1519SOL    HW116193   3.918   0.812   2.097  1.2372  0.5446 -0.1631
 1519SOL    HW216194   3.993   0.686   2.083  0.7711  0.1752  1.0998
 1520SOL     OW16195   2.332   2.622   6.392  0.0910 -0.1472 -0.6370
 1520SOL    HW116196   2.355   2.679   6.465 -0.2493 -0.2360 -0.4589
 1520SOL    HW216197   2.415   2.593   6.354  0.3184 -1.1762  0.6281
 1521SOL     OW16198   0.311   0.905   5.752  0.5777  0.1134 -0.2286
 1521SOL    HW116199   0.405   0.919   5.741  0.6116  0.3153  0.3096
 1521SOL    HW216200   0.287   0.855   5.674  2.4437 -1.3302  0.1075
 1522SOL     OW16201   3.827   2.291   5.573 -0.5886  0.1621 -0.1091
 1522SOL    HW116202   3.764   2.245   5.628 -1.1180  2.0610  0.8509
 1522SOL    HW216203   3.879   2.339   5.638  1.4348  0.2731 -1.8011
 1523SOL     OW16204   4.186   1.304  11.773 -0.2212 -0.4289 -0.2374
 1523SOL    HW116205   4.151   1.217  11.754  5.5250 -2.7255 -0.3466
 1523SOL    HW216206   4.216   1.322  11.683 -0.2823  1.3999  0.1045
 1524SOL     OW16207   4.195   4.719  14.814  0.1926  0.2735  0.1210
 1524SOL    HW116208   4.238   4.634  14.811  0.2494  0.3115 -0.1899
 1524SOL    HW216209   4.244   0.023  14.885 -1.6852  1.6552  0.6412
 1525SOL     OW16210   3.494   0.604   2.028  0.3721  0.0383 -0.0833
 1525SOL    HW116211   3.585   0.585   2.004  0.4045  0.4998 -0.3335
 1525SOL    HW216212   3.448   0.561   1.956 -0.6076  1.4860 -0.3423
 1526SOL     OW16213   2.081   2.633   0.479  0.4798 -0.4622 -0.2816
 1526SOL    HW116214   2.064   2.621   0.572  1.4471  0.5770  0.0264
 1526SOL    HW216215   2.174   2.655   0.489  0.8574 -0.6143 -3.5450
 1527SOL     OW16216   2.178   3.234  11.561  0.3606  0.0161 -0.0562
 1527SOL    HW116217   2.140   3.321  11.575  1.1475  0.3186  0.1722
 1527SOL    HW216218   2.220   3.239  11.475 -1.3589  0.8376 -0.8625
 1528SOL     OW16219   3.664   4.614  10.740 -0.4025  0.2022 -0.3190
 1528SOL    HW116220   3.685   4.574  10.655 -3.4756 -3.4003  0.6204
 1528SOL    HW216221   3.737   4.675  10.747  0.7531 -1.1276 -0.6924
 1529SOL     OW16222   3.965   1.999  11.561  0.6054  0.0519  0.2556
 1529SOL    HW116223   3.910   1.923  11.580  0.8788 -0.1480  0.2408
 1529SOL    HW216224   4.025   1.995  11.635  1.0372  0.8254 -0.0532
 1530SOL     OW16225   1.774   1.184   6.410 -0.6993 -0.2673 -0.3980
 1530SOL    HW116226   1.841   1.183   6.478  1.0692  0.0265 -2.1336
 1530SOL    HW216227   1.827   1.153   6.336  0.5936 -2.3734  1.4332
 1531SOL     OW16228   4.111   2.598   5.287 -0.4289 -0.6464 -0.5474
 1531SOL    HW116229   4.145   2.580   5.199  1.7436  1.6088 -0.1708
 1531SOL    HW216230   4.138   2.690   5.288 -0.0682 -0.7883  1.5978
 1532SOL     OW16231   0.332   2.317   8.561 -0.0875  0.2098 -0.7024
 1532SOL    HW116232   0.416   2.302   8.604  0.2654 -0.3473 -1.5743
 1532SOL    HW216233   0.337   2.282   8.472 -1.7647  2.1328 -1.5543
 1533SOL     OW16234   0.673   1.624  11.551  0.0040  0.1316  0.0940
 1533SOL    HW116235   0.673   1.647  11.643 -0.4737  1.3743 -0.2134
 1533SOL    HW216236   0.603   1.680  11.517  1.9828  0.6424 -3.1296
 1534SOL     OW16237   4.137   2.271   7.667  0.4116 -0.5047  0.0372
 1534SOL    HW116238   4.046   2.297   7.681  0.0515 -1.8021  0.0783
 1534SOL    HW216239   4.125   2.177   7.662  1.4438 -0.5858 -0.8720
 1535SOL     OW16240   0.086   4.254  16.279 -0.5684 -0.5545  0.1471
 1535SOL    HW116241   4.735   4.285  16.257 -0.3497  1.0421  1.5417
 1535SOL    HW216242   0.100   4.201  16.201 -2.4488  0.8669 -1.1505
 1536SOL     OW16243   3.728   1.401   2.321  0.0656 -0.0912 -0.3487
 1536SOL    HW116244   3.676   1.466   2.274 -0.4157 -0.4978 -0.3774
 1536SOL    HW216245   3.719   1.429   2.412 -2.4353 -0.0738 -0.6089
 1537SOL     OW16246   1.454   1.728  17.214  0.2373 -0.2240  0.4699
 1537SOL    HW116247   1.447   1.638  17.183  0.9221  0.7062 -2.3877
 1537SOL    HW216248   1.387   1.730  17.283 -0.1589 -1.0548  0.1068
 1538SOL     OW16249   3.155   1.389   7.248  0.4840  0.2945  0.1556
 1538SOL    HW116250   3.245   1.420   7.259 -0.0605  1.5196  1.0712
 1538SOL    HW216251   3.102   1.468   7.240  1.0294  0.6400 -0.0391
 1539SOL     OW16252   3.595   2.598   2.313  0.8817 -0.0700 -0.5441
 1539SOL    HW116253   3.501   2.607   2.298  1.1666  1.5149 -1.4246
 1539SOL    HW216254   3.628   2.683   2.340  0.4536 -1.2610  3.7536
 1540SOL     OW16255   2.957   2.520   2.227 -0.2162 -0.0749 -0.4634
 1540SOL    HW116256   2.864   2.539   2.243  0.5690  2.3869  1.0727
 1540SOL    HW216257   2.997   2.585   2.284 -0.0593 -1.8973  1.5337
 1541SOL     OW16258   4.707   1.590   5.724 -0.2030  0.6096  0.6628
 1541SOL    HW116259   4.720   1.651   5.651 -1.5251 -1.2768 -1.1381
 1541SOL    HW216260   0.061   1.584   5.755  0.1173 -1.5491 -0.6669
 1542SOL     OW16261   2.057   4.645   9.495 -0.0256 -0.1600  0.1672
 1542SOL    HW116262   2.032   4.554   9.480 -1.0069 -0.1632  1.8891
 1542SOL    HW216263   1.973   4.691   9.507  1.1960  1.7855  1.1717
 1543SOL     OW16264   2.785   0.419  10.288  0.0126  0.0740 -0.0494
 1543SOL    HW116265   2.766   0.407  10.195  1.4826  0.8265 -0.4384
 1543SOL    HW216266   2.876   0.393  10.296  0.5425  2.1218  0.6814
 1544SOL     OW16267   1.260   0.735  13.530  0.3809 -0.1603  0.4214
 1544SOL    HW116268   1.271   0.825  13.561  0.6521  0.8868 -2.7451
 1544SOL    HW216269   1.279   0.683  13.608  1.2216  0.0443  0.3540
 1545SOL     OW16270   0.268   0.504   4.234  0.2505 -0.0237  0.3309
 1545SOL    HW116271   0.329   0.449   4.285 -0.4363 -1.8922 -0.8865
 1545SOL    HW216272   0.334   0.556   4.189 -0.5607  0.7949  0.0998
 1546SOL     OW16273   4.235   2.445   1.360 -0.2727  0.3269 -0.2389
 1546SOL    HW116274   4.275   2.377   1.414  2.6764 -0.1466 -3.0352
 1546SOL    HW216275   4.296   2.458   1.287 -1.8103  0.6763 -1.4681
 1547SOL     OW16276   3.014   3.922   1.686 -0.3809 -0.3491  0.6473
 1547SOL    HW116277   3.062   3.862   1.743  1.1511  0.6830  0.4241
 1547SOL    HW216278   2.927   3.885   1.703  0.6579 -3.5753 -0.8833
 1548SOL     OW16279   2.680   4.559   7.268  0.0219 -0.2795 -0.4630
 1548SOL    HW116280   2.617   4.540   7.338 -1.0438  0.3107 -1.2553
 1548SOL    HW216281   2.751   4.497   7.285 -0.3055 -1.0352 -1.8960
 1549SOL     OW16282   4.685   1.880   6.371  1.0181  0.4452  0.2069
 1549SOL    HW116283   4.685   1.786   6.357 -3.2457  0.4141  0.4897
 1549SOL    HW216284   4.635   1.879   6.453  2.6706 -0.7665  1.1875
 1550SOL     OW16285   0.650   2.682   9.631 -0.3681  0.0693  0.6589
 1550SOL    HW116286   0.724   2.647   9.680  1.4068  1.0583 -1.3247
 1550SOL    HW216287   0.593   2.717   9.699  1.2933 -0.4494  2.3077
 1551SOL     OW16288   0.547   0.843   9.227  0.3888  0.2042  0.5072
 1551SOL    HW116289   0.477   0.782   9.201 -0.7899  1.4085  0.8695
 1551SOL    HW216290   0.527   0.917   9.169  0.7995 -0.0742  0.0082
 1552SOL     OW16291   0.012   3.988   4.999  0.3917 -0.2854 -0.6618
 1552SOL    HW116292   0.043   3.918   5.056  0.4964 -0.1921 -0.6031
 1552SOL    HW216293   0.059   3.966   4.919  0.2090 -1.1623 -0.5302
 1553SOL     OW16294   0.374   4.231   3.226 -0.3469 -0.1372  0.2803
 1553SOL    HW116295   0.430   4.282   3.168  0.1600 -0.6437  0.3285
 1553SOL    HW216296   0.346   4.299   3.287 -2.0661  0.1319 -0.7992
 1554SOL     OW16297   0.674   2.460   5.141 -0.0116  0.6383 -0.0558
 1554SOL    HW116298   0.705   2.407   5.067 -0.9855 -0.0974  0.0514
 1554SOL    HW216299   0.728   2.536   5.123  0.4989 -0.2387 -2.2003
 1555SOL     OW16300   2.534   0.459   0.239  0.3553  0.0858  0.4225
 1555SOL    HW116301   2.463   0.520   0.219  1.3259  0.9473 -0.3963
 1555SOL    HW216302   2.605   0.518   0.216 -0.1414  0.1909 -0.8342
 1556SOL     OW16303   1.471   2.231  14.787  0.2373  0.0420  0.4002
 1556SOL    HW116304   1.446   2.146  14.824 -2.9733  0.7618 -0.1471
 1556SOL    HW216305   1.426   2.297  14.840 -0.3420  0.7346 -0.9734
 1557SOL     OW16306   3.194   0.841   6.273 -0.4466 -0.4393  0.3647
 1557SOL    HW116307   3.276   0.876   6.308 -1.0565  0.5695  0.7702
 1557SOL    HW216308   3.205   0.751   6.305 -1.2289 -0.3755  0.8252
 1558SOL     OW16309   0.554   2.781   4.727 -0.2352  0.3481  0.2628
 1558SOL    HW116310   0.622   2.731   4.682  1.1533  1.2815  1.3057
 1558SOL    HW216311   0.571   2.752   4.817 -3.0475 -1.3792  0.2405
 1559SOL     OW16312   1.080   2.773   9.290  0.3983  0.4419 -0.5663
 1559SOL    HW116313   1.064   2.695   9.343  0.5994  0.7662 -0.0345
 1559SOL    HW216314   1.175   2.784   9.278  0.5127 -0.5785 -0.5980
 1560SOL     OW16315   3.464   0.409   6.520 -0.4523 -0.0145  0.2299
 1560SOL    HW116316   3.373   0.381   6.512 -0.3998 -0.4119  1.0438
 1560SOL    HW216317   3.474   0.412   6.615  1.8184  2.9474 -0.0974
 1561SOL     OW16318   0.699   3.513   9.579  0.4663  0.4032 -0.2780
 1561SOL    HW116319   0.740   3.553   9.656 -3.2708  1.4431  1.2004
 1561SOL    HW216320   0.625   3.574   9.583  0.4101  0.1949  1.6142
 1562SOL     OW16321   0.468   1.021  10.091  0.0671  0.4247  0.1370
 1562SOL    HW116322   0.490   0.980  10.007 -0.4295 -0.3549  0.3894
 1562SOL    HW216323   0.409   0.960  10.135  1.6530 -1.2264 -0.0270
 1563SOL     OW16324   1.222   4.336  15.055  0.0341  0.2234 -0.7120
 1563SOL    HW116325   1.158   4.403  15.033 -1.5324 -0.7097  1.0630
 1563SOL    HW216326   1.200   4.274  14.985 -0.1594 -0.7911  0.2326
 1564SOL     OW16327   3.062   2.220  11.826 -0.2156  0.2676  0.0344
 1564SOL    HW116328   3.036   2.308  11.798 -0.8256  0.2706  0.6051
 1564SOL    HW216329   2.976   2.181  11.844  0.9667 -1.4434  1.9404
 1565SOL     OW16330   3.574   4.216   5.514 -0.3115 -0.6452  0.0298
 1565SOL    HW116331   3.570   4.127   5.479 -0.2565  0.5665 -3.0223
 1565SOL    HW216332   3.662   4.213   5.552  0.3555 -1.6441 -1.6125
 1566SOL     OW16333   0.885   1.777   2.791  0.3904  0.0795  0.6128
 1566SOL    HW116334   0.932   1.857   2.767  0.6556 -0.7450 -1.5886
 1566SOL    HW216335   0.817   1.786   2.724  2.1747  1.6644 -0.9689
 1567SOL     OW16336   1.067   4.090  13.328 -0.1178  0.3045  0.5022
 1567SOL    HW116337   1.039   4.166  13.277 -1.6452 -0.1192  0.7128
 1567SOL    HW216338   1.011   4.024  13.287 -1.1863  1.5551 -0.0592
 1568SOL     OW16339   3.809   0.973   9.142 -0.1983  0.1227  0.7893
 1568SOL    HW116340   3.873   0.905   9.123 -0.7471 -0.0745 -0.3874
 1568SOL    HW216341   3.806   0.960   9.237 -2.7487 -1.3360  0.5122
 1569SOL     OW16342   1.063   1.551   7.872 -0.5232 -0.5656 -0.0453
 1569SOL    HW116343   1.052   1.458   7.850 -0.2804 -0.4469 -0.6716
 1569SOL    HW216344   1.159   1.548   7.881 -0.3173  0.9385 -1.8209
 1570SOL     OW16345   2.843   2.693   5.307 -0.3048 -0.2665  0.4071
 1570SOL    HW116346   2.907   2.630   5.339  0.7800  2.1642  3.0407
 1570SOL    HW216347   2.781   2.630   5.270  1.1819 -1.0351 -0.7760
 1571SOL     OW16348   0.420   3.817   7.485 -0.6171  0.3525  0.5157
 1571SOL    HW116349   0.438   3.730   7.522 -0.9321  1.3641  3.0795
 1571SOL    HW216350   0.340   3.789   7.440  0.7820 -0.5380 -1.3773
 1572SOL     OW16351   3.591   0.411   3.964  0.3364  0.1419  0.1078
 1572SOL    HW116352   3.585   0.383   3.873  1.2913  1.2988 -0.3030
 1572SOL    HW216353   3.500   0.415   3.994  0.5163 -0.6534  0.7490
 1573SOL     OW16354   2.868   4.373   7.337 -0.3601  0.4155 -0.5607
 1573SOL    HW116355   2.958   4.399   7.319  0.1297  0.9707  2.7310
 1573SOL    HW216356   2.846   4.425   7.414  1.6589  2.9656 -1.6974
 1574SOL     OW16357   0.949   2.741  13.454  0.2334 -0.0240  0.0043
 1574SOL    HW116358   0.961   2.730  13.548  0.7411  0.8418  0.0440
 1574SOL    HW216359   0.921   2.663  13.405  0.7517 -0.5220  0.5099
 1575SOL     OW16360   3.552   4.134  11.996 -0.1129  0.5196  0.3512
 1575SOL    HW116361   3.637   4.177  12.009 -0.1534  0.9951 -0.9622
 1575SOL    HW216362   3.507   4.208  11.955 -0.1162  0.4184  0.1751
 1576SOL     OW16363   2.956   3.855  15.771 -0.0567  0.5781 -0.2914
 1576SOL    HW116364   3.049   3.867  15.755 -0.1836  1.2260 -0.5232
 1576SOL    HW216365   2.943   3.761  15.786  0.7673  0.5648  0.3664
 1577SOL     OW16366   0.750   3.208   3.576 -0.1024  0.0075 -0.5106
 1577SOL    HW116367   0.801   3.128   3.583 -2.5773 -1.5607 -0.3704
 1577SOL    HW216368   0.787   3.246   3.655 -1.1921 -1.3176  0.6339
 1578SOL     OW16369   1.701   2.786  13.592 -0.1535 -0.8096 -0.0743
 1578SOL    HW116370   1.747   2.754  13.669  0.9914 -1.2546 -0.9369
 1578SOL    HW216371   1.668   2.700  13.565  0.9675 -1.1736 -0.2674
 1579SOL     OW16372   2.116   2.512  14.904 -0.3950 -0.1069  0.2627
 1579SOL    HW116373   2.064   2.584  14.940 -0.5237  1.2151 -2.6146
 1579SOL    HW216374   2.155   2.549  14.825 -3.2641  1.8542 -0.2400
 1580SOL     OW16375   2.357   3.899   5.157  0.3411  0.3715 -0.2848
 1580SOL    HW116376   2.277   3.879   5.206  1.9686  2.1228  3.0494
 1580SOL    HW216377   2.373   3.988   5.187  0.2517  0.1741  0.3532
 1581SOL     OW16378   4.270   4.180   4.260 -0.0384 -0.0977 -0.4054
 1581SOL    HW116379   4.359   4.197   4.231 -0.2968 -0.0036 -1.1204
 1581SOL    HW216380   4.247   4.271   4.279  2.6962  1.2242 -3.6481
 1582SOL     OW16381   3.513   0.165   6.972 -0.2163  0.6875  0.2361
 1582SOL    HW116382   3.442   0.112   7.008 -0.0691  0.3075 -0.0463
 1582SOL    HW216383   3.579   0.129   7.031  3.6826  3.7662 -2.2633
 1583SOL     OW16384   4.321   3.488   6.885 -0.1586 -0.4726 -0.1637
 1583SOL    HW116385   4.355   3.399   6.895 -0.9817 -0.9589 -1.8152
 1583SOL    HW216386   4.237   3.467   6.844 -1.1286  1.3805  0.8852
 1584SOL     OW16387   2.447   4.683  10.896  0.0278 -0.1305  0.1416
 1584SOL    HW116388   2.406   4.671  10.982  0.3501 -2.0233  0.0145
 1584SOL    HW216389   2.383   4.727  10.840  0.5971  0.5920  0.0565
 1585SOL     OW16390   0.944   1.879   1.296 -0.2158 -0.2044  0.4592
 1585SOL    HW116391   0.869   1.857   1.241 -0.9454 -2.3036  2.2973
 1585SOL    HW216392   1.016   1.880   1.233  0.4161 -1.6749  1.1565
 1586SOL     OW16393   0.922   4.506   5.777  0.0070 -0.0017 -0.4186
 1586SOL    HW116394   1.000   4.558   5.798  0.7817 -0.7399 -1.4707
 1586SOL    HW216395   0.920   4.436   5.842  2.2163 -0.9444 -1.3564
 1587SOL     OW16396   2.421   4.272   1.048  0.0381  0.0760 -0.2811
 1587SOL    HW116397   2.337   4.292   1.007  0.8334  2.0225 -1.0054
 1587SOL    HW216398   2.407   4.280   1.143  2.2004 -0.0246  0.0601
 1588SOL     OW16399   2.528   1.553  12.750 -0.2629 -0.0364  0.2371
 1588SOL    HW116400   2.525   1.627  12.810 -0.4509  0.3427 -0.2392
 1588SOL    HW216401   2.565   1.489  12.811  1.4317  0.0579 -0.6750
 1589SOL     OW16402   3.165   1.465   7.571  0.6681  0.1208  0.6040
 1589SOL    HW116403   3.258   1.460   7.548  0.0635  1.6372 -2.1262
 1589SOL    HW216404   3.150   1.560   7.566  1.2385  0.0339 -2.7109
 1590SOL     OW16405   2.065   0.858   5.135 -0.2025 -0.8599  0.0313
 1590SOL    HW116406   2.115   0.938   5.116  0.1916 -1.4282 -1.3059
 1590SOL    HW216407   1.989   0.905   5.168 -0.3800 -0.9389 -0.2671
 1591SOL     OW16408   2.414   0.474   7.471 -0.5918  0.3890 -0.8731
 1591SOL    HW116409   2.455   0.414   7.410  0.1126  1.1307 -1.1356
 1591SOL    HW216410   2.426   0.433   7.556 -0.3922 -1.6041 -1.8748
 1592SOL     OW16411   2.739   4.463   6.357 -0.1606 -0.4123  0.2512
 1592SOL    HW116412   2.750   4.407   6.434 -1.5545  0.0687  0.7884
 1592SOL    HW216413   2.826   4.500   6.342  0.8960 -3.6075 -1.5162
 1593SOL     OW16414   1.409   2.706   4.078  0.1240 -0.3438  0.0364
 1593SOL    HW116415   1.484   2.653   4.102  0.2812  0.4132  1.2237
 1593SOL    HW216416   1.457   2.777   4.035 -0.0971  1.1337  2.2209
 1594SOL     OW16417   0.413   0.126   3.732  0.2989 -0.2988  0.6335
 1594SOL    HW116418   0.494   0.173   3.750 -0.0383  0.2231  0.8017
 1594SOL    HW216419   0.355   0.199   3.711 -1.0201 -1.2276  0.9985
 1595SOL     OW16420   3.928   3.172   2.219 -0.5576  0.4528 -0.1026
 1595SOL    HW116421   3.976   3.223   2.284 -1.8316 -0.5849  1.6209
 1595SOL    HW216422   3.992   3.106   2.193  0.1753  1.4526 -0.8502
 1596SOL     OW16423   2.314   0.229   2.145  0.5257  0.1462 -0.2545
 1596SOL    HW116424   2.381   0.258   2.207 -0.1402 -0.9299  0.9931
 1596SOL    HW216425   2.345   0.275   2.067 -1.4342  0.4461 -0.8472
 1597SOL     OW16426   4.419   3.368   5.047  0.0349 -0.3840  0.7112
 1597SOL    HW116427   4.437   3.274   5.046 -1.4983 -0.6693 -1.4782
 1597SOL    HW216428   4.454   3.404   4.965 -2.7640 -1.3063 -0.9110
 1598SOL     OW16429   1.348   0.845   8.033  0.3031 -0.2027  0.5803
 1598SOL    HW116430   1.380   0.860   7.944 -1.8442  1.1009  0.0108
 1598SOL    HW216431   1.405   0.910   8.075  1.4126 -1.2891  0.7477
 1599SOL     OW16432   3.907   1.853   6.963 -0.0470  0.0711  0.0104
 1599SOL    HW116433   4.001   1.852   6.983 -0.1165  0.5275  0.3384
 1599SOL    HW216434   3.878   1.767   6.995 -1.7411  0.4356 -0.5698
 1600SOL     OW16435   0.136   0.123   2.006  0.2146 -0.2135 -0.2245
 1600SOL    HW116436   0.189   0.197   2.035  1.1342 -1.1329  0.4123
 1600SOL    HW216437   0.185   0.048   2.039  2.7262  1.0270 -1.1164
 1601SOL     OW16438   3.407   4.452   8.224 -0.1983  0.6707  0.4431
 1601SOL    HW116439   3.363   4.367   8.231 -1.5788  1.3457  0.0627
 1601SOL    HW216440   3.368   4.488   8.303 -0.6471 -0.4853  0.7577
 1602SOL     OW16441   1.594   3.917  16.234 -0.6206 -0.3827 -0.2700
 1602SOL    HW116442   1.580   3.843  16.174  1.8212 -1.9552  1.0881
 1602SOL    HW216443   1.690   3.920  16.228 -0.5711 -0.8845  0.2987
 1603SOL     OW16444   4.612   2.368   1.993  0.0506  0.3847 -0.2706
 1603SOL    HW116445   4.661   2.429   1.937  1.6638 -1.1308 -0.5023
 1603SOL    HW216446   4.590   2.301   1.929  1.6241 -1.3418  1.0057
 1604SOL     OW16447   4.250   3.977   0.555  0.8692 -0.4925 -0.3219
 1604SOL    HW116448   4.245   3.955   0.648 -2.3712  3.2131  0.3629
 1604SOL    HW216449   4.346   3.980   0.552  0.8726  0.6640  0.7755
 1605SOL     OW16450   2.673   4.261  17.727 -0.2505  0.6664 -0.4699
 1605SOL    HW116451   2.716   4.183  17.693  1.0879  1.0696  0.3072
 1605SOL    HW216452   2.626   4.299  17.653  1.2558  0.0880 -1.7168
 1606SOL     OW16453   2.954   3.313   8.287  0.6182  0.3096 -0.1181
 1606SOL    HW116454   2.940   3.223   8.317  3.0781  0.0116  0.1043
 1606SOL    HW216455   2.999   3.314   8.203 -1.1262  0.5496 -1.0529
 1607SOL     OW16456   2.411   3.929   7.809  1.1035 -0.0660 -0.2732
 1607SOL    HW116457   2.403   3.925   7.904  2.5373 -0.8218 -0.1834
 1607SOL    HW216458   2.504   3.936   7.787  1.3164 -2.0563 -0.0166
 1608SOL     OW16459   3.114   3.052   2.950  0.3927 -0.2322 -0.2044
 1608SOL    HW116460   3.205   3.079   2.943 -0.1420  1.9105  1.0798
 1608SOL    HW216461   3.080   3.081   2.865 -1.3178  0.8678  0.8521
 1609SOL     OW16462   2.219   0.778   4.703  0.2354  0.0261 -0.3071
 1609SOL    HW116463   2.313   0.774   4.720  0.1725 -1.7715 -0.4569
 1609SOL    HW216464   2.215   0.683   4.714  1.5762 -0.1535 -1.3848
 1610SOL     OW16465   1.847   0.122   4.560  0.2196  0.2101  0.2157
 1610SOL    HW116466   1.763   0.117   4.514 -0.0390 -0.2512  0.7415
 1610SOL    HW216467   1.891   0.198   4.522 -1.1096  1.2775  0.7699
 1611SOL     OW16468   4.633   2.887   0.726 -0.3186 -0.1708  0.5222
 1611SOL    HW116469   4.610   2.811   0.779 -1.8676 -2.8744 -4.0717
 1611SOL    HW216470   4.725   2.893   0.754 -0.9720  0.6761  2.4488
 1612SOL     OW16471   0.451   1.035   7.093 -0.2722  0.2331  0.0076
 1612SOL    HW116472   0.481   0.978   7.164 -0.2942  0.5887  0.3012
 1612SOL    HW216473   0.368   1.073   7.122 -0.9526 -1.8253  0.7408
 1613SOL     OW16474   0.570   0.302   1.806 -0.4730  0.1329  0.0495
 1613SOL    HW116475   0.570   0.304   1.710 -0.0232  2.8387  0.1058
 1613SOL    HW216476   0.646   0.356   1.830  1.7863 -2.1588 -1.8640
 1614SOL     OW16477   3.959   3.105   6.416  0.2874  0.2795  0.0724
 1614SOL    HW116478   3.920   3.017   6.419  2.2294 -0.5205  2.2337
 1614SOL    HW216479   3.976   3.125   6.508  0.2393  0.5098  0.0306
 1615SOL     OW16480   0.850   0.722   5.103  0.2456 -0.2948 -0.3325
 1615SOL    HW116481   0.839   0.702   5.009  1.0845  0.9215 -0.6856
 1615SOL    HW216482   0.826   0.638   5.142 -2.5922 -0.2963 -2.0476
 1616SOL     OW16483   0.760   0.422  12.383  0.0245  0.3473 -1.1834
 1616SOL    HW116484   0.689   0.360  12.363 -0.5507  0.7535 -0.3764
 1616SOL    HW216485   0.840   0.393  12.339  1.0909  2.4138 -0.6036
 1617SOL     OW16486   0.873   4.111   4.829 -0.4038  0.2810  0.2412
 1617SOL    HW116487   0.870   4.114   4.925  1.3135 -1.8973  0.3660
 1617SOL    HW216488   0.968   4.121   4.823 -0.3316  1.6421  3.4441
 1618SOL     OW16489   2.470   1.211   5.742 -0.1730 -0.1387  0.2162
 1618SOL    HW116490   2.417   1.284   5.711 -0.5332 -0.7525 -0.6074
 1618SOL    HW216491   2.552   1.259   5.755 -0.3393  0.1695  0.1362
 1619SOL     OW16492   4.157   4.104   3.171 -0.3847 -0.1579  0.2003
 1619SOL    HW116493   4.133   4.036   3.109  0.4536  0.9892 -1.3844
 1619SOL    HW216494   4.101   4.085   3.246  0.3555 -1.8726  0.3091
 1620SOL     OW16495   3.711   2.183  10.860  0.0332 -0.0387 -0.6545
 1620SOL    HW116496   3.622   2.173  10.893  0.6345  0.7261  1.1711
 1620SOL    HW216497   3.760   2.116  10.909 -1.8927 -1.2770 -0.4292
 1621SOL     OW16498   0.714   4.704   9.087  0.2100 -0.4664  0.1703
 1621SOL    HW116499   0.619   4.704   9.087  0.1895  1.7385 -1.6983
 1621SOL    HW216500   0.718   0.026   9.010  1.7754 -0.3144  0.3496
 1622SOL     OW16501   0.032   2.920   8.174 -0.1714 -0.0563 -0.3652
 1622SOL    HW116502   0.026   2.930   8.079  1.9655 -1.3258 -0.6169
 1622SOL    HW216503   0.102   2.985   8.179  0.3006 -0.3861 -2.7837
 1623SOL     OW16504   1.787   3.404   6.408  0.3917 -0.0098  0.2111
 1623SOL    HW116505   1.818   3.314   6.396  0.6800  0.2988 -1.3013
 1623SOL    HW216506   1.810   3.418   6.500  0.2271  2.0215 -0.0678
 1624SOL     OW16507   2.407   0.015   5.840 -0.3330 -0.2455  0.3292
 1624SOL    HW116508   2.428   0.098   5.884 -1.4130 -0.6181  1.5214
 1624SOL    HW216509   2.324   0.051   5.808  0.3647  0.7466 -0.3912
 1625SOL     OW16510   2.159   4.661  14.054  0.3187 -0.0194  0.0461
 1625SOL    HW116511   2.101   4.687  13.982  0.0715  1.0995  0.6541
 1625SOL    HW216512   2.239   4.646  14.002  0.1155  0.1879 -0.3227
 1626SOL     OW16513   3.805   3.371   6.749  0.3509  0.0723  0.0008
 1626SOL    HW116514   3.761   3.354   6.666  0.7906 -1.9173  0.1518
 1626SOL    HW216515   3.761   3.454   6.765  0.8198  0.9424 -3.3012
 1627SOL     OW16516   1.175   4.296  11.261 -0.2207 -0.6916  0.2668
 1627SOL    HW116517   1.222   4.239  11.322  3.4146  1.7558 -0.2484
 1627SOL    HW216518   1.158   4.372  11.316  1.2559 -0.3516  0.2573
 1628SOL     OW16519   3.939   3.124   0.396 -0.3652 -0.2017  0.1380
 1628SOL    HW116520   3.950   3.188   0.326 -1.8428  0.1503  0.2274
 1628SOL    HW216521   3.946   3.035   0.361  1.7606 -0.1096  0.3310
 1629SOL     OW16522   0.477   4.700   8.709  0.2592 -0.0780  0.1737
 1629SOL    HW116523   0.434   0.021   8.645 -1.5678 -2.3055 -0.5833
 1629SOL    HW216524   0.570   4.692   8.684  0.4851  1.0193  0.6837
 1630SOL     OW16525   4.052   0.397   4.880 -0.1130  0.1874  0.4042
 1630SOL    HW116526   3.974   0.380   4.827  0.2434  0.0355 -0.0653
 1630SOL    HW216527   4.030   0.334   4.949  0.1010 -0.0687  0.2366
 1631SOL     OW16528   0.270   1.277   4.858  0.0254  0.3536 -0.4343
 1631SOL    HW116529   0.190   1.328   4.869 -0.2987 -0.2638  0.0623
 1631SOL    HW216530   0.251   1.237   4.773 -0.0578 -3.1026  1.2134
 1632SOL     OW16531   2.532   2.208   2.652 -0.3709  0.4677 -0.3767
 1632SOL    HW116532   2.553   2.212   2.745  2.1660 -1.7138 -0.8497
 1632SOL    HW216533   2.623   2.216   2.623  0.0954 -2.4025  0.2281
 1633SOL     OW16534   2.764   2.603  13.688 -0.5385 -0.6103 -0.2500
 1633SOL    HW116535   2.726   2.611  13.775 -2.0432 -0.5052 -0.9169
 1633SOL    HW216536   2.687   2.631  13.639 -1.0934 -0.7237  0.5650
 1634SOL     OW16537   2.087   4.566   0.862 -0.6795 -0.5774 -0.1385
 1634SOL    HW116538   2.082   4.612   0.946 -0.4636 -1.4522  0.3585
 1634SOL    HW216539   1.995   4.549   0.841 -0.7749 -0.3631  0.1026
 1635SOL     OW16540   1.674   0.552   2.639  0.3012 -0.7078  0.2040
 1635SOL    HW116541   1.761   0.585   2.664 -0.3983  0.9158  0.5196
 1635SOL    HW216542   1.637   0.635   2.608 -0.0663 -0.3002  1.7678
 1636SOL     OW16543   1.372   0.147   8.265 -0.0406 -0.0954 -0.0219
 1636SOL    HW116544   1.403   0.233   8.292  1.9946 -1.3319  1.5187
 1636SOL    HW216545   1.337   0.167   8.178 -1.4100 -0.9626  0.3237
 1637SOL     OW16546   3.800   3.006   1.858  0.3122  0.0103 -0.2541
 1637SOL    HW116547   3.722   3.007   1.914  0.7949 -2.2081  0.4483
 1637SOL    HW216548   3.842   3.083   1.894 -0.8559  0.6556 -0.2836
 1638SOL     OW16549   3.765   4.201  16.919 -0.6552  0.1796 -0.2953
 1638SOL    HW116550   3.682   4.223  16.878 -0.3618  1.3044 -0.2932
 1638SOL    HW216551   3.757   4.259  16.995 -0.9896  0.7046 -0.7350
 1639SOL     OW16552   2.535   1.127   3.268 -0.0108 -0.3654  0.3624
 1639SOL    HW116553   2.477   1.200   3.244 -0.1385 -0.8072 -0.7002
 1639SOL    HW216554   2.488   1.062   3.216  0.3380  1.5073 -2.3414
 1640SOL     OW16555   2.893   3.464   2.676  0.0674 -0.1571 -0.2609
 1640SOL    HW116556   2.837   3.514   2.736  0.5890  1.1735 -0.8705
 1640SOL    HW216557   2.932   3.407   2.742  0.6473  0.8277  0.2570
 1641SOL     OW16558   2.565   1.894   3.066 -0.2819  0.6687 -0.1543
 1641SOL    HW116559   2.481   1.882   3.021 -0.2394  0.8420 -0.2811
 1641SOL    HW216560   2.590   1.985   3.048 -1.1909  1.3791  2.2172
 1642SOL     OW16561   4.094   3.640   5.411 -0.2443  0.1488 -0.1642
 1642SOL    HW116562   4.142   3.572   5.364 -0.7117  0.9240 -1.7589
 1642SOL    HW216563   4.128   3.631   5.500  0.6247  1.2585 -0.3808
 1643SOL     OW16564   0.629   1.058   7.467  0.3393  0.4421  0.0467
 1643SOL    HW116565   0.599   1.000   7.537 -0.9875  1.3863  0.2614
 1643SOL    HW216566   0.715   1.020   7.452  0.4388  1.0900 -1.0182
 1644SOL     OW16567   0.764   0.286   6.171 -0.2152 -0.5269 -0.4531
 1644SOL    HW116568   0.856   0.299   6.146 -0.2020  0.6436  0.1994
 1644SOL    HW216569   0.721   0.343   6.108  2.3151  0.2391 -1.5083
 1645SOL     OW16570   0.366   1.700   3.595 -0.0350 -0.1319 -0.0926
 1645SOL    HW116571   0.447   1.655   3.574  1.2135  1.2976  1.6477
 1645SOL    HW216572   0.407   1.761   3.657  0.5010 -1.0485  0.4425
 1646SOL     OW16573   0.996   0.472   8.418  0.2715 -0.1129 -0.6575
 1646SOL    HW116574   0.981   0.511   8.331  2.8329 -0.2781 -1.1969
 1646SOL    HW216575   0.954   0.541   8.469  0.1747 -0.0991 -0.7555
 1647SOL     OW16576   2.397   4.695   5.495 -0.0892  0.0942  0.0262
 1647SOL    HW116577   2.366   0.015   5.424  0.4463  2.0149  1.3287
 1647SOL    HW216578   2.473   4.650   5.457 -1.4524 -1.4340 -0.9088
 1648SOL     OW16579   4.535   2.709   3.940 -0.1239 -0.5382  0.2350
 1648SOL    HW116580   4.506   2.618   3.951 -0.3204 -0.5419 -0.3177
 1648SOL    HW216581   4.585   2.715   4.021  0.1637  1.6853 -0.1246
 1649SOL     OW16582   0.647   1.835   4.608 -0.1867 -0.3022 -0.0562
 1649SOL    HW116583   0.639   1.767   4.674 -1.3915  0.1738  0.2839
 1649SOL    HW216584   0.601   1.791   4.537  1.8068 -0.1424 -1.4671
 1650SOL     OW16585   3.621   1.173   6.145  0.9728 -0.5537  0.7862
 1650SOL    HW116586   3.710   1.207   6.152  1.2078 -0.7220 -1.4459
 1650SOL    HW216587   3.576   1.211   6.221  0.3255 -2.3009  1.2799
 1651SOL     OW16588   0.286   2.714   3.308 -0.4129 -0.5880 -0.3576
 1651SOL    HW116589   0.309   2.640   3.252  0.3170 -1.8537  1.6183
 1651SOL    HW216590   0.367   2.731   3.357 -0.1921  0.0688 -0.9399
 1652SOL     OW16591   0.729   3.847  14.193  0.1777  0.5589  0.9936
 1652SOL    HW116592   0.809   3.900  14.199 -0.5289  1.6102  1.1218
 1652SOL    HW216593   0.732   3.829  14.099  1.7753  0.3487  1.0811
 1653SOL     OW16594   0.423   0.765   1.671  0.4494  0.2086 -0.1641
 1653SOL    HW116595   0.489   0.726   1.614  2.4787  1.8761  1.0626
 1653SOL    HW216596   0.468   0.754   1.755  0.1313  1.2995  0.1469
 1654SOL     OW16597   4.383   2.839   8.527  0.5486 -0.3010  0.4207
 1654SOL    HW116598   4.381   2.912   8.589 -0.9230 -0.1917  0.2411
 1654SOL    HW216599   4.469   2.839   8.485  1.4935  0.2773  2.3723
 1655SOL     OW16600   1.057   4.667   5.952 -0.0706 -0.2797  0.2242
 1655SOL    HW116601   1.076   4.586   5.999  0.6901  0.1864  0.7347
 1655SOL    HW216602   0.990   4.705   6.008  0.8573  1.9545 -0.1919
 1656SOL     OW16603   3.044   4.441   5.880 -0.0722  0.4818  0.2958
 1656SOL    HW116604   3.097   4.376   5.835 -0.6095  0.2663 -0.0283
 1656SOL    HW216605   3.002   4.490   5.809 -2.4656 -0.3334  1.1357
 1657SOL     OW16606   3.500   0.489  14.249  0.1757  0.1360 -0.3038
 1657SOL    HW116607   3.594   0.486  14.233  0.2684 -1.8389  0.5647
 1657SOL    HW216608   3.486   0.560  14.311 -3.0461 -0.0497 -0.8302
 1658SOL     OW16609   4.034   4.629   2.451  0.8299  0.3441 -0.6203
 1658SOL    HW116610   3.997   4.717   2.459  1.8380  0.8546 -1.5972
 1658SOL    HW216611   4.052   4.621   2.545 -1.7042  2.6905  0.0630
 1659SOL     OW16612   4.028   2.707   3.294 -0.0881  0.1176 -0.4250
 1659SOL    HW116613   4.117   2.681   3.271  0.6468  0.7286  1.7399
 1659SOL    HW216614   4.023   2.803   3.290  3.1087  0.3183  0.6260
 1660SOL     OW16615   2.918   0.887   9.793 -0.1246 -0.1695  0.1183
 1660SOL    HW116616   2.968   0.895   9.875  0.5999 -4.7787  0.1090
 1660SOL    HW216617   2.931   0.973   9.753 -1.9044  0.3518  0.6338
 1661SOL     OW16618   1.033   3.806  17.219  0.2030 -0.7611  0.1219
 1661SOL    HW116619   1.069   3.760  17.142 -0.6676 -2.0973  0.5134
 1661SOL    HW216620   0.945   3.769  17.211 -0.6533  1.6247 -1.4261
 1662SOL     OW16621   1.306   4.574   2.875  0.0137  0.3106 -0.0272
 1662SOL    HW116622   1.296   4.528   2.958 -1.5552  1.1364  0.2362
 1662SOL    HW216623   1.236   4.540   2.818  2.3285 -1.8697 -1.6052
 1663SOL     OW16624   4.606   0.984  11.830 -0.5710  0.1166  0.0085
 1663SOL    HW116625   4.578   1.052  11.892  1.7508  1.8814 -0.8787
 1663SOL    HW216626   4.614   0.915  11.895 -0.3875  0.8563  0.7675
 1664SOL     OW16627   0.367   4.150  16.396 -0.4149  0.1572 -0.0926
 1664SOL    HW116628   0.434   4.101  16.443 -1.6487 -1.1316  0.3302
 1664SOL    HW216629   0.327   4.088  16.336 -2.4565  1.3657  0.0048
 1665SOL     OW16630   3.360   0.639   8.054  0.0558 -0.1108  0.4138
 1665SOL    HW116631   3.439   0.681   8.087 -0.4337 -0.7113  2.4022
 1665SOL    HW216632   3.322   0.719   8.018 -1.1865 -1.2067 -0.7072
 1666SOL     OW16633   3.863   0.434  12.462 -0.5097 -0.0941 -0.3105
 1666SOL    HW116634   3.869   0.353  12.411  0.0136  0.3097 -0.8817
 1666SOL    HW216635   3.797   0.405  12.525 -2.5265  1.7298 -1.5937
 1667SOL     OW16636   3.984   0.188   5.040 -0.7496 -0.0816  0.3089
 1667SOL    HW116637   4.021   0.143   4.963  1.1396  0.6800  0.7706
 1667SOL    HW216638   3.953   0.120   5.100 -0.1545 -0.6900 -0.0759
 1668SOL     OW16639   3.308   2.649  11.660 -0.0461  0.2772  0.3254
 1668SOL    HW116640   3.289   2.556  11.672 -0.4007  0.1621 -1.1752
 1668SOL    HW216641   3.337   2.679  11.746 -2.0134  2.0867  0.3866
 1669SOL     OW16642   2.025   4.318  10.442 -0.2094  0.4639  0.4397
 1669SOL    HW116643   2.018   4.264  10.521 -1.2459  0.0618  0.0722
 1669SOL    HW216644   2.000   4.252  10.377 -1.2749  0.4433  0.8771
 1670SOL     OW16645   2.499   2.146   1.030  0.0596 -0.0893 -0.1992
 1670SOL    HW116646   2.585   2.174   0.999 -0.6169  0.6294 -1.4207
 1670SOL    HW216647   2.465   2.223   1.075  1.1447  0.3903 -0.1990
 1671SOL     OW16648   2.823   3.602   4.387 -0.1129 -0.5831  0.7194
 1671SOL    HW116649   2.732   3.622   4.407 -0.4621 -1.4733 -0.0158
 1671SOL    HW216650   2.843   3.523   4.437 -0.8064 -1.6048 -0.6229
 1672SOL     OW16651   2.676   0.388   8.180  0.4218 -0.0924  0.2356
 1672SOL    HW116652   2.704   0.337   8.256 -1.2063 -2.5814 -0.8461
 1672SOL    HW216653   2.582   0.389   8.198 -0.2152  1.6511 -3.2033
 1673SOL     OW16654   3.844   3.859  17.528 -0.2053 -0.0307  0.2295
 1673SOL    HW116655   3.771   3.870  17.588 -0.5491  1.9708 -0.5363
 1673SOL    HW216656   3.921   3.848  17.584  0.2467  0.2889 -0.3267
 1674SOL     OW16657   0.230   1.477   7.137  0.0630  0.2325  0.8997
 1674SOL    HW116658   0.202   1.569   7.133 -1.6552 -0.4398 -2.2616
 1674SOL    HW216659   0.264   1.462   7.225  0.7825 -0.3024  0.5265
 1675SOL     OW16660   1.479   0.492  14.754  0.3914  0.3152 -0.3184
 1675SOL    HW116661   1.517   0.425  14.697 -0.3874 -0.2774 -0.1267
 1675SOL    HW216662   1.525   0.568  14.717  0.8871  0.0660 -0.2165
 1676SOL     OW16663   2.838   1.104  10.109 -0.6445 -0.0511 -0.0501
 1676SOL    HW116664   2.753   1.143  10.088  0.2224  0.3332 -2.8591
 1676SOL    HW216665   2.803   1.015  10.121 -0.2092 -0.0245  1.3368
 1677SOL     OW16666   1.298   2.691   3.190  0.2040  0.7809 -0.1320
 1677SOL    HW116667   1.324   2.775   3.152 -1.0109  0.4477 -1.7257
 1677SOL    HW216668   1.383   2.648   3.204 -1.5209 -2.3806  0.4688
 1678SOL     OW16669   0.327   1.559  14.941  0.2178  0.4996  0.4091
 1678SOL    HW116670   0.364   1.607  15.015 -0.9932  1.1229  0.6098
 1678SOL    HW216671   0.288   1.634  14.897  0.3617 -0.4503 -1.3357
 1679SOL     OW16672   4.675   0.318  12.068 -0.1432  0.0561 -0.0878
 1679SOL    HW116673   4.663   0.296  12.161  0.0836 -0.6392 -0.2205
 1679SOL    HW216674   4.675   0.230  12.030  1.0128  0.6638 -1.4852
 1680SOL     OW16675   0.621   0.395   7.979 -0.4173  0.2107 -0.6363
 1680SOL    HW116676   0.676   0.458   7.933 -1.9224  0.3190 -2.2953
 1680SOL    HW216677   0.531   0.430   7.973 -0.5196 -0.4683 -3.2008
 1681SOL     OW16678   2.898   4.054   6.163  0.2461  0.2761  0.0689
 1681SOL    HW116679   2.917   4.067   6.256  0.1108 -0.7049  0.2319
 1681SOL    HW216680   2.805   4.031   6.158  0.5297 -0.3460 -2.3019
 1682SOL     OW16681   4.357   1.958   6.333 -0.6339  0.0433 -0.0328
 1682SOL    HW116682   4.356   1.866   6.360  2.0469 -0.7679 -2.6875
 1682SOL    HW216683   4.435   1.970   6.279 -0.2220  0.8170  0.7582
 1683SOL     OW16684   0.125   4.186   6.907  0.1692 -0.3595  0.3089
 1683SOL    HW116685   0.098   4.277   6.893  0.7355 -0.2446 -0.0344
 1683SOL    HW216686   0.186   4.175   6.834 -1.0613 -2.8900 -0.3280
 1684SOL     OW16687   4.120   1.182   8.106  0.2694 -0.3358 -0.2072
 1684SOL    HW116688   4.083   1.250   8.162 -0.9576 -1.4715  0.3766
 1684SOL    HW216689   4.115   1.216   8.017  2.7051 -0.0399 -0.2089
 1685SOL     OW16690   1.378   0.614   0.767  0.2288  0.3138 -0.0956
 1685SOL    HW116691   1.379   0.620   0.671 -0.3447  0.8631 -0.0694
 1685SOL    HW216692   1.409   0.524   0.778 -2.8492 -0.5889  1.1447
 1686SOL     OW16693   2.908   3.093   7.598 -0.1283 -0.4384 -0.1035
 1686SOL    HW116694   2.813   3.106   7.590 -0.1924 -0.5297  0.5133
 1686SOL    HW216695   2.907   3.010   7.646 -0.7362 -0.7008 -0.5693
 1687SOL     OW16696   4.572   4.237   8.647 -0.3937 -0.0900  0.4660
 1687SOL    HW116697   4.562   4.173   8.577 -1.7086 -2.7943  3.1504
 1687SOL    HW216698   4.612   4.305   8.593  0.8688 -1.3438 -0.1851
 1688SOL     OW16699   2.812   3.852  10.210  0.1051 -0.0682 -0.4867
 1688SOL    HW116700   2.905   3.841  10.230 -0.6536 -0.5174  2.8697
 1688SOL    HW216701   2.812   3.905  10.130 -1.0564 -1.6174 -1.5172
 1689SOL     OW16702   0.722   3.445  14.368  0.0395  0.1428  0.1636
 1689SOL    HW116703   0.659   3.493  14.314  0.3081  0.1660 -0.1306
 1689SOL    HW216704   0.739   3.367  14.315  0.8868 -1.1160  2.2926
 1690SOL     OW16705   2.147   2.232   8.862  0.0172  0.4348 -0.2123
 1690SOL    HW116706   2.095   2.201   8.787 -1.0502 -1.4317  1.3009
 1690SOL    HW216707   2.216   2.286   8.824  0.5394  0.3897  0.6893
 1691SOL     OW16708   0.316   3.142   9.461 -0.2933  0.1681 -0.1257
 1691SOL    HW116709   0.371   3.146   9.539 -0.4316  1.5368 -0.0957
 1691SOL    HW216710   0.367   3.082   9.405 -1.7768 -0.8042 -0.4255
 1692SOL     OW16711   1.348   2.427  13.310  0.2884 -0.0158  0.3300
 1692SOL    HW116712   1.425   2.385  13.349 -1.4708 -1.0939  2.5831
 1692SOL    HW216713   1.308   2.451  13.393  0.3872 -1.7692  0.8862
 1693SOL     OW16714   0.370   4.308   4.862  0.0902  0.0501  0.1013
 1693SOL    HW116715   0.398   4.397   4.841 -0.3096 -0.1459 -1.2743
 1693SOL    HW216716   0.372   4.271   4.774 -2.0086  0.0822  0.0424
 1694SOL     OW16717   1.995   1.541   6.266  0.1004 -0.3109 -0.3303
 1694SOL    HW116718   1.970   1.583   6.348 -1.0985  1.4683 -1.6077
 1694SOL    HW216719   1.948   1.594   6.201  1.5983  1.0763 -0.2542
 1695SOL     OW16720   2.545   3.737  12.914 -0.2352 -0.3717 -0.4168
 1695SOL    HW116721   2.549   3.681  12.837 -1.2610 -0.1254 -0.6557
 1695SOL    HW216722   2.559   3.816  12.862 -0.2872  0.3762  0.7044
 1696SOL     OW16723   3.485   2.985   6.666  0.4434 -0.7275 -0.2253
 1696SOL    HW116724   3.497   2.948   6.754  0.5559  0.6669  0.3499
 1696SOL    HW216725   3.403   2.942   6.643  0.5548 -1.3091  0.4262
 1697SOL     OW16726   3.855   2.496   0.214 -0.6960 -0.1230 -0.1193
 1697SOL    HW116727   3.770   2.469   0.179 -0.4355  0.7750 -1.4405
 1697SOL    HW216728   3.917   2.454   0.154  2.4870  4.0827  0.2347
 1698SOL     OW16729   4.173   2.132  14.866 -0.0492  0.0599 -0.4963
 1698SOL    HW116730   4.221   2.079  14.802 -1.4265 -1.1308 -0.5393
 1698SOL    HW216731   4.139   2.208  14.817 -1.7688 -0.0927  0.4807
 1699SOL     OW16732   4.724   2.324   4.620  0.4071 -0.4629 -0.3589
 1699SOL    HW116733   0.000   2.343   4.713  2.2874  2.0400 -1.1154
 1699SOL    HW216734   4.669   2.401   4.609 -0.0229 -0.8296 -0.7715
 1700SOL     OW16735   3.513   2.639  15.956  0.5991 -0.1506  0.0751
 1700SOL    HW116736   3.601   2.667  15.982 -0.4339  1.8591  1.3820
 1700SOL    HW216737   3.488   2.718  15.908  0.9317 -1.3089 -2.0006
 1701SOL     OW16738   3.088   3.437   5.480  0.0983  0.2770  0.0456
 1701SOL    HW116739   3.074   3.526   5.447 -2.0389  0.1508  0.5577
 1701SOL    HW216740   3.041   3.383   5.416  2.0177  2.2353 -2.9877
 1702SOL     OW16741   2.143   1.482   9.166 -0.1299  0.0433 -0.3131
 1702SOL    HW116742   2.110   1.561   9.208  1.3276  0.3619  0.2295
 1702SOL    HW216743   2.101   1.415   9.219 -0.5878  0.2462 -0.4202
 1703SOL     OW16744   2.381   4.523  13.217 -0.2126  0.1101  0.0946
 1703SOL    HW116745   2.348   4.434  13.207 -1.2845  0.3672  1.3277
 1703SOL    HW216746   2.326   4.546  13.292  0.4125  1.9023 -0.0008
 1704SOL     OW16747   3.861   2.251   8.592 -0.0631  0.2661 -0.0460
 1704SOL    HW116748   3.773   2.287   8.590  0.4586  1.5340 -0.1577
 1704SOL    HW216749   3.847   2.156   8.594 -1.5249  0.4704 -0.7938
 1705SOL     OW16750   2.293   4.281   5.463  0.7414  0.2635  0.1592
 1705SOL    HW116751   2.215   4.239   5.500  0.8473  0.8347  1.0192
 1705SOL    HW216752   2.323   4.332   5.538 -0.2045  1.0212  0.0189
 1706SOL     OW16753   3.758   4.541  15.816  0.1214 -0.0629  0.0874
 1706SOL    HW116754   3.819   4.576  15.881  1.6341 -1.1817 -0.7125
 1706SOL    HW216755   3.744   4.621  15.765 -1.0498  0.5239  1.3341
 1707SOL     OW16756   2.426   0.095   9.829 -0.4493  0.1228  0.0467
 1707SOL    HW116757   2.433   0.003   9.801  1.3435 -0.5684  2.8197
 1707SOL    HW216758   2.427   0.080   9.923 -1.0718 -0.8840 -0.1046
 1708SOL     OW16759   3.917   1.818   3.487  0.1868  0.0904  0.2847
 1708SOL    HW116760   3.841   1.871   3.462  0.8012  0.0491 -1.6683
 1708SOL    HW216761   3.981   1.889   3.481 -0.2793  0.4413 -0.6498
 1709SOL     OW16762   2.399   4.564   4.410  0.2773 -0.1063  0.0070
 1709SOL    HW116763   2.368   4.538   4.496  1.2211 -1.5784 -0.0987
 1709SOL    HW216764   2.316   4.595   4.373 -0.6615 -0.2862  1.9568
 1710SOL     OW16765   1.070   1.927   9.553  0.0332  0.3359 -0.0897
 1710SOL    HW116766   0.988   1.881   9.535 -0.0176  0.7662 -0.9403
 1710SOL    HW216767   1.040   1.969   9.634  0.0592  4.1673 -2.0761
 1711SOL     OW16768   0.588   2.910  10.364 -0.2070 -0.3067  0.1057
 1711SOL    HW116769   0.559   2.908  10.273  1.4236  1.3490 -0.4509
 1711SOL    HW216770   0.634   2.994  10.365 -1.4876  0.4109 -0.3401
 1712SOL     OW16771   0.124   3.723   4.980  0.2381 -0.2396 -0.3800
 1712SOL    HW116772   0.196   3.726   5.042 -0.9173  1.9798  0.8677
 1712SOL    HW216773   0.075   3.646   5.007 -1.2306  0.4770 -0.9782
 1713SOL     OW16774   3.495   0.811   1.442 -0.0722  0.2461 -0.1619
 1713SOL    HW116775   3.439   0.887   1.454 -0.4054 -0.0255  0.0385
 1713SOL    HW216776   3.571   0.835   1.390  1.0077 -0.0273  1.2689
 1714SOL     OW16777   4.269   3.141   0.470  0.0719  0.2248  0.0231
 1714SOL    HW116778   4.308   3.072   0.524 -2.3651 -1.5710 -0.5024
 1714SOL    HW216779   4.188   3.101   0.439  0.3464  0.7172 -1.2973
 1715SOL     OW16780   4.514   2.505   3.301 -0.3414  0.0217 -0.1141
 1715SOL    HW116781   4.581   2.529   3.365 -1.4834  1.2686  0.6402
 1715SOL    HW216782   4.536   2.422   3.260 -1.8480 -1.8414  2.7852
 1716SOL     OW16783   3.305   3.330   3.092 -0.2544 -0.6853 -0.0656
 1716SOL    HW116784   3.327   3.309   3.001  1.6019  1.7509 -0.1593
 1716SOL    HW216785   3.222   3.375   3.077  0.3024  0.2517 -0.2896
 1717SOL     OW16786   4.569   3.730  16.826  0.1136 -0.2061  0.3878
 1717SOL    HW116787   4.537   3.805  16.877 -2.1062 -1.2203  0.4774
 1717SOL    HW216788   4.496   3.698  16.773 -0.4091  0.8904  0.4272
 1718SOL     OW16789   4.434   1.077   6.221 -0.0724 -0.2072  0.3622
 1718SOL    HW116790   4.407   0.988   6.198  0.9559 -0.0614 -1.3691
 1718SOL    HW216791   4.522   1.066   6.187 -0.8851 -0.8861 -1.5416
 1719SOL     OW16792   0.224   3.206   5.345  0.2227  0.2476 -0.2212
 1719SOL    HW116793   0.193   3.174   5.260 -0.4082  2.6802 -0.9044
 1719SOL    HW216794   0.149   3.246   5.388  0.2203  0.7358 -0.6833
 1720SOL     OW16795   1.719   3.472  12.656 -0.5272  0.4353  0.3573
 1720SOL    HW116796   1.753   3.488  12.744 -3.3348 -0.8200  1.6939
 1720SOL    HW216797   1.774   3.533  12.607 -0.2933  1.2436  1.6268
 1721SOL     OW16798   2.909   0.310   3.884 -0.0155  0.1892 -0.8852
 1721SOL    HW116799   2.874   0.304   3.795 -0.7619 -3.3549 -0.3682
 1721SOL    HW216800   2.994   0.351   3.867 -0.0557  0.6190 -0.0467
 1722SOL     OW16801   3.001   0.920   6.073  0.4258  0.1168 -0.0522
 1722SOL    HW116802   3.036   0.887   6.156  0.7152  0.9513  0.1513
 1722SOL    HW216803   2.981   0.836   6.031 -0.2920  1.2752 -2.0427
 1723SOL     OW16804   3.963   2.105   3.435 -0.5220 -0.0443  0.6415
 1723SOL    HW116805   3.912   2.097   3.355  0.1349  1.0838  0.1204
 1723SOL    HW216806   4.054   2.102   3.405 -1.2505  1.2658 -1.6447
 1724SOL     OW16807   2.236   3.840   8.450 -0.4729 -0.0135 -0.2151
 1724SOL    HW116808   2.181   3.790   8.510 -2.2974  0.9799 -1.0670
 1724SOL    HW216809   2.312   3.834   8.508  0.0767 -1.3541 -1.0916
 1725SOL     OW16810   4.280   3.692  13.375 -0.4741 -0.2111  0.4344
 1725SOL    HW116811   4.278   3.650  13.289  1.4185 -0.1059  0.3448
 1725SOL    HW216812   4.185   3.706  13.383 -0.5795 -0.0642 -0.9858
 1726SOL     OW16813   1.388   1.180   4.336  0.5544 -0.1724 -0.1269
 1726SOL    HW116814   1.479   1.149   4.335  0.9646  0.9887  0.1545
 1726SOL    HW216815   1.332   1.107   4.310 -0.4018  0.5586 -0.1130
 1727SOL     OW16816   3.455   2.254  17.350  0.2230  0.5156 -0.0177
 1727SOL    HW116817   3.451   2.172  17.399  0.5286  0.5701  0.0991
 1727SOL    HW216818   3.376   2.297  17.385  0.2947 -0.3537  1.2212
 1728SOL     OW16819   2.718   0.350   7.894  0.3129 -0.2556 -0.4641
 1728SOL    HW116820   2.764   0.267   7.896  2.5604  1.0086  0.4661
 1728SOL    HW216821   2.727   0.385   7.983 -0.4035 -0.1338 -0.4370
 1729SOL     OW16822   4.288   2.647   3.262  0.0906  0.1992 -0.0352
 1729SOL    HW116823   4.334   2.720   3.304  2.5342 -2.1284  1.3344
 1729SOL    HW216824   4.362   2.587   3.258  1.4807  1.8295  1.3107
 1730SOL     OW16825   0.664   1.240   1.275 -0.6766 -0.3119  0.1320
 1730SOL    HW116826   0.660   1.320   1.327 -1.2004  0.6643 -1.3998
 1730SOL    HW216827   0.726   1.183   1.319  1.4101  3.1892  1.7106
 1731SOL     OW16828   0.303   3.651   3.663 -0.3428  0.4407 -0.2731
 1731SOL    HW116829   0.273   3.575   3.613 -2.9137  1.2989 -0.0267
 1731SOL    HW216830   0.274   3.616   3.747 -1.9091 -0.6695 -1.2932
 1732SOL     OW16831   4.290   0.865   9.884 -0.8725  0.0643 -0.1846
 1732SOL    HW116832   4.299   0.834   9.794 -2.0770 -0.0703 -0.2647
 1732SOL    HW216833   4.385   0.867   9.898 -0.7713 -2.4659 -0.5698
 1733SOL     OW16834   3.611   4.087   3.077 -0.2913 -0.1917  0.3556
 1733SOL    HW116835   3.551   4.014   3.090  0.7872 -0.8264  1.7492
 1733SOL    HW216836   3.573   4.117   2.995  0.3719  2.2400  0.9437
 1734SOL     OW16837   3.097   2.246   5.792  0.1216 -0.2707 -0.2986
 1734SOL    HW116838   3.070   2.181   5.727 -1.1490 -1.1534  1.0971
 1734SOL    HW216839   3.073   2.325   5.743 -0.4904 -0.1152  0.2606
 1735SOL     OW16840   2.230   2.293   2.067  0.6060  0.1075  0.2770
 1735SOL    HW116841   2.232   2.309   2.161  0.6953  2.0632 -0.0695
 1735SOL    HW216842   2.234   2.197   2.073  0.8231  0.1294  0.5010
 1736SOL     OW16843   0.076   4.419   9.714 -0.3693 -0.4819  0.3129
 1736SOL    HW116844   0.023   4.412   9.635  0.6390  1.0790 -0.4890
 1736SOL    HW216845   0.012   4.471   9.764 -0.8365 -0.6722 -0.0878
 1737SOL     OW16846   1.285   0.469   7.448 -0.5986 -0.2408  0.2889
 1737SOL    HW116847   1.367   0.420   7.453 -0.3947  0.2428  1.8380
 1737SOL    HW216848   1.300   0.522   7.526  2.1304  0.8302 -0.9651
 1738SOL     OW16849   1.893   4.693  17.205  0.3985  0.0061  0.5896
 1738SOL    HW116850   1.931   0.010  17.275 -2.2102 -0.6699  2.5048
 1738SOL    HW216851   1.964   4.635  17.176 -0.2766 -1.1487  1.2961
 1739SOL     OW16852   4.705   0.820  11.013 -0.2429 -0.1249 -0.1778
 1739SOL    HW116853   4.675   0.911  11.016 -0.0142 -0.0677  0.6156
 1739SOL    HW216854   4.642   0.782  10.952  1.6886 -0.9434 -1.6276
 1740SOL     OW16855   3.920   4.408  16.278  0.0330  0.1033  0.4064
 1740SOL    HW116856   3.826   4.424  16.265 -0.1425  0.1420  1.6700
 1740SOL    HW216857   3.943   4.489  16.324  2.1236 -0.8194  0.9846
 1741SOL     OW16858   4.581   2.774  10.165 -0.3860 -0.6894 -0.0167
 1741SOL    HW116859   4.520   2.712  10.205  0.9117 -1.4473  0.7785
 1741SOL    HW216860   4.591   2.847  10.227 -1.2479  0.5006 -1.2599
 1742SOL     OW16861   4.608   0.208   4.983 -0.2539 -0.1362 -0.0649
 1742SOL    HW116862   4.566   0.215   5.069  0.1437  0.9024  0.0430
 1742SOL    HW216863   4.601   0.115   4.961  0.5447 -0.0822 -0.5669
 1743SOL     OW16864   2.177   4.590  17.630  0.3460  0.1611 -0.6931
 1743SOL    HW116865   2.248   4.548  17.680 -1.1673 -0.3874  1.0051
 1743SOL    HW216866   2.136   4.512  17.592  2.0913 -0.7380 -0.7266
 1744SOL     OW16867   4.292   0.626   7.554  0.2728 -0.1890 -0.5903
 1744SOL    HW116868   4.346   0.671   7.489 -1.4664 -0.7489 -2.4308
 1744SOL    HW216869   4.289   0.533   7.533 -1.0204 -0.4984  0.9756
 1745SOL     OW16870   0.867   3.012   7.095  0.3288  1.1987  0.2416
 1745SOL    HW116871   0.952   2.978   7.069  0.3411  0.1814  1.6059
 1745SOL    HW216872   0.873   3.000   7.190  1.6608 -0.8764 -0.1025
 1746SOL     OW16873   1.205   1.938   8.126 -0.2881  0.0428  0.4075
 1746SOL    HW116874   1.164   1.961   8.209 -0.3152  2.2599 -0.2211
 1746SOL    HW216875   1.146   1.984   8.066 -0.5087 -0.4727  0.2271
 1747SOL     OW16876   1.239   0.852  11.988  0.2882  0.3724  0.6187
 1747SOL    HW116877   1.269   0.767  11.954 -0.3945  1.7529 -3.4123
 1747SOL    HW216878   1.266   0.859  12.080  1.9355 -1.5971  0.2890
 1748SOL     OW16879   2.164   4.057   9.106 -0.0295 -0.1096 -0.1962
 1748SOL    HW116880   2.219   4.076   9.030 -0.5118  0.0805 -0.4973
 1748SOL    HW216881   2.230   4.012   9.159 -1.5022  0.3994  2.0851
 1749SOL     OW16882   2.300   2.956   1.676 -0.2544  0.0902  0.1131
 1749SOL    HW116883   2.279   2.907   1.597  1.5133  2.5934 -1.9032
 1749SOL    HW216884   2.320   2.880   1.731  1.4081  0.5656  0.1813
 1750SOL     OW16885   1.769   2.675   1.804 -0.1764 -0.5871  0.2178
 1750SOL    HW116886   1.740   2.720   1.725  0.8595  2.3055  1.4641
 1750SOL    HW216887   1.858   2.652   1.776  0.3550 -0.9183  2.1890
 1751SOL     OW16888   3.911   1.777   4.562 -0.3407  0.4454  0.0976
 1751SOL    HW116889   3.940   1.730   4.484 -0.5533  0.2739  0.1213
 1751SOL    HW216890   3.990   1.773   4.615  0.1326  2.2946 -0.4747
 1752SOL     OW16891   3.462   1.294   6.346  0.5644  0.0874  0.1623
 1752SOL    HW116892   3.376   1.272   6.310  0.3770  3.3993 -1.3901
 1752SOL    HW216893   3.450   1.383   6.380 -1.2184 -0.2480  0.3842
 1753SOL     OW16894   1.486   1.790   0.498 -0.4503  0.1883 -0.1357
 1753SOL    HW116895   1.528   1.776   0.412  0.6026 -0.9134  0.5618
 1753SOL    HW216896   1.410   1.735   0.480 -0.3279  0.0002 -0.0694
 1754SOL     OW16897   0.400   2.950  14.256  0.2868 -0.2248  0.3118
 1754SOL    HW116898   0.492   2.975  14.264  0.4439 -0.8230  0.3885
 1754SOL    HW216899   0.358   3.030  14.224  0.0335 -0.6636 -0.4433
 1755SOL     OW16900   4.437   2.520   7.370  0.0302 -0.4551  0.0551
 1755SOL    HW116901   4.388   2.548   7.447 -0.3372 -2.7948  0.6745
 1755SOL    HW216902   4.403   2.573   7.298  2.3142  2.2782  1.0054
 1756SOL     OW16903   1.232   2.174  13.529  0.1137  0.6321 -0.2143
 1756SOL    HW116904   1.173   2.131  13.591  0.3889 -0.1607 -0.5143
 1756SOL    HW216905   1.171   2.233  13.485 -0.0377  0.3810 -0.3375
 1757SOL     OW16906   1.182   1.958   6.769 -0.2736 -0.0251 -0.4619
 1757SOL    HW116907   1.159   2.047   6.794  0.8466  0.2169 -0.3219
 1757SOL    HW216908   1.105   1.912   6.804 -0.0639 -2.0367 -2.6473
 1758SOL     OW16909   2.188   0.754  13.497 -0.3080 -0.3614  0.4606
 1758SOL    HW116910   2.254   0.822  13.484  0.7729 -1.3006  1.1593
 1758SOL    HW216911   2.205   0.730  13.588  0.7052 -1.2919  0.0227
 1759SOL     OW16912   1.472   2.541  17.544  0.7576 -0.4476 -0.2085
 1759SOL    HW116913   1.418   2.502  17.475  2.2957 -1.1388 -1.0181
 1759SOL    HW216914   1.461   2.476  17.613 -0.7778  0.3985  0.3532
 1760SOL     OW16915   2.556   0.142  12.977 -0.4756 -0.0843  0.0664
 1760SOL    HW116916   2.552   0.112  12.887  1.0353  1.0262 -0.3826
 1760SOL    HW216917   2.562   0.238  12.974 -1.5453  0.0973  3.6240
 1761SOL     OW16918   2.028   1.501  16.268  0.2321 -0.2202 -0.6335
 1761SOL    HW116919   2.115   1.511  16.229  0.5079  1.3462  0.3681
 1761SOL    HW216920   2.039   1.431  16.332 -1.5307 -0.8939 -1.0468
 1762SOL     OW16921   3.654   3.090   7.376  0.4743 -0.2305  0.2477
 1762SOL    HW116922   3.679   3.180   7.395 -2.0434  1.0322 -2.3850
 1762SOL    HW216923   3.733   3.057   7.332 -0.0548  0.5329 -1.2932
 1763SOL     OW16924   3.071   4.552  11.247  0.6262 -0.1824  0.2312
 1763SOL    HW116925   3.109   4.639  11.231 -1.3437  0.7181  0.3745
 1763SOL    HW216926   3.094   4.551  11.340  0.7899 -1.0917  0.1802
 1764SOL     OW16927   0.380   0.052   7.207 -0.1432  0.1551 -0.2779
 1764SOL    HW116928   0.455   0.098   7.245  0.8215 -1.5306 -0.1066
 1764SOL    HW216929   0.425   0.012   7.132  2.3274 -1.6242  2.1740
 1765SOL     OW16930   1.075   2.956  12.420  0.0652 -0.5744  0.6037
 1765SOL    HW116931   1.122   2.920  12.345 -0.1936 -3.6853  1.8965
 1765SOL    HW216932   0.987   2.966  12.383  0.4465 -0.6427 -0.3305
 1766SOL     OW16933   3.119   0.481   1.958  0.0040  0.0020  0.2743
 1766SOL    HW116934   3.104   0.393   1.924  0.5453 -0.1601  0.4667
 1766SOL    HW216935   3.200   0.469   2.007  1.4392 -0.1216 -2.1422
 1767SOL     OW16936   4.684   0.042   6.399 -0.6536  0.0191 -0.3221
 1767SOL    HW116937   0.001   4.723   6.342  0.1630  0.9020 -0.4292
 1767SOL    HW216938   4.693   0.116   6.339 -1.6191 -1.0134 -1.7363
 1768SOL     OW16939   1.418   0.905   1.523  0.4569  0.2428  0.5589
 1768SOL    HW116940   1.409   1.000   1.524  1.6680  0.3898 -2.4082
 1768SOL    HW216941   1.324   0.884   1.525  0.7734 -1.3349 -1.0744
 1769SOL     OW16942   4.385   3.758   7.989 -0.0916  0.2011  0.1347
 1769SOL    HW116943   4.426   3.789   7.908 -2.9636 -0.4120 -1.5488
 1769SOL    HW216944   4.351   3.834   8.038  1.0321 -0.0569  1.3081
 1770SOL     OW16945   2.816   1.340  14.616  0.3345  0.5310  1.4222
 1770SOL    HW116946   2.909   1.349  14.594  0.0179 -0.3782 -0.3269
 1770SOL    HW216947   2.816   1.245  14.633  0.5593  0.2736  0.0426
 1771SOL     OW16948   0.973   4.398  10.454  0.3121 -0.5510  0.4600
 1771SOL    HW116949   0.988   4.439  10.539  0.2848  0.8198 -0.2025
 1771SOL    HW216950   1.043   4.432  10.398  0.2873 -0.0439  0.7377
 1772SOL     OW16951   1.820   4.577   9.709  0.2843 -0.2640 -0.3556
 1772SOL    HW116952   1.773   4.597   9.790  2.4669  0.5060  0.7290
 1772SOL    HW216953   1.910   4.567   9.740 -0.1036  0.3678  0.9784
 1773SOL     OW16954   1.921   4.003  14.157  0.0788  0.3463 -0.2050
 1773SOL    HW116955   1.927   3.937  14.088 -0.5297 -0.8500  0.8788
 1773SOL    HW216956   1.938   3.958  14.240  0.9286  0.9699 -0.0413
 1774SOL     OW16957   2.983   2.613   6.541 -0.6583 -0.6115  0.1742
 1774SOL    HW116958   3.034   2.581   6.466  0.3212  0.1859  0.4974
 1774SOL    HW216959   2.922   2.540   6.548  0.3809 -1.5576 -0.7004
 1775SOL     OW16960   3.767   4.727   3.467  0.5574  0.0636 -0.4018
 1775SOL    HW116961   3.798   0.025   3.551  0.1575  0.8433 -0.5703
 1775SOL    HW216962   3.813   4.643   3.468 -0.0744 -0.2834 -0.3548
 1776SOL     OW16963   3.805   0.082  15.708  0.1103  0.9859 -0.0302
 1776SOL    HW116964   3.860   0.074  15.629  0.5445  1.2345  0.2458
 1776SOL    HW216965   3.879   0.098  15.766  0.3208 -0.2550  0.0418
 1777SOL     OW16966   0.631   3.326   4.427  0.5660  0.1167  0.5374
 1777SOL    HW116967   0.541   3.316   4.459 -0.4858  3.1686 -1.3667
 1777SOL    HW216968   0.648   3.240   4.389  0.1241  0.8476 -1.3442
 1778SOL     OW16969   1.045   1.065   5.306 -0.2721  0.5274 -0.1686
 1778SOL    HW116970   1.112   1.101   5.248 -0.1585 -0.3762 -0.6078
 1778SOL    HW216971   0.974   1.040   5.245  0.1844 -0.2749 -0.3703
 1779SOL     OW16972   1.386   4.040   4.832 -0.1197 -0.5965  0.6988
 1779SOL    HW116973   1.466   4.076   4.795 -0.4100  0.4128  1.0468
 1779SOL    HW216974   1.365   4.104   4.900 -1.2180 -0.5079  0.2772
 1780SOL     OW16975   2.536   1.923   2.583 -0.1038 -0.0741  0.1915
 1780SOL    HW116976   2.577   1.862   2.644 -0.3617 -0.8888 -0.4455
 1780SOL    HW216977   2.552   2.002   2.636  0.7122  0.4608 -0.8544
 1781SOL     OW16978   0.658   1.865  12.378 -0.5256  0.0393  0.2825
 1781SOL    HW116979   0.719   1.938  12.363 -1.0145  0.2439 -0.7461
 1781SOL    HW216980   0.573   1.909  12.379 -0.4412  0.2230 -0.4507
 1782SOL     OW16981   0.195   4.019  10.720  0.4257 -0.1229  0.3936
 1782SOL    HW116982   0.146   4.023  10.802 -1.5967  0.0563 -0.8098
 1782SOL    HW216983   0.136   4.064  10.659 -0.2208 -0.4501  0.7782
 1783SOL     OW16984   4.378   3.058  17.218  0.3244  0.6171 -0.2914
 1783SOL    HW116985   4.400   3.131  17.160 -0.6015  0.8741 -0.3118
 1783SOL    HW216986   4.283   3.054  17.212  0.4853 -0.3804 -2.3255
 1784SOL     OW16987   4.629   4.214   2.454  0.2218 -0.0775 -0.1999
 1784SOL    HW116988   4.621   4.287   2.393  0.2502  3.1786  3.7731
 1784SOL    HW216989   4.715   4.230   2.494  0.7221 -0.3055 -1.1755
 1785SOL     OW16990   1.398   3.028  17.646  0.3044 -0.1812 -0.1231
 1785SOL    HW116991   1.424   2.948  17.599  2.0298 -0.7705  1.8033
 1785SOL    HW216992   1.331   2.992  17.704  1.1124  1.8871  2.0952
 1786SOL     OW16993   4.345   0.499   4.777  0.1903  0.3714  0.0685
 1786SOL    HW116994   4.380   0.446   4.705 -1.1907  0.8843 -0.9832
 1786SOL    HW216995   4.272   0.446   4.809  1.9365 -1.0537  1.6770
 1787SOL     OW16996   4.221   1.579  12.292  0.0636  0.0033 -0.4075
 1787SOL    HW116997   4.204   1.493  12.254  1.6848 -0.2119 -0.6605
 1787SOL    HW216998   4.158   1.573  12.363  0.9089  1.0241  0.4195
 1788SOL     OW16999   3.510   1.120   4.224  0.1774  0.5058 -0.3550
 1788SOL    HW117000   3.442   1.125   4.292  0.3960  1.6535 -0.2193
 1788SOL    HW217001   3.574   1.064   4.269  0.6604  0.1291 -1.5341
 1789SOL     OW17002   2.492   2.420   0.655 -0.0322  0.3109 -0.7369
 1789SOL    HW117003   2.571   2.428   0.709 -0.1527 -4.1212  0.0948
 1789SOL    HW217004   2.488   2.325   0.653 -1.1663  0.3479 -0.1165
 1790SOL     OW17005   1.228   1.210   1.972 -0.1800 -0.1065  0.5926
 1790SOL    HW117006   1.248   1.296   2.010 -1.6931  0.1500  0.8024
 1790SOL    HW217007   1.151   1.184   2.023 -1.1089 -0.4988 -1.0311
 1791SOL     OW17008   1.535   4.061   4.200 -0.2336 -0.1951 -0.0301
 1791SOL    HW117009   1.444   4.070   4.229 -0.5130 -1.0069 -0.6547
 1791SOL    HW217010   1.529   4.095   4.111 -1.5131 -1.3291 -0.3752
 1792SOL     OW17011   1.274   3.233   3.199  0.0205 -0.3183  0.3046
 1792SOL    HW117012   1.276   3.149   3.245 -1.6025 -0.1569  0.6577
 1792SOL    HW217013   1.184   3.234   3.167  0.7093  1.0520 -1.6321
 1793SOL     OW17014   0.507   1.847   1.225  0.2450  0.2205  0.3399
 1793SOL    HW117015   0.452   1.925   1.217 -1.3214 -0.7595  1.4520
 1793SOL    HW217016   0.581   1.871   1.169 -0.1760 -0.7650 -0.6478
 1794SOL     OW17017   0.819   0.234  14.606 -0.1104  0.2573 -0.5609
 1794SOL    HW117018   0.897   0.287  14.591 -1.1891  1.8495 -0.5737
 1794SOL    HW217019   0.821   0.202  14.696 -1.1714  3.8333  0.7170
 1795SOL     OW17020   0.625   2.530   6.123  0.6384  0.2053 -0.3844
 1795SOL    HW117021   0.705   2.580   6.135  0.8960  0.3683 -2.7577
 1795SOL    HW217022   0.561   2.570   6.181  1.5795 -0.9027  1.4473
 1796SOL     OW17023   3.896   2.583   6.800  0.4272  0.1414 -0.0625
 1796SOL    HW117024   3.824   2.569   6.738  0.4761  2.1680 -0.5708
 1796SOL    HW217025   3.948   2.503   6.802  2.9931  1.8341  0.2184
 1797SOL     OW17026   2.228   0.966   1.637 -0.4486 -0.0851  0.1860
 1797SOL    HW117027   2.148   1.018   1.646  0.4417  1.3034  0.0637
 1797SOL    HW217028   2.199   0.877   1.614 -0.8064 -0.2922  1.3841
 1798SOL     OW17029   1.525   2.973  13.505 -0.3318  0.6063 -0.2665
 1798SOL    HW117030   1.465   2.901  13.484 -0.1070  0.7720 -1.5176
 1798SOL    HW217031   1.587   2.917  13.550  1.2150  2.8539  0.4003
 1799SOL     OW17032   2.457   4.517   8.898  0.7748  0.2753 -0.2196
 1799SOL    HW117033   2.432   4.521   8.805 -2.1597  1.8236  0.6319
 1799SOL    HW217034   2.422   4.432   8.927 -1.8644  1.9452  1.4735
 1800SOL     OW17035   1.270   1.628   3.764 -0.0993 -0.5081 -0.5017
 1800SOL    HW117036   1.217   1.562   3.807  0.6952 -0.5786  0.3545
 1800SOL    HW217037   1.200   1.686   3.734 -0.2218 -0.3647  0.0670
 1801SOL     OW17038   1.757   0.562   3.664 -0.3494 -0.2931  0.5835
 1801SOL    HW117039   1.711   0.565   3.747 -0.3372  1.6432  0.5320
 1801SOL    HW217040   1.831   0.622   3.676 -0.3004  0.3377 -2.7496
 1802SOL     OW17041   2.163   1.400   6.007  0.5003 -0.0417 -0.0222
 1802SOL    HW117042   2.157   1.371   6.098  1.3052  1.4390  0.4866
 1802SOL    HW217043   2.116   1.330   5.960 -0.2473  1.9165 -2.2052
 1803SOL     OW17044   1.816   0.828   5.598 -0.1022 -0.1222  0.7361
 1803SOL    HW117045   1.877   0.892   5.635 -0.3716  0.6723 -0.1911
 1803SOL    HW217046   1.805   0.866   5.510  1.9920 -1.7410 -0.2260
 1804SOL     OW17047   2.174   1.132   3.412  0.3643 -0.5975 -0.9547
 1804SOL    HW117048   2.162   1.042   3.440 -0.9285 -0.1042  0.0713
 1804SOL    HW217049   2.234   1.172   3.475  1.0834  1.8968 -3.1835
 1805SOL     OW17050   1.784   3.697   4.428 -0.0773  0.0590  0.0437
 1805SOL    HW117051   1.709   3.751   4.401  0.3113  0.3646 -0.4361
 1805SOL    HW217052   1.842   3.773   4.431  0.3588 -0.2282 -1.2693
 1806SOL     OW17053   1.315   0.442   8.805 -1.0983  0.7654  0.2539
 1806SOL    HW117054   1.304   0.452   8.900 -0.2995  0.6141  0.3665
 1806SOL    HW217055   1.407   0.433   8.781 -0.1903  4.3032  2.3664
 1807SOL     OW17056   1.275   0.269   5.590 -0.3553  0.0353  0.7115
 1807SOL    HW117057   1.229   0.196   5.631  1.4438 -2.2793 -1.3825
 1807SOL    HW217058   1.227   0.281   5.508  0.8099 -1.1149 -0.1400
 1808SOL     OW17059   2.592   1.121   5.389 -0.0816  0.0841 -0.1614
 1808SOL    HW117060   2.625   1.209   5.372  1.6842 -0.7125 -0.8874
 1808SOL    HW217061   2.645   1.078   5.322  2.5639  1.6326  0.9403
 1809SOL     OW17062   0.168   3.790  10.550 -0.1882  0.3011 -0.0981
 1809SOL    HW117063   0.210   3.742  10.622  0.4157  0.2845 -0.4633
 1809SOL    HW217064   0.182   3.882  10.574  0.8147  0.4291 -1.1863
 1810SOL     OW17065   0.977   1.720   8.437  0.1095 -0.0696  0.5200
 1810SOL    HW117066   1.041   1.791   8.433 -1.4330  1.1916 -2.5317
 1810SOL    HW217067   0.954   1.704   8.346 -1.7368  2.0823  0.5914
 1811SOL     OW17068   1.099   2.603   7.128 -0.3593  0.0652  0.4131
 1811SOL    HW117069   1.011   2.622   7.163  0.2694 -0.2160  2.1366
 1811SOL    HW217070   1.150   2.559   7.196  1.1990 -2.5014 -2.4139
 1812SOL     OW17071   4.555   2.735  17.170 -0.1167 -0.0486 -0.0445
 1812SOL    HW117072   4.501   2.741  17.090 -0.0099  1.6194  0.0069
 1812SOL    HW217073   4.501   2.782  17.233 -0.5952 -0.2134 -0.3264
 1813SOL     OW17074   4.574   1.279   5.987  0.2239  0.0553 -0.2701
 1813SOL    HW117075   4.652   1.331   6.006 -0.1159  0.7969 -0.9081
 1813SOL    HW217076   4.611   1.192   6.002  0.0117  0.0888  0.4590
 1814SOL     OW17077   2.914   2.180   5.188  0.1870 -0.0408 -1.2304
 1814SOL    HW117078   2.954   2.179   5.102 -0.0307 -0.6990 -1.3268
 1814SOL    HW217079   2.824   2.152   5.170 -0.5313  1.0988  0.4940
 1815SOL     OW17080   3.777   0.187   8.283 -0.1618  0.3098 -0.0635
 1815SOL    HW117081   3.790   0.102   8.326  1.4811  1.3623  1.5336
 1815SOL    HW217082   3.722   0.239   8.342  1.5297  1.1372  0.7609
 1816SOL     OW17083   4.686   1.927   2.467 -0.2256 -0.1773  0.8837
 1816SOL    HW117084   4.678   1.962   2.555 -2.8885  2.3175 -0.3243
 1816SOL    HW217085   4.613   1.865   2.466 -1.4347  1.2612  0.7316
 1817SOL     OW17086   3.959   1.076  11.156  0.0701 -0.7779  0.0094
 1817SOL    HW117087   3.930   1.145  11.216  0.6183 -0.3223 -0.2508
 1817SOL    HW217088   4.034   1.113  11.109  0.0861 -1.3225 -0.3949
 1818SOL     OW17089   4.580   1.130   8.161 -0.6016 -0.2558 -0.2027
 1818SOL    HW117090   4.527   1.207   8.185  1.5404  0.7041  1.5063
 1818SOL    HW217091   4.514   1.096   8.101 -0.3299 -0.0867 -0.6003
 1819SOL     OW17092   1.548   3.633   6.898 -0.9545  0.3575 -0.2944
 1819SOL    HW117093   1.512   3.553   6.936 -1.9537  1.2011  0.5491
 1819SOL    HW217094   1.563   3.617   6.805  1.7100 -0.9123  0.3516
 1820SOL     OW17095   2.866   0.044   7.250  0.3953 -0.4010  0.0297
 1820SOL    HW117096   2.883   0.044   7.156  1.8036 -1.3788  0.2922
 1820SOL    HW217097   2.782   4.734   7.257  0.2874 -0.4161 -1.5111
 1821SOL     OW17098   1.368   0.074  12.561  1.0076  0.3185 -0.0183
 1821SOL    HW117099   1.275   0.076  12.538  1.9209 -1.6228 -3.7163
 1821SOL    HW217100   1.398   0.106  12.476  1.9459  0.7298  0.4667
 1822SOL     OW17101   3.216   2.248   0.473  0.0317 -0.7402  0.2944
 1822SOL    HW117102   3.236   2.341   0.476 -2.3435 -0.2758  2.3526
 1822SOL    HW217103   3.158   2.253   0.549 -1.3434  0.0022 -0.8017
 1823SOL     OW17104   3.203   2.263   7.493 -0.0011 -0.1881 -0.1443
 1823SOL    HW117105   3.127   2.214   7.461 -0.0559  0.2338 -0.6678
 1823SOL    HW217106   3.177   2.302   7.576 -0.2129  0.8938 -0.7221
 1824SOL     OW17107   2.980   3.032   6.117  0.6217 -0.2692  0.4361
 1824SOL    HW117108   3.000   3.100   6.052  2.1245  0.7271  1.9273
 1824SOL    HW217109   2.931   2.977   6.057  2.6952  0.0331 -1.5403
 1825SOL     OW17110   2.622   1.816   0.332  0.4610 -0.3040 -0.1335
 1825SOL    HW117111   2.529   1.802   0.349  1.0416 -2.4883  1.1267
 1825SOL    HW217112   2.628   1.911   0.347 -0.3144 -0.6289  2.1939
 1826SOL     OW17113   0.614   1.264   8.674 -0.2686  0.2422  0.1596
 1826SOL    HW117114   0.651   1.225   8.753  0.2637  0.6912  0.1325
 1826SOL    HW217115   0.540   1.314   8.710  0.6118  0.9979  0.9173
 1827SOL     OW17116   3.119   0.303   4.299 -0.2339  0.2696 -0.6124
 1827SOL    HW117117   3.165   0.233   4.346  0.2531  2.1311  1.6820
 1827SOL    HW217118   3.080   0.244   4.234  0.5972 -0.5933 -0.3239
 1828SOL     OW17119   2.066   0.070  14.246 -0.4896  0.1829 -0.0886
 1828SOL    HW117120   2.095   0.013  14.317  1.7875 -0.2027 -1.3102
 1828SOL    HW217121   2.103   0.017  14.175 -0.2364  1.4268 -0.8954
 1829SOL     OW17122   1.983   0.809   0.311 -0.0677 -0.4481  0.6928
 1829SOL    HW117123   2.007   0.896   0.341  0.5270  0.0028 -1.1103
 1829SOL    HW217124   1.911   0.843   0.259  1.0230  2.2149  0.9453
 1830SOL     OW17125   3.257   2.151   9.800 -0.0571 -0.6507 -0.4411
 1830SOL    HW117126   3.277   2.115   9.886 -0.1278 -0.4352 -0.3348
 1830SOL    HW217127   3.178   2.202   9.818 -0.7126 -2.0851  0.7412
 1831SOL     OW17128   1.035   4.297  15.255 -0.1250 -0.1403  0.1079
 1831SOL    HW117129   1.098   4.269  15.188 -0.3815  2.5210 -1.2398
 1831SOL    HW217130   1.073   4.383  15.277  0.5080 -0.2527 -0.5165
 1832SOL     OW17131   2.283   0.114  13.060 -0.2693 -0.2866 -0.0848
 1832SOL    HW117132   2.272   0.091  13.153  1.6100  0.2155  0.2644
 1832SOL    HW217133   2.376   0.138  13.058 -0.9692  2.4415 -0.0877
 1833SOL     OW17134   2.918   1.816   7.523  0.7399  0.2717 -0.0839
 1833SOL    HW117135   2.858   1.800   7.450 -1.2919 -1.3268  1.9329
 1833SOL    HW217136   2.886   1.761   7.594  1.8695  0.0403  0.2307
 1834SOL     OW17137   1.006   3.181   9.403  0.3256 -0.2437 -0.0860
 1834SOL    HW117138   1.064   3.145   9.336  1.5234 -0.3732  1.0241
 1834SOL    HW217139   1.045   3.268   9.416  1.0186 -0.1650 -2.7133
 1835SOL     OW17140   2.532   1.414  15.178 -0.0168 -0.0813 -0.6981
 1835SOL    HW117141   2.463   1.355  15.147  0.1095 -1.5369  1.7708
 1835SOL    HW217142   2.522   1.489  15.120 -0.2239 -0.9209 -1.7630
 1836SOL     OW17143   0.373   0.050   2.323 -0.3866  0.2381 -0.3810
 1836SOL    HW117144   0.392   0.135   2.282  1.7893 -0.5403 -0.9589
 1836SOL    HW217145   0.324   0.009   2.251 -1.7305 -0.7519  1.0926
 1837SOL     OW17146   3.638   4.402  10.290  0.4142 -0.2570 -0.0522
 1837SOL    HW117147   3.569   4.405  10.225 -0.0848 -0.5162  0.4657
 1837SOL    HW217148   3.685   4.325  10.257 -0.4190 -0.4349 -0.7987
 1838SOL     OW17149   2.674   4.112   5.447 -0.2120  0.0466 -0.5046
 1838SOL    HW117150   2.583   4.081   5.446 -0.7904  1.7016 -0.3462
 1838SOL    HW217151   2.718   4.054   5.509 -0.4718 -0.2538 -0.6059
 1839SOL     OW17152   3.136   3.553   4.769  0.0507  0.1620 -0.3479
 1839SOL    HW117153   3.124   3.459   4.751 -1.6805  0.5376 -1.0863
 1839SOL    HW217154   3.081   3.587   4.700 -3.5476  2.6055  3.7236
 1840SOL     OW17155   4.607   4.181   5.502 -0.0509  0.1364 -0.2130
 1840SOL    HW117156   4.545   4.253   5.497  0.8859  1.0606  1.5597
 1840SOL    HW217157   4.593   4.172   5.596 -2.5174  1.4728 -0.4713
 1841SOL     OW17158   2.804   2.948   4.651 -0.2406  0.0455  0.2287
 1841SOL    HW117159   2.731   2.890   4.672 -0.5936  0.5353  0.3618
 1841SOL    HW217160   2.769   3.037   4.641  0.2075  0.3506  1.3469
 1842SOL     OW17161   3.816   4.311   3.859 -0.0774  0.1499 -0.3005
 1842SOL    HW117162   3.886   4.264   3.813  1.0535  0.1792  1.4323
 1842SOL    HW217163   3.753   4.318   3.786 -0.1270 -1.0585 -0.3733
 1843SOL     OW17164   3.998   1.949   5.896 -0.3449 -0.3594 -0.1238
 1843SOL    HW117165   3.910   1.984   5.910 -0.3902  0.3144 -2.1790
 1843SOL    HW217166   4.053   2.024   5.917 -0.4332 -0.2152 -0.4128
 1844SOL     OW17167   3.369   0.903  10.884 -0.1399 -0.2277  0.4398
 1844SOL    HW117168   3.364   0.990  10.925  1.1208  0.9818 -1.9667
 1844SOL    HW217169   3.448   0.869  10.925 -0.9583 -0.7075  1.6129
 1845SOL     OW17170   2.821   2.269   7.546 -0.4377 -0.2094 -0.3689
 1845SOL    HW117171   2.907   2.274   7.504 -0.7238 -0.3016 -0.9610
 1845SOL    HW217172   2.791   2.181   7.524 -2.1351  0.5846 -1.2186
 1846SOL     OW17173   3.782   3.261   5.106 -0.6712  0.2097  0.4994
 1846SOL    HW117174   3.718   3.207   5.058 -0.9818 -0.1569  1.3269
 1846SOL    HW217175   3.823   3.200   5.167 -0.5588  0.3389  0.5519
 1847SOL     OW17176   3.614   1.479   4.798 -0.4813 -0.3254 -0.0583
 1847SOL    HW117177   3.636   1.560   4.751  2.0213  0.3298  2.1825
 1847SOL    HW217178   3.656   1.403   4.758  0.2711 -1.1635  2.2922
 1848SOL     OW17179   1.042   1.872   3.158  0.0004  0.4072 -0.3496
 1848SOL    HW117180   1.133   1.895   3.143 -0.4239  3.2165  1.3470
 1848SOL    HW217181   1.031   1.892   3.251  1.0095 -0.2524 -0.0936
 1849SOL     OW17182   4.219   0.530   1.329  0.0937 -0.3337 -0.3665
 1849SOL    HW117183   4.199   0.437   1.317  1.6008 -0.4933 -1.6272
 1849SOL    HW217184   4.299   0.534   1.276 -0.7700  1.6547 -1.4806
 1850SOL     OW17185   1.602   3.604   6.628 -0.2097 -0.4999  0.1614
 1850SOL    HW117186   1.583   3.618   6.535 -0.9963  0.8962  0.5354
 1850SOL    HW217187   1.693   3.635   6.630 -0.3091 -0.2195  0.4153
 1851SOL     OW17188   3.456   3.290   0.426  0.3802  0.0356 -0.6275
 1851SOL    HW117189   3.529   3.279   0.488  0.7067 -0.2965 -1.0739
 1851SOL    HW217190   3.381   3.291   0.485  1.8676 -1.1397  1.2960
 1852SOL     OW17191   2.062   0.434  12.696 -0.4563  0.4324 -0.1989
 1852SOL    HW117192   2.080   0.366  12.761  2.1955  1.3125 -0.0438
 1852SOL    HW217193   1.986   0.392  12.655 -1.7011  0.8529  1.6824
 1853SOL     OW17194   1.020   2.935   9.949 -0.2075  0.4859  0.4593
 1853SOL    HW117195   1.097   2.967   9.997 -0.3959 -1.0416  1.7772
 1853SOL    HW217196   0.974   2.886  10.017 -1.3054  0.6970 -0.1322
 1854SOL     OW17197   0.558   3.037   7.825 -0.1686 -0.3838 -0.4457
 1854SOL    HW117198   0.613   3.079   7.759  1.4515 -0.6185  0.7365
 1854SOL    HW217199   0.479   3.091   7.828 -0.6818 -0.9979 -2.7648
 1855SOL     OW17200   3.471   4.330   3.394 -0.0272  0.6770 -0.2450
 1855SOL    HW117201   3.378   4.315   3.378  0.1350 -2.2475  1.6548
 1855SOL    HW217202   3.483   4.422   3.367 -3.2216  0.2682 -3.1446
 1856SOL     OW17203   0.372   3.025   1.641  0.1234 -0.1296 -0.1735
 1856SOL    HW117204   0.280   3.011   1.615  0.3095  1.9884 -1.9048
 1856SOL    HW217205   0.374   2.959   1.711 -0.5934  2.2620  2.0740
 1857SOL     OW17206   0.026   2.174   0.641  0.2388 -0.1796 -0.2508
 1857SOL    HW117207   0.032   2.079   0.627 -3.5954 -0.1838 -1.9361
 1857SOL    HW217208   4.722   2.209   0.562  0.5201 -0.8730 -0.7024
 1858SOL     OW17209   3.456   0.135   3.261 -0.3984  0.5033 -0.2948
 1858SOL    HW117210   3.407   0.178   3.190  0.6226  0.2559 -1.1418
 1858SOL    HW217211   3.544   0.162   3.236 -1.4119  0.9291 -3.4752
 1859SOL     OW17212   1.468   1.496  14.745  0.0702  0.2432 -0.1448
 1859SOL    HW117213   1.411   1.518  14.819  0.9977  2.3976 -0.0680
 1859SOL    HW217214   1.547   1.477  14.795  0.4805 -0.9192 -1.2576
 1860SOL     OW17215   2.044   3.250   0.655 -0.0865 -0.4497  0.8936
 1860SOL    HW117216   2.072   3.317   0.593 -0.1498 -0.3320  0.9923
 1860SOL    HW217217   1.955   3.269   0.685  0.1956 -3.5388  3.6939
 1861SOL     OW17218   3.277   2.131   6.619  0.7899 -0.3534 -0.4292
 1861SOL    HW117219   3.363   2.090   6.611  0.8068 -0.6787  1.6463
 1861SOL    HW217220   3.253   2.090   6.702 -3.5006  0.5791 -1.1819
 1862SOL     OW17221   0.312   1.581   1.113  0.3384  0.7019 -0.0120
 1862SOL    HW117222   0.342   1.649   1.052 -0.3754  1.0344  0.0067
 1862SOL    HW217223   0.227   1.615   1.141 -0.3920  0.0037 -1.4192
 1863SOL     OW17224   4.576   1.221  13.905  0.3378 -0.5064  0.2367
 1863SOL    HW117225   4.626   1.198  13.984  1.5763  1.7328  0.1184
 1863SOL    HW217226   4.638   1.272  13.853 -0.3242  0.1376  0.0918
 1864SOL     OW17227   0.002   0.827   1.956 -0.4821  0.0767  0.3273
 1864SOL    HW117228   4.722   0.745   2.004 -0.5919  0.8112  1.5643
 1864SOL    HW217229   4.729   0.893   2.025  4.6205  0.2878  0.8501
 1865SOL     OW17230   3.839   3.380   4.265 -0.0323  0.0608  0.3024
 1865SOL    HW117231   3.865   3.351   4.353  0.9001 -2.5776 -0.8420
 1865SOL    HW217232   3.903   3.448   4.244 -0.7274  0.4788 -0.4661
 1866SOL     OW17233   4.328   2.194   5.553 -0.2978  0.1595  0.2131
 1866SOL    HW117234   4.399   2.171   5.613  0.2403  0.2186 -0.4108
 1866SOL    HW217235   4.265   2.233   5.614 -0.5608 -1.5923  1.0608
 1867SOL     OW17236   3.814   3.499   3.734  0.1735  1.0514 -0.3817
 1867SOL    HW117237   3.843   3.589   3.745 -3.0408  1.9062  0.8369
 1867SOL    HW217238   3.762   3.488   3.814  0.1178 -1.7621 -0.8175
 1868SOL     OW17239   0.027   3.846  11.441 -0.1539 -0.1839 -0.1025
 1868SOL    HW117240   0.112   3.810  11.468  0.5831  2.0335  0.5754
 1868SOL    HW217241   0.035   3.862  11.347  0.0314  0.6444  0.0540
 1869SOL     OW17242   4.170   0.774   7.219  0.9515 -0.4186 -0.3694
 1869SOL    HW117243   4.169   0.683   7.189  2.9414 -0.8841  0.9749
 1869SOL    HW217244   4.180   0.815   7.133 -0.3220  1.4668  0.3805
 1870SOL     OW17245   0.855   3.182   8.105 -0.3991 -0.0518  0.1423
 1870SOL    HW117246   0.819   3.268   8.081 -0.2874  0.2011  0.8898
 1870SOL    HW217247   0.918   3.174   8.033  1.1936 -0.5602  1.5984
 1871SOL     OW17248   0.516   1.972   9.271 -0.4606 -0.2449 -0.2359
 1871SOL    HW117249   0.560   1.888   9.255  1.2265  1.0342 -2.4718
 1871SOL    HW217250   0.499   1.975   9.365  3.5060 -0.6469  0.5278
 1872SOL     OW17251   0.898   2.917   8.816  0.1064  1.0262 -0.1368
 1872SOL    HW117252   0.885   2.827   8.847 -2.5119  0.5533 -2.6202
 1872SOL    HW217253   0.875   2.959   8.899  0.9245  1.5184 -0.1651
 1873SOL     OW17254   0.620   3.568  14.147  0.0480  0.0932  0.0527
 1873SOL    HW117255   0.630   3.661  14.168 -0.4728 -0.1972  1.5254
 1873SOL    HW217256   0.659   3.567  14.059 -0.4796 -0.1158 -0.1806
 1874SOL     OW17257   3.415   4.513  11.395  0.0539 -0.5557  0.1523
 1874SOL    HW117258   3.338   4.508  11.453  0.9660 -0.1004  1.4119
 1874SOL    HW217259   3.468   4.435  11.412 -2.5783 -2.2427  0.6934
 1875SOL     OW17260   3.613   2.941   2.046  0.1439  0.3143  0.5590
 1875SOL    HW117261   3.517   2.947   2.053 -0.2327 -0.7051 -3.4106
 1875SOL    HW217262   3.623   2.849   2.072  0.9991 -0.3766 -2.2156
 1876SOL     OW17263   0.634   2.957   3.022  0.0014 -0.1842  0.2582
 1876SOL    HW117264   0.674   2.998   3.098 -0.7986  0.5914  0.2568
 1876SOL    HW217265   0.587   3.034   2.992 -0.3798 -0.2347  0.7291
 1877SOL     OW17266   1.362   3.573   4.124  0.3682 -0.1430  0.1527
 1877SOL    HW117267   1.296   3.508   4.148 -0.0376  0.5667  0.9375
 1877SOL    HW217268   1.442   3.538   4.163  0.5351  0.2333  0.1567
 1878SOL     OW17269   4.041   1.782   2.713  0.3895 -0.7281  0.1402
 1878SOL    HW117270   3.993   1.860   2.685  0.1149 -0.7169  0.6510
 1878SOL    HW217271   4.001   1.710   2.664  0.9440 -0.3915 -0.8155
 1879SOL     OW17272   0.029   2.648   6.175 -0.4580  0.5875 -0.3631
 1879SOL    HW117273   0.115   2.616   6.201  0.2884  1.3672 -1.8409
 1879SOL    HW217274   0.032   2.643   6.079  1.9288 -3.8930 -0.0533
 1880SOL     OW17275   3.410   4.628  14.246  0.2131 -0.1117 -0.1536
 1880SOL    HW117276   3.473   4.560  14.222 -1.1462 -1.1319 -0.8042
 1880SOL    HW217277   3.460   4.709  14.235  3.3209 -1.7271  1.8155
 1881SOL     OW17278   2.764   2.393   5.503  0.3349  0.1488 -0.6584
 1881SOL    HW117279   2.724   2.309   5.480 -0.8726  1.0425 -1.8659
 1881SOL    HW217280   2.828   2.415   5.436 -1.1918 -1.0453 -2.5250
 1882SOL     OW17281   2.506   3.850   3.718  0.2541  0.6073 -0.2807
 1882SOL    HW117282   2.485   3.900   3.639 -1.0275 -2.0861 -1.6232
 1882SOL    HW217283   2.579   3.902   3.751 -0.1521  0.6543  0.5329
 1883SOL     OW17284   1.979   1.786   0.699  0.0523 -0.2228  0.2615
 1883SOL    HW117285   1.893   1.812   0.733 -0.4310 -1.0738 -0.3027
 1883SOL    HW217286   1.961   1.780   0.605  0.8014  4.5764 -0.2147
 1884SOL     OW17287   1.667   1.541   9.646  0.0071 -0.0292  0.3722
 1884SOL    HW117288   1.662   1.525   9.740 -0.8527 -1.7826  0.0175
 1884SOL    HW217289   1.622   1.625   9.636  2.1462  1.1439  0.4908
 1885SOL     OW17290   1.456   4.206   3.963 -0.0628 -0.0512  1.3767
 1885SOL    HW117291   1.368   4.173   3.945  0.5852 -1.9274  1.5932
 1885SOL    HW217292   1.442   4.284   3.909  1.6151  0.0924  1.1370
 1886SOL     OW17293   0.457   2.085   6.288  0.3420 -0.0399 -0.9563
 1886SOL    HW117294   0.382   2.026   6.280 -0.8364  1.6006 -1.9015
 1886SOL    HW217295   0.527   2.024   6.310  2.6825  2.5038 -1.3084
 1887SOL     OW17296   2.317   3.692   8.204 -0.2458  0.1456 -0.3429
 1887SOL    HW117297   2.387   3.665   8.263 -0.4853  0.1533 -0.0566
 1887SOL    HW217298   2.260   3.737   8.266  1.5048  0.7484  0.8096
 1888SOL     OW17299   4.538   1.834  17.503 -0.2050 -1.0025 -0.3220
 1888SOL    HW117300   4.596   1.890  17.555 -1.8206  1.4589 -1.1647
 1888SOL    HW217301   4.521   1.755  17.553 -2.0194 -0.2632  0.2375
 1889SOL     OW17302   1.045   2.282   9.254 -0.5310 -0.5421 -0.0688
 1889SOL    HW117303   1.114   2.305   9.317  0.7135  1.2042 -2.0848
 1889SOL    HW217304   0.997   2.222   9.311  3.6915 -1.0848  2.9079
 1890SOL     OW17305   0.081   0.279   5.842 -0.0560  0.5422  0.2025
 1890SOL    HW117306   0.123   0.275   5.757 -0.3284 -1.7368  0.1795
 1890SOL    HW217307   0.100   0.195   5.884 -1.3712  0.1570  0.0395
 1891SOL     OW17308   2.440   2.697   4.237  0.4103  0.9123  0.8996
 1891SOL    HW117309   2.441   2.603   4.222 -0.8926  1.0057  0.1602
 1891SOL    HW217310   2.441   2.730   4.147  0.6417 -1.5387  0.0186
 1892SOL     OW17311   4.632   0.955   2.783 -0.0339  0.1089 -0.1322
 1892SOL    HW117312   4.565   0.928   2.846 -1.6149  2.2250 -0.8919
 1892SOL    HW217313   4.683   0.877   2.763 -0.7049 -1.1422  3.0437
 1893SOL     OW17314   4.414   0.880   8.055 -0.0180 -0.1217  0.0059
 1893SOL    HW117315   4.352   0.840   7.993 -1.5133 -1.5662  2.4118
 1893SOL    HW217316   4.363   0.947   8.100  0.3627 -0.9570  1.6511
 1894SOL     OW17317   3.274   2.612  15.730 -0.1030  0.1780  0.3153
 1894SOL    HW117318   3.299   2.704  15.729 -0.4622  0.2735 -0.0362
 1894SOL    HW217319   3.324   2.576  15.657 -1.6079 -1.5177  0.0968
 1895SOL     OW17320   4.049   0.846   4.718 -0.4643  0.5519  0.7328
 1895SOL    HW117321   4.031   0.859   4.811 -1.9704  2.4560  0.1897
 1895SOL    HW217322   4.144   0.833   4.718 -0.5529 -0.1191 -0.8132
 1896SOL     OW17323   0.210   1.507  14.318 -0.2682  0.2840 -0.0490
 1896SOL    HW117324   0.160   1.554  14.385  0.4590 -0.8310  1.2817
 1896SOL    HW217325   0.265   1.573  14.276  0.9311  0.7362  2.2233
 1897SOL     OW17326   3.499   0.643   5.035 -0.4928 -0.2759  0.2454
 1897SOL    HW117327   3.406   0.641   5.014 -0.5747 -2.2906  0.8414
 1897SOL    HW217328   3.514   0.581   5.107  1.1648  1.4875  1.4285
 1898SOL     OW17329   3.421   1.497   7.482 -0.6503 -0.1855  0.3833
 1898SOL    HW117330   3.513   1.469   7.482 -0.0504  1.8116 -2.2202
 1898SOL    HW217331   3.411   1.528   7.392  0.2257  2.4452  1.2077
 1899SOL     OW17332   3.188   0.260  16.818 -0.2845  0.1661  0.0366
 1899SOL    HW117333   3.157   0.191  16.759 -1.6694  1.0660 -0.2947
 1899SOL    HW217334   3.102   0.290  16.848 -0.3516 -0.3918  0.3971
 1900SOL     OW17335   4.610   0.839  11.387 -0.1177 -0.5800 -0.0923
 1900SOL    HW117336   4.565   0.795  11.315  2.2573 -0.7862 -1.4486
 1900SOL    HW217337   4.557   0.810  11.461  0.6869 -0.1891  0.6454
 1901SOL     OW17338   2.041   1.271  15.054  0.2402 -0.3501  0.5353
 1901SOL    HW117339   2.134   1.292  15.061  0.2439  0.3256 -1.4400
 1901SOL    HW217340   2.009   1.350  15.012  1.5272 -0.0314  0.1520
 1902SOL     OW17341   2.405   1.846   6.065 -0.0266  0.0231 -0.1494
 1902SOL    HW117342   2.412   1.920   6.125  2.3273  1.4241 -2.1595
 1902SOL    HW217343   2.347   1.785   6.110  0.3083  0.0058  0.2548
 1903SOL     OW17344   3.897   3.356   8.439  0.0914 -0.0638  0.0720
 1903SOL    HW117345   3.930   3.412   8.369 -0.2431  0.8589  0.6455
 1903SOL    HW217346   3.870   3.273   8.401  0.9755  0.3624 -1.4653
 1904SOL     OW17347   1.829   3.403   8.478  0.2173  0.1479  0.0685
 1904SOL    HW117348   1.862   3.467   8.542 -1.9917 -0.9679  2.3469
 1904SOL    HW217349   1.740   3.440   8.476 -0.2374 -0.9211  1.0991
 1905SOL     OW17350   3.785   1.445   0.418  0.1407  0.0875  0.0432
 1905SOL    HW117351   3.712   1.391   0.385  0.3594 -1.7716  2.6288
 1905SOL    HW217352   3.742   1.510   0.474  0.2039  2.2999 -2.4799
 1906SOL     OW17353   0.697   2.091   4.736  0.0262  0.2423 -0.5317
 1906SOL    HW117354   0.605   2.065   4.729  0.0372  0.2717 -0.7921
 1906SOL    HW217355   0.735   2.012   4.697 -1.5309 -0.9767  0.4586
 1907SOL     OW17356   3.860   0.316   4.691 -0.0079 -0.0483 -0.6430
 1907SOL    HW117357   3.877   0.255   4.620  1.2212 -1.2663  0.6918
 1907SOL    HW217358   3.831   0.390   4.638 -0.3825  1.4868  1.7315
 1908SOL     OW17359   4.446   3.289  10.169  0.0644 -0.4457 -0.1471
 1908SOL    HW117360   4.473   3.287  10.260  0.6160  0.3095 -0.2946
 1908SOL    HW217361   4.353   3.294  10.192  0.1619  1.6642 -0.1639
 1909SOL     OW17362   3.784   0.382   4.438 -0.0557  0.5366  0.0922
 1909SOL    HW117363   3.799   0.383   4.344 -0.7304 -0.4063 -0.0185
 1909SOL    HW217364   3.692   0.407   4.439  0.1619  1.3090  0.9045
 1910SOL     OW17365   4.492   3.775   7.695 -0.0705  0.0300 -0.2083
 1910SOL    HW117366   4.437   3.836   7.647 -0.7115  0.0235  0.5176
 1910SOL    HW217367   4.579   3.812   7.677  1.3838 -3.4097 -0.3942
 1911SOL     OW17368   0.265   4.582   8.347 -0.0325  0.1494 -0.9078
 1911SOL    HW117369   0.202   4.651   8.363 -1.8117 -1.8393  0.6814
 1911SOL    HW217370   0.211   4.502   8.346 -0.4464  0.4196  0.7289
 1912SOL     OW17371   3.148   0.108  11.298 -0.1520  0.1635  0.6371
 1912SOL    HW117372   3.073   0.168  11.296  0.6702  1.1279 -1.4142
 1912SOL    HW217373   3.195   0.134  11.219 -2.3101 -0.0190 -0.7138
 1913SOL     OW17374   1.460   1.592  13.110  0.2500 -0.4035 -0.4473
 1913SOL    HW117375   1.380   1.551  13.080 -1.4128  0.8876  2.2237
 1913SOL    HW217376   1.488   1.640  13.032 -0.2468  0.2299 -0.2374
 1914SOL     OW17377   1.280   3.694  16.954  0.1329  0.1694 -0.1687
 1914SOL    HW117378   1.300   3.770  16.899 -1.5157 -0.0418 -1.0431
 1914SOL    HW217379   1.320   3.630  16.894  0.1046  0.3638 -0.3954
 1915SOL     OW17380   1.663   1.068  15.783  0.3112 -0.0235  0.1316
 1915SOL    HW117381   1.580   1.091  15.825  2.2480  1.8190  2.9499
 1915SOL    HW217382   1.723   1.113  15.842 -0.2070 -0.6022  1.1078
 1916SOL     OW17383   2.439   4.287   3.278  0.3142  0.2338 -0.0532
 1916SOL    HW117384   2.423   4.245   3.193  2.5469  1.6927 -1.1875
 1916SOL    HW217385   2.525   4.325   3.261  0.7801 -0.0303  1.7259
 1917SOL     OW17386   2.629   1.013  11.790 -0.1055 -0.6322  0.0242
 1917SOL    HW117387   2.624   0.951  11.717 -0.6711  0.9431 -1.2681
 1917SOL    HW217388   2.544   1.057  11.784 -0.0462 -0.6275 -0.8421
 1918SOL     OW17389   0.690   3.097   2.291  0.1220  0.0974  0.3864
 1918SOL    HW117390   0.608   3.132   2.257  0.4660  0.9618  0.4250
 1918SOL    HW217391   0.657   3.078   2.379  1.2460  1.9413  1.2037
 1919SOL     OW17392   2.205   1.905   9.221 -0.0426 -0.2708  0.3400
 1919SOL    HW117393   2.283   1.960   9.217  1.3716 -2.1582  1.7941
 1919SOL    HW217394   2.169   1.944   9.301 -2.5050 -1.2860 -0.2835
 1920SOL     OW17395   3.038   2.287   8.428 -0.1725  0.5504 -0.1149
 1920SOL    HW117396   3.032   2.195   8.404  0.3207  0.4083  0.3260
 1920SOL    HW217397   3.059   2.279   8.521  1.9970 -1.2430 -0.7605
 1921SOL     OW17398   0.050   2.840   1.878  0.2076 -0.2722  0.3582
 1921SOL    HW117399   4.730   2.910   1.911 -0.3244 -0.8741  0.7362
 1921SOL    HW217400   0.011   2.837   1.791  0.4618  0.6775  0.2142
 1922SOL     OW17401   1.748   1.821   0.988  0.0869  1.2522  0.2806
 1922SOL    HW117402   1.794   1.741   0.961 -1.4182  0.5543 -0.2662
 1922SOL    HW217403   1.810   1.893   0.993  2.0498 -0.4470  0.7337
 1923SOL     OW17404   2.714   3.997   2.506  0.1132  0.4371 -0.2021
 1923SOL    HW117405   2.717   3.946   2.587  1.5898  0.6676 -0.1092
 1923SOL    HW217406   2.656   4.069   2.532 -0.7999 -0.2849 -0.2567
 1924SOL     OW17407   0.684   1.265   9.151  0.5867  0.1280 -0.2209
 1924SOL    HW117408   0.663   1.271   9.244 -0.4248 -3.0079 -0.2499
 1924SOL    HW217409   0.763   1.319   9.142  0.5967  0.1135 -0.2192
 1925SOL     OW17410   2.824   1.448   8.927  0.3868  0.1790  0.4375
 1925SOL    HW117411   2.744   1.430   8.977  0.4381  1.0780  0.8265
 1925SOL    HW217412   2.787   1.501   8.856 -0.6158 -2.5692 -1.0879
 1926SOL     OW17413   0.088   2.693  17.232  0.3056  0.1854 -0.4778
 1926SOL    HW117414   4.732   2.708  17.213  0.0104 -1.5968 -0.4256
 1926SOL    HW217415   0.131   2.778  17.227 -2.8989  1.7515 -1.1190
 1927SOL     OW17416   2.937   1.703   6.040  0.1214  0.2077 -0.2393
 1927SOL    HW117417   3.003   1.643   6.074 -0.2298  1.6166  2.9141
 1927SOL    HW217418   2.922   1.737   6.128 -3.2109  0.7210 -0.9929
 1928SOL     OW17419   0.845   0.803   3.315  0.0948 -0.0141  0.1090
 1928SOL    HW117420   0.751   0.810   3.295  0.9871  1.9154 -3.5757
 1928SOL    HW217421   0.876   0.888   3.284 -0.5013 -0.5038 -1.8807
 1929SOL     OW17422   3.408   3.066   2.335 -0.0456  0.1644  0.2357
 1929SOL    HW117423   3.494   3.101   2.316 -0.2347 -0.0840 -1.0960
 1929SOL    HW217424   3.371   3.140   2.383  2.3013  2.4960 -1.6329
 1930SOL     OW17425   3.400   3.752   2.493  0.2220  0.2823 -0.1152
 1930SOL    HW117426   3.386   3.796   2.409 -1.0698 -0.1984 -0.1453
 1930SOL    HW217427   3.495   3.757   2.497  0.0165  2.7948  1.5946
 1931SOL     OW17428   2.382   0.680   3.044  0.4610  1.0479 -0.0981
 1931SOL    HW117429   2.464   0.681   2.996  1.3575 -1.5001  1.3818
 1931SOL    HW217430   2.324   0.653   2.973  1.4536 -1.3411  0.0043
 1932SOL     OW17431   0.153   0.779  16.212 -0.0281  0.0799 -0.0537
 1932SOL    HW117432   0.192   0.712  16.267  0.0856  0.2091  0.0234
 1932SOL    HW217433   0.060   0.775  16.235  0.2058 -0.6085  0.7583
 1933SOL     OW17434   2.360   2.773   1.871 -0.1292 -0.4842 -0.5056
 1933SOL    HW117435   2.453   2.793   1.864 -0.2959  0.0931 -1.0395
 1933SOL    HW217436   2.357   2.677   1.873 -0.1820 -0.5717 -3.7476
 1934SOL     OW17437   3.289   0.883   7.592 -0.0339  0.3725  0.3235
 1934SOL    HW117438   3.252   0.967   7.565 -0.1444  0.2602  0.1293
 1934SOL    HW217439   3.383   0.900   7.587  0.3079 -0.9193  1.9615
 1935SOL     OW17440   1.887   0.103   7.485 -0.0689  0.2911  0.0349
 1935SOL    HW117441   1.877   0.117   7.579  0.2556 -3.2784  0.6130
 1935SOL    HW217442   1.891   0.193   7.453 -0.1363 -0.0003 -0.8070
 1936SOL     OW17443   1.539   0.762   4.274 -0.8069  0.6457  0.2313
 1936SOL    HW117444   1.577   0.787   4.190 -1.2085 -1.0175 -0.4375
 1936SOL    HW217445   1.588   0.813   4.340 -1.2352  1.7956 -0.3303
 1937SOL     OW17446   1.389   4.168   5.951  0.4888  0.0101 -0.6168
 1937SOL    HW117447   1.333   4.113   6.006  1.5530  0.5350  0.9932
 1937SOL    HW217448   1.446   4.206   6.018 -1.0289  2.7616 -0.8726
 1938SOL     OW17449   2.535   3.166   3.998  0.3924  0.2061  0.3642
 1938SOL    HW117450   2.522   3.243   3.942 -1.4452  0.0847  0.6462
 1938SOL    HW217451   2.453   3.168   4.046  1.5030  1.0503  2.2433
 1939SOL     OW17452   4.072   2.332   0.637 -0.0577  0.3503 -0.4600
 1939SOL    HW117453   4.120   2.320   0.719 -1.3241 -2.5572 -0.1384
 1939SOL    HW217454   4.092   2.245   0.603  1.7057  1.5318 -2.4090
 1940SOL     OW17455   0.342   4.649   7.712  0.3607  0.1694 -0.4334
 1940SOL    HW117456   0.270   4.703   7.680  0.5846  0.9861  0.4512
 1940SOL    HW217457   0.316   4.637   7.804 -0.2807 -1.3495 -0.8090
 1941SOL     OW17458   2.689   1.349   3.732 -0.4369  0.0168  0.3702
 1941SOL    HW117459   2.720   1.266   3.768 -1.5771 -1.6147 -2.4275
 1941SOL    HW217460   2.772   1.393   3.715  0.1639 -1.5322 -0.7735
 1942SOL     OW17461   1.078   0.358  15.790 -0.2117 -0.0174 -0.0677
 1942SOL    HW117462   1.165   0.395  15.805 -0.4499 -0.0101  1.2604
 1942SOL    HW217463   1.027   0.394  15.863  1.1666 -0.6232  1.2006
 1943SOL     OW17464   2.433   4.725   6.921  0.1500  0.1621 -0.4000
 1943SOL    HW117465   2.429   4.715   6.826  3.9735 -3.1705 -0.2047
 1943SOL    HW217466   2.506   4.665   6.936 -0.6273 -1.3202 -2.5040
 1944SOL     OW17467   4.605   1.053   2.107 -0.7687  0.8019  0.3119
 1944SOL    HW117468   4.573   1.126   2.053 -1.6696 -0.0524 -0.3139
 1944SOL    HW217469   4.653   1.102   2.174  1.1779  1.2401 -1.4077
 1945SOL     OW17470   2.947   2.481   6.832 -0.6083  0.0795  0.3610
 1945SOL    HW117471   2.987   2.420   6.769  0.4428  2.0662 -0.8761
 1945SOL    HW217472   2.994   2.561   6.811 -2.1538  0.2226 -2.6005
 1946SOL     OW17473   4.359   1.205   3.185  0.0361 -0.0434 -0.3244
 1946SOL    HW117474   4.290   1.195   3.250  0.5710  1.0403  0.3998
 1946SOL    HW217475   4.308   1.210   3.104  1.3774 -0.8403 -1.2298
 1947SOL     OW17476   2.277   1.831   0.232  0.0100  0.2964 -0.0419
 1947SOL    HW117477   2.325   1.855   0.152 -3.0651  0.7452 -1.7495
 1947SOL    HW217478   2.241   1.747   0.203  0.2144  0.0290  0.4807
 1948SOL     OW17479   0.531   2.943  10.080 -0.4736 -0.6020  0.5417
 1948SOL    HW117480   0.457   2.995  10.051 -0.6480 -0.6001  0.9866
 1948SOL    HW217481   0.598   3.010  10.069 -0.0638 -1.4882 -2.4230
 1949SOL     OW17482   1.527   1.788   6.393 -0.4485  0.4150 -0.1477
 1949SOL    HW117483   1.484   1.860   6.348 -1.5966 -0.1977 -0.0414
 1949SOL    HW217484   1.557   1.749   6.311  1.2413  1.9135 -0.2390
 1950SOL     OW17485   1.811   2.904   9.626 -0.7822  0.1902  0.0389
 1950SOL    HW117486   1.818   2.998   9.638 -0.6098  0.2227 -0.3137
 1950SOL    HW217487   1.807   2.893   9.531 -0.2484 -1.5950  0.2243
 1951SOL     OW17488   3.473   2.596   1.981  0.3783 -1.0276 -0.2859
 1951SOL    HW117489   3.436   2.559   2.060  1.0675 -1.3667 -0.1247
 1951SOL    HW217490   3.401   2.581   1.918  1.3273 -2.0675 -1.1234
 1952SOL     OW17491   0.887   0.776  14.850  0.2898  0.5383  0.0000
 1952SOL    HW117492   0.817   0.782  14.785  1.5439  0.7192 -1.3227
 1952SOL    HW217493   0.962   0.806  14.800 -0.7400  1.6359 -0.8895
 1953SOL     OW17494   2.883   1.442  15.564  0.2256  0.3923 -0.3621
 1953SOL    HW117495   2.946   1.506  15.533  1.3769 -0.8228 -0.5428
 1953SOL    HW217496   2.936   1.363  15.548 -1.2952 -0.4783 -1.1708
 1954SOL     OW17497   0.259   2.638  11.501 -0.1790  0.1406  0.6575
 1954SOL    HW117498   0.309   2.711  11.466  0.2912 -0.9045 -0.8620
 1954SOL    HW217499   0.222   2.595  11.424  1.2777  0.8376 -0.4270
 1955SOL     OW17500   4.610   3.359   5.324 -0.1624  0.1994  0.9237
 1955SOL    HW117501   4.547   3.430   5.336  0.1526  0.4709  0.9682
 1955SOL    HW217502   4.681   3.407   5.281 -0.9498  0.3993 -0.1643
 1956SOL     OW17503   0.230   2.247   2.572 -0.5007  0.0638  0.3269
 1956SOL    HW117504   0.322   2.275   2.575  0.1339 -1.8243 -1.7330
 1956SOL    HW217505   0.240   2.153   2.588  0.1776  0.0500 -0.1594
 1957SOL     OW17506   1.958   4.307   6.583 -0.4394 -0.0926 -0.0898
 1957SOL    HW117507   1.995   4.375   6.639  1.2674  0.7189 -2.1876
 1957SOL    HW217508   2.030   4.243   6.589 -1.4694 -1.1230  1.3878
 1958SOL     OW17509   3.482   0.278   8.094  0.0784 -0.0488  0.1493
 1958SOL    HW117510   3.400   0.327   8.104  0.1327  0.1027 -0.1355
 1958SOL    HW217511   3.464   0.192   8.131  2.0918 -0.0912  0.9920
 1959SOL     OW17512   0.209   2.428   1.714  0.1878  0.1410 -0.3782
 1959SOL    HW117513   0.277   2.409   1.778  1.9480 -0.6313 -2.4807
 1959SOL    HW217514   0.218   2.352   1.656  1.1268 -0.5484  0.6736
 1960SOL     OW17515   3.307   4.157  10.336  0.4413 -0.2802 -0.0638
 1960SOL    HW117516   3.336   4.069  10.357 -1.5283 -1.3817 -2.0030
 1960SOL    HW217517   3.385   4.193  10.295  0.5938 -1.2723 -0.6138
 1961SOL     OW17518   3.349   4.601  10.212 -0.2911 -0.4253  0.8023
 1961SOL    HW117519   3.383   4.658  10.144 -0.8141 -1.3899 -0.2728
 1961SOL    HW217520   3.368   4.513  10.180 -0.3178  0.5741 -1.9440
 1962SOL     OW17521   0.365   1.347   8.813 -0.1302  0.5303  0.4306
 1962SOL    HW117522   0.295   1.394   8.768  1.4040  2.1437 -0.2622
 1962SOL    HW217523   0.402   1.414   8.870 -0.9463  1.3701 -0.0445
 1963SOL     OW17524   0.374   0.818   7.978 -0.0150  0.1782 -0.2809
 1963SOL    HW117525   0.442   0.826   8.045  0.0560 -1.8564 -0.1047
 1963SOL    HW217526   0.419   0.847   7.899 -0.0961  1.2806  0.0777
 1964SOL     OW17527   3.908   1.313   7.435  0.2428  0.1026 -0.0534
 1964SOL    HW117528   3.936   1.251   7.503 -0.9699  0.9897  1.2566
 1964SOL    HW217529   3.982   1.303   7.375 -0.6656  1.7077 -1.4434
 1965SOL     OW17530   1.165   4.243   3.229  0.0435 -0.1000 -0.6676
 1965SOL    HW117531   1.184   4.226   3.321 -0.4828  1.2140 -0.3165
 1965SOL    HW217532   1.146   4.158   3.189  1.4137 -1.4025  1.4330
 1966SOL     OW17533   2.670   4.591   8.139 -0.1943  0.2933  0.5293
 1966SOL    HW117534   2.705   4.506   8.165 -0.6450 -0.8042 -2.4833
 1966SOL    HW217535   2.621   4.604   8.220  0.7305  2.5476  0.7343
 1967SOL     OW17536   2.923   0.600   8.349 -0.3416 -0.4505 -0.1823
 1967SOL    HW117537   3.009   0.558   8.349 -0.9073 -1.6110  0.9547
 1967SOL    HW217538   2.911   0.632   8.260 -1.8993 -2.3403 -0.6466
 1968SOL     OW17539   2.516   1.888   5.332 -0.2814  0.3755  0.3724
 1968SOL    HW117540   2.489   1.915   5.245  0.4677  0.7478  0.2569
 1968SOL    HW217541   2.429   1.859   5.362 -0.4443 -0.7420 -1.2012
 1969SOL     OW17542   0.242   4.057   4.251  0.2876 -0.3153 -0.2836
 1969SOL    HW117543   0.286   4.021   4.174  3.4272  0.0222  1.3644
 1969SOL    HW217544   0.315   4.077   4.310  1.9022 -1.3016 -1.9528
 1970SOL     OW17545   0.884   2.245   1.458 -0.2629  0.0752 -0.4518
 1970SOL    HW117546   0.974   2.254   1.490 -0.4489  2.4860 -0.5631
 1970SOL    HW217547   0.839   2.202   1.530 -0.3879  1.5385  0.3465
 1971SOL     OW17548   2.532   1.323   8.822  0.7763  0.3084 -0.3276
 1971SOL    HW117549   2.502   1.411   8.844  0.4441 -0.0182  0.5338
 1971SOL    HW217550   2.612   1.331   8.771 -0.4128 -0.5132 -2.3169
 1972SOL     OW17551   2.812   2.528   4.797 -0.2700  0.2283 -0.0902
 1972SOL    HW117552   2.885   2.489   4.749  0.3329  0.4372  0.6574
 1972SOL    HW217553   2.778   2.445   4.831  2.8404 -0.3931  1.4523
 1973SOL     OW17554   1.560   2.696   6.563  0.2448 -0.2935  0.6041
 1973SOL    HW117555   1.560   2.647   6.481  0.1414  0.1275  0.3515
 1973SOL    HW217556   1.505   2.636   6.613 -0.3944 -0.8177 -0.7553
 1974SOL     OW17557   4.279   3.823  13.798  0.3152  0.5829 -0.0315
 1974SOL    HW117558   4.184   3.840  13.797  0.1360 -0.4441 -0.7624
 1974SOL    HW217559   4.292   3.804  13.705 -1.8195 -0.1576 -0.1812
 1975SOL     OW17560   0.504   4.607   3.002 -0.1986  0.5869  0.2724
 1975SOL    HW117561   0.577   4.659   2.969 -1.4906  1.0453 -1.8923
 1975SOL    HW217562   0.547   4.552   3.067  1.1238 -2.1043 -2.8903
 1976SOL     OW17563   0.087   3.099   4.373 -0.5575 -0.2425 -0.1420
 1976SOL    HW117564   0.071   3.192   4.353 -0.4927 -0.4387 -1.0946
 1976SOL    HW217565   0.000   3.059   4.372 -0.4652 -0.4836  1.5911
 1977SOL     OW17566   1.219   0.605   5.030 -0.3330  0.1855  0.1459
 1977SOL    HW117567   1.218   0.688   4.982 -2.4309  0.2907  0.3554
 1977SOL    HW217568   1.290   0.549   4.997 -1.5824 -0.9153 -0.7065
 1978SOL     OW17569   4.196   0.888   9.257 -0.2404 -0.0821 -0.3518
 1978SOL    HW117570   4.169   0.963   9.204  0.2675  0.7046  0.5128
 1978SOL    HW217571   4.289   0.906   9.265 -0.8282  2.9080 -0.3853
 1979SOL     OW17572   1.305   4.488   5.062  0.1803  0.1694  0.4425
 1979SOL    HW117573   1.293   4.395   5.042 -0.6692  0.9716 -2.7713
 1979SOL    HW217574   1.370   4.474   5.132  1.9094 -1.1230 -1.4289
 1980SOL     OW17575   0.199   2.963   7.045 -0.0584 -0.7240  0.4087
 1980SOL    HW117576   0.231   3.039   6.997 -1.3275  0.8219  2.0066
 1980SOL    HW217577   0.236   2.892   6.992 -0.0216 -0.9001  0.6690
 1981SOL     OW17578   2.479   0.550   4.252  0.3440  0.1071  0.3286
 1981SOL    HW117579   2.502   0.553   4.160  2.0589  0.3108  0.7637
 1981SOL    HW217580   2.544   0.492   4.292  2.6288  0.2012 -3.2997
 1982SOL     OW17581   0.271   2.790   4.882  0.2760  0.3267  0.2358
 1982SOL    HW117582   0.248   2.698   4.871 -1.5375  0.5037  2.4920
 1982SOL    HW217583   0.367   2.792   4.885  0.3072  0.3797 -0.8271
 1983SOL     OW17584   0.572   1.619   2.968  0.3060  0.0141  0.2856
 1983SOL    HW117585   0.604   1.577   2.888 -2.4027  0.9068 -1.2582
 1983SOL    HW217586   0.631   1.691   2.987  1.6364 -0.4109 -2.2716
 1984SOL     OW17587   2.844   1.649   6.962 -0.8019 -0.1362 -0.1744
 1984SOL    HW117588   2.859   1.743   6.958 -0.3457 -0.2771 -2.0105
 1984SOL    HW217589   2.916   1.615   6.909 -1.9260 -0.4944 -1.4660
 1985SOL     OW17590   4.350   3.332   3.846 -0.4291 -0.1113  0.0262
 1985SOL    HW117591   4.325   3.410   3.798 -0.8489 -0.8375 -0.9343
 1985SOL    HW217592   4.434   3.324   3.800 -0.5205 -0.5598 -0.0682
 1986SOL     OW17593   4.532   1.721   7.592  1.0183  0.2553  0.2455
 1986SOL    HW117594   4.538   1.770   7.674 -0.0663 -0.9523  1.0590
 1986SOL    HW217595   4.517   1.630   7.620 -0.6560  0.1614 -0.9922
 1987SOL     OW17596   0.189   4.537  12.806 -0.3481  0.2884  0.3188
 1987SOL    HW117597   0.271   4.506  12.844 -1.0616 -0.3045  1.3881
 1987SOL    HW217598   0.218   4.618  12.765 -0.6369  0.3307  0.1947
 1988SOL     OW17599   1.790   1.249   1.694 -0.1634 -0.7920  0.1147
 1988SOL    HW117600   1.742   1.220   1.772 -1.3565 -1.4585 -0.8817
 1988SOL    HW217601   1.791   1.340   1.723 -0.0417 -0.9247  0.5358
 1989SOL     OW17602   0.259   2.509   7.522 -0.0944 -0.2365 -0.0027
 1989SOL    HW117603   0.221   2.458   7.593  0.2904 -1.1871 -0.4834
 1989SOL    HW217604   0.214   2.593   7.516  1.3477  0.4961 -0.7319
 1990SOL     OW17605   3.692   0.112   6.588 -0.0153  0.2589 -0.4336
 1990SOL    HW117606   3.624   0.066   6.636  1.6944 -0.7399  1.0328
 1990SOL    HW217607   3.685   0.087   6.496 -4.0487  1.8363 -0.5319
 1991SOL     OW17608   3.292   0.894   2.200  0.1852 -0.3918 -0.1786
 1991SOL    HW117609   3.374   0.873   2.245 -0.7671 -1.8152  0.8700
 1991SOL    HW217610   3.234   0.863   2.269  0.9478 -3.2387 -0.8190
 1992SOL     OW17611   2.123   4.486   5.026 -0.3698  0.0256 -0.3441
 1992SOL    HW117612   2.096   4.418   5.089 -0.7991  0.4885 -0.0303
 1992SOL    HW217613   2.119   4.441   4.942 -0.7102 -0.5210 -0.0388
 1993SOL     OW17614   3.148   4.289   6.100 -0.1899  0.1207 -0.0677
 1993SOL    HW117615   3.225   4.336   6.068  0.9441 -1.2184  0.6535
 1993SOL    HW217616   3.075   4.349   6.085 -1.3501 -1.0221  1.0617
 1994SOL     OW17617   3.427   1.300   6.987 -0.1636  0.0547 -0.2876
 1994SOL    HW117618   3.333   1.282   6.993  0.0019 -0.9972 -0.8887
 1994SOL    HW217619   3.460   1.210   6.983 -2.0144 -0.6642  0.4039
 1995SOL     OW17620   3.442   1.468   5.439 -0.4082 -0.2778 -0.3798
 1995SOL    HW117621   3.406   1.399   5.493  2.2622 -0.5645  1.0172
 1995SOL    HW217622   3.528   1.425   5.436  0.0610  0.6300  0.0780
 1996SOL     OW17623   3.690   4.036   7.066 -0.2103 -0.3146  0.4195
 1996SOL    HW117624   3.725   3.980   7.136  2.8727  0.6981 -0.3459
 1996SOL    HW217625   3.774   4.073   7.039  0.0696 -1.7981 -0.7506
 1997SOL     OW17626   2.958   4.100   0.626  0.2907 -0.1483 -0.2048
 1997SOL    HW117627   2.873   4.143   0.614  0.7645  1.0535  0.6533
 1997SOL    HW217628   2.970   4.115   0.720  0.7913 -2.6350  0.1111
 1998SOL     OW17629   4.061   2.650   3.574  0.1189  0.4024  0.1969
 1998SOL    HW117630   4.031   2.665   3.485  0.8890 -1.3883 -0.3571
 1998SOL    HW217631   4.070   2.738   3.612 -1.5244  0.1338  1.2387
 1999SOL     OW17632   4.123   3.311   2.708  0.1721 -0.1930  0.0519
 1999SOL    HW117633   4.047   3.338   2.760 -1.4008 -4.1437 -0.2287
 1999SOL    HW217634   4.105   3.217   2.702 -0.5213 -0.0373 -0.3121
 2000SOL     OW17635   2.499   2.588  17.274 -0.7250  0.8481  0.5147
 2000SOL    HW117636   2.549   2.593  17.356  0.5488  2.9694 -0.4033
 2000SOL    HW217637   2.456   2.672  17.262 -1.6873  0.4006  0.8246
 2001SOL     OW17638   3.490   2.104  13.949  0.5361  0.0965 -0.2037
 2001SOL    HW117639   3.488   2.118  13.854 -1.2152 -0.8928 -0.3203
 2001SOL    HW217640   3.559   2.040  13.965 -0.4530 -1.1088 -0.7364
 2002SOL     OW17641   1.747   3.641   2.092 -0.7199  0.6398 -0.0046
 2002SOL    HW117642   1.813   3.652   2.024  0.8206  2.1515  1.7290
 2002SOL    HW217643   1.798   3.636   2.173  1.6984 -1.7320 -1.7012
 2003SOL     OW17644   0.973   0.937   2.015  0.2676 -0.0163 -0.0595
 2003SOL    HW117645   0.959   1.017   2.065  2.3080  1.1174 -1.2971
 2003SOL    HW217646   1.021   0.885   2.079  0.6958 -0.2961 -0.6050
 2004SOL     OW17647   0.954   1.685   4.018  0.2510  0.3914 -0.1447
 2004SOL    HW117648   0.943   1.780   4.029 -1.4354  0.3785 -1.8039
 2004SOL    HW217649   1.041   1.670   4.054 -0.3174 -2.0045  0.1948
 2005SOL     OW17650   1.081   0.181   4.332  0.2772 -0.0046 -0.3670
 2005SOL    HW117651   1.074   0.126   4.410 -0.3280 -0.4150 -0.7189
 2005SOL    HW217652   1.118   0.262   4.367  1.4235 -1.0198  0.8168
 2006SOL     OW17653   0.023   1.159  15.612 -0.2171  0.1577  0.5527
 2006SOL    HW117654   0.059   1.246  15.628  1.9966 -0.3029 -1.9261
 2006SOL    HW217655   0.076   1.129  15.538  1.8018 -1.2343  2.5857
 2007SOL     OW17656   4.095   0.705   8.887  0.5046 -0.4262  0.1713
 2007SOL    HW117657   4.019   0.713   8.944  0.0916 -0.6446 -0.3532
 2007SOL    HW217658   4.162   0.705   8.956  0.7468  0.1029 -0.0632
 2008SOL     OW17659   2.377   3.810   8.682  0.3399  0.8220  0.1128
 2008SOL    HW117660   2.430   3.747   8.729 -0.1275 -0.6893 -1.4042
 2008SOL    HW217661   2.292   3.766   8.681  1.4192 -1.2174 -1.5402
 2009SOL     OW17662   4.587   3.595   1.780 -0.2548  0.0344  0.7585
 2009SOL    HW117663   4.651   3.591   1.851  0.2263 -0.8708  0.2772
 2009SOL    HW217664   4.504   3.604   1.827  0.2803  0.4308  1.6298
 2010SOL     OW17665   3.594   2.839   1.571  0.0386 -0.0991 -0.7072
 2010SOL    HW117666   3.689   2.839   1.586  0.0494 -1.6307 -0.7761
 2010SOL    HW217667   3.593   2.828   1.476 -0.1826  0.8567 -0.8082
 2011SOL     OW17668   3.572   1.218   2.166 -0.5254  0.0629  0.6704
 2011SOL    HW117669   3.658   1.251   2.191 -0.6161  2.1545 -1.8152
 2011SOL    HW217670   3.546   1.164   2.241 -1.6738  1.1478  1.0698
 2012SOL     OW17671   2.929   1.439   4.584  0.4145  0.6516  0.1531
 2012SOL    HW117672   3.021   1.411   4.577  1.1532  2.8094  1.1590
 2012SOL    HW217673   2.876   1.369   4.622 -0.0536  0.4353 -0.9101
 2013SOL     OW17674   0.813   4.291   8.208 -0.3592 -0.5164 -0.1574
 2013SOL    HW117675   0.780   4.250   8.288  0.3348  0.2258  0.5090
 2013SOL    HW217676   0.837   4.380   8.234 -1.0836 -1.0913  2.4805
 2014SOL     OW17677   2.243   0.220   1.644 -0.6456  0.5461  0.8360
 2014SOL    HW117678   2.323   0.169   1.634 -2.5005 -2.1556 -0.2794
 2014SOL    HW217679   2.188   0.142   1.639 -0.8190  0.8534 -1.8417
 2015SOL     OW17680   0.325   1.564  13.156 -0.2949  0.3235 -0.2225
 2015SOL    HW117681   0.332   1.555  13.251  2.8240 -0.4713 -0.5329
 2015SOL    HW217682   0.273   1.485  13.143 -1.7696  0.5227  4.1898
 2016SOL     OW17683   3.054   3.534  14.249  0.0078 -0.5590 -0.2081
 2016SOL    HW117684   3.044   3.467  14.317  1.2756  1.2135  1.7382
 2016SOL    HW217685   3.120   3.501  14.188  1.5902  0.2001  1.0940
 2017SOL     OW17686   2.185   2.729   9.031  0.0340 -0.6275 -0.6005
 2017SOL    HW117687   2.214   2.698   8.945  0.3914  1.0043 -1.0731
 2017SOL    HW217688   2.197   2.654   9.090  4.1564 -0.4401 -1.1509
 2018SOL     OW17689   2.859   2.851   7.330  0.2915 -0.5002  0.0311
 2018SOL    HW117690   2.874   2.770   7.280 -2.4966  1.0912 -3.3450
 2018SOL    HW217691   2.892   2.916   7.267  1.1271 -1.7793 -0.8597
 2019SOL     OW17692   0.193   0.984   9.788  0.0424  0.2257 -0.2977
 2019SOL    HW117693   0.253   1.038   9.840  1.0702  0.4170 -1.6580
 2019SOL    HW217694   0.220   0.994   9.696 -2.1056  0.1939 -0.9267
 2020SOL     OW17695   3.337   0.839   7.290  0.2256 -0.6216  0.3031
 2020SOL    HW117696   3.361   0.932   7.291  1.7669 -1.0160 -0.6960
 2020SOL    HW217697   3.304   0.833   7.380  0.7360 -0.8935  0.4770
 2021SOL     OW17698   2.381   2.996   7.023 -0.0619 -0.5967 -0.3960
 2021SOL    HW117699   2.395   3.084   7.059  0.5196 -0.7045 -0.3550
 2021SOL    HW217700   2.322   2.961   7.090 -3.0754  1.3685 -2.0217
 2022SOL     OW17701   4.025   2.168   6.962  0.0937 -0.0932  0.1901
 2022SOL    HW117702   4.098   2.112   6.987  0.0196 -1.0759 -1.7775
 2022SOL    HW217703   3.990   2.115   6.890 -0.1973 -0.9759  0.9808
 2023SOL     OW17704   3.339   1.538   9.523 -0.2865 -0.1100  0.2947
 2023SOL    HW117705   3.245   1.557   9.526 -0.3183 -0.2552  0.1694
 2023SOL    HW217706   3.352   1.451   9.560  0.6164 -0.6393 -1.2849
 2024SOL     OW17707   4.640   0.527   2.503 -0.1005 -0.6835  0.2608
 2024SOL    HW117708   4.682   0.552   2.421 -0.6478  0.3354  0.2998
 2024SOL    HW217709   4.701   0.456   2.525 -0.8043 -1.3542  0.0303
 2025SOL     OW17710   1.958   2.355   2.055 -0.3021  0.5231 -0.1874
 2025SOL    HW117711   2.051   2.342   2.035 -0.2644  2.0156 -0.9773
 2025SOL    HW217712   1.948   2.350   2.150 -1.0645  1.8420 -0.2064
 2026SOL     OW17713   4.575   3.905   8.984 -0.1303 -0.1984  0.2707
 2026SOL    HW117714   4.658   3.931   8.943  0.6986 -1.8416  0.8748
 2026SOL    HW217715   4.511   3.959   8.938  0.3157 -1.5625 -1.9382
 2027SOL     OW17716   0.751   3.439  10.663 -0.3397  0.0141  0.0610
 2027SOL    HW117717   0.838   3.403  10.677 -0.2427 -0.0560 -0.7539
 2027SOL    HW217718   0.702   3.358  10.679  0.0840 -0.6266 -1.9475
 2028SOL     OW17719   2.821   3.280   5.391  0.4031  0.9119 -0.1350
 2028SOL    HW117720   2.818   3.187   5.415 -1.2157  0.2931 -2.7492
 2028SOL    HW217721   2.791   3.326   5.470 -1.3964  0.3104 -0.4657
 2029SOL     OW17722   0.138   1.914   3.902  0.2836  0.1578  0.4553
 2029SOL    HW117723   0.229   1.889   3.887 -0.6012 -2.9464  0.2932
 2029SOL    HW217724   0.131   1.892   3.995 -2.2476 -0.8835  0.0031
 2030SOL     OW17725   1.019   1.220   7.608  0.2865 -0.1727  0.6724
 2030SOL    HW117726   0.990   1.129   7.600 -0.5143  0.4100 -3.1423
 2030SOL    HW217727   0.983   1.252   7.524 -3.3989 -1.7206  1.6740
 2031SOL     OW17728   3.922   1.041  15.542  0.1235 -0.2866 -0.4997
 2031SOL    HW117729   3.858   0.987  15.588 -0.4671  0.8394 -0.0142
 2031SOL    HW217730   3.914   1.012  15.451 -0.2018 -0.3455 -0.4536
 2032SOL     OW17731   3.530   2.644   3.253 -0.0439 -0.2581 -0.5364
 2032SOL    HW117732   3.437   2.669   3.251 -0.3735 -1.5222 -0.7409
 2032SOL    HW217733   3.570   2.719   3.297  0.7511 -1.4626  0.7660
 2033SOL     OW17734   2.049   3.295   5.835  0.0137 -0.5346 -0.1216
 2033SOL    HW117735   2.010   3.377   5.806 -0.4479 -0.5484  0.4505
 2033SOL    HW217736   1.976   3.233   5.839 -1.5786  1.4529  1.8751
 2034SOL     OW17737   1.642   2.731   0.167  0.3614 -0.1624  0.1392
 2034SOL    HW117738   1.567   2.672   0.156 -0.9122  1.1506  1.7449
 2034SOL    HW217739   1.676   2.701   0.251 -1.5288  0.5862  1.1643
 2035SOL     OW17740   4.180   1.804   3.939 -0.2432 -0.3063  0.4763
 2035SOL    HW117741   4.157   1.880   3.992 -1.0518 -1.1165  1.3044
 2035SOL    HW217742   4.261   1.830   3.895 -1.3270 -0.1960 -1.4731
 2036SOL     OW17743   1.677   3.292   3.936  0.8371 -0.1036  0.3322
 2036SOL    HW117744   1.749   3.275   3.997  0.5640 -1.9280  0.1448
 2036SOL    HW217745   1.612   3.231   3.972  1.0914 -0.0682  0.8613
 2037SOL     OW17746   0.536   4.205   6.096 -0.0974 -0.0679  0.0041
 2037SOL    HW117747   0.484   4.148   6.039  0.1806  1.1490 -1.4575
 2037SOL    HW217748   0.495   4.188   6.181  2.0719  1.2431  1.3000
 2038SOL     OW17749   0.733   4.026  12.524 -0.3440  0.2783  0.1511
 2038SOL    HW117750   0.807   4.086  12.528 -0.6533  0.8778 -2.6568
 2038SOL    HW217751   0.690   4.052  12.605  1.3262 -0.5503  1.2901
 2039SOL     OW17752   3.226   0.311   6.491 -0.1301 -0.3827 -0.3505
 2039SOL    HW117753   3.217   0.243   6.558 -0.0730 -0.4347 -0.3953
 2039SOL    HW217754   3.210   0.252   6.418 -0.9439  0.1388 -0.5917
 2040SOL     OW17755   1.569   3.821   3.917 -0.6017 -0.8421 -0.2427
 2040SOL    HW117756   1.486   3.820   3.870 -0.6822  1.0396 -0.1371
 2040SOL    HW217757   1.586   3.728   3.900 -1.2109 -0.8881 -0.5927
 2041SOL     OW17758   4.035   0.755   7.583  0.5467 -0.2567  0.3277
 2041SOL    HW117759   4.014   0.665   7.608  0.7233  0.4800  3.1007
 2041SOL    HW217760   4.124   0.742   7.552  0.7065 -0.5108  0.9073
 2042SOL     OW17761   0.562   2.959  12.060  0.0745  0.1438  0.4320
 2042SOL    HW117762   0.523   2.876  12.033  2.5041 -1.0765  0.6460
 2042SOL    HW217763   0.649   2.956  12.021 -0.7308 -0.4958 -1.3214
 2043SOL     OW17764   1.800   4.160   5.939 -0.8989 -0.0170 -0.6686
 2043SOL    HW117765   1.893   4.180   5.952 -0.8431 -0.0131 -1.0849
 2043SOL    HW217766   1.790   4.084   5.997 -0.1476  2.2699  2.4506
 2044SOL     OW17767   4.424   3.803   2.294  0.2956 -0.3327 -0.6140
 2044SOL    HW117768   4.475   3.883   2.283 -0.7003  0.4959  0.6954
 2044SOL    HW217769   4.387   3.820   2.381 -0.5214  1.6571 -1.3587
 2045SOL     OW17770   1.544   1.729   5.460  0.0287 -0.1387  1.0924
 2045SOL    HW117771   1.621   1.786   5.462 -1.1941  1.5869 -0.5874
 2045SOL    HW217772   1.584   1.645   5.482 -1.5100 -1.2605 -0.4736
 2046SOL     OW17773   1.533   0.396  11.886 -0.6087  0.3096 -0.8948
 2046SOL    HW117774   1.624   0.422  11.876 -1.1806  2.0752 -1.5017
 2046SOL    HW217775   1.529   0.329  11.817  0.2998  0.6451 -1.2655
 2047SOL     OW17776   4.683   4.583   9.032  0.1473 -0.0924  0.1261
 2047SOL    HW117777   4.659   4.496   9.062  1.7256 -0.3862  0.5325
 2047SOL    HW217778   4.638   4.641   9.093  0.3285  0.7766 -0.5598
 2048SOL     OW17779   1.808   1.916  16.545 -0.2610  0.1948 -0.1517
 2048SOL    HW117780   1.829   1.833  16.503  1.3705  1.0515 -1.0143
 2048SOL    HW217781   1.807   1.982  16.476 -0.9287  0.3734  0.0242
 2049SOL     OW17782   3.991   0.511  15.968  0.0262 -0.5680 -0.2399
 2049SOL    HW117783   4.025   0.593  15.933  0.1966  0.2791  1.8942
 2049SOL    HW217784   4.049   0.452  15.921  0.1697 -0.9972  0.4710
 2050SOL     OW17785   4.556   1.018   7.044  0.2193 -0.2736  0.1583
 2050SOL    HW117786   4.567   0.926   7.021 -0.5563 -0.6250  1.1888
 2050SOL    HW217787   4.609   1.066   6.981  0.6227 -0.5796  0.2659
 2051SOL     OW17788   3.761   2.788   4.172  0.4987  0.0182 -0.1638
 2051SOL    HW117789   3.682   2.771   4.223  0.0641  0.6379 -0.6377
 2051SOL    HW217790   3.759   2.715   4.111  3.1152  0.9307 -1.3313
 2052SOL     OW17791   1.797   0.195   1.668  0.2313  0.2824 -0.3708
 2052SOL    HW117792   1.845   0.188   1.586  2.2347  1.4139  0.7052
 2052SOL    HW217793   1.832   0.123   1.721  1.5878  0.4398 -1.0777
 2053SOL     OW17794   3.191   0.211   5.228 -0.1741 -0.2013  0.3653
 2053SOL    HW117795   3.251   0.190   5.156 -2.1211  0.1869 -1.3620
 2053SOL    HW217796   3.219   0.301   5.242 -0.0480 -0.0801 -0.6262
 2054SOL     OW17797   1.835   4.100   3.701  0.7956 -0.1668  0.2745
 2054SOL    HW117798   1.903   4.093   3.634  2.0201  3.4504  1.0879
 2054SOL    HW217799   1.752   4.088   3.655 -1.1258  0.8623  3.4268
 2055SOL     OW17800   0.194   2.566   4.184 -0.0196 -0.6072  0.3032
 2055SOL    HW117801   0.167   2.618   4.259  1.7868  1.2878 -0.3469
 2055SOL    HW217802   0.215   2.484   4.228 -1.5793 -1.0340  0.2546
 2056SOL     OW17803   0.638   2.923   1.695 -0.1175  0.0175 -0.4875
 2056SOL    HW117804   0.553   2.894   1.662 -0.2688 -2.6579  2.2604
 2056SOL    HW217805   0.694   2.863   1.647  3.2371  2.2346  0.6036
 2057SOL     OW17806   4.035   2.966   3.369  0.3650  0.3112  0.1048
 2057SOL    HW117807   3.966   3.033   3.369  0.8390  0.7767 -1.0664
 2057SOL    HW217808   4.018   2.934   3.458  0.4920 -2.3365 -0.8389
 2058SOL     OW17809   1.800   3.226   0.413 -0.2651 -0.2472  0.2628
 2058SOL    HW117810   1.869   3.291   0.432 -1.8067  1.0112  1.5705
 2058SOL    HW217811   1.830   3.182   0.334 -2.0513 -1.0729  0.0537
 2059SOL     OW17812   3.407   4.361  10.084  0.0386  0.2150  0.1149
 2059SOL    HW117813   3.494   4.379  10.049  1.2025 -1.9579  1.8625
 2059SOL    HW217814   3.390   4.270  10.060 -1.8197  0.5221  0.2794
 2060SOL     OW17815   2.588   2.149   5.407 -0.0932 -0.2224 -0.0344
 2060SOL    HW117816   2.499   2.159   5.440 -0.8090 -2.1059 -1.4077
 2060SOL    HW217817   2.593   2.055   5.422 -0.1986 -0.4010 -1.1246
 2061SOL     OW17818   1.179   2.371   2.108  0.4580 -0.0470 -0.0633
 2061SOL    HW117819   1.127   2.362   2.188  2.3870  2.2185  1.4333
 2061SOL    HW217820   1.190   2.277   2.091  2.8098  0.1855  0.1919
 2062SOL     OW17821   0.359   1.924   6.942  0.5331 -0.1290 -0.4032
 2062SOL    HW117822   0.305   1.947   7.017 -1.4249 -0.4015 -1.7403
 2062SOL    HW217823   0.378   2.006   6.897  1.1249  0.7676  1.4884
 2063SOL     OW17824   3.181   2.035   4.301  0.3254 -0.2776  0.5214
 2063SOL    HW117825   3.247   1.977   4.264 -0.3690  0.4343 -1.8165
 2063SOL    HW217826   3.232   2.116   4.301  0.5715 -0.4336  1.8888
 2064SOL     OW17827   1.927   3.104   3.572  0.5100 -0.3461  0.6801
 2064SOL    HW117828   1.852   3.066   3.525  0.7512 -0.5642  0.4649
 2064SOL    HW217829   1.899   3.195   3.573  1.0155 -0.1919  0.6750
 2065SOL     OW17830   4.468   4.027   7.273  0.2142  0.1170  1.3413
 2065SOL    HW117831   4.441   3.935   7.285 -1.3310  0.4762  0.5571
 2065SOL    HW217832   4.555   4.016   7.311  0.7337 -2.3901 -0.6196
 2066SOL     OW17833   2.541   4.215   8.187 -0.0373 -0.1557  0.3894
 2066SOL    HW117834   2.531   4.121   8.202  1.4354 -0.6800 -1.9924
 2066SOL    HW217835   2.591   4.237   8.265 -1.4666 -0.5657  1.4353
 2067SOL     OW17836   2.168   0.273   7.642  0.5624 -0.1994 -0.5992
 2067SOL    HW117837   2.150   0.346   7.702  0.8059 -2.9434  2.8582
 2067SOL    HW217838   2.100   0.285   7.576  0.7735 -4.3014 -1.5372
 2068SOL     OW17839   0.228   2.433   6.213 -0.6524 -0.2896 -0.0901
 2068SOL    HW117840   0.229   2.380   6.132  0.6946  1.9047 -1.4844
 2068SOL    HW217841   0.312   2.411   6.252 -0.6959  1.5058  1.0001
 2069SOL     OW17842   0.609   4.242   7.216 -0.0828 -0.1471 -0.6058
 2069SOL    HW117843   0.580   4.169   7.271 -1.1593 -0.1543 -1.1686
 2069SOL    HW217844   0.629   4.306   7.283  1.0478 -1.0150 -0.1131
 2070SOL     OW17845   0.764   2.245   2.503 -0.1240 -0.4002  0.1164
 2070SOL    HW117846   0.752   2.177   2.437  3.5197 -2.1669  1.2609
 2070SOL    HW217847   0.730   2.323   2.459 -1.9613 -0.7890  0.8618
 2071SOL     OW17848   0.077   1.166   1.170 -0.3382  0.0128  0.1416
 2071SOL    HW117849   0.016   1.169   1.096 -0.5127 -0.1098  0.2828
 2071SOL    HW217850   0.017   1.114   1.223 -0.1253 -0.9806 -0.5855
 2072SOL     OW17851   4.393   0.771  10.296 -0.0238  0.0688 -0.4637
 2072SOL    HW117852   4.301   0.747  10.307  0.2536 -0.2184  1.1960
 2072SOL    HW217853   4.438   0.690  10.272  0.9779 -0.1005  2.0396
 2073SOL     OW17854   2.255   1.588  12.796  0.5225 -0.2269 -0.8207
 2073SOL    HW117855   2.346   1.571  12.774  0.5325  0.4205 -1.2630
 2073SOL    HW217856   2.227   1.641  12.722 -0.8607 -1.2513 -1.0329
 2074SOL     OW17857   0.589   1.339   4.525  0.4491 -0.0057 -0.1972
 2074SOL    HW117858   0.678   1.327   4.558  0.4403  0.3846 -0.0231
 2074SOL    HW217859   0.550   1.255   4.550 -0.5944  0.4934 -0.1303
 2075SOL     OW17860   0.963   3.781  10.413  0.0055 -0.6957  0.1436
 2075SOL    HW117861   0.920   3.720  10.353  0.8953 -0.4673 -0.7193
 2075SOL    HW217862   0.913   3.766  10.493 -1.9739  0.5827 -0.8805
 2076SOL     OW17863   2.676   3.650  10.023 -0.3651  0.1325 -0.3741
 2076SOL    HW117864   2.726   3.731  10.014 -1.9646  1.1076 -0.4070
 2076SOL    HW217865   2.607   3.694  10.073 -1.5136 -1.3982 -0.6117
 2077SOL     OW17866   2.051   3.134   2.045  0.7359 -0.1702 -0.0160
 2077SOL    HW117867   1.970   3.087   2.065  0.4585  0.9720  1.4945
 2077SOL    HW217868   2.103   3.071   1.995  0.1955 -1.1717  0.6919
 2078SOL     OW17869   3.390   2.229  16.935  0.7081  0.4862 -0.4588
 2078SOL    HW117870   3.422   2.200  16.849  1.8851 -1.3992  0.6121
 2078SOL    HW217871   3.354   2.312  16.904  0.8951  0.1827 -1.4987
 2079SOL     OW17872   1.581   1.901   9.229  0.2200 -0.5548 -0.0125
 2079SOL    HW117873   1.592   1.946   9.313 -3.3542  0.7985 -0.2590
 2079SOL    HW217874   1.533   1.972   9.187 -0.2684 -1.4104 -0.8952
 2080SOL     OW17875   3.379   1.603   7.231  0.4238  0.1639  0.2356
 2080SOL    HW117876   3.446   1.618   7.164 -0.6037 -1.1937 -1.1339
 2080SOL    HW217877   3.352   1.693   7.245  2.7978  0.9643 -0.3531
 2081SOL     OW17878   3.158   3.851  13.737  0.6274 -0.4198 -0.1111
 2081SOL    HW117879   3.093   3.864  13.668 -0.4837 -1.2666  0.7767
 2081SOL    HW217880   3.183   3.944  13.738  0.8739 -0.5025  1.4591
 2082SOL     OW17881   0.787   1.569   2.000  0.4048  0.4129 -0.1957
 2082SOL    HW117882   0.834   1.565   1.917  2.2842  2.5758  0.7439
 2082SOL    HW217883   0.842   1.612   2.066  1.4661  1.4051 -1.7258
 2083SOL     OW17884   2.143   2.305   4.988 -0.1691  0.7316 -0.4262
 2083SOL    HW117885   2.158   2.258   4.906 -0.9872 -1.7741  0.8446
 2083SOL    HW217886   2.139   2.394   4.953 -0.2313  1.3584  1.1952
 2084SOL     OW17887   1.039   3.029   2.429  0.1373 -0.4074 -0.2768
 2084SOL    HW117888   0.996   2.984   2.356 -1.0821  0.2043  0.0582
 2084SOL    HW217889   1.128   3.003   2.406  0.8499  0.6080  1.3188
 2085SOL     OW17890   3.829   4.173   6.267  0.1719  0.0177  0.1400
 2085SOL    HW117891   3.780   4.102   6.307 -2.6827  1.4103 -0.9153
 2085SOL    HW217892   3.794   4.243   6.323  0.2098  0.8726 -0.9057
 2086SOL     OW17893   1.805   2.451  16.793  0.4997  0.1210 -0.1169
 2086SOL    HW117894   1.724   2.500  16.809 -0.6246 -1.2781 -1.5955
 2086SOL    HW217895   1.818   2.402  16.874 -0.1357  0.1884  0.0242
 2087SOL     OW17896   3.220   3.443  10.939 -0.4475  0.3955 -0.1569
 2087SOL    HW117897   3.294   3.498  10.968 -1.5330  1.1584  1.1613
 2087SOL    HW217898   3.147   3.499  10.965 -0.3225  0.5073 -0.0406
 2088SOL     OW17899   2.855   3.177  15.227 -0.6427 -0.6885  0.5204
 2088SOL    HW117900   2.790   3.108  15.213 -1.0328 -0.0214 -0.8584
 2088SOL    HW217901   2.811   3.261  15.217 -0.6639 -0.7460  0.1488
 2089SOL     OW17902   2.307   4.546  12.646 -0.0420  0.6195 -0.2965
 2089SOL    HW117903   2.343   4.497  12.720 -0.5420 -1.9440 -1.7565
 2089SOL    HW217904   2.378   4.605  12.622 -0.8982  2.0375  0.6722
 2090SOL     OW17905   4.057   0.997  16.901  0.3017  0.6774 -0.0378
 2090SOL    HW117906   3.984   1.015  16.842 -0.2962  1.5577  0.9651
 2090SOL    HW217907   4.008   0.994  16.984 -1.3391 -2.7008 -1.1283
 2091SOL     OW17908   2.268   3.123   0.742  0.3637 -0.2898  0.1364
 2091SOL    HW117909   2.253   3.042   0.694 -0.5008  0.9266 -1.6476
 2091SOL    HW217910   2.182   3.165   0.742 -0.1316 -1.3079 -0.5238
 2092SOL     OW17911   3.554   2.703   5.007 -0.6768 -0.3042 -0.0198
 2092SOL    HW117912   3.650   2.712   5.000 -0.6425  1.0039  2.1069
 2092SOL    HW217913   3.546   2.770   5.074 -0.1049  0.2350 -0.4793
 2093SOL     OW17914   3.597   3.696   4.601 -0.1385 -0.0679  0.0623
 2093SOL    HW117915   3.633   3.777   4.638  0.4944 -0.4585  0.3069
 2093SOL    HW217916   3.662   3.642   4.646  1.1326 -1.3321 -3.2977
 2094SOL     OW17917   4.129   3.193  16.034  0.5289 -0.2538 -0.1255
 2094SOL    HW117918   4.130   3.204  16.129 -1.6450 -0.2723 -0.1181
 2094SOL    HW217919   4.200   3.131  16.017  0.5187 -0.0007 -1.1299
 2095SOL     OW17920   0.717   4.218  13.353  0.8682 -0.5582  0.2118
 2095SOL    HW117921   0.687   4.190  13.440 -0.2851 -1.3297 -0.4199
 2095SOL    HW217922   0.672   4.302  13.347  0.9312 -0.5603 -0.2413
 2096SOL     OW17923   4.196   3.292  10.265 -0.4453  0.4857  0.7778
 2096SOL    HW117924   4.141   3.333  10.199  1.1374  0.6544 -0.4461
 2096SOL    HW217925   4.123   3.269  10.322 -0.2690 -1.3412  0.2944
 2097SOL     OW17926   3.153   2.502   6.359  0.6729  0.0060 -0.1674
 2097SOL    HW117927   3.118   2.446   6.290  1.5932 -0.1023 -0.5481
 2097SOL    HW217928   3.243   2.471   6.362  1.2053  1.4577 -0.7677
 2098SOL     OW17929   1.914   0.186  10.770  0.5317 -0.3455 -0.5459
 2098SOL    HW117930   1.921   0.150  10.858 -2.0350  2.1273  0.6687
 2098SOL    HW217931   1.947   0.120  10.709 -1.4317 -0.4451 -1.5106
 2099SOL     OW17932   3.545   1.131  11.260 -0.5224  0.5789  0.2678
 2099SOL    HW117933   3.469   1.178  11.292 -2.8364 -2.2404 -1.1164
 2099SOL    HW217934   3.567   1.175  11.177 -2.1983  0.8318 -0.0394
 2100SOL     OW17935   3.869   4.134   5.239  0.0948 -0.3903 -0.1186
 2100SOL    HW117936   3.934   4.155   5.307  0.1303  1.3723 -0.7035
 2100SOL    HW217937   3.856   4.216   5.191 -0.8040  0.1454  1.0252
 2101SOL     OW17938   3.418   3.927  11.860  0.4208  0.6974  0.1928
 2101SOL    HW117939   3.472   3.919  11.782 -1.2136 -1.2329 -0.7297
 2101SOL    HW217940   3.466   3.970  11.931 -0.1492 -2.0688  2.2565
 2102SOL     OW17941   3.513   2.158   6.943  0.6094  0.3810  0.6992
 2102SOL    HW117942   3.597   2.203   6.939  0.9868 -0.4501 -0.8933
 2102SOL    HW217943   3.505   2.142   6.849 -0.6103  1.8557  0.5578
 2103SOL     OW17944   3.691   3.598   5.486 -0.1285  0.7504  0.1570
 2103SOL    HW117945   3.703   3.503   5.485  2.2635  1.0487  0.1154
 2103SOL    HW217946   3.647   3.604   5.401  1.7990  2.2555 -0.7367
 2104SOL     OW17947   4.459   0.184   5.265  0.3043 -0.4837  0.3115
 2104SOL    HW117948   4.382   0.223   5.223  0.9315  1.1018  0.6565
 2104SOL    HW217949   4.493   0.259   5.314 -0.1205 -0.6206  0.8256
 2105SOL     OW17950   2.512   4.192  10.908 -0.0973 -0.0717 -0.3374
 2105SOL    HW117951   2.577   4.233  10.965 -1.3514  0.8970  0.4109
 2105SOL    HW217952   2.523   4.099  10.925 -0.7881 -0.5224 -2.3925
 2106SOL     OW17953   2.421   0.576  10.895 -0.1921 -0.6585 -0.2422
 2106SOL    HW117954   2.362   0.630  10.843 -1.7651 -0.0550  2.1884
 2106SOL    HW217955   2.445   0.511  10.829  2.2755  0.9040 -0.8616
 2107SOL     OW17956   3.834   0.677  13.082 -0.5585  0.2157 -0.2966
 2107SOL    HW117957   3.861   0.587  13.064  0.4711  0.4346  0.1369
 2107SOL    HW217958   3.865   0.683  13.172  0.1556 -2.7112 -0.3417
 2108SOL     OW17959   0.411   0.594   7.686 -0.3081  0.5818 -0.6042
 2108SOL    HW117960   0.403   0.547   7.769 -3.4830  1.1251 -0.6010
 2108SOL    HW217961   0.427   0.528   7.619 -1.1588  0.6404 -0.8565
 2109SOL     OW17962   2.994   2.585  15.658  0.2945  0.3459  0.0079
 2109SOL    HW117963   3.086   2.595  15.680  0.7069 -0.9443 -1.0951
 2109SOL    HW217964   2.983   2.490  15.669 -1.1941  0.5375  0.1822
 2110SOL     OW17965   4.591   3.836   4.300  0.0203 -0.2995 -0.0605
 2110SOL    HW117966   4.593   3.742   4.282 -0.0973  0.1817 -2.5248
 2110SOL    HW217967   4.673   3.859   4.345 -0.7536  0.8022  0.7678
 2111SOL     OW17968   4.037   0.921   4.204 -0.3448 -0.1863  0.6562
 2111SOL    HW117969   4.062   0.992   4.146  1.2723 -1.6210 -0.3985
 2111SOL    HW217970   4.097   0.923   4.279 -0.1615 -0.0204  0.5051
 2112SOL     OW17971   3.262   3.478   4.475 -0.0081  0.4602  0.2815
 2112SOL    HW117972   3.331   3.457   4.539 -0.3951  0.4003  0.6793
 2112SOL    HW217973   3.252   3.567   4.510  0.0475  0.5119  0.1666
 2113SOL     OW17974   1.252   3.803   6.563 -0.1095 -0.2669  0.1196
 2113SOL    HW117975   1.250   3.840   6.475  1.7410 -3.4015 -1.2574
 2113SOL    HW217976   1.257   3.711   6.536 -0.4481  0.2415 -1.6683
 2114SOL     OW17977   2.660   1.693   9.393 -0.3382  0.3436  0.7874
 2114SOL    HW117978   2.649   1.599   9.380 -3.1635  0.4469  2.6909
 2114SOL    HW217979   2.740   1.709   9.342 -0.1608 -0.2553  0.8793
 2115SOL     OW17980   3.289   4.277  12.862  0.0091  0.0320 -0.2117
 2115SOL    HW117981   3.231   4.287  12.937 -0.3562 -0.4500 -0.4306
 2115SOL    HW217982   3.274   4.184  12.849 -1.8332  0.3245 -0.2473
 2116SOL     OW17983   0.932   0.800  14.422  0.1801  0.0085 -0.2100
 2116SOL    HW117984   0.866   0.774  14.486 -1.4081  1.0693 -1.3836
 2116SOL    HW217985   1.007   0.750  14.453  1.7041  2.4208  0.0576
 2117SOL     OW17986   3.628   3.854   3.965  0.1500 -0.3021 -0.4122
 2117SOL    HW117987   3.658   3.773   4.006 -0.7449 -0.0028  0.8406
 2117SOL    HW217988   3.704   3.909   3.983 -0.5552  0.1396  1.2295
 2118SOL     OW17989   3.814   3.088  14.413 -0.2072 -0.1625 -0.5614
 2118SOL    HW117990   3.901   3.126  14.405 -0.5952  0.8530 -0.0196
 2118SOL    HW217991   3.830   3.012  14.357  1.4713  0.2838 -0.6938
 2119SOL     OW17992   4.419   0.643  11.911  0.0051 -0.6228  0.1255
 2119SOL    HW117993   4.444   0.561  11.869  0.2086 -0.9131  0.8193
 2119SOL    HW217994   4.372   0.680  11.836 -0.1320 -0.0933  0.4699
 2120SOL     OW17995   3.732   4.715  13.557 -0.0803 -0.6479 -0.4455
 2120SOL    HW117996   3.779   4.696  13.638 -1.4120 -0.3552  0.3866
 2120SOL    HW217997   3.686   4.631  13.557 -0.2645 -0.5498  0.5925
 2121SOL     OW17998   4.709   0.801   9.580  0.0139 -0.1563  0.6826
 2121SOL    HW117999   0.065   0.801   9.607  0.6361 -1.9692 -1.5410
 2121SOL    HW218000   4.711   0.730   9.517  0.8963  0.3757  0.0981
 2122SOL     OW18001   3.024   0.450   6.720  0.1861 -0.1152  0.2397
 2122SOL    HW118002   3.046   0.358   6.735 -2.0868 -0.7832 -0.6073
 2122SOL    HW218003   2.932   0.452   6.695  0.4330  1.4582 -0.5356
 2123SOL     OW18004   3.032   4.322   4.913 -1.0782 -0.2166 -0.3723
 2123SOL    HW118005   3.043   4.386   4.983  1.3322 -2.2353  1.0748
 2123SOL    HW218006   2.985   4.376   4.849  0.8354  0.6679 -1.0357
 2124SOL     OW18007   4.046   0.096   4.801 -0.0375  0.3422 -0.1893
 2124SOL    HW118008   4.091   0.024   4.756 -0.1798  0.4521 -0.5085
 2124SOL    HW218009   4.012   0.143   4.725 -1.4020  0.3019  0.3920
 2125SOL     OW18010   3.807   3.685   3.132 -0.2677  0.0246  0.2435
 2125SOL    HW118011   3.765   3.722   3.054 -0.8764 -1.6483 -0.2186
 2125SOL    HW218012   3.891   3.666   3.091 -0.6444 -0.7426 -0.1797
 2126SOL     OW18013   2.044   1.152   1.626 -0.2214  0.4921  0.2280
 2126SOL    HW118014   2.105   1.219   1.596  1.2973 -1.5600 -1.2174
 2126SOL    HW218015   1.968   1.207   1.643 -1.5255 -0.9587 -0.8944
 2127SOL     OW18016   3.386   2.196   4.052  0.3789 -0.2511 -0.4381
 2127SOL    HW118017   3.424   2.254   3.985  1.2960 -0.3265  0.0169
 2127SOL    HW218018   3.431   2.116   4.023  0.1478  0.0205 -1.5742
 2128SOL     OW18019   3.693   3.605   2.740  0.1910 -0.2097  0.3843
 2128SOL    HW118020   3.678   3.659   2.662 -1.2645 -1.5577 -0.2704
 2128SOL    HW218021   3.655   3.660   2.808 -1.2308 -0.0701 -0.5248
 2129SOL     OW18022   0.103   0.089   8.418 -0.6984 -0.4298  0.1996
 2129SOL    HW118023   0.072   0.137   8.495  0.2996 -2.9433  2.1774
 2129SOL    HW218024   0.087   0.151   8.347 -0.5498 -2.8558 -1.9516
 2130SOL     OW18025   4.212   4.308   5.712 -0.2354 -0.2581 -0.2618
 2130SOL    HW118026   4.171   4.386   5.750  2.8956  1.4437 -0.3074
 2130SOL    HW218027   4.147   4.240   5.726  0.3076 -0.3899  1.6680
 2131SOL     OW18028   0.123   4.677  11.559  0.2765  0.0224  0.0059
 2131SOL    HW118029   0.073   0.001  11.504 -1.7502 -0.6130  1.1608
 2131SOL    HW218030   0.137   4.728  11.639 -4.0121  1.0529  0.0940
 2132SOL     OW18031   3.559   1.882   6.480  0.2778 -0.1404 -0.4203
 2132SOL    HW118032   3.624   1.812   6.473  0.6088  0.2253 -1.0873
 2132SOL    HW218033   3.545   1.894   6.386 -1.8738  1.3314  0.0777
 2133SOL     OW18034   2.897   0.514   0.783  0.0652 -0.1933  0.0228
 2133SOL    HW118035   2.908   0.520   0.878 -1.5250  0.2411  0.1656
 2133SOL    HW218036   2.986   0.502   0.750 -0.6984 -2.0841 -1.3595
 2134SOL     OW18037   2.692   3.964  14.912 -0.1075 -0.3108  0.3767
 2134SOL    HW118038   2.775   3.969  14.864 -0.2380 -0.9199  0.0958
 2134SOL    HW218039   2.627   3.982  14.844 -1.0423 -3.7891  0.3732
 2135SOL     OW18040   1.431   2.033   0.613  0.5109  0.5245 -0.3796
 2135SOL    HW118041   1.429   1.943   0.580 -0.5299 -0.1572  1.5780
 2135SOL    HW218042   1.488   2.024   0.689 -1.1373  3.0752  1.1482
 2136SOL     OW18043   3.226   1.105   2.684  0.4213  0.2200  0.0791
 2136SOL    HW118044   3.290   1.165   2.722  1.6942 -0.5305 -0.9120
 2136SOL    HW218045   3.154   1.159   2.718  0.6986 -0.3716  1.6146
 2137SOL     OW18046   1.072   0.526  11.826  0.3942  0.7092 -0.1675
 2137SOL    HW118047   1.146   0.527  11.887  1.5382  2.0129 -1.6006
 2137SOL    HW218048   1.065   0.618  11.804  1.1123  0.6236 -0.7636
 2138SOL     OW18049   3.643   0.377   1.494  0.8843 -0.6241  0.0058
 2138SOL    HW118050   3.567   0.435   1.502  0.2407 -1.4124 -0.4177
 2138SOL    HW218051   3.703   0.433   1.545 -0.7919  0.6591  0.5771
 2139SOL     OW18052   1.118   4.276   4.825 -0.1893 -0.1275 -0.0061
 2139SOL    HW118053   1.160   4.345   4.774 -3.1573  1.4779 -0.2791
 2139SOL    HW218054   1.177   4.259   4.898 -1.0105  0.0598  0.6901
 2140SOL     OW18055   3.149   0.009   7.334  0.0614 -0.4332  0.7796
 2140SOL    HW118056   3.157   0.091   7.383 -1.3454  1.2341 -1.8277
 2140SOL    HW218057   3.054   0.001   7.332  0.0851  0.1854 -3.2589
 2141SOL     OW18058   1.081   1.070  17.297 -0.4265 -0.1874  0.0295
 2141SOL    HW118059   1.137   1.117  17.236 -0.1797  0.3460  0.6707
 2141SOL    HW218060   0.995   1.105  17.276  0.4306  2.0601  0.3241
 2142SOL     OW18061   3.037   0.271   5.666 -0.1045 -0.1008  0.0763
 2142SOL    HW118062   3.079   0.229   5.592  0.6583 -0.0635  0.4806
 2142SOL    HW218063   3.024   0.359   5.632 -2.0531  0.3573  1.9648
 2143SOL     OW18064   4.533   0.928   3.816 -0.2377 -0.6821 -0.5079
 2143SOL    HW118065   4.611   0.955   3.767 -0.9836  0.9921 -0.7569
 2143SOL    HW218066   4.474   1.003   3.823 -0.8293 -0.9949 -2.2667
 2144SOL     OW18067   2.250   4.298   9.439 -0.0706 -0.3716 -0.2314
 2144SOL    HW118068   2.320   4.235   9.455  1.2873  0.9907 -0.8664
 2144SOL    HW218069   2.264   4.317   9.346 -0.5241  1.1014 -0.0039
 2145SOL     OW18070   0.150   2.719  17.678  0.5790  0.3963  0.0785
 2145SOL    HW118071   0.195   2.748   0.014 -1.8043  1.2732  1.1159
 2145SOL    HW218072   0.121   2.803  17.643 -0.1056  0.8596  1.7576
 2146SOL     OW18073   0.143   0.910   2.465 -0.2883 -0.0755 -0.6164
 2146SOL    HW118074   0.168   0.983   2.409 -4.6441  1.1548 -0.9442
 2146SOL    HW218075   0.187   0.839   2.420 -0.1056 -0.5774  0.3415
 2147SOL     OW18076   1.044   3.920   3.667  0.1366 -0.5973 -0.1858
 2147SOL    HW118077   1.038   3.975   3.589 -0.7543 -0.9114 -0.3389
 2147SOL    HW218078   0.959   3.930   3.712  1.2166  0.7620  1.5705
 2148SOL     OW18079   4.483   2.726   1.275  0.5361  0.2154  0.0811
 2148SOL    HW118080   4.455   2.817   1.268 -0.8032 -0.2467 -0.6429
 2148SOL    HW218081   4.454   2.706   1.364  2.1058  2.1605  1.0247
 2149SOL     OW18082   2.775   2.513   7.664  0.3945  0.6536  0.3539
 2149SOL    HW118083   2.679   2.506   7.664  0.4754 -0.5070  0.0003
 2149SOL    HW218084   2.786   2.427   7.623 -1.2873  0.6385 -0.0740
 2150SOL     OW18085   3.437   0.538   1.506  0.0664 -0.9884  0.1415
 2150SOL    HW118086   3.391   0.541   1.422  0.1393 -1.8338  0.0758
 2150SOL    HW218087   3.456   0.632   1.513  0.7744 -1.0930 -0.3669
 2151SOL     OW18088   0.473   4.689  12.801 -0.2099  0.1856 -0.2032
 2151SOL    HW118089   0.474   4.653  12.713  0.3160 -0.1670 -0.0592
 2151SOL    HW218090   0.456   0.046  12.788  0.7018  0.3748 -0.0675
 2152SOL     OW18091   2.454   4.273  13.571 -0.3292 -0.2398  0.2539
 2152SOL    HW118092   2.428   4.361  13.597  2.6136  0.2139  1.6756
 2152SOL    HW218093   2.383   4.264  13.508  0.9490 -0.7697 -1.0900
 2153SOL     OW18094   3.241   0.185  10.058  0.2422 -0.3304  0.4182
 2153SOL    HW118095   3.222   0.259  10.001 -0.5147 -1.3663 -0.6620
 2153SOL    HW218096   3.288   0.226  10.131  2.3333  0.6759 -1.4667
 2154SOL     OW18097   0.593   2.229   8.606 -0.3514 -0.0309 -0.2667
 2154SOL    HW118098   0.570   2.166   8.674  2.2941  0.3934  1.0152
 2154SOL    HW218099   0.650   2.183   8.544 -0.0425  1.1379 -0.8472
 2155SOL     OW18100   4.330   0.634  13.076 -0.3138  0.6814 -0.2315
 2155SOL    HW118101   4.274   0.653  13.000 -1.0156 -1.8927 -0.3619
 2155SOL    HW218102   4.375   0.718  13.078 -1.5324  1.3061  0.8740
 2156SOL     OW18103   3.406   0.516   2.423 -0.3290  0.3106 -0.9019
 2156SOL    HW118104   3.312   0.535   2.430 -0.5061 -1.7199  2.0043
 2156SOL    HW218105   3.447   0.564   2.494  0.3565 -1.7085  0.0547
 2157SOL     OW18106   3.415   4.327   5.909  0.3013  0.1230  0.4111
 2157SOL    HW118107   3.420   4.269   5.985  1.2747  2.2647  1.9675
 2157SOL    HW218108   3.421   4.269   5.833  0.5231  0.1860  0.3814
 2158SOL     OW18109   3.366   3.258   3.604 -0.3200  0.3098 -0.2875
 2158SOL    HW118110   3.409   3.335   3.568 -0.5952  1.4424  1.8258
 2158SOL    HW218111   3.274   3.285   3.612 -0.4160  0.1604 -0.8483
 2159SOL     OW18112   2.697   4.371   5.875 -0.7414 -0.1539 -0.1957
 2159SOL    HW118113   2.698   4.336   5.964 -2.5605 -2.2136 -1.0000
 2159SOL    HW218114   2.708   4.463   5.901  0.8459 -0.1394 -0.8696
 2160SOL     OW18115   3.762   2.386   2.902  0.2650  1.0330  0.4254
 2160SOL    HW118116   3.827   2.456   2.912  0.6731  0.8541 -0.9632
 2160SOL    HW218117   3.744   2.372   2.995 -0.8605  1.3890  0.2586
 2161SOL     OW18118   1.063   3.745   9.692  0.1981 -0.1084  0.4191
 2161SOL    HW118119   1.047   3.778   9.780  1.6266  3.6416 -0.7127
 2161SOL    HW218120   0.978   3.739   9.649  1.6601 -1.3839 -2.3396
 2162SOL     OW18121   3.289   2.861  16.764 -0.7077  0.8587 -0.0195
 2162SOL    HW118122   3.251   2.799  16.703 -0.6511  0.7447  0.0615
 2162SOL    HW218123   3.213   2.882  16.819 -1.1941  1.3533 -0.8868
 2163SOL     OW18124   2.490   2.324   9.423  0.3087 -0.3109 -0.1259
 2163SOL    HW118125   2.480   2.294   9.332 -0.5254 -0.2671 -0.0566
 2163SOL    HW218126   2.397   2.327   9.446  1.0430 -1.1647  2.9306
 2164SOL     OW18127   4.256   3.676   9.122 -0.1448 -0.2212 -0.2345
 2164SOL    HW118128   4.247   3.724   9.040 -0.5019  1.1825  0.6196
 2164SOL    HW218129   4.172   3.690   9.166 -0.0690  0.5874 -0.3431
 2165SOL     OW18130   1.770   0.416  10.266 -0.0532 -0.2375 -0.3590
 2165SOL    HW118131   1.686   0.460  10.258  0.1173 -0.0148 -0.9445
 2165SOL    HW218132   1.741   0.326  10.280 -2.0923  0.9728  2.9639
 2166SOL     OW18133   4.260   3.980  12.613 -0.1272  0.1818  0.6244
 2166SOL    HW118134   4.183   3.947  12.567 -1.2245  3.4931  0.0595
 2166SOL    HW218135   4.221   4.046  12.670  0.5313  0.1815  1.0802
 2167SOL     OW18136   2.502   1.646  13.120  0.1517 -0.0118 -0.2902
 2167SOL    HW118137   2.416   1.683  13.101  0.0693 -0.3158 -0.5259
 2167SOL    HW218138   2.470   1.561  13.150  1.8955  0.0592  1.7715
 2168SOL     OW18139   0.858   2.654   2.326 -0.1275  0.4105 -0.1865
 2168SOL    HW118140   0.890   2.637   2.415 -0.6380 -0.3488 -0.1463
 2168SOL    HW218141   0.795   2.584   2.308  0.8103 -0.4136 -0.2239
 2169SOL     OW18142   3.395   1.744   3.174  0.1609 -0.4224 -0.0018
 2169SOL    HW118143   3.476   1.792   3.158 -0.0225 -0.3504 -0.7051
 2169SOL    HW218144   3.426   1.653   3.171  0.7799 -0.2091 -0.1485
 2170SOL     OW18145   0.443   3.144   7.491  0.0029 -0.0358  0.8401
 2170SOL    HW118146   0.374   3.172   7.552 -1.6822 -0.7184 -0.7598
 2170SOL    HW218147   0.388   3.102   7.425 -3.3187  1.4076  2.6486
 2171SOL     OW18148   1.617   1.473   0.431  0.0433  0.1995 -0.3819
 2171SOL    HW118149   1.623   1.547   0.371  1.4878 -1.0778 -1.8397
 2171SOL    HW218150   1.616   1.392   0.380  0.6151  0.2679 -0.5105
 2172SOL     OW18151   3.480   4.549   5.713  0.3996  0.0809 -0.5126
 2172SOL    HW118152   3.457   4.481   5.650 -0.6600  0.1119 -0.1566
 2172SOL    HW218153   3.536   4.509   5.780  0.2893  1.1768  0.2343
 2173SOL     OW18154   4.514   0.311   3.688  0.2937 -0.1314 -0.5934
 2173SOL    HW118155   4.585   0.344   3.743 -1.4722 -0.3275  1.7961
 2173SOL    HW218156   4.458   0.388   3.703  0.5732 -0.2140  0.8669
 2174SOL     OW18157   0.266   1.218   7.767 -0.4521  0.2490  0.0346
 2174SOL    HW118158   0.235   1.128   7.764  2.8645 -1.0124  3.6769
 2174SOL    HW218159   0.333   1.235   7.834  0.6663  0.0082 -1.0138
 2175SOL     OW18160   4.270   4.219   8.604 -0.2005  0.8074  0.7999
 2175SOL    HW118161   4.333   4.291   8.610  1.0583 -0.2437  0.2263
 2175SOL    HW218162   4.324   4.143   8.627 -2.0855 -0.5387  0.7094
 2176SOL     OW18163   2.946   2.380  15.106 -0.4072 -0.2329 -0.5341
 2176SOL    HW118164   3.037   2.370  15.134 -0.1175  0.5928 -1.1687
 2176SOL    HW218165   2.899   2.305  15.142 -1.6711 -0.3642 -2.4807
 2177SOL     OW18166   0.518   2.712   7.347 -0.2532 -0.1812 -0.1155
 2177SOL    HW118167   0.553   2.750   7.266 -0.2431 -1.4729 -0.7172
 2177SOL    HW218168   0.515   2.620   7.322  0.6882 -0.0308 -0.8070
 2178SOL     OW18169   0.126   4.710  12.384  0.4690  0.0510 -0.3647
 2178SOL    HW118170   0.064   0.009  12.448 -0.0889 -1.2790 -0.1687
 2178SOL    HW218171   0.107   4.616  12.392  3.0174 -0.2754  1.9428
 2179SOL     OW18172   4.292   0.716   4.154  0.3770 -0.2919 -0.3240
 2179SOL    HW118173   4.314   0.668   4.233  0.0431 -1.1436 -0.7424
 2179SOL    HW218174   4.316   0.799   4.195 -0.5965  0.2614 -0.8724
 2180SOL     OW18175   1.291   3.522   6.501  1.0738 -0.1209  0.1346
 2180SOL    HW118176   1.386   3.535   6.497  0.7444  2.3592  0.0870
 2180SOL    HW218177   1.286   3.441   6.551 -2.1672 -0.1613 -0.2666
 2181SOL     OW18178   3.074   0.353  10.323 -0.2126 -0.0784 -0.3305
 2181SOL    HW118179   3.088   0.321  10.412  1.3165 -0.0785 -0.5781
 2181SOL    HW218180   3.042   0.277  10.275  0.0141  0.9030 -2.0273
 2182SOL     OW18181   2.676   4.346   8.780  0.0517  0.1706 -0.1560
 2182SOL    HW118182   2.684   4.440   8.790 -0.4070  0.1512  0.3589
 2182SOL    HW218183   2.683   4.334   8.685 -0.6694 -0.9691 -0.0679
 2183SOL     OW18184   2.829   0.967   7.631 -0.7680 -0.4058 -0.1105
 2183SOL    HW118185   2.858   0.905   7.564 -0.1120 -1.0656  0.7913
 2183SOL    HW218186   2.816   0.897   7.694 -0.6729 -1.1295 -0.8862
 2184SOL     OW18187   0.590   3.042  12.300 -0.4102 -0.2469 -0.2639
 2184SOL    HW118188   0.556   3.020  12.214 -0.0898  1.7949 -0.9115
 2184SOL    HW218189   0.625   3.130  12.285 -2.3180  0.6546  0.4896
 2185SOL     OW18190   1.137   3.652   8.323 -0.3377  1.1290  0.4645
 2185SOL    HW118191   1.051   3.668   8.285 -1.3043 -0.6044  1.9421
 2185SOL    HW218192   1.187   3.660   8.242 -1.5047 -1.2058 -0.4641
 2186SOL     OW18193   1.176   0.167  17.502 -0.2926 -0.4214  0.1886
 2186SOL    HW118194   1.138   0.254  17.518 -0.6749 -0.0274 -2.9519
 2186SOL    HW218195   1.175   0.128  17.590  0.8761 -1.1628 -0.1348
 2187SOL     OW18196   2.724   2.714   5.008 -0.4328  0.1018 -0.0216
 2187SOL    HW118197   2.742   2.683   4.920  0.0684  0.7869 -0.1638
 2187SOL    HW218198   2.692   2.631   5.043  0.8830  0.8658  3.0478
 2188SOL     OW18199   0.687   4.326   4.089  0.5619 -0.2689 -0.4653
 2188SOL    HW118200   0.779   4.313   4.114  0.5200  0.3700  0.0361
 2188SOL    HW218201   0.645   4.284   4.164  2.0006 -1.9877 -0.6402
 2189SOL     OW18202   1.332   2.322   2.532  0.0289 -0.0784  0.0158
 2189SOL    HW118203   1.261   2.294   2.590  0.5176 -0.2006  0.5555
 2189SOL    HW218204   1.281   2.354   2.458  0.5766  0.4389 -0.1336
 2190SOL     OW18205   3.251   1.187   7.494 -0.5194  0.3472 -0.4110
 2190SOL    HW118206   3.338   1.218   7.469  0.9336 -2.3801  1.1990
 2190SOL    HW218207   3.241   1.242   7.572  1.2633  0.5561 -0.3279
 2191SOL     OW18208   4.356   0.620   6.803 -0.3191  0.2464  0.4151
 2191SOL    HW118209   4.291   0.584   6.742 -2.6170  1.3943  2.2074
 2191SOL    HW218210   4.332   0.711   6.789  0.0109  0.4594  1.2549
 2192SOL     OW18211   2.765   1.599   0.237 -0.3720 -0.3787  0.7738
 2192SOL    HW118212   2.721   1.614   0.153 -1.2303  0.3745  1.3573
 2192SOL    HW218213   2.737   1.675   0.288 -0.6053 -0.5309  0.8703
 2193SOL     OW18214   4.679   3.698   8.253 -0.0007 -0.2968  0.0733
 2193SOL    HW118215   4.672   3.732   8.342 -1.1815 -0.4812  0.0442
 2193SOL    HW218216   4.613   3.629   8.248 -1.0321  0.5395  2.1024
 2194SOL     OW18217   2.287   0.995   5.702 -0.1299  0.3866 -0.6290
 2194SOL    HW118218   2.309   0.971   5.792 -0.4670  2.2568 -0.0384
 2194SOL    HW218219   2.353   1.065   5.693 -0.4831  0.7047 -0.7474
 2195SOL     OW18220   1.237   3.152   5.616 -0.3919  0.0670 -0.8581
 2195SOL    HW118221   1.295   3.226   5.597  1.6231 -0.7059  2.3720
 2195SOL    HW218222   1.289   3.074   5.632 -2.1191 -0.7087  0.8770
 2196SOL     OW18223   3.812   0.781   5.962  0.4311  0.2635 -0.2939
 2196SOL    HW118224   3.732   0.832   5.948 -0.8798 -1.8833 -0.5437
 2196SOL    HW218225   3.794   0.688   5.969  0.8893  0.1712 -0.3385
 2197SOL     OW18226   1.482   4.544   7.783 -0.3832 -0.2640 -0.2056
 2197SOL    HW118227   1.517   4.605   7.848  2.1796  0.8975 -2.6361
 2197SOL    HW218228   1.502   4.462   7.828 -0.0878 -0.0727  0.0118
 2198SOL     OW18229   0.533   3.605  10.377 -0.2964 -0.6865  0.1158
 2198SOL    HW118230   0.481   3.569  10.448 -2.8647  0.7582 -1.0598
 2198SOL    HW218231   0.471   3.598  10.304  0.2193 -1.5532 -0.2460
 2199SOL     OW18232   4.061   3.337  13.310  0.1293 -0.1719 -0.2209
 2199SOL    HW118233   4.090   3.384  13.389  1.8751 -1.2423 -0.2271
 2199SOL    HW218234   4.137   3.310  13.259  2.2000  1.2242  2.0783
 2200SOL     OW18235   2.442   2.139   0.635 -0.5351 -0.0603  0.2406
 2200SOL    HW118236   2.420   2.116   0.545  1.9956 -2.4500  0.2501
 2200SOL    HW218237   2.525   2.091   0.639  0.8863  2.3172 -0.4426
 2201SOL     OW18238   1.307   0.477   8.502  0.5446 -0.0868 -0.0761
 2201SOL    HW118239   1.211   0.472   8.504  0.7632 -3.3409  2.5810
 2201SOL    HW218240   1.329   0.428   8.582  3.1783  0.9695 -0.1745
 2202SOL     OW18241   2.286   3.974   6.027 -0.1587  0.0760 -0.1174
 2202SOL    HW118242   2.269   3.883   6.006  1.1615  0.3753 -2.6567
 2202SOL    HW218243   2.200   4.015   6.022 -1.1333 -1.9966 -0.0558
 2203SOL     OW18244   3.594   2.177  17.686 -0.3588 -0.0253 -0.0471
 2203SOL    HW118245   3.637   2.213  17.609 -0.2389 -0.4381 -0.1731
 2203SOL    HW218246   3.519   2.237  17.688  1.3485  2.0674  1.0917
 2204SOL     OW18247   0.189   2.217   6.526  0.2063  0.1740 -0.5086
 2204SOL    HW118248   0.126   2.189   6.592  0.1240  1.9711  0.1751
 2204SOL    HW218249   0.171   2.161   6.450  0.5464 -0.9300  0.2126
 2205SOL     OW18250   1.653   3.363   4.903 -0.0270 -0.2595 -0.5336
 2205SOL    HW118251   1.748   3.355   4.908 -0.2594 -0.7534  3.1592
 2205SOL    HW218252   1.637   3.269   4.888 -0.0361 -0.1249 -1.3823
 2206SOL     OW18253   3.550   1.965   4.026 -0.3063  0.0330  0.1772
 2206SOL    HW118254   3.564   1.929   3.938 -0.6616 -2.3516  1.0885
 2206SOL    HW218255   3.633   2.002   4.056  0.5879 -2.1924  0.4729
 2207SOL     OW18256   3.012   1.605   7.216 -0.2476 -0.1430 -0.2272
 2207SOL    HW118257   3.026   1.644   7.130  2.3145  1.3411  0.8672
 2207SOL    HW218258   2.924   1.633   7.242  0.1919  0.1683  0.9315
 2208SOL     OW18259   3.656   3.331   6.501 -0.0102 -0.0332 -0.5120
 2208SOL    HW118260   3.594   3.268   6.465 -1.8217  1.6642 -0.3651
 2208SOL    HW218261   3.611   3.411   6.475 -0.6633  0.5746  2.5565
 2209SOL     OW18262   1.648   4.671   3.240  0.0759  0.2070 -0.4991
 2209SOL    HW118263   1.656   4.611   3.167  1.2765  1.3708 -1.3161
 2209SOL    HW218264   1.734   4.667   3.282 -0.1234 -0.8609 -0.1855
 2210SOL     OW18265   1.716   2.278   9.591 -0.5280 -0.3562  0.2987
 2210SOL    HW118266   1.698   2.281   9.685 -1.2312  0.8216  0.1252
 2210SOL    HW218267   1.706   2.366   9.556 -2.6353 -0.8102 -0.2689
 2211SOL     OW18268   2.510   2.672   8.974 -0.4896  0.2828  0.5536
 2211SOL    HW118269   2.560   2.724   8.911  0.8224 -2.0516 -0.3640
 2211SOL    HW218270   2.575   2.611   9.009  0.4223  2.0617  1.9263
 2212SOL     OW18271   0.014   1.229   3.825 -0.5555  0.4607 -0.2405
 2212SOL    HW118272   0.012   1.134   3.820  1.7679  0.4022 -0.4592
 2212SOL    HW218273   0.028   1.230   3.920  0.9518  1.2516 -0.4635
 2213SOL     OW18274   3.388   0.584   8.812  0.1277 -0.3153  0.1364
 2213SOL    HW118275   3.327   0.521   8.774 -0.4656  0.1921  0.2457
 2213SOL    HW218276   3.464   0.531   8.836  0.5135 -0.8891 -2.4088
 2214SOL     OW18277   4.008   4.108   6.105  0.1303 -0.1204  0.0454
 2214SOL    HW118278   3.956   4.151   6.173  3.2125  1.6597  1.2682
 2214SOL    HW218279   4.094   4.105   6.147 -0.7170 -2.7023  1.6197
 2215SOL     OW18280   0.344   3.865   2.996 -0.1398 -0.0653  0.4414
 2215SOL    HW118281   0.255   3.900   2.994  0.2412  0.7885 -1.5647
 2215SOL    HW218282   0.347   3.848   2.901  2.6462  2.1966  0.1420
 2216SOL     OW18283   0.954   0.840   2.396  0.2390  0.3136  0.4005
 2216SOL    HW118284   1.032   0.863   2.346 -1.0548  0.4293 -1.5805
 2216SOL    HW218285   0.982   0.873   2.481  0.9377 -1.2643  0.7746
 2217SOL     OW18286   3.366   3.873   2.801  0.1115 -0.9953  0.5958
 2217SOL    HW118287   3.345   3.787   2.838 -3.2819 -1.0653 -1.4852
 2217SOL    HW218288   3.364   3.849   2.708 -3.2752 -0.2355  0.4620
 2218SOL     OW18289   2.378   1.401   2.474 -0.4156  0.2777  0.2672
 2218SOL    HW118290   2.426   1.343   2.532 -1.5343 -2.8410 -1.9175
 2218SOL    HW218291   2.427   1.479   2.499 -0.9937  0.7440 -0.0271
 2219SOL     OW18292   2.326   2.852  10.717 -0.2576 -0.1739 -0.3811
 2219SOL    HW118293   2.374   2.782  10.674  0.0173 -1.6162  2.2562
 2219SOL    HW218294   2.388   2.924  10.704 -1.1755  0.7830  0.4759
 2220SOL     OW18295   1.559   0.733   2.481  0.9879 -0.5634  0.2930
 2220SOL    HW118296   1.507   0.790   2.424 -2.8376 -2.4798  1.8082
 2220SOL    HW218297   1.645   0.737   2.440  0.2756 -0.8571 -1.2376
 2221SOL     OW18298   3.988   4.401  12.838 -0.1054  0.0120 -0.2705
 2221SOL    HW118299   3.933   4.329  12.807 -0.7327  0.4895 -0.2428
 2221SOL    HW218300   3.949   4.473  12.789 -2.5436 -0.9566  0.2736
 2222SOL     OW18301   3.620   1.623   2.221  0.1045 -0.0318  0.0814
 2222SOL    HW118302   3.545   1.625   2.160 -0.2666  0.0083  0.5408
 2222SOL    HW218303   3.685   1.673   2.172 -1.1365  1.2147 -0.2926
 2223SOL     OW18304   0.152   1.905  15.203 -0.1499 -0.2242  0.4054
 2223SOL    HW118305   0.112   1.946  15.127 -1.1824  0.2744  1.2211
 2223SOL    HW218306   0.192   1.977  15.252  1.5633 -1.4694  0.8347
 2224SOL     OW18307   3.434   3.242   1.025 -0.0190 -0.4543  0.6544
 2224SOL    HW118308   3.486   3.189   0.965  0.2282  0.3260  0.1868
 2224SOL    HW218309   3.426   3.180   1.098  1.4830  0.1284  1.3171
 2225SOL     OW18310   0.241   0.935  15.972 -0.4443 -0.8160  0.1790
 2225SOL    HW118311   0.175   1.003  15.962  2.3486  1.9256  0.5224
 2225SOL    HW218312   0.208   0.900  16.055 -1.4169 -0.1187  0.0897
 2226SOL     OW18313   1.394   3.453   4.834 -0.4872 -0.2033  0.5742
 2226SOL    HW118314   1.482   3.421   4.855  0.5342  0.5420 -2.4975
 2226SOL    HW218315   1.407   3.547   4.824 -2.5943  0.0291 -0.0549
 2227SOL     OW18316   0.126   2.273  14.972 -0.2410  0.5483  0.0704
 2227SOL    HW118317   0.066   2.316  14.910  0.5122  2.5197  0.7002
 2227SOL    HW218318   0.075   2.244  15.048  2.0562 -0.6388  1.1654
 2228SOL     OW18319   0.770   3.931   3.684  0.2397  0.6836 -0.7418
 2228SOL    HW118320   0.749   4.007   3.630 -2.7084 -0.5078 -1.3064
 2228SOL    HW218321   0.709   3.870   3.643  1.4254 -1.3671  0.5502
 2229SOL     OW18322   2.632   2.533   8.742  0.1048 -0.0545  0.2711
 2229SOL    HW118323   2.583   2.489   8.672  1.5101 -0.7187 -0.3007
 2229SOL    HW218324   2.659   2.617   8.704 -0.5840  0.6217  1.2952
 2230SOL     OW18325   1.411   0.606  13.319  0.4147 -0.0121  0.1119
 2230SOL    HW118326   1.407   0.672  13.250 -2.1954 -1.0889 -0.7717
 2230SOL    HW218327   1.369   0.658  13.387 -0.8854 -2.1142  0.9399
 2231SOL     OW18328   0.847   2.874   9.314 -0.0334  0.0340  0.0094
 2231SOL    HW118329   0.811   2.787   9.327 -1.6484  0.3798 -1.9512
 2231SOL    HW218330   0.935   2.841   9.297  0.2768  0.9025 -0.0854
 2232SOL     OW18331   1.839   1.857   7.989  0.1460  0.7970 -0.4492
 2232SOL    HW118332   1.898   1.789   7.954 -3.1474 -1.4859 -1.5240
 2232SOL    HW218333   1.877   1.865   8.076 -1.5209 -0.6697  0.3938
 2233SOL     OW18334   2.475   1.922   4.036  0.0103  0.3068 -0.2784
 2233SOL    HW118335   2.475   1.868   3.957 -2.6729 -1.1274  0.7042
 2233SOL    HW218336   2.462   1.857   4.105  1.0300 -0.3226 -0.6754
 2234SOL     OW18337   2.972   1.075   9.300  0.1162 -0.5699 -0.4766
 2234SOL    HW118338   2.962   1.133   9.225 -0.4557 -0.8812 -0.6397
 2234SOL    HW218339   2.898   1.106   9.352  0.9825 -0.3448  0.6274
 2235SOL     OW18340   1.447   2.982   8.789  0.2046  0.2444 -0.0708
 2235SOL    HW118341   1.433   2.968   8.695 -0.6277 -0.4073  0.1471
 2235SOL    HW218342   1.486   3.070   8.790  1.5327 -0.3425 -1.1747
 2236SOL     OW18343   0.511   2.415   9.486  0.0483  0.2882  0.0414
 2236SOL    HW118344   0.572   2.367   9.430  0.6034  1.0590 -0.0114
 2236SOL    HW218345   0.555   2.406   9.570 -0.8283  2.4303  0.7214
 2237SOL     OW18346   3.905   2.828   8.026 -0.3364  0.3241  0.6225
 2237SOL    HW118347   3.829   2.783   7.988  0.5305 -0.3092 -0.3634
 2237SOL    HW218348   3.865   2.855   8.109 -1.0340 -1.7068  0.9484
 2238SOL     OW18349   4.570   1.498   9.352  0.1967 -0.4627  0.2501
 2238SOL    HW118350   4.600   1.490   9.442 -0.7919 -1.6926  0.4703
 2238SOL    HW218351   4.522   1.581   9.355 -1.5468 -1.4885  0.7262
 2239SOL     OW18352   2.215   0.527   4.800 -0.1190  0.6976 -0.0318
 2239SOL    HW118353   2.246   0.519   4.891  1.6241 -1.8000 -0.8410
 2239SOL    HW218354   2.199   0.436   4.776  1.5192  0.9260 -1.9779
 2240SOL     OW18355   3.131   2.567   3.817  0.4806  0.4580  0.5432
 2240SOL    HW118356   3.159   2.502   3.881  0.3601 -0.3995 -0.2643
 2240SOL    HW218357   3.147   2.653   3.856 -0.5357  0.7005  0.4323
 2241SOL     OW18358   0.837   0.983   8.731  0.1816  0.1706 -0.5269
 2241SOL    HW118359   0.781   0.925   8.782  2.3263 -0.6532  0.9037
 2241SOL    HW218360   0.884   1.027   8.802  0.6148 -0.8646 -0.1714
 2242SOL     OW18361   0.254   2.854  15.446  0.0007 -0.4253 -0.3603
 2242SOL    HW118362   0.303   2.811  15.516 -2.1440 -1.0784  0.7603
 2242SOL    HW218363   0.284   2.820  15.362  1.7952 -2.9675  1.2892
 2243SOL     OW18364   0.340   3.031   4.209 -0.1787  0.0842  0.4738
 2243SOL    HW118365   0.264   3.061   4.258 -0.4650  1.2766 -0.6923
 2243SOL    HW218366   0.298   2.978   4.142 -0.5833  1.9909 -0.8052
 2244SOL     OW18367   4.409   3.595   3.098  0.0633 -0.3341  0.4601
 2244SOL    HW118368   4.353   3.536   3.149  1.2636 -0.0117  2.1394
 2244SOL    HW218369   4.445   3.539   3.029 -1.3984  0.9430 -1.3461
 2245SOL     OW18370   3.445   2.082  13.163 -0.8527  0.2374  0.1630
 2245SOL    HW118371   3.415   2.173  13.159 -1.2890  0.0368 -1.0302
 2245SOL    HW218372   3.479   2.073  13.252  0.2690  1.8769 -0.1068
 2246SOL     OW18373   0.313   1.532   5.209 -0.2583  0.4911 -0.0923
 2246SOL    HW118374   0.361   1.482   5.144 -1.1329  1.1656 -1.2695
 2246SOL    HW218375   0.362   1.614   5.210  1.4613 -0.5263 -1.6846
 2247SOL     OW18376   2.806   0.891  11.962  0.0911 -0.1577  0.2573
 2247SOL    HW118377   2.830   0.806  11.925  1.0171  0.5962 -0.8438
 2247SOL    HW218378   2.754   0.920  11.887  0.0310 -0.5723  0.1403
 2248SOL     OW18379   4.453   2.768   6.017 -0.0472 -0.3287 -0.4537
 2248SOL    HW118380   4.429   2.749   6.107  1.4667 -2.0219 -0.4220
 2248SOL    HW218381   4.513   2.840   6.036  0.0683 -0.6004  0.1851
 2249SOL     OW18382   3.538   3.528   5.800  0.1247 -0.0113  0.0522
 2249SOL    HW118383   3.461   3.577   5.829  2.0280  2.2790  1.2685
 2249SOL    HW218384   3.593   3.600   5.770  0.7949 -0.4760  0.1687
 2250SOL     OW18385   3.647   0.067   4.606 -0.2277  0.0095  0.5645
 2250SOL    HW118386   3.571   0.092   4.553 -1.2703 -1.3062  1.4617
 2250SOL    HW218387   3.697   0.149   4.604 -0.1650 -0.0413 -0.0368
 2251SOL     OW18388   2.147   4.702   1.611 -0.3263 -0.1227 -0.2574
 2251SOL    HW118389   2.077   4.694   1.545 -1.6933  3.0845  0.7501
 2251SOL    HW218390   2.123   4.652   1.689 -2.0817  1.4043  0.2087
 2252SOL     OW18391   1.015   1.260   7.246  0.1687  0.0497  0.3940
 2252SOL    HW118392   1.055   1.175   7.260 -2.4366 -1.2296  0.0499
 2252SOL    HW218393   1.091   1.310   7.278  0.0934  0.3782  0.0614
 2253SOL     OW18394   1.216   4.366   4.225  0.1145  0.6408  0.6151
 2253SOL    HW118395   1.176   4.359   4.311  2.5700  0.0410  1.7108
 2253SOL    HW218396   1.260   4.450   4.229  0.7034  0.3396  0.4755
 2254SOL     OW18397   4.177   2.282   2.396 -0.1352  0.1765  0.1144
 2254SOL    HW118398   4.219   2.340   2.459  1.1928 -2.8716  2.0433
 2254SOL    HW218399   4.099   2.260   2.447 -0.2906 -0.2795 -0.3226
 2255SOL     OW18400   3.483   0.597   9.298  0.3210 -0.1946  0.1964
 2255SOL    HW118401   3.457   0.611   9.389 -0.3555  0.3604 -0.0796
 2255SOL    HW218402   3.508   0.687   9.277 -1.3350  0.7113  2.1008
 2256SOL     OW18403   3.890   3.108   7.881  0.0380  0.3380  0.4149
 2256SOL    HW118404   3.902   3.016   7.904 -0.6417  0.5179  1.5053
 2256SOL    HW218405   3.798   3.100   7.854 -0.7620  5.4097  1.6261
 2257SOL     OW18406   4.538   4.214   4.184 -0.6505  0.3512  0.2440
 2257SOL    HW118407   4.613   4.273   4.175  0.8731 -1.9889 -2.1216
 2257SOL    HW218408   4.587   4.167   4.251 -0.0782 -0.1203 -0.5125
 2258SOL     OW18409   2.846   3.557   8.173 -0.4202 -0.0425 -0.1028
 2258SOL    HW118410   2.862   3.486   8.236 -0.1197 -0.0950 -0.2404
 2258SOL    HW218411   2.773   3.520   8.123  0.9411 -2.5946 -0.2289
 2259SOL     OW18412   1.863   0.266   3.849 -0.4554  0.2513 -0.2039
 2259SOL    HW118413   1.821   0.192   3.806  0.3817 -0.2854 -0.0933
 2259SOL    HW218414   1.929   0.286   3.782 -0.7517  1.7382 -0.0540
 2260SOL     OW18415   4.258   1.407   5.238 -0.0063 -0.0674 -0.1048
 2260SOL    HW118416   4.205   1.413   5.318  0.5769 -1.0083  0.3525
 2260SOL    HW218417   4.195   1.439   5.175 -0.4498 -0.8666 -0.0652
 2261SOL     OW18418   4.675   3.126   3.348  0.3469 -0.3363  0.5153
 2261SOL    HW118419   0.030   3.125   3.374  0.0860 -0.2723  1.4250
 2261SOL    HW218420   4.661   3.198   3.287  0.8402 -0.0811  0.7161
 2262SOL     OW18421   2.356   2.048   2.176 -0.2643  0.2647 -0.3096
 2262SOL    HW118422   2.288   1.991   2.213 -0.3653  0.0702 -0.8018
 2262SOL    HW218423   2.385   2.100   2.250  1.0123 -0.9600  0.0400
 2263SOL     OW18424   1.160   2.246   1.595 -0.1558 -0.3890  0.0676
 2263SOL    HW118425   1.216   2.318   1.565  1.9299 -2.5610 -1.2081
 2263SOL    HW218426   1.192   2.235   1.685  1.6818  0.8376 -0.4262
 2264SOL     OW18427   2.568   3.916  12.496 -0.1523  0.0143  0.2078
 2264SOL    HW118428   2.478   3.920  12.465 -0.1662  2.1421  0.5371
 2264SOL    HW218429   2.555   3.912  12.591 -2.1412 -0.1281 -0.0732
 2265SOL     OW18430   4.227   1.824  13.392  0.1240  0.3129 -0.0733
 2265SOL    HW118431   4.277   1.826  13.473  1.0616  0.4987 -0.6563
 2265SOL    HW218432   4.299   1.795  13.337 -0.0502  1.1744 -0.7679
 2266SOL     OW18433   2.581   1.864   6.791  0.3925 -0.1980  0.5158
 2266SOL    HW118434   2.564   1.949   6.752  0.8632  0.2880  1.3641
 2266SOL    HW218435   2.622   1.818   6.718 -0.2492  0.2468 -0.1176
 2267SOL     OW18436   3.515   0.001   2.781  0.1019  0.6060 -0.0865
 2267SOL    HW118437   3.579   0.031   2.717  0.7852 -0.4523  0.1062
 2267SOL    HW218438   3.491   4.648   2.755  1.3384  0.2825 -0.0818
 2268SOL     OW18439   4.605   3.229   5.934 -0.1595 -0.4133 -0.4253
 2268SOL    HW118440   4.574   3.138   5.929 -1.5917  0.0586 -0.1672
 2268SOL    HW218441   4.560   3.265   6.010 -0.1506  1.0861 -1.1276
 2269SOL     OW18442   2.062   2.194   3.864  0.2576 -0.4113 -0.2480
 2269SOL    HW118443   2.137   2.153   3.908 -1.3265 -1.2420  1.7131
 2269SOL    HW218444   1.999   2.122   3.858  0.8693 -0.9846  0.0952
 2270SOL     OW18445   1.481   3.104   7.106 -1.1176 -0.2478  0.3621
 2270SOL    HW118446   1.391   3.129   7.088 -0.2958  0.3062 -2.9385
 2270SOL    HW218447   1.521   3.189   7.124 -3.0633  0.8593 -0.6161
 2271SOL     OW18448   0.104   2.044   8.370 -0.8970  0.0225 -0.0646
 2271SOL    HW118449   0.189   2.022   8.408 -1.0355  0.0699  0.2717
 2271SOL    HW218450   0.078   2.106   8.438  1.2788 -1.6426  2.2646
 2272SOL     OW18451   2.984   2.861   4.476  0.2205  0.3131 -0.3322
 2272SOL    HW118452   2.947   2.901   4.555  0.4945  1.2162 -0.6561
 2272SOL    HW218453   2.984   2.938   4.419 -0.7226  0.1068 -0.6130
 2273SOL     OW18454   0.429   3.534   0.943  0.0201  0.0075 -0.3338
 2273SOL    HW118455   0.465   3.445   0.941 -0.3231 -0.1586  0.7389
 2273SOL    HW218456   0.407   3.538   1.036  0.9343  0.1947 -0.1181
 2274SOL     OW18457   4.407   1.721   6.549 -0.7270  1.0460 -0.2854
 2274SOL    HW118458   4.320   1.760   6.555 -0.1549  2.5112 -1.3660
 2274SOL    HW218459   4.393   1.637   6.506  1.2350 -0.0232  1.1632
 2275SOL     OW18460   3.093   4.559   6.968 -0.2275  0.0539  0.4638
 2275SOL    HW118461   3.000   4.564   6.946 -0.3183 -0.8999  0.6345
 2275SOL    HW218462   3.093   4.467   6.996  2.5519 -0.3425 -0.8421
 2276SOL     OW18463   0.302   2.498  12.297  0.6573  0.2738  0.5522
 2276SOL    HW118464   0.324   2.513  12.205 -0.5762  0.5209  0.2973
 2276SOL    HW218465   0.391   2.490  12.332  1.3398 -1.0778 -1.4812
 2277SOL     OW18466   3.615   4.294   7.326 -0.2071 -0.2571  1.0036
 2277SOL    HW118467   3.615   4.199   7.331 -1.6428 -0.3875 -1.2660
 2277SOL    HW218468   3.591   4.321   7.415 -0.8206  1.0597  0.4413
 2278SOL     OW18469   4.183   3.007   1.884  0.1421 -0.2142 -0.2955
 2278SOL    HW118470   4.228   2.976   1.962 -0.8804 -0.1646  0.3051
 2278SOL    HW218471   4.215   3.097   1.884 -2.3926  0.6930  1.5276
 2279SOL     OW18472   1.223   4.672   4.296  0.3331  0.3203 -0.1043
 2279SOL    HW118473   1.237   0.016   4.347  0.6114  0.6808 -0.7368
 2279SOL    HW218474   1.212   4.609   4.366  3.2588 -0.0702  0.0166
 2280SOL     OW18475   4.210   0.307   5.586 -0.0379 -0.6108  0.4706
 2280SOL    HW118476   4.294   0.262   5.587  0.7834  0.9231  0.4144
 2280SOL    HW218477   4.165   0.241   5.638 -0.1666 -1.0844 -0.2415
 2281SOL     OW18478   4.551   2.114   8.594  0.2130 -0.3993  0.1035
 2281SOL    HW118479   4.645   2.134   8.591 -0.9789  4.7755 -2.3482
 2281SOL    HW218480   4.528   2.159   8.513 -0.0588  0.4158  0.6379
 2282SOL     OW18481   3.833   2.768   7.508  0.1067  0.0685  0.0644
 2282SOL    HW118482   3.861   2.854   7.539 -1.4887  0.1020  1.3586
 2282SOL    HW218483   3.855   2.765   7.414  0.3966 -1.0380  0.1634
 2283SOL     OW18484   1.835   1.215  16.255  0.6161 -0.1357  0.1384
 2283SOL    HW118485   1.850   1.132  16.300  0.1995  0.1381  0.7781
 2283SOL    HW218486   1.923   1.220  16.217 -0.0247  2.6330 -0.9803
 2284SOL     OW18487   1.316   4.714  11.525  0.3356  0.4918 -0.3470
 2284SOL    HW118488   1.334   4.629  11.565  2.4551  1.5437  0.8822
 2284SOL    HW218489   1.368   0.035  11.581  0.8197 -1.4826  1.2210
 2285SOL     OW18490   3.296   3.544   2.618 -0.3617 -0.3560 -0.0370
 2285SOL    HW118491   3.308   3.550   2.713 -1.2897 -1.6522  0.1641
 2285SOL    HW218492   3.351   3.612   2.581  0.4838 -1.4551 -0.8013
 2286SOL     OW18493   0.792   4.282  17.110  0.0676 -0.5557 -0.0408
 2286SOL    HW118494   0.839   4.354  17.068 -1.1645 -0.0795 -0.6255
 2286SOL    HW218495   0.824   4.210  17.055  0.4201 -0.2717 -0.2092
 2287SOL     OW18496   3.872   1.194   5.344 -0.5019  0.5661  0.1143
 2287SOL    HW118497   3.880   1.239   5.259 -1.7314  0.8909  0.1694
 2287SOL    HW218498   3.914   1.110   5.326 -1.5791 -0.1101  0.7885
 2288SOL     OW18499   0.694   4.051   6.350 -0.1362  0.7448 -0.1558
 2288SOL    HW118500   0.771   4.004   6.318 -0.6349  0.3764 -0.8178
 2288SOL    HW218501   0.631   3.985   6.378  0.5680 -0.2330 -0.9144
 2289SOL     OW18502   3.562   4.000   8.355 -0.5578  0.1297  0.1544
 2289SOL    HW118503   3.529   3.920   8.396 -0.0607  0.7070  1.6488
 2289SOL    HW218504   3.555   4.067   8.423  0.8591  0.5130 -0.0826
 2290SOL     OW18505   4.128   3.034  17.094  0.3680  0.6718 -0.8176
 2290SOL    HW118506   4.041   3.031  17.134  0.6566  2.0727 -0.0592
 2290SOL    HW218507   4.111   3.000  17.007 -3.1952 -0.6756  0.4163
 2291SOL     OW18508   3.331   3.892  15.169 -0.2183 -0.1462  0.2640
 2291SOL    HW118509   3.361   3.802  15.157  0.8348  0.4171 -1.3302
 2291SOL    HW218510   3.367   3.906  15.257 -0.3669 -0.6478  0.3999
 2292SOL     OW18511   2.547   0.216   6.054  0.2404 -0.0468  0.4377
 2292SOL    HW118512   2.558   0.289   5.993  0.3672  0.5517  1.1768
 2292SOL    HW218513   2.635   0.185   6.077  0.3925  0.6972  0.8424
 2293SOL     OW18514   0.758   1.833   3.044  0.2959  0.2186 -0.8465
 2293SOL    HW118515   0.823   1.833   3.114 -0.0915 -0.7203 -0.4827
 2293SOL    HW218516   0.810   1.785   2.980  0.9676 -1.5129  1.0015
 2294SOL     OW18517   0.228   2.175   7.976  0.1402 -0.0583  0.0502
 2294SOL    HW118518   0.213   2.235   8.048 -0.1367 -0.8921  0.6920
 2294SOL    HW218519   0.146   2.125   7.978  0.1937 -0.1241  0.6704
 2295SOL     OW18520   4.715   2.161   4.009 -0.0089  0.4227  0.1391
 2295SOL    HW118521   0.057   2.138   3.959  0.3853  0.4835  0.7256
 2295SOL    HW218522   0.001   2.232   4.068 -0.2626  0.8718 -0.3076
 2296SOL     OW18523   3.509   4.034   8.091 -0.3036  0.5176  0.2474
 2296SOL    HW118524   3.529   4.066   8.179 -0.7295 -1.9509  1.2697
 2296SOL    HW218525   3.413   4.038   8.095 -0.2354  2.5684 -0.2748
 2297SOL     OW18526   3.262   2.009   8.336 -0.2482  0.6591  0.3969
 2297SOL    HW118527   3.294   1.923   8.309 -3.3019  0.2712 -2.0406
 2297SOL    HW218528   3.171   1.990   8.361 -0.5456 -0.9749 -1.8949
 2298SOL     OW18529   0.018   0.920   1.358  0.4162  0.0545 -0.4501
 2298SOL    HW118530   4.687   0.873   1.407  0.2252  1.8476  1.0140
 2298SOL    HW218531   0.076   0.853   1.322  0.9722 -0.7594  1.9691
 2299SOL     OW18532   4.359   2.444   8.502 -0.2278 -0.2879 -0.0353
 2299SOL    HW118533   4.407   2.469   8.581 -0.3888 -0.1193  0.0097
 2299SOL    HW218534   4.374   2.515   8.439  0.6078  0.6637  1.2339
 2300SOL     OW18535   0.758   3.445  14.801 -0.3556 -0.0959  0.3625
 2300SOL    HW118536   0.664   3.434  14.782  0.2258  1.2669 -3.1928
 2300SOL    HW218537   0.782   3.389  14.875 -0.3368  0.9145  1.1147
 2301SOL     OW18538   2.673   2.416   7.110 -0.5914 -0.1564 -0.0347
 2301SOL    HW118539   2.706   2.340   7.158  3.6245  0.5503 -1.8175
 2301SOL    HW218540   2.752   2.470   7.114  0.2462 -1.3459 -0.5345
 2302SOL     OW18541   3.912   0.023   3.683  0.1543  0.0267  0.4524
 2302SOL    HW118542   3.958   4.675   3.688 -0.2242 -0.2792 -1.0494
 2302SOL    HW218543   3.975   0.089   3.711  2.2387 -2.7013  2.1890
 2303SOL     OW18544   3.928   0.074   4.538  1.0197 -0.2337  0.2669
 2303SOL    HW118545   3.871   4.735   4.549 -2.1590  1.7662 -2.7091
 2303SOL    HW218546   3.949   0.077   4.445  0.1115  2.4141  0.1507
 2304SOL     OW18547   2.743   0.661  14.817 -0.1429  0.1179  0.3122
 2304SOL    HW118548   2.678   0.731  14.808  0.3086  0.4338 -0.5085
 2304SOL    HW218549   2.696   0.592  14.864  0.3883 -0.2446  0.3078
 2305SOL     OW18550   4.255   3.402   7.504  0.5709  0.3018  0.0373
 2305SOL    HW118551   4.324   3.386   7.568  2.3330  0.2419 -1.8711
 2305SOL    HW218552   4.236   3.313   7.475  0.3511 -0.0016  1.1303
 2306SOL     OW18553   2.579   4.001   8.562 -0.3913  0.2525  0.1948
 2306SOL    HW118554   2.559   3.921   8.611 -0.5465 -1.4759 -2.6812
 2306SOL    HW218555   2.491   4.030   8.539 -0.6789  1.0670  2.2407
 2307SOL     OW18556   0.270   4.522   1.688  0.2369  0.0197  0.1163
 2307SOL    HW118557   0.308   4.576   1.619 -1.7178 -1.2665 -1.9762
 2307SOL    HW218558   0.356   4.511   1.728  0.7156 -0.4470 -1.0592
 2308SOL     OW18559   0.958   0.213  10.801  0.0824 -0.4470 -0.2717
 2308SOL    HW118560   1.047   0.247  10.798  0.3548 -1.1045  0.4216
 2308SOL    HW218561   0.916   0.286  10.847  2.4104  2.0996 -2.1902
 2309SOL     OW18562   1.446   4.657   6.052  0.3151 -0.3471  0.0459
 2309SOL    HW118563   1.470   4.575   6.008 -0.0612 -1.7135  2.3951
 2309SOL    HW218564   1.429   4.624   6.140 -3.2390 -1.3183 -0.9560
 2310SOL     OW18565   2.043   1.946   3.202  0.2368  0.7525 -0.3361
 2310SOL    HW118566   1.950   1.950   3.182 -0.2992  0.4467  2.0926
 2310SOL    HW218567   2.037   1.866   3.254 -1.2691  0.6469 -0.6955
 2311SOL     OW18568   1.586   2.753   9.439  0.5794  0.0330 -0.1374
 2311SOL    HW118569   1.528   2.769   9.365  1.0951  1.8018 -0.1545
 2311SOL    HW218570   1.630   2.835   9.458 -0.0697  0.0833  1.1047
 2312SOL     OW18571   1.707   2.804  10.724 -0.1242  0.3537  0.1153
 2312SOL    HW118572   1.780   2.862  10.750  0.1020 -0.6873  1.7968
 2312SOL    HW218573   1.692   2.756  10.805  1.1965 -1.0201 -0.4663
 2313SOL     OW18574   3.928   4.355  17.681 -0.5589 -0.1539  0.0419
 2313SOL    HW118575   3.925   4.311   0.022  1.5272  0.0122  0.1943
 2313SOL    HW218576   3.968   4.441  17.692 -1.0262 -0.1476  1.6090
 2314SOL     OW18577   1.724   3.295   7.446  0.2127 -0.3029 -0.3406
 2314SOL    HW118578   1.628   3.285   7.447  0.3865 -2.4479 -2.3464
 2314SOL    HW218579   1.737   3.363   7.381 -2.7663  1.6228  1.0590
 2315SOL     OW18580   3.014   1.277  14.334  0.1195  0.1650 -0.7121
 2315SOL    HW118581   3.040   1.336  14.404 -0.8940 -0.5913  0.3029
 2315SOL    HW218582   2.977   1.346  14.280 -0.9209 -0.8783 -1.3356
 2316SOL     OW18583   0.546   0.958  17.631  0.4218  0.2020  0.2234
 2316SOL    HW118584   0.451   0.947  17.636  0.3749  1.9076  3.2802
 2316SOL    HW218585   0.575   0.878  17.675  0.0150  1.5675  2.9758
 2317SOL     OW18586   4.075   3.702   8.294  1.0332  0.1154  1.0387
 2317SOL    HW118587   4.134   3.773   8.267  1.0335 -0.2294  0.1158
 2317SOL    HW218588   4.129   3.662   8.361  0.5374 -1.4321  0.5108
 2318SOL     OW18589   2.666   2.758   2.103  0.0094 -0.1709  0.4169
 2318SOL    HW118590   2.651   2.765   2.008  0.0855  1.8934  0.5711
 2318SOL    HW218591   2.628   2.673   2.127  0.8050 -1.0446 -1.3800
 2319SOL     OW18592   2.239   1.000   4.419 -0.3592 -0.5524  0.3765
 2319SOL    HW118593   2.149   0.986   4.390 -0.5520  1.8821 -0.2065
 2319SOL    HW218594   2.260   1.075   4.364  0.5795 -1.8478 -1.0210
 2320SOL     OW18595   3.956   2.782   7.269  0.1411 -0.1096  0.2728
 2320SOL    HW118596   4.036   2.730   7.273  1.4233  1.8062 -0.3529
 2320SOL    HW218597   3.931   2.774   7.177  0.1318 -1.4998  0.3970
 2321SOL     OW18598   1.384   4.055   7.137 -0.0551 -0.0857 -0.6405
 2321SOL    HW118599   1.463   4.003   7.156  1.1637  1.6363 -1.0012
 2321SOL    HW218600   1.327   3.979   7.128 -0.6374  0.3969 -1.0263
 2322SOL     OW18601   2.387   2.720   6.934  0.0116 -0.4019 -0.3476
 2322SOL    HW118602   2.480   2.719   6.957  0.3750  0.6217 -1.8175
 2322SOL    HW218603   2.368   2.805   6.974 -1.4089 -0.4996 -0.8400
 2323SOL     OW18604   4.261   2.744   5.577  0.0419 -0.1011  0.0264
 2323SOL    HW118605   4.274   2.776   5.666 -1.1140  1.7628 -0.4812
 2323SOL    HW218606   4.262   2.829   5.533 -0.2151 -0.5076 -0.7677
 2324SOL     OW18607   0.262   1.919   9.015 -0.3683 -0.1818 -0.1154
 2324SOL    HW118608   0.200   1.848   9.004 -1.7595  1.1613 -0.9622
 2324SOL    HW218609   0.260   1.919   9.111  3.9185  1.9649  0.0147
 2325SOL     OW18610   1.985   3.624   4.965  0.6222 -0.0502  0.0402
 2325SOL    HW118611   1.906   3.677   4.955  0.4593 -0.3802 -0.3968
 2325SOL    HW218612   1.938   3.552   5.007 -0.4268  1.1095  0.8787
 2326SOL     OW18613   0.188   0.140  11.751 -0.0923 -0.5675  0.0363
 2326SOL    HW118614   0.281   0.159  11.737 -0.8797  2.0169 -1.5813
 2326SOL    HW218615   0.184   0.115  11.844  1.8809  0.1268  0.2951
 2327SOL     OW18616   0.929   3.455   5.599 -0.4923 -0.0719 -0.2879
 2327SOL    HW118617   0.849   3.462   5.650 -0.0175  0.4032  0.3899
 2327SOL    HW218618   0.916   3.375   5.548  0.2009 -0.4200  0.0720
 2328SOL     OW18619   3.162   0.077   6.952  0.5812 -0.0722 -0.3403
 2328SOL    HW118620   3.225   0.085   7.024  0.4562 -1.1848 -0.1111
 2328SOL    HW218621   3.137   4.722   6.965  1.8066 -0.6597 -2.0647
 2329SOL     OW18622   4.277   4.043   6.167  0.8448  0.1823 -0.5185
 2329SOL    HW118623   4.249   3.962   6.125  2.0332 -0.2442 -0.4744
 2329SOL    HW218624   4.364   4.049   6.129  1.3934  0.4228  0.7571
 2330SOL     OW18625   0.536   0.137  15.980 -0.3562  0.4197  0.2481
 2330SOL    HW118626   0.617   0.185  15.965 -1.2063  1.9288  0.4546
 2330SOL    HW218627   0.472   0.208  15.971  0.3589  1.0191 -0.1244
 2331SOL     OW18628   2.917   1.004   7.115  0.6677 -0.4902 -0.3357
 2331SOL    HW118629   2.906   0.918   7.156 -1.5025 -1.0393 -2.0391
 2331SOL    HW218630   2.988   1.036   7.171  1.4148 -0.0276 -1.5526
 2332SOL     OW18631   4.058   4.372   2.113  0.6170  0.1865  0.0754
 2332SOL    HW118632   4.021   4.284   2.113  0.0866  0.4243 -1.8493
 2332SOL    HW218633   4.089   4.377   2.204 -0.4057 -0.0913  0.4394
 2333SOL     OW18634   4.280   0.511  13.669 -0.3717 -0.2806 -0.5762
 2333SOL    HW118635   4.208   0.574  13.664  0.2232  0.3545 -1.1261
 2333SOL    HW218636   4.230   0.431  13.656 -0.3342 -0.7363  2.0893
 2334SOL     OW18637   3.122   1.603   4.267  0.1826  0.2078 -0.2894
 2334SOL    HW118638   3.214   1.609   4.292  0.3243 -1.4435 -0.3871
 2334SOL    HW218639   3.111   1.681   4.213  0.6499  0.1522 -0.4576
 2335SOL     OW18640   4.095   2.738   2.082 -0.5271 -0.3035  0.0147
 2335SOL    HW118641   4.090   2.642   2.092  2.0171 -0.3243  0.9783
 2335SOL    HW218642   4.026   2.741   2.015 -2.3046  0.8222  1.9332
 2336SOL     OW18643   0.853   2.334   4.702  0.3616 -0.2520  0.0401
 2336SOL    HW118644   0.812   2.259   4.745 -0.0198 -1.6208 -2.7098
 2336SOL    HW218645   0.930   2.338   4.759 -0.2755 -1.9292  1.0268
 2337SOL     OW18646   0.696   1.697   8.958 -0.1465  0.1508 -0.1417
 2337SOL    HW118647   0.777   1.654   8.929  0.3604  1.0920 -0.1152
 2337SOL    HW218648   0.722   1.787   8.940  1.0642  0.3293  2.5400
 2338SOL     OW18649   0.592   2.802   2.319  0.4931 -0.1881 -0.1808
 2338SOL    HW118650   0.662   2.753   2.276 -0.5538 -1.6862 -0.1592
 2338SOL    HW218651   0.639   2.845   2.390 -1.7429  1.2957  0.4220
 2339SOL     OW18652   1.524   4.267   6.270 -0.7083  0.4136 -0.1119
 2339SOL    HW118653   1.597   4.329   6.269  0.5138 -0.9986  0.7383
 2339SOL    HW218654   1.533   4.232   6.359  2.3001 -1.5572 -1.2009
 2340SOL     OW18655   3.306   1.154   2.125 -0.4771  0.6797 -0.3083
 2340SOL    HW118656   3.401   1.159   2.133 -0.5689  3.3456 -1.0635
 2340SOL    HW218657   3.290   1.063   2.151 -2.3469  1.2375  0.4835
 2341SOL     OW18658   2.752   3.411   8.644  0.4375 -0.4298  0.3185
 2341SOL    HW118659   2.736   3.338   8.703  1.6859 -0.1932  0.9425
 2341SOL    HW218660   2.815   3.362   8.592 -0.0108 -1.8766  1.1433
 2342SOL     OW18661   4.310   0.145   2.936 -0.3839 -0.0131  0.0593
 2342SOL    HW118662   4.234   0.200   2.956 -0.2810  0.4914 -0.9357
 2342SOL    HW218663   4.367   0.201   2.883 -1.1070 -0.4732 -1.2071
 2343SOL     OW18664   0.063   0.550  16.366 -0.0034 -0.6534 -0.2122
 2343SOL    HW118665   4.722   0.546  16.310  0.3234 -0.0548 -0.7155
 2343SOL    HW218666   0.040   0.539  16.458  2.7379  1.2744  0.7262
 2344SOL     OW18667   2.162   2.943   4.205  0.4583  0.0293 -0.1331
 2344SOL    HW118668   2.136   2.889   4.130  1.5424 -0.2256 -0.3182
 2344SOL    HW218669   2.118   2.902   4.280  2.0500 -0.4932  0.5044
 2345SOL     OW18670   2.615   1.055   4.895  0.0572  0.3842 -0.0530
 2345SOL    HW118671   2.623   0.960   4.891 -0.8002  0.2601  1.1436
 2345SOL    HW218672   2.635   1.076   4.986  2.7933 -0.4145 -0.4913
 2346SOL     OW18673   0.413   4.330   1.205  0.0568 -0.2963 -0.2715
 2346SOL    HW118674   0.352   4.268   1.245  0.4942 -1.3807 -1.2439
 2346SOL    HW218675   0.425   4.278   1.125  0.8385  0.4561 -0.6379
 2347SOL     OW18676   2.832   4.067   7.958  0.3461  0.5285 -0.1845
 2347SOL    HW118677   2.925   4.043   7.953  0.2464  0.5187 -2.0134
 2347SOL    HW218678   2.795   3.990   8.001  0.2469  1.8783  2.1595
 2348SOL     OW18679   0.343   2.077   1.196 -0.1717  0.2262 -0.0082
 2348SOL    HW118680   0.358   2.170   1.213 -0.4790  0.3637 -0.4762
 2348SOL    HW218681   0.272   2.084   1.132 -0.0367 -1.2621 -0.3196
 2349SOL     OW18682   0.893   2.062   6.950  0.1540 -0.0742 -0.0422
 2349SOL    HW118683   0.920   1.978   6.913  2.8037  0.0255  1.6370
 2349SOL    HW218684   0.801   2.041   6.960 -0.0643  1.1743  0.6909
 2350SOL     OW18685   3.232   0.213   1.752 -0.2760 -0.6501  0.4017
 2350SOL    HW118686   3.187   0.129   1.758 -0.6477 -0.6104 -1.5942
 2350SOL    HW218687   3.294   0.200   1.680 -0.9177 -1.6704  0.0308
 2351SOL     OW18688   3.199   2.376   5.037  0.2972  0.3302 -0.3362
 2351SOL    HW118689   3.200   2.459   4.988  1.2148 -0.8167 -2.2593
 2351SOL    HW218690   3.249   2.395   5.116  1.2936 -0.4702 -0.7739
 2352SOL     OW18691   4.265   3.555   7.286 -0.6570  0.1139  0.4156
 2352SOL    HW118692   4.224   3.484   7.239  0.5527 -0.3408  0.0403
 2352SOL    HW218693   4.271   3.519   7.375  0.4329 -0.8644 -0.0530
 2353SOL     OW18694   1.182   3.883  13.020 -0.1251  0.3455  0.9768
 2353SOL    HW118695   1.171   3.790  13.000 -2.1941  0.8561 -0.2009
 2353SOL    HW218696   1.094   3.906  12.990 -0.4023 -0.9724  0.7763
 2354SOL     OW18697   1.654   1.401   2.386 -0.1449  0.6913  0.2898
 2354SOL    HW118698   1.727   1.459   2.364  0.6536  0.5866  2.6885
 2354SOL    HW218699   1.668   1.376   2.478  0.6286 -1.3149 -0.3726
 2355SOL     OW18700   3.420   1.496   8.613  0.1816 -0.0200  0.5856
 2355SOL    HW118701   3.422   1.543   8.530  0.1129 -0.6211  0.2490
 2355SOL    HW218702   3.345   1.438   8.605 -0.0032  0.0473  1.8070
 2356SOL     OW18703   1.841   0.554  12.873 -0.0968  0.7214  0.1351
 2356SOL    HW118704   1.762   0.524  12.828  0.3329  1.0060 -0.8026
 2356SOL    HW218705   1.907   0.554  12.804  1.1726 -2.9866  1.3118
 2357SOL     OW18706   2.543   1.590   3.990 -0.4170  0.2908 -0.2046
 2357SOL    HW118707   2.561   1.667   4.043 -1.0713 -0.6773  1.4432
 2357SOL    HW218708   2.615   1.529   4.007 -1.0486 -0.1982  0.7456
 2358SOL     OW18709   3.823   1.489   2.983  0.1849 -0.0608 -0.0158
 2358SOL    HW118710   3.857   1.457   2.900  1.5798 -0.2297  0.6150
 2358SOL    HW218711   3.907   1.518   3.018  0.7198 -0.3859 -1.0404
 2359SOL     OW18712   2.606   2.931   8.844  0.0505  0.1047 -0.6780
 2359SOL    HW118713   2.554   2.961   8.771  0.5236 -0.5077 -1.2663
 2359SOL    HW218714   2.694   2.919   8.807 -0.2817 -0.8142 -1.1631
 2360SOL     OW18715   0.515   3.062   6.856 -0.4014 -0.0840  0.2541
 2360SOL    HW118716   0.421   3.043   6.859 -0.4383  0.2947  1.3672
 2360SOL    HW218717   0.528   3.096   6.944 -0.1976  2.9086 -0.9238
 2361SOL     OW18718   2.711   2.645  10.382  0.3456  0.7372 -0.4028
 2361SOL    HW118719   2.757   2.672  10.302  1.6876  0.1403  0.1720
 2361SOL    HW218720   2.710   2.728  10.428  0.2625  0.6236 -0.2004
 2362SOL     OW18721   0.728   3.256  12.569 -0.1494  0.2703 -0.1504
 2362SOL    HW118722   0.780   3.286  12.644  1.7223 -0.5412 -1.1400
 2362SOL    HW218723   0.705   3.172  12.610  2.4140 -0.6532 -0.6308
 2363SOL     OW18724   3.574   0.049   1.857  0.0660 -0.6235 -0.1681
 2363SOL    HW118725   3.507   0.031   1.923  1.9073 -3.3720  0.9144
 2363SOL    HW218726   3.526   0.078   1.779 -1.0226 -2.3292 -0.1445
 2364SOL     OW18727   4.248   3.066   3.898 -0.7144 -0.2448 -0.0658
 2364SOL    HW118728   4.300   3.141   3.868  0.7954 -1.4914 -0.5695
 2364SOL    HW218729   4.160   3.102   3.906 -1.2462 -1.5105 -0.3447
 2365SOL     OW18730   2.643   0.295   9.794  0.0143  0.3082 -0.6611
 2365SOL    HW118731   2.559   0.250   9.787  0.4665 -0.4351 -1.3519
 2365SOL    HW218732   2.653   0.341   9.710 -0.5003  1.0180 -0.3322
 2366SOL     OW18733   0.063   3.341  12.797  0.4853  0.2093  0.2887
 2366SOL    HW118734   0.061   3.372  12.707  3.5631  2.2960  0.9561
 2366SOL    HW218735   0.140   3.383  12.834  1.3887 -0.3541 -0.9517
 2367SOL     OW18736   1.853   0.308  12.596 -0.0523  0.1429 -0.0630
 2367SOL    HW118737   1.870   0.247  12.524  2.0949  0.0910  0.5099
 2367SOL    HW218738   1.765   0.280  12.622  0.4677  0.6075  2.1574
 2368SOL     OW18739   0.963   2.498  14.331  0.3267  0.4139 -0.0072
 2368SOL    HW118740   1.015   2.445  14.271 -1.6299  1.4378 -2.5883
 2368SOL    HW218741   0.910   2.426  14.366 -0.0027  0.8446  0.3750
 2369SOL     OW18742   0.442   1.117  10.586  0.4879 -0.4143  0.2838
 2369SOL    HW118743   0.367   1.176  10.592 -0.5601 -1.7010 -0.0679
 2369SOL    HW218744   0.499   1.156  10.652  0.5574  0.6422 -0.4099
 2370SOL     OW18745   3.730   1.807   2.833  0.5346  0.7579 -0.2395
 2370SOL    HW118746   3.673   1.824   2.758  0.9482 -1.2706 -1.0219
 2370SOL    HW218747   3.795   1.877   2.826  1.6592 -0.2730 -0.1512
 2371SOL     OW18748   3.486   0.409  16.132 -0.2655  0.0857 -0.1753
 2371SOL    HW118749   3.399   0.374  16.109 -0.0080  0.6913 -2.0376
 2371SOL    HW218750   3.472   0.491  16.180 -0.9128 -1.1697  1.7967
 2372SOL     OW18751   3.879   2.838  17.595  0.2876  0.4017  0.0812
 2372SOL    HW118752   3.924   2.757  17.572  2.4581  1.5681  0.1174
 2372SOL    HW218753   3.789   2.820  17.570  0.3609 -0.2669  0.3140
 2373SOL     OW18754   3.065   3.884   6.681 -0.5977 -0.4992 -0.6003
 2373SOL    HW118755   3.141   3.826   6.675  1.0064  1.5825 -0.4482
 2373SOL    HW218756   2.992   3.823   6.691 -1.6589  0.9149  0.3656
 2374SOL     OW18757   2.884   4.429   4.221 -0.0981  0.7071  0.6191
 2374SOL    HW118758   2.800   4.425   4.175 -1.7030  1.6277  3.5030
 2374SOL    HW218759   2.867   4.369   4.293  0.3888  1.3312  1.2453
 2375SOL     OW18760   1.342   1.137   7.112  0.1238 -0.1941 -0.1330
 2375SOL    HW118761   1.319   1.221   7.152 -1.6977 -1.4569  1.4291
 2375SOL    HW218762   1.354   1.088   7.193  0.3524  0.0916  0.0048
 2376SOL     OW18763   1.517   2.946   0.242  0.4446  0.0073  0.5859
 2376SOL    HW118764   1.566   2.864   0.228  0.2345  0.3100 -1.9298
 2376SOL    HW218765   1.444   2.930   0.182  1.2626 -1.5433 -0.0185
 2377SOL     OW18766   0.011   3.869   6.545 -0.2825  0.0324  0.0029
 2377SOL    HW118767   4.702   3.896   6.464 -1.5531  1.0279  1.0362
 2377SOL    HW218768   4.679   3.814   6.584  0.5322 -1.2071 -0.3528
 2378SOL     OW18769   0.710   2.931   2.059  0.2680 -0.0659  0.1874
 2378SOL    HW118770   0.683   2.985   2.134  0.0310 -0.6460  0.5208
 2378SOL    HW218771   0.738   3.004   2.003 -1.6673  0.9206  0.4910
 2379SOL     OW18772   0.472   2.204   5.194  0.1589 -0.6973  0.2191
 2379SOL    HW118773   0.531   2.160   5.255  1.5470  0.1924 -0.4907
 2379SOL    HW218774   0.543   2.226   5.134  0.2353 -1.7652 -0.0726
 2380SOL     OW18775   0.768   4.128   0.317 -0.1597 -0.0274 -0.6538
 2380SOL    HW118776   0.719   4.111   0.398 -0.3456  0.9493 -0.5689
 2380SOL    HW218777   0.795   4.039   0.290 -0.5922 -0.0543 -1.0011
 2381SOL     OW18778   0.956   3.724  12.096  0.2081  0.3037  0.5741
 2381SOL    HW118779   0.872   3.744  12.137 -0.0272  1.1332 -0.2997
 2381SOL    HW218780   0.926   3.729  12.005 -1.3574  0.4298  1.0912
 2382SOL     OW18781   1.541   2.004  11.931  0.6208 -0.1676 -0.3827
 2382SOL    HW118782   1.606   2.045  11.988 -0.7607  0.3283  0.8172
 2382SOL    HW218783   1.516   2.080  11.879 -1.3781 -0.0709  0.7045
 2383SOL     OW18784   0.028   0.279   2.470  0.5697  0.1132 -0.0371
 2383SOL    HW118785   4.734   0.242   2.387 -1.2522  0.8262  0.3050
 2383SOL    HW218786   0.020   0.199   2.522  1.1250  1.2615  1.8040
 2384SOL     OW18787   0.521   0.442   7.463 -0.1643  0.0402  0.2297
 2384SOL    HW118788   0.606   0.448   7.506 -1.0700  0.0461  1.9825
 2384SOL    HW218789   0.515   0.526   7.416 -0.0924  0.6680  1.3436
 2385SOL     OW18790   3.908   2.483  11.793 -0.0298  0.1687 -0.1075
 2385SOL    HW118791   3.980   2.516  11.847  0.9704  2.1846 -2.6505
 2385SOL    HW218792   3.836   2.538  11.822 -1.5738 -0.7518 -2.1634
 2386SOL     OW18793   0.697   2.332   6.694 -0.0069 -0.0983  0.6998
 2386SOL    HW118794   0.653   2.273   6.755  1.4291 -1.6848  0.2033
 2386SOL    HW218795   0.734   2.392   6.759 -1.6897  1.2356  0.4426
 2387SOL     OW18796   3.711   4.021   7.467 -0.3606 -0.3081 -0.2489
 2387SOL    HW118797   3.735   3.950   7.527 -0.3072  0.1912  0.3293
 2387SOL    HW218798   3.749   3.988   7.386  0.2769  1.0157 -0.4829
 2388SOL     OW18799   0.671   1.083   7.998  0.3894  0.2824  0.9133
 2388SOL    HW118800   0.726   1.098   8.075  0.0354  0.1167  1.1989
 2388SOL    HW218801   0.673   0.987   7.990  1.1948  0.1806  2.1842
 2389SOL     OW18802   4.717   1.199   0.915  0.1307  0.4197  0.3367
 2389SOL    HW118803   4.635   1.249   0.914  0.2267  0.5937  3.3975
 2389SOL    HW218804   4.686   1.110   0.900 -1.2108  1.3989 -2.7854
 2390SOL     OW18805   3.264   2.874  13.083 -0.5521 -0.0177 -0.4258
 2390SOL    HW118806   3.242   2.814  13.154 -0.5253  1.6491  1.0150
 2390SOL    HW218807   3.309   2.937  13.140  0.6622  1.0654 -2.5749
 2391SOL     OW18808   1.873   0.924   3.476  0.0559  0.3549  0.3355
 2391SOL    HW118809   1.893   0.834   3.451 -0.1165 -0.0033  1.4757
 2391SOL    HW218810   1.904   0.916   3.567  0.3771  0.5099  0.2360
 2392SOL     OW18811   4.460   4.103  16.688  0.2067  0.0354 -0.1017
 2392SOL    HW118812   4.509   4.022  16.680 -1.2600 -0.7690 -0.7487
 2392SOL    HW218813   4.370   4.075  16.704  0.5116 -0.9352 -0.0883
 2393SOL     OW18814   2.893   1.057   2.011  0.1856  0.3219 -0.1859
 2393SOL    HW118815   2.952   1.049   1.937  0.6107  1.1792  0.0637
 2393SOL    HW218816   2.810   1.021   1.978 -0.1683  0.7987  0.1798
 2394SOL     OW18817   4.496   3.089  15.554  0.0091  0.2348  0.7005
 2394SOL    HW118818   4.549   3.095  15.474  0.1283 -0.1186  0.7516
 2394SOL    HW218819   4.480   3.183  15.567 -0.1310 -0.2608  4.1312
 2395SOL     OW18820   4.075   3.990   8.412  0.5148 -0.0581  0.5754
 2395SOL    HW118821   4.081   4.085   8.421 -0.1096  0.0073  0.2452
 2395SOL    HW218822   3.982   3.976   8.395  0.6461  0.6344 -0.6822
 2396SOL     OW18823   2.636   3.844   5.214  0.2129  0.2165  0.5690
 2396SOL    HW118824   2.548   3.881   5.208  0.1338  0.0124  0.4587
 2396SOL    HW218825   2.631   3.779   5.284 -1.5877  2.2578  2.3023
 2397SOL     OW18826   2.236   1.748   9.529 -0.0523  0.2078 -1.0647
 2397SOL    HW118827   2.307   1.788   9.480  1.1126  0.6280  0.9419
 2397SOL    HW218828   2.157   1.772   9.481  0.9369  1.8984 -1.8403
 2398SOL     OW18829   0.595   0.128   4.877 -0.1435  0.8202  0.1670
 2398SOL    HW118830   0.688   0.108   4.870 -0.4603  0.0970 -2.0786
 2398SOL    HW218831   0.585   0.100   4.968 -0.6732 -1.1929 -0.5095
 2399SOL     OW18832   4.158   0.241   7.076  0.4708 -0.3750 -0.1976
 2399SOL    HW118833   4.148   0.335   7.091 -3.5478 -1.0604  1.5797
 2399SOL    HW218834   4.072   0.205   7.098  1.6311 -2.9295  0.2113
 2400SOL     OW18835   3.664   0.349   7.229 -0.1234 -0.3606  0.3225
 2400SOL    HW118836   3.576   0.313   7.236  0.5572 -1.7569  1.7187
 2400SOL    HW218837   3.693   0.364   7.319 -2.4631  0.0089  1.0215
 2401SOL     OW18838   4.472   0.636  13.844 -0.4257 -0.9927 -0.0271
 2401SOL    HW118839   4.419   0.592  13.778  0.9045 -2.7639  0.0831
 2401SOL    HW218840   4.408   0.680  13.900 -0.5847 -3.0773  1.4643
 2402SOL     OW18841   4.488   1.293  15.613  1.3106  0.2740 -0.0156
 2402SOL    HW118842   4.439   1.249  15.543  1.4219  1.8186 -1.0709
 2402SOL    HW218843   4.567   1.240  15.622  0.3420 -1.2638 -0.5088
 2403SOL     OW18844   0.832   0.345  11.780  0.2713 -0.1209 -0.3748
 2403SOL    HW118845   0.921   0.366  11.754 -0.1108  2.9179  0.7349
 2403SOL    HW218846   0.818   0.395  11.861  1.7616 -1.4887  0.7229
 2404SOL     OW18847   1.766   3.115   6.365  0.1268 -0.0842  0.0387
 2404SOL    HW118848   1.766   3.064   6.446  1.5507  0.8905  0.6466
 2404SOL    HW218849   1.681   3.158   6.357  1.3166  2.4240  0.9460
 2405SOL     OW18850   1.724   0.651   7.710 -0.0481 -0.0289 -0.5285
 2405SOL    HW118851   1.738   0.580   7.647 -1.1192 -0.5927 -0.1298
 2405SOL    HW218852   1.694   0.709   7.639  0.2514 -0.5453 -1.0779
 2406SOL     OW18853   1.401   2.712  13.484 -0.1447 -0.8364 -0.0812
 2406SOL    HW118854   1.474   2.654  13.505 -0.1300 -1.0632 -0.7477
 2406SOL    HW218855   1.334   2.662  13.530  0.4298 -1.4191  0.1175
 2407SOL     OW18856   2.725   3.141  12.334  0.1472 -0.0522 -0.1424
 2407SOL    HW118857   2.747   3.048  12.323 -1.6077 -0.2838 -1.7110
 2407SOL    HW218858   2.643   3.130  12.383  0.6683  0.2671  0.7775
 2408SOL     OW18859   1.632   1.673   0.256 -0.0128  0.5857  0.2676
 2408SOL    HW118860   1.577   1.717   0.192  0.5097  2.5119  1.1603
 2408SOL    HW218861   1.700   1.630   0.204  0.8487 -0.7233  2.4622
 2409SOL     OW18862   1.029   0.343   7.999 -0.2476 -0.6892 -0.2726
 2409SOL    HW118863   0.992   0.406   8.060  0.0024 -0.0713 -0.7556
 2409SOL    HW218864   0.956   0.282   7.985  0.1720 -1.7260  2.0599
 2410SOL     OW18865   1.532   1.517   1.913 -0.0204 -0.3467  0.4336
 2410SOL    HW118866   1.605   1.542   1.856 -0.6758 -0.1672 -0.3189
 2410SOL    HW218867   1.584   1.465   1.974  0.7647 -2.3962 -1.9663
 2411SOL     OW18868   3.113   2.007   5.984 -0.0498 -0.7611 -0.0146
 2411SOL    HW118869   3.129   2.077   5.920  0.4849 -0.9279 -0.0551
 2411SOL    HW218870   3.021   1.984   5.972 -0.2270 -0.7859  1.4936
 2412SOL     OW18871   3.097   3.064   2.373  0.1027 -0.2164 -0.4258
 2412SOL    HW118872   3.084   3.156   2.351  1.6868  0.4721  1.5303
 2412SOL    HW218873   3.169   3.039   2.316  0.7199 -1.3567  0.8478
 2413SOL     OW18874   2.369   4.376   1.300  0.0025 -0.1123 -0.3552
 2413SOL    HW118875   2.284   4.419   1.314  0.5283  0.1748  1.9600
 2413SOL    HW218876   2.375   4.319   1.377 -2.1560 -2.1132 -1.6716
 2414SOL     OW18877   3.675   0.946   8.054  0.0918 -0.3666 -0.0320
 2414SOL    HW118878   3.665   0.984   7.967 -1.5063 -2.0851 -0.5910
 2414SOL    HW218879   3.767   0.948   8.080 -0.1117  2.1969  0.5406
 2415SOL     OW18880   2.179   3.919  13.496 -0.2633 -0.8406  0.0282
 2415SOL    HW118881   2.098   3.870  13.510 -1.7417  1.2329 -1.1665
 2415SOL    HW218882   2.242   3.848  13.499  1.9593  1.0922 -0.8263
 2416SOL     OW18883   0.825   0.948  13.948  0.4821  0.5434 -0.3477
 2416SOL    HW118884   0.827   0.934  14.043  0.5601 -0.4655 -0.4992
 2416SOL    HW218885   0.904   0.902  13.919 -0.1076 -1.7167  1.6941
 2417SOL     OW18886   0.701   0.078   4.455 -0.1714 -0.7359 -0.1293
 2417SOL    HW118887   0.614   0.054   4.488 -0.4156  0.5812  0.1822
 2417SOL    HW218888   0.693   0.059   4.362  0.6938  1.3530 -0.6340
 2418SOL     OW18889   1.042   3.457   6.102 -0.1359  0.1377 -0.4925
 2418SOL    HW118890   1.078   3.504   6.027  1.9757 -1.1308 -0.2828
 2418SOL    HW218891   0.992   3.391   6.055  1.0432 -1.1355  0.0365
 2419SOL     OW18892   0.968   4.079  16.515  0.1120  0.3415 -0.1487
 2419SOL    HW118893   0.914   4.003  16.492  0.3288  0.4918 -1.1641
 2419SOL    HW218894   1.054   4.041  16.499 -1.2047 -1.6812 -2.5569
 2420SOL     OW18895   0.949   0.585   4.426  0.0206  0.4524 -0.5042
 2420SOL    HW118896   1.030   0.545   4.394  1.2364  1.4765  1.2582
 2420SOL    HW218897   0.904   0.519   4.479 -0.4502  2.4198  1.5648
 2421SOL     OW18898   2.207   2.601   4.992 -0.0578  0.0753  0.2852
 2421SOL    HW118899   2.214   2.664   5.064  0.6482 -0.4779  0.6891
 2421SOL    HW218900   2.235   2.657   4.920  0.1095 -0.1277  0.1951
 2422SOL     OW18901   3.000   0.840   5.241  0.0420 -0.7433 -0.4524
 2422SOL    HW118902   2.922   0.785   5.236  0.6044 -1.5545 -0.3780
 2422SOL    HW218903   3.017   0.839   5.336 -0.7048 -1.1782 -0.3195
 2423SOL     OW18904   3.282   1.754   0.464  0.4567 -0.1604 -0.2365
 2423SOL    HW118905   3.233   1.830   0.435 -3.2895 -1.1855  3.4020
 2423SOL    HW218906   3.374   1.778   0.449  0.3336  1.5930  1.7690
 2424SOL     OW18907   2.339   1.847   7.149 -0.3760  1.1388  0.5211
 2424SOL    HW118908   2.348   1.830   7.243 -0.3198 -0.4951  0.2268
 2424SOL    HW218909   2.245   1.848   7.130 -0.2940  1.1535  0.1038
 2425SOL     OW18910   4.156   3.799  10.114 -0.8076  0.0140 -0.3425
 2425SOL    HW118911   4.191   3.876  10.159 -2.4462  0.6384 -0.1528
 2425SOL    HW218912   4.097   3.769  10.183 -0.0975  0.3364  0.4168
 2426SOL     OW18913   4.157   1.733   8.934  0.4761 -0.2185 -0.1345
 2426SOL    HW118914   4.124   1.821   8.952  0.3253  0.0114 -1.5867
 2426SOL    HW218915   4.182   1.742   8.842 -0.4047  1.5832 -0.2039
 2427SOL     OW18916   3.605   1.888   3.125 -0.6104  0.1754  0.6462
 2427SOL    HW118917   3.573   1.973   3.097 -2.3553  0.1757  2.6555
 2427SOL    HW218918   3.664   1.861   3.054 -1.4637  1.6007 -0.5931
 2428SOL     OW18919   0.895   2.360  10.399  0.0846 -0.8612  0.0780
 2428SOL    HW118920   0.862   2.421  10.465  0.4278 -0.4959 -0.0866
 2428SOL    HW218921   0.970   2.410  10.366 -1.6426  0.3419 -1.9942
 2429SOL     OW18922   2.083   2.447   2.536  0.1073 -1.1244  0.0590
 2429SOL    HW118923   2.038   2.522   2.575 -0.3727 -0.3396 -2.0387
 2429SOL    HW218924   2.133   2.417   2.613  1.2968 -0.0902 -0.3135
 2430SOL     OW18925   1.913   1.871   5.974  0.2710 -0.1931  0.0409
 2430SOL    HW118926   1.938   1.833   6.059 -0.2322  1.7955  1.0652
 2430SOL    HW218927   1.996   1.880   5.926  1.9952  0.2798  3.1462
 2431SOL     OW18928   1.485   3.157   2.816 -0.1895  0.4409 -0.1942
 2431SOL    HW118929   1.493   3.138   2.909  2.4385 -1.3934 -0.7868
 2431SOL    HW218930   1.578   3.161   2.792 -0.8443  2.0569 -2.5502
 2432SOL     OW18931   3.446   3.166   5.516 -0.6049 -0.2783 -0.0407
 2432SOL    HW118932   3.440   3.254   5.480 -0.1405 -0.3759 -0.3536
 2432SOL    HW218933   3.529   3.135   5.480  0.7853  1.5935  1.5610
 2433SOL     OW18934   2.685   1.618  15.652 -0.7037  0.0811 -0.2650
 2433SOL    HW118935   2.625   1.572  15.593  1.5936  0.4046 -2.8421
 2433SOL    HW218936   2.761   1.563  15.631  0.3319  0.7801  1.6242
 2434SOL     OW18937   1.038   4.113   6.493 -0.4358  0.1619 -0.2434
 2434SOL    HW118938   1.009   4.202   6.510  1.1703  0.7690 -0.7606
 2434SOL    HW218939   1.110   4.099   6.554  0.1844  0.8169 -0.8250
 2435SOL     OW18940   4.191   1.030   5.849  0.1198 -0.2403 -0.0403
 2435SOL    HW118941   4.142   0.988   5.920  1.9712  0.8060  1.8498
 2435SOL    HW218942   4.132   1.019   5.775  0.5806 -2.6234 -0.0782
 2436SOL     OW18943   3.030   4.157   2.436 -0.6455 -0.0416  0.0725
 2436SOL    HW118944   3.017   4.195   2.349  0.5633  2.3179  0.9121
 2436SOL    HW218945   3.003   4.068   2.414  1.2429 -0.9624  1.4978
 2437SOL     OW18946   4.576   0.969   2.513  0.0139  0.0698 -0.0312
 2437SOL    HW118947   4.613   0.984   2.600  0.9656 -1.1086 -0.2315
 2437SOL    HW218948   4.648   0.985   2.452  1.5159  0.7364  1.8969
 2438SOL     OW18949   1.574   1.298  16.164  0.2056 -0.0516 -0.1768
 2438SOL    HW118950   1.667   1.283  16.177  0.1155  0.2878  0.8119
 2438SOL    HW218951   1.569   1.394  16.165 -0.3912 -0.0503 -1.8534
 2439SOL     OW18952   1.841   1.965   1.787  0.4338 -0.2867 -0.3290
 2439SOL    HW118953   1.837   1.901   1.717  0.6388 -1.2947  0.5893
 2439SOL    HW218954   1.892   2.036   1.748  2.6398 -1.4711  0.4040
 2440SOL     OW18955   2.083   0.293   2.783  1.1951 -0.0267 -0.0769
 2440SOL    HW118956   2.031   0.319   2.707  0.3871  0.9442  0.8072
 2440SOL    HW218957   2.166   0.269   2.741  2.1560  3.4037 -0.1492
 2441SOL     OW18958   0.900   4.400   3.232  0.0372 -0.3254 -0.6448
 2441SOL    HW118959   0.934   4.315   3.262  0.4657 -0.5085 -1.6511
 2441SOL    HW218960   0.975   4.441   3.190 -0.7659  1.2957 -0.5059
 2442SOL     OW18961   0.083   0.780   9.940  0.1534  0.3493 -0.4623
 2442SOL    HW118962   0.092   0.709   9.877 -1.2236 -0.2904  0.0460
 2442SOL    HW218963   0.109   0.854   9.885  0.4344  0.4618 -0.1751
 2443SOL     OW18964   4.561   3.050   4.391  0.1115 -0.1696 -0.2339
 2443SOL    HW118965   4.493   3.041   4.325 -2.2954  0.7288  2.1185
 2443SOL    HW218966   4.548   3.135   4.433  0.7756  0.4107 -1.1946
 2444SOL     OW18967   0.849   1.672  15.215  0.1575  0.2320  0.1170
 2444SOL    HW118968   0.935   1.712  15.199 -0.5810  1.6230 -0.3634
 2444SOL    HW218969   0.803   1.740  15.264 -1.2429  0.3026 -1.2840
 2445SOL     OW18970   0.620   1.804  14.577  0.6942 -0.2178 -0.0479
 2445SOL    HW118971   0.655   1.838  14.495  1.6091 -0.0897  0.4044
 2445SOL    HW218972   0.655   1.865  14.641  0.8616 -1.8021  1.3517
 2446SOL     OW18973   3.820   1.928   1.689  0.6599 -0.4369 -0.1264
 2446SOL    HW118974   3.761   1.853   1.680  0.3497  0.0242 -1.7757
 2446SOL    HW218975   3.768   2.008   1.686  0.1262 -0.8115 -0.9326
 2447SOL     OW18976   1.932   0.076   2.301  0.3839  0.0748 -0.8059
 2447SOL    HW118977   1.888   0.086   2.216 -0.7102  0.1934 -0.2256
 2447SOL    HW218978   1.859   0.096   2.359  0.1470 -1.5383 -0.5464
 2448SOL     OW18979   0.844   2.934  12.289 -0.0070  0.1053  0.1179
 2448SOL    HW118980   0.764   2.957  12.336 -0.5681  1.8715 -1.7097
 2448SOL    HW218981   0.823   2.956  12.198 -0.9517  1.0283  0.5588
 2449SOL     OW18982   0.298   2.065  11.844 -0.5903 -0.2214 -0.2829
 2449SOL    HW118983   0.318   2.096  11.932  0.6478  0.4532 -0.8056
 2449SOL    HW218984   0.384   2.076  11.802 -1.0947  1.1406 -0.9533
 2450SOL     OW18985   3.726   1.619  12.607  0.0036 -0.0486 -0.3338
 2450SOL    HW118986   3.670   1.642  12.681 -2.1737 -3.2433 -0.9897
 2450SOL    HW218987   3.780   1.551  12.648 -0.0510  0.8315  1.1920
 2451SOL     OW18988   0.650   0.553   8.357 -0.0222  0.0595  0.2178
 2451SOL    HW118989   0.689   0.640   8.368  2.2473 -0.8122 -0.8925
 2451SOL    HW218990   0.655   0.512   8.444 -1.2128  2.5355  1.4392
 2452SOL     OW18991   0.413   0.720   9.648 -0.0746  0.4907  0.1351
 2452SOL    HW118992   0.342   0.666   9.681  0.2885  1.0191  1.7921
 2452SOL    HW218993   0.375   0.768   9.575 -0.7046  1.9760  1.4299
 2453SOL     OW18994   3.827   2.824   2.238 -0.2726 -0.1885  0.1182
 2453SOL    HW118995   3.828   2.875   2.319  5.6488 -0.6687  0.3988
 2453SOL    HW218996   3.912   2.850   2.203 -0.3943  1.4761  1.0213
 2454SOL     OW18997   4.086   0.795  11.220  0.2785 -0.1307 -0.3633
 2454SOL    HW118998   4.138   0.871  11.192  1.2154 -0.0039  1.7623
 2454SOL    HW218999   4.136   0.735  11.164 -1.7340 -1.6448 -0.5096
 2455SOL     OW19000   4.641   3.430  14.968  0.1788 -0.6220 -0.8401
 2455SOL    HW119001   4.634   3.341  15.004 -2.5691 -1.2502 -2.9358
 2455SOL    HW219002   4.734   3.444  14.988  0.7766 -0.1762 -4.0027
 2456SOL     OW19003   2.642   0.188   5.029  0.1562 -0.3629  0.1763
 2456SOL    HW119004   2.596   0.164   4.949  1.2576 -0.0522 -0.5451
 2456SOL    HW219005   2.618   0.118   5.091  1.6849 -1.2206 -0.2022
 2457SOL     OW19006   2.207   2.298   2.755 -0.1483 -0.1202 -0.4553
 2457SOL    HW119007   2.165   2.312   2.840  1.0156  2.2589 -0.2433
 2457SOL    HW219008   2.225   2.205   2.767 -2.1533 -0.3093  1.0474
 2458SOL     OW19009   4.258   2.348   3.635 -0.8594 -0.1676  0.1608
 2458SOL    HW119010   4.309   2.428   3.643 -2.0580  0.8771 -2.3968
 2458SOL    HW219011   4.259   2.319   3.726 -1.4924 -0.9407 -0.0797
 2459SOL     OW19012   3.014   3.643   2.111  0.0991  0.2297  0.2188
 2459SOL    HW119013   2.951   3.579   2.142  0.8591 -0.4569  0.3533
 2459SOL    HW219014   2.985   3.725   2.150  1.4333  0.9105 -0.2158
 2460SOL     OW19015   3.046   3.273   4.945  0.7219 -0.1603  0.2891
 2460SOL    HW119016   3.047   3.178   4.956 -0.0303 -0.6099 -3.4909
 2460SOL    HW219017   3.139   3.292   4.955  0.5480  0.2743  1.0236
 2461SOL     OW19018   3.999   0.199   9.950 -0.4188 -0.9056 -1.1666
 2461SOL    HW119019   3.994   0.120   9.897 -1.9086  0.2485 -2.7783
 2461SOL    HW219020   4.047   0.258   9.893  1.1381 -1.4082 -0.3657
 2462SOL     OW19021   4.277   1.400   4.920 -0.2536 -0.4690  0.3080
 2462SOL    HW119022   4.358   1.442   4.948 -1.1249  1.6431 -0.3213
 2462SOL    HW219023   4.212   1.454   4.964  0.3237 -0.1372  0.7558
 2463SOL     OW19024   0.578   0.354   3.027  0.0592 -0.2917 -0.1475
 2463SOL    HW119025   0.648   0.290   3.041 -0.0489  0.3750  3.3653
 2463SOL    HW219026   0.498   0.302   3.023  1.8909 -3.0685 -0.5829
 2464SOL     OW19027   0.279   0.890  17.445  0.1902  0.0915 -0.0455
 2464SOL    HW119028   0.227   0.961  17.482  1.8848  1.8590 -1.0970
 2464SOL    HW219029   0.303   0.931  17.363  1.4217  1.9151  1.2263
 2465SOL     OW19030   3.119   4.331   2.146 -0.3972  0.1508  0.1770
 2465SOL    HW119031   3.105   4.421   2.118  2.7257  0.7597  0.5967
 2465SOL    HW219032   3.210   4.323   2.117 -0.4181 -1.7923  0.6086
 2466SOL     OW19033   2.525   0.637   1.798  0.4233  0.1353 -0.1647
 2466SOL    HW119034   2.522   0.671   1.708 -0.4181 -1.1148 -0.6209
 2466SOL    HW219035   2.436   0.601   1.795  1.3734 -2.1124 -1.6379
 2467SOL     OW19036   1.230   2.516  13.592 -0.6168  0.0416 -0.0031
 2467SOL    HW119037   1.136   2.512  13.610 -0.9720 -0.5775 -2.0674
 2467SOL    HW219038   1.254   2.439  13.645  2.1605  0.8595 -0.0745
 2468SOL     OW19039   0.037   1.957  17.020 -0.5825 -0.0076  0.3536
 2468SOL    HW119040   0.039   2.052  17.010  0.1851  0.0686  1.2224
 2468SOL    HW219041   0.047   1.922  16.932 -0.3913 -0.5671  0.5981
 2469SOL     OW19042   4.507   1.587  17.581  0.5421  0.4038  0.3559
 2469SOL    HW119043   4.450   1.516  17.552 -1.1207  1.7603  0.2842
 2469SOL    HW219044   4.541   1.560  17.667  0.4554 -2.3316 -0.4869
 2470SOL     OW19045   1.867   3.536   4.010  0.2497 -0.7115  0.1213
 2470SOL    HW119046   1.914   3.553   4.092  0.6283 -2.3327  0.2522
 2470SOL    HW219047   1.862   3.440   4.018  1.8835 -0.4593  4.5590
 2471SOL     OW19048   2.542   1.656   8.542 -0.0924 -0.1424 -0.3589
 2471SOL    HW119049   2.589   1.662   8.625 -0.1946 -1.2035 -0.2163
 2471SOL    HW219050   2.464   1.610   8.574  1.5143 -3.1849 -0.7637
 2472SOL     OW19051   2.688   0.677  14.024  0.4303 -0.2963  0.1763
 2472SOL    HW119052   2.712   0.610  14.088  1.0173  0.1626  0.4296
 2472SOL    HW219053   2.662   0.748  14.082  1.2027  1.5023 -1.6738
 2473SOL     OW19054   3.102   4.328  11.078 -0.0095 -0.7148 -0.6493
 2473SOL    HW119055   3.039   4.394  11.109  1.1561  1.0231 -1.9848
 2473SOL    HW219056   3.176   4.330  11.137 -2.1995  0.4340  2.0532
 2474SOL     OW19057   1.377   3.321   6.063 -0.2175  0.4279 -0.3522
 2474SOL    HW119058   1.434   3.397   6.058  1.0997 -0.5510 -0.2902
 2474SOL    HW219059   1.324   3.326   5.983  1.0907  2.1439 -1.1075
 2475SOL     OW19060   0.146   2.082   9.428 -0.2319 -0.2553  0.6610
 2475SOL    HW119061   0.185   2.074   9.515 -0.1879 -0.4521  0.6224
 2475SOL    HW219062   0.182   2.170   9.417  1.9817 -1.4778 -1.9827
 2476SOL     OW19063   0.768   1.400   3.762  0.2513  0.2030  0.1349
 2476SOL    HW119064   0.765   1.386   3.668 -0.7893  2.1371 -0.1139
 2476SOL    HW219065   0.743   1.311   3.788  0.0690  0.4764  0.9212
 2477SOL     OW19066   3.385   2.556  12.409  0.1486 -0.3940 -0.6402
 2477SOL    HW119067   3.316   2.520  12.465  2.0457 -2.3946  0.3665
 2477SOL    HW219068   3.401   2.481  12.352  0.0554 -0.4973 -0.5302
 2478SOL     OW19069   3.021   4.127  12.652  0.0106  0.4242 -0.2116
 2478SOL    HW119070   2.926   4.124  12.667  0.5471  0.3024  3.0869
 2478SOL    HW219071   3.016   4.075  12.571 -0.5549 -0.9912  0.7276
 2479SOL     OW19072   2.532   2.095   9.583  0.0403 -0.0054  0.2304
 2479SOL    HW119073   2.494   2.108   9.671  1.6743 -1.2179  1.1163
 2479SOL    HW219074   2.512   2.181   9.547  1.2041 -0.1312 -0.7164
 2480SOL     OW19075   4.398   3.224   9.903  0.3770 -0.1920 -0.1346
 2480SOL    HW119076   4.482   3.224   9.859  0.2288 -0.9620 -0.4274
 2480SOL    HW219077   4.414   3.278   9.980 -0.2346  0.6733 -0.6182
 2481SOL     OW19078   1.890   2.944   7.254  0.0519 -0.3746  0.1124
 2481SOL    HW119079   1.902   2.862   7.206 -1.8848 -0.7232  0.2169
 2481SOL    HW219080   1.796   2.935   7.270 -0.6022  0.2641 -3.3003
 2482SOL     OW19081   0.203   4.675  17.402 -0.4173  0.2732 -0.0433
 2482SOL    HW119082   0.246   4.633  17.476  0.8490 -1.1877 -1.6107
 2482SOL    HW219083   0.206   4.608  17.333 -2.4128 -0.0593  0.1926
 2483SOL     OW19084   4.353   3.228   1.911 -0.1704  0.3233 -0.3752
 2483SOL    HW119085   4.343   3.315   1.872  0.6843  0.3562 -0.5166
 2483SOL    HW219086   4.446   3.230   1.934 -0.1318  0.6921 -0.5663
 2484SOL     OW19087   3.729   2.867   0.791 -0.1107  0.3509  0.1312
 2484SOL    HW119088   3.774   2.879   0.708 -2.4920 -0.1754 -1.2305
 2484SOL    HW219089   3.762   2.941   0.843 -1.4557 -0.0976  1.6195
 2485SOL     OW19090   3.531   4.486  16.034  0.3412 -0.3629 -0.1691
 2485SOL    HW119091   3.610   4.505  15.983  0.0142  0.8405 -0.2346
 2485SOL    HW219092   3.567   4.482  16.123 -0.6600  3.2829  0.3855
 2486SOL     OW19093   4.478   3.303   7.173 -0.4607 -0.0381  0.6111
 2486SOL    HW119094   4.476   3.280   7.080  0.2365  0.8266  0.3703
 2486SOL    HW219095   4.537   3.379   7.177 -1.1619  0.4174  2.1311
 2487SOL     OW19096   1.108   3.831   1.961 -0.1390  0.1073  0.0291
 2487SOL    HW119097   1.148   3.823   2.047 -1.1986  0.3457  0.5440
 2487SOL    HW219098   1.053   3.753   1.959 -0.2569  0.1962 -0.2458
 2488SOL     OW19099   3.132   3.998   5.520  0.1672  0.4762 -0.6444
 2488SOL    HW119100   3.171   3.924   5.566  1.5754  0.6375 -1.5868
 2488SOL    HW219101   3.043   3.979   5.549  0.3093  0.6260 -0.1142
 2489SOL     OW19102   3.009   1.270   2.720  0.2474 -0.4082  0.1585
 2489SOL    HW119103   2.972   1.248   2.805 -1.0651  1.4400  0.0631
 2489SOL    HW219104   2.993   1.364   2.713 -0.2812 -0.4011  1.4024
 2490SOL     OW19105   1.386   0.497   1.788  0.0193 -0.0173 -0.0388
 2490SOL    HW119106   1.443   0.551   1.733 -0.1036  0.4595  0.3043
 2490SOL    HW219107   1.383   0.555   1.864  0.1500  2.0638 -1.6340
 2491SOL     OW19108   2.158   4.499  13.403 -0.3083  0.3146  0.4663
 2491SOL    HW119109   2.124   4.516  13.491 -1.6653 -1.0077  0.2011
 2491SOL    HW219110   2.079   4.520  13.352 -0.8322 -0.8417  0.7922
 2492SOL     OW19111   4.405   0.813   2.903  0.3387 -0.4326  0.0909
 2492SOL    HW119112   4.397   0.722   2.931 -0.1380 -0.7097 -0.9379
 2492SOL    HW219113   4.440   0.792   2.816  0.4893 -1.2872  0.3537
 2493SOL     OW19114   0.333   3.592  12.633  0.4039  0.5143  0.1733
 2493SOL    HW119115   0.257   3.534  12.627  0.3160  0.8063 -1.5784
 2493SOL    HW219116   0.408   3.533  12.635  0.8001  0.9904 -0.6800
 2494SOL     OW19117   3.734   4.008   6.722  0.1576  0.4369 -0.0431
 2494SOL    HW119118   3.729   4.101   6.743  0.3417  0.4189  0.0825
 2494SOL    HW219119   3.650   3.982   6.758  0.3266  0.6661  0.5074
 2495SOL     OW19120   2.532   1.621   6.537  0.4875  0.0313 -0.2031
 2495SOL    HW119121   2.587   1.570   6.478 -0.6040 -1.1151 -0.2206
 2495SOL    HW219122   2.547   1.590   6.627  0.0620  0.1956 -0.0757
 2496SOL     OW19123   3.656   0.931  11.518 -0.0357 -0.3321 -0.0616
 2496SOL    HW119124   3.700   1.013  11.494  0.6081 -0.3557  1.0070
 2496SOL    HW219125   3.619   0.905  11.434  2.1055 -2.9750 -0.1814
 2497SOL     OW19126   3.827   1.321  11.257  0.4285  0.1246 -0.2484
 2497SOL    HW119127   3.766   1.308  11.184 -0.6195 -0.5394  0.7584
 2497SOL    HW219128   3.888   1.392  11.236  0.5719 -0.3051 -1.2750
 2498SOL     OW19129   0.439   2.325   1.265  0.3851  0.1007  0.6940
 2498SOL    HW119130   0.531   2.331   1.291  0.5511  0.5076  0.0371
 2498SOL    HW219131   0.419   2.391   1.198  0.4323 -1.0888 -0.4806
 2499SOL     OW19132   0.108   3.359   0.867 -0.2116  0.2770  0.1087
 2499SOL    HW119133   0.036   3.309   0.829 -1.6715  2.2266  0.2848
 2499SOL    HW219134   0.065   3.444   0.874  1.4172  1.2451 -1.4702
 2500SOL     OW19135   0.245   0.739   7.173 -0.3818 -0.1903  0.2676
 2500SOL    HW119136   0.180   0.802   7.204 -0.6179 -0.1136 -0.3937
 2500SOL    HW219137   0.220   0.730   7.081  1.6166  3.2539 -0.5997
 2501SOL     OW19138   0.609   2.257   6.939 -0.0979 -0.0495  0.1257
 2501SOL    HW119139   0.604   2.173   6.984 -0.3478  0.3789  0.8898
 2501SOL    HW219140   0.522   2.248   6.900  0.4659  0.3552 -1.2136
 2502SOL     OW19141   4.067   0.691   5.011 -0.0559 -0.5324  0.4093
 2502SOL    HW119142   4.132   0.650   5.068  1.9952  0.5740 -1.1211
 2502SOL    HW219143   4.047   0.615   4.956  0.2298  0.8230 -1.5747
 2503SOL     OW19144   1.903   1.542   1.283 -0.1071 -0.0807 -0.2269
 2503SOL    HW119145   1.934   1.601   1.214  0.3823 -0.4803 -0.3488
 2503SOL    HW219146   1.884   1.461   1.235  0.1469 -0.4234  0.2525
 2504SOL     OW19147   3.902   3.634  14.478 -0.0013 -0.0206 -0.5756
 2504SOL    HW119148   3.958   3.671  14.409  0.9539  1.7033  1.1358
 2504SOL    HW219149   3.821   3.651  14.429  0.6306  1.3603 -1.1304
 2505SOL     OW19150   4.642   3.972   2.347 -0.6609 -0.2388 -0.6397
 2505SOL    HW119151   4.727   3.992   2.308 -0.5730 -1.6230 -1.1542
 2505SOL    HW219152   4.621   4.056   2.387  0.8563  0.7230 -1.9060
 2506SOL     OW19153   0.009   4.723   7.962  0.5658 -0.1072  0.2668
 2506SOL    HW119154   0.090   4.676   7.983  0.0811 -0.7741  0.6513
 2506SOL    HW219155   0.040   0.076   7.978 -1.7162  1.2189 -2.6456
 2507SOL     OW19156   4.481   4.156  12.710  0.4910  0.1009  0.1354
 2507SOL    HW119157   4.400   4.107  12.695 -1.3734  2.9677  0.7404
 2507SOL    HW219158   4.449   4.218  12.775  0.0332  1.5370 -1.4398
 2508SOL     OW19159   0.664   4.704   7.253  0.3237 -0.2269  0.0225
 2508SOL    HW119160   0.598   4.690   7.186  0.7439 -3.1644  0.2306
 2508SOL    HW219161   0.643   0.048   7.301  0.2483 -0.2166 -0.0279
 2509SOL     OW19162   3.747   1.357   5.860 -0.0377 -0.0471 -0.6521
 2509SOL    HW119163   3.804   1.295   5.815  0.2996  0.6269 -1.1472
 2509SOL    HW219164   3.785   1.354   5.948  0.4783  2.0247 -0.7953
 2510SOL     OW19165   0.823   4.257   9.007 -0.1841 -0.6033  0.1267
 2510SOL    HW119166   0.833   4.338   9.057  2.0617  1.7435 -4.1589
 2510SOL    HW219167   0.880   4.188   9.042  0.1246  0.4049  1.6402
 2511SOL     OW19168   2.997   0.988  12.301  0.1902 -0.0910 -0.1682
 2511SOL    HW119169   2.935   1.027  12.362 -1.4674  1.0126 -2.5363
 2511SOL    HW219170   2.996   0.897  12.332 -1.0966  0.0937  0.3097
 2512SOL     OW19171   3.606   0.321   2.361  0.3483  0.5552 -0.2505
 2512SOL    HW119172   3.680   0.382   2.373 -1.5879  2.6660  0.8879
 2512SOL    HW219173   3.533   0.379   2.384 -1.6535 -1.4627 -1.6354
 2513SOL     OW19174   0.003   4.025  17.465 -0.4961  0.4630  0.1289
 2513SOL    HW119175   0.097   4.038  17.453 -0.5556  1.0167  0.2625
 2513SOL    HW219176   4.704   4.025  17.376  0.3225 -1.4520 -0.1867
 2514SOL     OW19177   2.583   1.958   6.264  0.2353 -0.7190  0.0635
 2514SOL    HW119178   2.601   1.878   6.213  0.5075 -1.5569  1.4720
 2514SOL    HW219179   2.673   1.988   6.278  0.6130 -1.4860 -0.6606
 2515SOL     OW19180   3.149   1.677   2.038  0.2557  0.5359 -0.6584
 2515SOL    HW119181   3.078   1.715   2.090 -1.3314 -0.6707 -1.9757
 2515SOL    HW219182   3.112   1.589   2.032  0.3851  0.3788  0.7621
 2516SOL     OW19183   3.492   3.001   7.577 -0.3025 -0.2907  0.1225
 2516SOL    HW119184   3.449   3.086   7.590  0.9685  0.7764 -2.6678
 2516SOL    HW219185   3.536   3.027   7.497  3.4426 -0.0775  2.2496
 2517SOL     OW19186   2.041   0.472   1.206 -0.0497 -0.0254 -0.0036
 2517SOL    HW119187   2.082   0.413   1.268  0.5571 -1.1441 -1.4657
 2517SOL    HW219188   1.978   0.420   1.156  0.0653 -1.7783  1.6697
 2518SOL     OW19189   3.624   2.538   1.166 -1.0786  0.3143 -0.0525
 2518SOL    HW119190   3.702   2.541   1.220 -1.9916 -4.4701  1.5096
 2518SOL    HW219191   3.659   2.484   1.095 -1.3892  0.8611 -0.6288
 2519SOL     OW19192   4.680   1.881   9.813 -0.3928 -0.1662 -0.1384
 2519SOL    HW119193   4.661   1.918   9.727 -2.6142 -0.8190  0.0700
 2519SOL    HW219194   4.611   1.932   9.855 -0.2524  1.5990 -2.0613
 2520SOL     OW19195   0.512   1.457   1.962  0.1905 -0.1944 -0.2423
 2520SOL    HW119196   0.477   1.543   1.936  0.7882  0.3114  0.6102
 2520SOL    HW219197   0.602   1.476   1.992  0.5928 -0.2440 -1.4449
 2521SOL     OW19198   3.742   3.178   8.900  0.0897  0.3973  0.3329
 2521SOL    HW119199   3.726   3.156   8.808  0.5482 -1.1839  0.6236
 2521SOL    HW219200   3.836   3.195   8.897  0.5569 -1.8413  2.7998
 2522SOL     OW19201   2.058   1.119   2.450 -0.6630  0.6410  0.2867
 2522SOL    HW119202   2.118   1.056   2.410  1.9646  2.0715  1.9970
 2522SOL    HW219203   2.119   1.158   2.512 -1.9284  2.3633  0.4397
 2523SOL     OW19204   0.212   3.350   7.122 -0.2913 -0.4236 -0.3331
 2523SOL    HW119205   0.172   3.399   7.051 -0.7205 -0.0458  0.1775
 2523SOL    HW219206   0.170   3.383   7.200  3.3376  2.7036  0.2979
 2524SOL     OW19207   0.510   1.211   5.415 -0.6951  0.4156  0.2081
 2524SOL    HW119208   0.541   1.221   5.325 -0.2886 -2.9847 -0.0208
 2524SOL    HW219209   0.431   1.265   5.407 -0.6724  0.4388  0.1467
 2525SOL     OW19210   0.934   3.582  13.847  0.1155 -0.6121 -0.4586
 2525SOL    HW119211   0.955   3.490  13.834 -0.5847 -1.2355  2.8456
 2525SOL    HW219212   0.927   3.610  13.756 -1.3950  1.4934  0.2935
 2526SOL     OW19213   1.574   2.604   2.010 -0.7829  0.6117 -0.6548
 2526SOL    HW119214   1.662   2.628   1.981 -0.7039 -0.1037 -1.0210
 2526SOL    HW219215   1.535   2.691   2.004  1.1236  1.6226  1.8017
 2527SOL     OW19216   0.774   4.565  17.392  0.0294  0.1033  0.3301
 2527SOL    HW119217   0.702   4.613  17.351 -0.4835 -0.9474 -0.0083
 2527SOL    HW219218   0.851   4.621  17.381  0.8370 -1.0545  0.0357
 2528SOL     OW19219   2.564   1.921   8.460  0.1554  0.1968  0.1250
 2528SOL    HW119220   2.584   1.839   8.505 -0.3492  0.3198  0.5697
 2528SOL    HW219221   2.470   1.930   8.446  0.4293  1.6995 -0.7756
 2529SOL     OW19222   0.740   4.371  12.955  0.1367 -0.8777 -0.6554
 2529SOL    HW119223   0.657   4.407  12.988  0.4229  1.4048 -2.4627
 2529SOL    HW219224   0.793   4.449  12.938  1.8602 -2.1343 -0.9765
 2530SOL     OW19225   3.365   2.165   4.658 -0.1085  0.3445  0.1860
 2530SOL    HW119226   3.350   2.240   4.601 -0.4595 -0.5526 -0.8884
 2530SOL    HW219227   3.447   2.192   4.700 -0.2171  0.9458  0.0020
 2531SOL     OW19228   0.105   3.505   5.210  0.1862  0.0796  0.1960
 2531SOL    HW119229   0.123   3.427   5.158 -1.8503 -1.5654  1.9512
 2531SOL    HW219230   0.191   3.531   5.243  0.5154 -0.8244  0.0611
 2532SOL     OW19231   2.771   2.290   4.940  0.0322  0.6480  0.6532
 2532SOL    HW119232   2.727   2.208   4.962  1.3304 -0.3433 -0.5214
 2532SOL    HW219233   2.859   2.257   4.925  0.1402  0.9593  0.5935
 2533SOL     OW19234   3.034   1.399  10.760 -0.0798 -0.2730 -0.2246
 2533SOL    HW119235   3.063   1.395  10.669 -1.5750 -0.5647 -0.6868
 2533SOL    HW219236   2.972   1.326  10.763  0.1823 -0.6645 -4.3437
 2534SOL     OW19237   1.762   4.625   5.042  0.7239  0.4492 -0.4650
 2534SOL    HW119238   1.735   4.656   5.128  0.6439 -0.6526 -0.1044
 2534SOL    HW219239   1.797   4.708   5.009  1.6874  0.8204  1.4807
 2535SOL     OW19240   0.890   2.465   6.870 -0.3990 -0.0168 -0.0837
 2535SOL    HW119241   0.912   2.551   6.905 -2.5458 -0.3811  2.1803
 2535SOL    HW219242   0.910   2.420   6.951  0.7491 -0.9097 -0.8639
 2536SOL     OW19243   2.673   0.774   4.276 -0.6060 -0.6197 -0.6707
 2536SOL    HW119244   2.597   0.719   4.297 -1.3672  0.1410 -1.4198
 2536SOL    HW219245   2.701   0.804   4.362 -0.7943  1.6898 -1.4231
 2537SOL     OW19246   0.351   2.895   2.260  0.3771  0.2431  0.2155
 2537SOL    HW119247   0.425   2.871   2.316  0.4720 -0.9529 -0.4286
 2537SOL    HW219248   0.340   2.815   2.210 -1.0394 -0.4313  1.6154
 2538SOL     OW19249   4.010   1.943   3.039 -0.0322 -0.4597  0.1311
 2538SOL    HW119250   4.015   2.036   3.063 -0.1064 -0.0696 -1.3230
 2538SOL    HW219251   3.967   1.956   2.954 -0.3028  0.6516  0.4332
 2539SOL     OW19252   3.753   1.341   0.806 -0.1777  0.0327  0.4457
 2539SOL    HW119253   3.823   1.379   0.752  0.3059  0.0346  1.0743
 2539SOL    HW219254   3.801   1.281   0.864 -1.7046 -0.9766  0.6700
 2540SOL     OW19255   4.066   1.333   5.706 -0.0724  0.1381  0.4245
 2540SOL    HW119256   4.157   1.322   5.680  0.0485 -0.6877  1.2067
 2540SOL    HW219257   4.054   1.247   5.746 -0.0190  0.2027  0.5783
 2541SOL     OW19258   2.657   2.636  12.527 -0.6359  0.7107 -0.1571
 2541SOL    HW119259   2.574   2.599  12.500 -0.2944  0.1896 -0.4985
 2541SOL    HW219260   2.681   2.684  12.447  0.9804 -1.2737 -0.8774
 2542SOL     OW19261   3.445   1.602   2.458  0.2849  0.0993 -0.0990
 2542SOL    HW119262   3.530   1.623   2.419  1.9103 -0.3271  3.1780
 2542SOL    HW219263   3.462   1.631   2.548  0.4324  2.2346 -0.7973
 2543SOL     OW19264   0.799   1.091   0.405  0.0320 -0.5849  0.2749
 2543SOL    HW119265   0.824   1.162   0.465  2.1879  0.1593 -1.5029
 2543SOL    HW219266   0.748   1.038   0.467  0.0462 -2.3252 -1.2114
 2544SOL     OW19267   3.640   2.683  15.027 -0.3764 -0.4353 -0.7470
 2544SOL    HW119268   3.562   2.647  14.986 -0.6817  0.2973 -0.8178
 2544SOL    HW219269   3.654   2.611  15.088 -2.5567 -1.4914 -1.4933
 2545SOL     OW19270   2.205   1.379   6.266 -0.1410  0.2517  0.1628
 2545SOL    HW119271   2.253   1.387   6.348 -0.6127 -0.4367  0.5089
 2545SOL    HW219272   2.126   1.432   6.275 -1.6858 -2.4072  2.2666
 2546SOL     OW19273   0.252   0.740   2.290 -0.4148 -0.1883  0.2087
 2546SOL    HW119274   0.346   0.724   2.279 -0.7576 -0.6446 -2.0462
 2546SOL    HW219275   0.216   0.658   2.325 -0.2071  0.8430  2.8740
 2547SOL     OW19276   0.771   1.308   2.185  0.3586  0.5530 -0.6319
 2547SOL    HW119277   0.731   1.364   2.251 -1.7660 -0.3165 -1.1922
 2547SOL    HW219278   0.752   1.366   2.111  1.1767 -0.4657 -1.6343
 2548SOL     OW19279   1.861   3.065   9.059  0.5600  0.4096 -0.3173
 2548SOL    HW119280   1.950   3.030   9.069  0.1543 -0.5167  0.0058
 2548SOL    HW219281   1.833   3.005   8.990 -1.0666  0.6879  0.1079
 2549SOL     OW19282   1.996   2.424   7.142 -0.2139 -0.4517  0.1848
 2549SOL    HW119283   2.045   2.411   7.060  2.1108  1.5995  1.2281
 2549SOL    HW219284   1.936   2.350   7.147  0.0538 -0.5752  1.4734
 2550SOL     OW19285   2.654   1.984   9.908  0.4683 -0.1667  0.2143
 2550SOL    HW119286   2.663   1.905   9.856 -1.0271 -0.1163 -0.1173
 2550SOL    HW219287   2.564   2.012   9.890  0.2984 -0.5212  0.4998
 2551SOL     OW19288   4.700   2.645   6.704  0.5970 -0.1949  0.5125
 2551SOL    HW119289   4.614   2.679   6.732  0.4319 -0.7489  0.6768
 2551SOL    HW219290   4.701   2.561   6.750  2.1063 -0.0479  0.7286
 2552SOL     OW19291   2.400   2.190  14.661  0.2702 -0.4122 -0.0035
 2552SOL    HW119292   2.464   2.212  14.594  0.3020  1.2507  0.5508
 2552SOL    HW219293   2.374   2.104  14.630  2.1915 -1.5222  1.4665
 2553SOL     OW19294   2.121   0.355   5.495  0.1458 -0.5097  0.0382
 2553SOL    HW119295   2.046   0.413   5.509 -0.9471 -1.7894 -0.4080
 2553SOL    HW219296   2.132   0.326   5.586 -0.2895  1.0956  0.6023
 2554SOL     OW19297   1.573   3.418   2.917 -0.5450  0.1284 -0.1069
 2554SOL    HW119298   1.480   3.409   2.898 -0.9164  2.2719  0.6921
 2554SOL    HW219299   1.602   3.330   2.890  2.3702  1.2401 -0.5932
 2555SOL     OW19300   1.664   1.349   2.654  0.2363  0.0381 -0.2558
 2555SOL    HW119301   1.711   1.384   2.730 -1.7834 -0.2509  1.1300
 2555SOL    HW219302   1.576   1.374   2.682  1.2830  3.7535 -0.2885
 2556SOL     OW19303   2.403   1.132  17.670  0.1094  0.2083 -0.0794
 2556SOL    HW119304   2.426   1.185   0.003 -0.0736  1.4943 -0.9278
 2556SOL    HW219305   2.482   1.147  17.619 -0.2516  0.1738 -0.6517
 2557SOL     OW19306   2.558   4.617   0.778  0.0682  0.3855  0.2810
 2557SOL    HW119307   2.478   4.641   0.824 -0.1171  0.0267  0.1434
 2557SOL    HW219308   2.545   4.656   0.692 -2.1255 -0.3197  0.2917
 2558SOL     OW19309   4.161   1.417   2.051 -0.7238  0.0718  0.0275
 2558SOL    HW119310   4.127   1.385   2.134  0.3321 -1.5343 -0.1478
 2558SOL    HW219311   4.249   1.378   2.057 -0.4594  1.0815  2.4601
 2559SOL     OW19312   1.254   4.549  14.737 -0.1750  0.6302 -0.2503
 2559SOL    HW119313   1.313   4.494  14.685 -1.3300  0.0462 -0.9487
 2559SOL    HW219314   1.298   4.540  14.822 -0.9605 -0.6104  0.0170
 2560SOL     OW19315   0.470   0.395   6.258  0.0093  0.2232 -0.0712
 2560SOL    HW119316   0.522   0.330   6.210  1.8792  1.0088  0.8804
 2560SOL    HW219317   0.460   0.348   6.341 -0.5484 -0.6349 -0.6239
 2561SOL     OW19318   3.109   2.792   2.180  0.4795 -0.2569 -0.1198
 2561SOL    HW119319   3.153   2.774   2.097  0.9351  0.8953 -0.1117
 2561SOL    HW219320   3.022   2.822   2.152  1.3316  1.2656 -1.0860
 2562SOL     OW19321   2.412   1.242   7.117  0.4329  0.0207  0.3283
 2562SOL    HW119322   2.449   1.246   7.029 -1.0999  1.5694 -0.2429
 2562SOL    HW219323   2.321   1.227   7.091  0.3379 -0.1063  0.7454
 2563SOL     OW19324   0.509   1.914   3.844 -0.3217 -0.0831  0.0585
 2563SOL    HW119325   0.453   1.869   3.906 -0.6778 -2.6620 -2.1338
 2563SOL    HW219326   0.588   1.920   3.898 -1.4176  2.1157  1.4001
 2564SOL     OW19327   2.442   2.728  10.512  0.1619 -0.3711 -0.1962
 2564SOL    HW119328   2.466   2.635  10.518 -0.6956 -0.6414 -0.9770
 2564SOL    HW219329   2.523   2.778  10.516  0.1909 -0.3940 -0.5196
 2565SOL     OW19330   3.220   3.677   6.748 -0.4087  0.3801  0.1967
 2565SOL    HW119331   3.175   3.622   6.684  0.0796  1.0477 -0.7412
 2565SOL    HW219332   3.310   3.673   6.714 -0.5808  1.5074 -0.4142
 2566SOL     OW19333   0.663   4.339   7.751 -0.1014  0.0925  0.3544
 2566SOL    HW119334   0.657   4.430   7.722 -1.2292 -0.0153  0.2392
 2566SOL    HW219335   0.599   4.299   7.693 -0.0199 -0.7964  0.8731
 2567SOL     OW19336   2.229   1.130   3.794  0.4416 -0.4542  0.1948
 2567SOL    HW119337   2.268   1.129   3.706  0.7359 -0.7766  0.3296
 2567SOL    HW219338   2.306   1.155   3.845  1.2888  0.4427 -1.5372
 2568SOL     OW19339   3.378   3.828   7.727  0.0441  0.2658  0.0499
 2568SOL    HW119340   3.434   3.895   7.767 -1.1244  1.6638 -0.6463
 2568SOL    HW219341   3.357   3.870   7.644  0.2111 -1.8384 -1.0355
 2569SOL     OW19342   2.482   1.166   9.238  0.6914  0.0939  0.4270
 2569SOL    HW119343   2.386   1.162   9.235  0.7317  0.2729 -0.8819
 2569SOL    HW219344   2.512   1.152   9.149  1.7298 -1.4012  1.0221
 2570SOL     OW19345   1.982   2.595   9.592 -0.2587 -0.3515 -0.2292
 2570SOL    HW119346   2.029   2.675   9.616  0.2410 -0.7775  0.2097
 2570SOL    HW219347   1.918   2.590   9.663 -0.5917  0.2963 -0.4816
 2571SOL     OW19348   0.068   4.315   5.963 -0.0808  0.2675  0.3655
 2571SOL    HW119349   0.067   4.220   5.952  0.2088  0.4707 -1.4589
 2571SOL    HW219350   0.070   4.345   5.872  1.6381 -0.6804  0.0805
 2572SOL     OW19351   0.352   2.189  11.468  0.2588 -0.3336  0.3403
 2572SOL    HW119352   0.377   2.117  11.410  0.2522  0.2320 -0.3553
 2572SOL    HW219353   0.257   2.193  11.460  0.1293 -2.1190  0.8229
 2573SOL     OW19354   4.695   2.440   3.799 -0.5028 -0.1948  0.0539
 2573SOL    HW119355   0.001   2.377   3.857  0.3330 -1.3895 -1.8925
 2573SOL    HW219356   0.014   2.516   3.819 -0.8874 -1.1905  4.8565
 2574SOL     OW19357   1.612   4.562  13.208 -0.0923  0.7854  0.2639
 2574SOL    HW119358   1.580   4.565  13.118 -1.1973 -2.7052  0.5187
 2574SOL    HW219359   1.535   4.552  13.264  2.4504  2.8645  4.1760
 2575SOL     OW19360   4.509   2.054   9.907 -0.0239 -0.0453 -0.1801
 2575SOL    HW119361   4.442   2.094   9.962  0.9608  2.6699 -0.9412
 2575SOL    HW219362   4.557   2.133   9.883 -2.0323  1.2043 -0.0848
 2576SOL     OW19363   1.941   3.983   8.803  0.2759 -0.5639 -0.0237
 2576SOL    HW119364   1.924   3.941   8.719 -1.8766  0.1690  0.0439
 2576SOL    HW219365   1.859   4.029   8.820  1.8824  2.0474  0.6532
 2577SOL     OW19366   3.994   3.422   1.237  0.5892 -0.1457 -0.3840
 2577SOL    HW119367   3.968   3.499   1.287  2.2410 -0.3159  0.7570
 2577SOL    HW219368   3.948   3.362   1.295 -0.9955 -0.5244 -2.0519
 2578SOL     OW19369   0.122   1.988   6.729  0.5267  0.0494 -0.6019
 2578SOL    HW119370   0.115   1.915   6.791 -0.3103  0.1769 -0.5369
 2578SOL    HW219371   0.032   2.005   6.701 -0.0065 -2.5013 -0.4460
 2579SOL     OW19372   3.181   1.123   7.862 -0.0205  0.2026  0.4752
 2579SOL    HW119373   3.250   1.189   7.869  0.7498 -0.6257  0.7129
 2579SOL    HW219374   3.115   1.151   7.798 -0.0822 -0.0715  0.4194
 2580SOL     OW19375   0.243   2.785   7.861 -0.7016 -0.1724  0.5588
 2580SOL    HW119376   0.252   2.699   7.820  0.1320 -0.7605  1.9569
 2580SOL    HW219377   0.322   2.826   7.827 -0.3860  1.6197  3.4258
 2581SOL     OW19378   1.464   3.208   9.116 -0.4669 -0.4168 -0.3110
 2581SOL    HW119379   1.375   3.241   9.108 -0.6533 -0.1750  2.9065
 2581SOL    HW219380   1.498   3.193   9.028  0.6864 -0.5950  0.1646
 2582SOL     OW19381   2.542   4.152   3.536  0.3130  0.1074 -0.5450
 2582SOL    HW119382   2.593   4.202   3.471  1.0151  0.9938  0.6885
 2582SOL    HW219383   2.531   4.215   3.607  0.0178 -1.6947  0.9914
 2583SOL     OW19384   4.319   3.308   0.243  0.0022  0.2313  0.4137
 2583SOL    HW119385   4.283   3.278   0.327 -1.5250 -1.1094 -0.7370
 2583SOL    HW219386   4.245   3.354   0.203  1.5206  2.6984  0.4618
 2584SOL     OW19387   3.106   3.132   2.051 -0.3213 -0.4319 -0.3128
 2584SOL    HW119388   3.072   3.195   1.988 -1.8869  0.3504  1.3080
 2584SOL    HW219389   3.023   3.088   2.069  0.0719 -0.9072  0.3523
 2585SOL     OW19390   2.522   2.806   7.784 -0.0590 -0.2909  0.0132
 2585SOL    HW119391   2.539   2.767   7.870  0.9007  1.3356  0.5590
 2585SOL    HW219392   2.608   2.834   7.752 -0.7361  0.0594 -1.4964
 2586SOL     OW19393   0.916   2.973  13.833 -0.7020  0.3660 -0.2166
 2586SOL    HW119394   0.919   2.884  13.800 -0.7084  0.2360  0.1389
 2586SOL    HW219395   0.915   2.948  13.925  1.1594 -0.6172 -0.4758
 2587SOL     OW19396   0.970   0.225  12.275  0.3587  0.0685 -0.3420
 2587SOL    HW119397   1.009   0.199  12.191  2.8631  1.5830  0.3474
 2587SOL    HW219398   0.878   0.212  12.251  0.4791 -0.6353 -0.4357
 2588SOL     OW19399   3.508   2.157   8.408 -0.2529  0.0187 -0.0776
 2588SOL    HW119400   3.505   2.171   8.313 -0.1384 -1.2260 -0.2730
 2588SOL    HW219401   3.416   2.135   8.426  0.3672  0.5861  3.7875
 2589SOL     OW19402   1.811   2.102  11.639 -0.6034  0.1860  0.6249
 2589SOL    HW119403   1.809   2.130  11.731 -1.4012 -0.9275  0.9390
 2589SOL    HW219404   1.829   2.187  11.598  0.7409 -0.8963 -0.9644
 2590SOL     OW19405   2.850   3.352  16.422  0.4170  0.4518  0.5439
 2590SOL    HW119406   2.911   3.412  16.381  1.9594 -1.5698 -0.1351
 2590SOL    HW219407   2.805   3.412  16.481 -0.0539  0.3201  0.3206
 2591SOL     OW19408   3.676   3.873   2.614  0.2849  0.4276 -0.4577
 2591SOL    HW119409   3.647   3.954   2.573  1.3691  0.8200 -0.4463
 2591SOL    HW219410   3.771   3.876   2.621  0.2947 -1.4339  0.0854
 2592SOL     OW19411   3.994   1.348   7.856  0.3048  0.5140  0.2231
 2592SOL    HW119412   4.076   1.372   7.812  0.6724  0.7201  1.0038
 2592SOL    HW219413   3.991   1.393   7.941  0.4133 -0.4632  0.7529
 2593SOL     OW19414   0.054   0.695   7.817  0.1812  0.4612  0.3575
 2593SOL    HW119415   0.093   0.683   7.904 -1.0372 -0.7903  0.7407
 2593SOL    HW219416   0.001   0.616   7.804  0.6392  0.0656  0.8761
 2594SOL     OW19417   0.192   1.842   9.272 -0.9557 -0.1121  0.0679
 2594SOL    HW119418   0.161   1.930   9.294 -2.0059  0.0028 -1.8723
 2594SOL    HW219419   0.214   1.807   9.359 -0.5579  1.6156  0.6697
 2595SOL     OW19420   1.987   0.316   5.018  0.4465  0.3982  0.3424
 2595SOL    HW119421   2.018   0.238   4.972  1.9113  1.2836 -0.1696
 2595SOL    HW219422   2.059   0.375   4.996 -0.6561  1.6227 -0.0175
 2596SOL     OW19423   2.301   4.229  17.686  0.0009 -0.1103 -0.2073
 2596SOL    HW119424   2.324   4.136  17.682  2.7971  0.6296 -1.2312
 2596SOL    HW219425   2.312   4.253   0.035  0.0860 -3.5720  0.6912
 2597SOL     OW19426   2.436   1.349   8.382 -0.2033  0.7026  0.5461
 2597SOL    HW119427   2.483   1.306   8.309 -2.0526 -0.4158  0.0172
 2597SOL    HW219428   2.437   1.441   8.354 -0.6255  0.1858 -1.1834
 2598SOL     OW19429   0.701   3.230   5.714  0.5209  0.0596 -0.3506
 2598SOL    HW119430   0.668   3.142   5.732  1.4419  0.4140  3.2440
 2598SOL    HW219431   0.694   3.231   5.619  1.6429  5.0398 -0.3997
 2599SOL     OW19432   3.519   1.887   2.640  0.0439 -0.1497 -0.5116
 2599SOL    HW119433   3.527   1.967   2.589  2.9139  0.1830  0.4699
 2599SOL    HW219434   3.428   1.880   2.670  0.2300 -1.3624 -0.2381
 2600SOL     OW19435   4.457   3.817   5.343  0.3876 -0.2090  0.2597
 2600SOL    HW119436   4.369   3.855   5.342  0.8442  0.8133 -0.9122
 2600SOL    HW219437   4.525   3.881   5.320 -0.7403  1.0699  0.5332
 2601SOL     OW19438   3.979   1.256   5.063  0.2222  0.2202  0.3929
 2601SOL    HW119439   3.918   1.190   5.029 -0.8185  1.1497  0.4362
 2601SOL    HW219440   4.048   1.193   5.086 -0.7708 -1.4412 -1.1834
 2602SOL     OW19441   2.189   3.448   4.157  0.2044  0.0693  0.0846
 2602SOL    HW119442   2.106   3.496   4.160 -1.5800 -3.0211  0.2893
 2602SOL    HW219443   2.193   3.407   4.071 -0.1541  0.8963 -0.3291
 2603SOL     OW19444   2.856   4.606   2.519 -0.0599 -0.1106 -0.1162
 2603SOL    HW119445   2.858   4.695   2.555 -0.0006 -0.3303  0.4149
 2603SOL    HW219446   2.943   4.599   2.480  0.5379 -0.1157  1.2038
 2604SOL     OW19447   1.862   2.767   7.692  0.1461  0.1939 -0.2123
 2604SOL    HW119448   1.830   2.716   7.617 -2.2475  2.1571 -0.5211
 2604SOL    HW219449   1.812   2.849   7.688  0.3543  0.4587  3.3438
 2605SOL     OW19450   2.861   0.626   9.871 -0.2539 -0.1094  0.3411
 2605SOL    HW119451   2.902   0.712   9.857 -0.1899  0.2379  2.6132
 2605SOL    HW219452   2.925   0.570   9.914 -1.5524 -0.7456  1.4192
 2606SOL     OW19453   4.294   1.761   1.549  0.1533 -0.4831 -0.4990
 2606SOL    HW119454   4.351   1.686   1.563  1.2855 -0.1066 -2.9675
 2606SOL    HW219455   4.219   1.740   1.605  2.4202 -2.0957  1.8989
 2607SOL     OW19456   2.742   2.744  13.956  0.4644 -0.5305 -0.0956
 2607SOL    HW119457   2.719   2.823  14.005 -0.9890  0.4846 -2.4045
 2607SOL    HW219458   2.782   2.693  14.026 -0.6719 -1.7961 -0.3610
 2608SOL     OW19459   2.954   2.842   5.109  0.5527 -0.1364  0.0175
 2608SOL    HW119460   2.913   2.819   5.192 -0.6328 -0.1063 -0.5573
 2608SOL    HW219461   2.923   2.776   5.048  0.9778 -1.1997  0.9613
 2609SOL     OW19462   0.088   0.237   3.260 -0.1145 -0.0953  0.5797
 2609SOL    HW119463   0.070   0.220   3.167  0.5331  2.7528 -0.0624
 2609SOL    HW219464   4.736   0.265   3.284  0.0105  0.6267  0.1953
 2610SOL     OW19465   2.383   1.690   4.959 -0.1078  0.2223  0.2578
 2610SOL    HW119466   2.452   1.667   4.897 -3.5655 -4.5423 -1.8245
 2610SOL    HW219467   2.313   1.702   4.895 -0.5626  0.3260  0.7814
 2611SOL     OW19468   3.908   3.226   1.948 -0.3115  0.1726  0.1895
 2611SOL    HW119469   3.966   3.282   1.896  1.1001 -0.8555  0.6486
 2611SOL    HW219470   3.949   3.225   2.034 -0.7427 -0.9920  0.3726
 2612SOL     OW19471   4.036   4.140   6.832 -0.1183  0.1066  0.2845
 2612SOL    HW119472   4.066   4.057   6.870 -1.0635 -1.3131 -2.0684
 2612SOL    HW219473   4.025   4.114   6.740  0.6831 -1.3923  0.6048
 2613SOL     OW19474   0.357   1.615  13.872  0.2907 -0.1179 -0.2934
 2613SOL    HW119475   0.343   1.541  13.813  0.0734 -0.5340  0.2802
 2613SOL    HW219476   0.382   1.567  13.951  1.2528 -1.1359 -1.2216
 2614SOL     OW19477   3.648   0.259   3.473 -0.1752 -0.1155 -0.0605
 2614SOL    HW119478   3.617   0.283   3.385 -2.0328 -1.6416  0.1849
 2614SOL    HW219479   3.619   0.168   3.482 -1.2087  0.3665  1.4087
 2615SOL     OW19480   0.892   4.272   6.234 -0.2595  0.0063 -0.4255
 2615SOL    HW119481   0.802   4.289   6.264 -0.1147  2.3327 -1.3710
 2615SOL    HW219482   0.908   4.210   6.305 -0.3710  1.0901  0.5419
 2616SOL     OW19483   2.637   0.798  11.505 -0.5475 -0.3043 -0.1024
 2616SOL    HW119484   2.711   0.784  11.446  0.4690  1.8203  0.6616
 2616SOL    HW219485   2.608   0.882  11.469  1.1819 -0.1932 -1.2357
 2617SOL     OW19486   4.145   0.996   6.410 -0.0374  0.4996  0.3813
 2617SOL    HW119487   4.201   1.069   6.439 -0.7067  0.7657  0.9911
 2617SOL    HW219488   4.167   0.924   6.470  3.2361  0.8773 -0.3601
 2618SOL     OW19489   2.697   1.347   5.766 -0.3628 -0.1622  0.0929
 2618SOL    HW119490   2.772   1.375   5.714 -1.8891 -0.3055 -2.1554
 2618SOL    HW219491   2.702   1.408   5.840 -2.2403  0.2755 -0.1412
 2619SOL     OW19492   0.504   4.628   7.025 -0.3654 -0.3423 -0.4658
 2619SOL    HW119493   0.493   4.675   6.942 -0.5607 -2.5290 -1.6535
 2619SOL    HW219494   0.503   4.546   6.977  1.0679 -0.0255 -1.0334
 2620SOL     OW19495   2.631   2.297   3.721 -1.1445 -0.5559 -0.0828
 2620SOL    HW119496   2.695   2.227   3.706 -0.9023 -0.5819  1.1178
 2620SOL    HW219497   2.551   2.257   3.687 -1.3242 -0.3488  0.1012
 2621SOL     OW19498   3.863   0.521   0.498  0.3835 -0.1544 -0.2276
 2621SOL    HW119499   3.799   0.562   0.439  1.7709  3.1337  0.5546
 2621SOL    HW219500   3.883   0.448   0.439 -1.3329 -2.6419  2.2982
 2622SOL     OW19501   2.116   1.902   2.342 -0.6715  0.2015 -1.0911
 2622SOL    HW119502   2.032   1.903   2.296 -0.7134 -1.6902 -1.0314
 2622SOL    HW219503   2.096   1.940   2.427  0.4070 -0.3405 -0.5997
 2623SOL     OW19504   1.239   2.072  17.109 -0.2848 -0.4645 -0.3035
 2623SOL    HW119505   1.170   2.137  17.105 -0.9532 -1.1001  0.7519
 2623SOL    HW219506   1.220   2.022  17.030  0.7039  0.8680 -1.3756
 2624SOL     OW19507   2.152   2.498   8.212  0.1356  0.0023  0.3848
 2624SOL    HW119508   2.092   2.454   8.272 -0.0840  2.8433  2.2656
 2624SOL    HW219509   2.093   2.570   8.189  0.3081 -0.0543 -0.2295
 2625SOL     OW19510   4.542   2.045   6.160  0.8034 -0.4667  0.2683
 2625SOL    HW119511   4.589   2.071   6.081  0.2159 -0.6663 -0.1502
 2625SOL    HW219512   4.611   2.009   6.215  0.8393 -0.5493  0.1690
 2626SOL     OW19513   1.746   2.894   9.968 -0.2458  0.1605  0.2674
 2626SOL    HW119514   1.732   2.897  10.062 -4.3735  1.1226 -0.3815
 2626SOL    HW219515   1.702   2.973   9.937  0.4541 -0.2724 -1.8381
 2627SOL     OW19516   4.651   4.439   6.144 -0.3787  0.1089 -0.2433
 2627SOL    HW119517   4.691   4.394   6.070  0.6221  1.1188 -0.3073
 2627SOL    HW219518   4.693   4.524   6.131  2.3526 -1.4426 -1.7087
 2628SOL     OW19519   2.506   3.184   2.458  0.0949 -0.1771 -0.2807
 2628SOL    HW119520   2.515   3.199   2.364 -1.8715 -0.9200 -0.5811
 2628SOL    HW219521   2.589   3.143   2.483  0.4863  0.6638 -0.1942
 2629SOL     OW19522   0.072   4.072  15.030  0.6007  0.9324 -0.2277
 2629SOL    HW119523   0.109   4.012  14.965  1.7004  1.8404 -0.4452
 2629SOL    HW219524   0.149   4.100  15.079  0.1180 -0.2841  1.2360
 2630SOL     OW19525   0.800   0.405   5.436 -0.1244  0.0292  0.1618
 2630SOL    HW119526   0.828   0.485   5.391 -0.9566 -0.7750 -1.7658
 2630SOL    HW219527   0.808   0.350   5.358  1.5368  0.4731  0.0084
 2631SOL     OW19528   3.113   3.154   4.406 -0.1806  0.3011 -0.2932
 2631SOL    HW119529   3.117   3.196   4.492  1.2079 -1.3850  0.4585
 2631SOL    HW219530   3.019   3.142   4.398 -0.4643  1.6346  0.9147
 2632SOL     OW19531   2.442   2.881   3.375  0.1390 -0.0315 -0.1341
 2632SOL    HW119532   2.429   2.787   3.385 -2.5685  0.4184  0.6740
 2632SOL    HW219533   2.447   2.904   3.468 -0.4219  0.0927 -0.1367
 2633SOL     OW19534   1.915   4.525   2.833  0.6768  0.3961 -0.1236
 2633SOL    HW119535   1.912   4.448   2.777 -2.6753  1.2414 -1.0919
 2633SOL    HW219536   1.959   4.589   2.777  1.0094  0.7172  0.4998
 2634SOL     OW19537   0.698   2.706   5.551  0.4607 -0.2391 -0.1335
 2634SOL    HW119538   0.722   2.681   5.640  0.0247 -1.2936 -0.3138
 2634SOL    HW219539   0.604   2.694   5.559  0.4108 -1.0323 -1.8684
 2635SOL     OW19540   0.714   3.755  10.253 -0.4858  0.1245 -0.0063
 2635SOL    HW119541   0.649   3.696  10.292 -0.8475  0.8647  0.5132
 2635SOL    HW219542   0.685   3.842  10.282 -0.5188  0.2190 -0.3267
 2636SOL     OW19543   4.267   3.783   8.872  0.6326 -0.2382  0.2675
 2636SOL    HW119544   4.241   3.762   8.783  1.2547 -0.3625  0.1118
 2636SOL    HW219545   4.293   3.874   8.862 -0.6517 -0.0794 -1.4609
 2637SOL     OW19546   3.602   3.657  17.054  0.4782  0.0879 -0.2765
 2637SOL    HW119547   3.678   3.715  17.056  1.5087 -1.2248 -0.9482
 2637SOL    HW219548   3.619   3.573  17.097 -0.9022 -1.8412 -3.4840
 2638SOL     OW19549   4.196   0.896   3.064  0.3972  0.2029 -0.5257
 2638SOL    HW119550   4.149   0.823   3.025 -1.2847  1.9655 -1.7735
 2638SOL    HW219551   4.288   0.880   3.041  0.7126 -0.4637  1.1780
 2639SOL     OW19552   1.109   3.846   5.049  0.0774  0.3912 -0.4065
 2639SOL    HW119553   1.127   3.752   5.054  0.6355  0.4644 -0.9444
 2639SOL    HW219554   1.026   3.843   5.097  0.1848 -0.9648 -0.2911
 2640SOL     OW19555   3.045   1.482   6.743 -0.4064  0.1446 -0.5871
 2640SOL    HW119556   3.028   1.418   6.812  1.4157 -0.7843 -0.9913
 2640SOL    HW219557   3.139   1.466   6.740 -0.5288 -0.1836 -2.5311
 2641SOL     OW19558   1.303   0.767   6.001 -0.3744 -0.2375 -0.3202
 2641SOL    HW119559   1.335   0.805   5.919 -0.3675 -2.5754 -1.4016
 2641SOL    HW219560   1.325   0.842   6.057 -0.3105  0.9773 -1.9567
 2642SOL     OW19561   3.016   4.185   1.839 -0.5997  0.1400 -0.1278
 2642SOL    HW119562   3.090   4.176   1.778  0.1391  0.1423  0.7754
 2642SOL    HW219563   3.010   4.094   1.870  0.2562 -0.5503 -1.9587
 2643SOL     OW19564   0.993   1.171   9.752 -0.3149  0.5411  0.2411
 2643SOL    HW119565   1.046   1.236   9.796  2.5563 -0.4161 -1.7646
 2643SOL    HW219566   1.029   1.099   9.803 -1.1140 -0.4817 -0.6242
 2644SOL     OW19567   2.507   1.644   2.508  0.3582  0.6178 -0.2625
 2644SOL    HW119568   2.599   1.617   2.506 -0.0468 -0.7696  0.0424
 2644SOL    HW219569   2.511   1.737   2.483  1.7267 -0.0071 -2.3429
 2645SOL     OW19570   4.322   0.568   3.015 -0.6730  0.4143 -0.4494
 2645SOL    HW119571   4.290   0.481   3.037  1.4695 -0.5165 -1.0265
 2645SOL    HW219572   4.242   0.612   2.986 -1.1904 -1.5340 -1.9499
 2646SOL     OW19573   0.354   0.006  14.450 -0.6586  0.0712 -0.0660
 2646SOL    HW119574   0.412   0.046  14.515  0.9066 -1.3391 -0.5869
 2646SOL    HW219575   0.414   4.735  14.375  0.0789  0.8423  0.4489
 2647SOL     OW19576   0.958   4.725  12.728 -0.8150 -0.0817  0.2895
 2647SOL    HW119577   0.969   0.078  12.694 -1.5940  0.6047  1.8384
 2647SOL    HW219578   0.919   4.679  12.654  1.6718  0.1826 -1.2083
 2648SOL     OW19579   2.615   1.792   7.584 -0.2483 -0.8313  0.1301
 2648SOL    HW119580   2.596   1.854   7.654  1.1112 -1.8800  1.4327
 2648SOL    HW219581   2.533   1.772   7.539 -1.0124  1.4279  0.5241
 2649SOL     OW19582   0.936   2.973   2.674  0.6315  0.1210 -0.0164
 2649SOL    HW119583   0.958   2.982   2.581  1.8099  0.1668  0.2652
 2649SOL    HW219584   0.990   2.895   2.691 -0.4878 -0.3609  1.2429
 2650SOL     OW19585   4.190   0.534   8.655  0.2432 -1.4337 -0.0029
 2650SOL    HW119586   4.175   0.574   8.741  0.7592  2.8526 -1.8996
 2650SOL    HW219587   4.108   0.487   8.641 -0.9909  0.5803  0.4910
 2651SOL     OW19588   0.264   2.403   1.018  0.0760  0.0573 -0.1658
 2651SOL    HW119589   0.199   2.339   0.987 -1.7833  1.8988 -0.0475
 2651SOL    HW219590   0.275   2.458   0.941  0.1183  0.2344 -0.0335
 2652SOL     OW19591   3.468   0.207   6.123 -0.1599  0.7748  0.0079
 2652SOL    HW119592   3.562   0.220   6.111 -0.1129 -0.7665 -1.2887
 2652SOL    HW219593   3.446   0.144   6.054  1.1811  0.8546 -0.4891
 2653SOL     OW19594   0.233   3.944   3.392  0.4371 -0.1581  0.0251
 2653SOL    HW119595   0.150   3.949   3.344  1.3481  0.6698 -1.4346
 2653SOL    HW219596   0.200   3.941   3.482  1.4981 -0.1193  0.4163
 2654SOL     OW19597   2.822   3.381   9.334 -0.1939  0.0556 -0.5897
 2654SOL    HW119598   2.907   3.346   9.308  0.5379  1.1466  0.3287
 2654SOL    HW219599   2.771   3.308   9.368 -0.9145 -0.1258 -2.0392
 2655SOL     OW19600   2.691   3.651   7.604 -0.1792  0.0155  0.4817
 2655SOL    HW119601   2.711   3.736   7.565 -1.3734  0.0364 -0.0961
 2655SOL    HW219602   2.691   3.667   7.698  0.3379 -0.8581  0.6295
 2656SOL     OW19603   1.245   0.298  13.453 -0.6474 -0.2296  0.2844
 2656SOL    HW119604   1.200   0.382  13.468 -0.2003  0.0787 -0.1049
 2656SOL    HW219605   1.252   0.263  13.542  1.9976 -0.1461  0.1118
 2657SOL     OW19606   2.287   1.663   8.957  0.4595 -0.1366  0.7265
 2657SOL    HW119607   2.282   1.596   8.890  0.7418  0.7982 -0.2240
 2657SOL    HW219608   2.252   1.617   9.033 -2.4544 -0.2511 -0.6699
 2658SOL     OW19609   3.149   2.704   6.821  0.3188  0.0629 -0.1150
 2658SOL    HW119610   3.136   2.798   6.834 -0.3561 -0.2677  1.6389
 2658SOL    HW219611   3.172   2.677   6.910  0.1892  0.0582 -0.0832
 2659SOL     OW19612   0.954   3.018   0.937  0.4433  0.1286 -0.4520
 2659SOL    HW119613   0.943   2.970   1.019  1.1675  0.5122 -0.1245
 2659SOL    HW219614   0.944   2.945   0.876 -1.5996 -0.2120  0.2858
 2660SOL     OW19615   3.525   1.458   0.743 -0.6862 -0.1504 -0.0528
 2660SOL    HW119616   3.608   1.415   0.765 -2.1282 -2.6653  0.5201
 2660SOL    HW219617   3.549   1.520   0.674  1.7134  0.2669  1.1322
 2661SOL     OW19618   4.354   2.418   5.365  0.0005  0.1138 -0.1256
 2661SOL    HW119619   4.369   2.343   5.423 -1.0605  0.7347  0.9472
 2661SOL    HW219620   4.289   2.466   5.415  0.8359  1.1360 -0.0366
 2662SOL     OW19621   4.354   4.071   8.904 -0.4785  0.2688  0.2588
 2662SOL    HW119622   4.382   4.162   8.902 -0.7862  0.3436 -0.5168
 2662SOL    HW219623   4.274   4.079   8.957 -0.5260 -1.9374  0.5213
 2663SOL     OW19624   3.029   4.272  11.605  0.2891  0.5749  0.8901
 2663SOL    HW119625   2.975   4.308  11.534 -1.3248 -2.2213  0.6563
 2663SOL    HW219626   3.097   4.339  11.611  0.7681  0.3263 -1.8823
 2664SOL     OW19627   0.472   0.173  11.690  0.7779  0.5064  0.4098
 2664SOL    HW119628   0.510   0.121  11.619  0.4371 -0.4922  0.9595
 2664SOL    HW219629   0.548   0.164  11.746  0.4005  1.3619  1.0549
 2665SOL     OW19630   3.415   0.848   0.789 -0.0390  0.2365  0.7586
 2665SOL    HW119631   3.330   0.849   0.747  0.9044 -3.1450 -1.1731
 2665SOL    HW219632   3.431   0.755   0.776 -0.5926  0.1042  1.0311
 2666SOL     OW19633   0.451   0.645   5.539  0.2664  0.0431 -0.5242
 2666SOL    HW119634   0.480   0.673   5.453 -0.7508  0.4567 -0.7420
 2666SOL    HW219635   0.530   0.624   5.588 -0.6187  2.0985  1.8504
 2667SOL     OW19636   1.043   2.223   6.806 -0.0028 -0.6230  0.5373
 2667SOL    HW119637   0.994   2.158   6.856 -1.0737  1.0943  1.7476
 2667SOL    HW219638   0.977   2.293   6.808  1.2273  0.5410  0.5933
 2668SOL     OW19639   1.299   3.641   3.570 -0.4400 -0.3512 -0.1955
 2668SOL    HW119640   1.322   3.663   3.660  0.4294  0.1321 -0.5402
 2668SOL    HW219641   1.217   3.593   3.586  1.0651 -3.5594 -1.9521
 2669SOL     OW19642   4.196   4.614   5.513 -0.6044  0.2872 -0.2576
 2669SOL    HW119643   4.201   4.657   5.598  0.4107 -0.1650 -0.0865
 2669SOL    HW219644   4.170   4.680   5.449 -2.9593 -0.0185  0.3936
 2670SOL     OW19645   1.194   1.808   2.136  0.5002 -0.2595 -0.3087
 2670SOL    HW119646   1.157   1.740   2.192  4.7199 -4.0390 -2.0758
 2670SOL    HW219647   1.236   1.759   2.065  3.2857 -0.5802  1.5731
 2671SOL     OW19648   3.100   2.282   2.914 -0.2261 -0.5207  0.7847
 2671SOL    HW119649   3.126   2.217   2.849 -1.3554 -1.3470  1.1592
 2671SOL    HW219650   3.056   2.356   2.873  0.4762  1.4469  3.5672
 2672SOL     OW19651   0.413   3.617  11.007  0.2263  0.0653  0.1063
 2672SOL    HW119652   0.495   3.646  10.969  0.3392  1.5196  1.4253
 2672SOL    HW219653   0.450   3.583  11.088 -0.7818  1.7584  1.2946
 2673SOL     OW19654   3.134   0.205   5.943 -0.4787 -0.1815  0.4354
 2673SOL    HW119655   3.111   0.113   5.953 -2.6218  0.3131 -0.0440
 2673SOL    HW219656   3.124   0.219   5.849 -2.6697 -0.1110  0.6899
 2674SOL     OW19657   1.630   1.306   1.432 -0.1860 -0.1247  0.3010
 2674SOL    HW119658   1.561   1.272   1.489  1.0380 -2.1125  0.5939
 2674SOL    HW219659   1.687   1.229   1.439  0.9497  0.5007 -1.9971
 2675SOL     OW19660   2.915   0.284  16.840  0.5408  0.2019 -0.1499
 2675SOL    HW119661   2.829   0.317  16.814  0.9487  0.3786 -1.2972
 2675SOL    HW219662   2.944   0.327  16.921 -1.1635 -1.1377  1.1573
 2676SOL     OW19663   4.701   0.198   6.159 -0.3757  0.5779 -0.5736
 2676SOL    HW119664   0.047   0.233   6.125  0.5688 -0.2816  0.8113
 2676SOL    HW219665   4.667   0.140   6.092  2.3229 -2.1480  0.3951
 2677SOL     OW19666   4.295   0.528   5.148  0.6774  0.4083  0.4214
 2677SOL    HW119667   4.240   0.449   5.152  0.6477  0.3510 -0.9213
 2677SOL    HW219668   4.371   0.502   5.199  0.7092 -0.7791 -0.2159
 2678SOL     OW19669   4.026   0.470   2.732  0.1876  0.3142  0.7499
 2678SOL    HW119670   3.970   0.546   2.716 -1.2563 -0.6866  1.0395
 2678SOL    HW219671   4.112   0.508   2.713  0.1789 -1.1794 -2.3114
 2679SOL     OW19672   3.802   3.942   9.278 -0.5448 -0.0811 -1.0187
 2679SOL    HW119673   3.792   3.925   9.185  1.2733 -0.6230 -1.1142
 2679SOL    HW219674   3.888   3.983   9.289 -0.5607 -0.4260  0.4888
 2680SOL     OW19675   2.497   3.609   7.970 -0.1984 -0.4270  0.4806
 2680SOL    HW119676   2.430   3.549   7.938  1.1967 -1.6417 -0.1562
 2680SOL    HW219677   2.443   3.660   8.030  1.5826  0.6986  1.1367
 2681SOL     OW19678   0.172   4.103   3.102  0.5508 -0.4355  0.4483
 2681SOL    HW119679   0.126   4.074   3.181 -0.4657 -0.4627 -0.1562
 2681SOL    HW219680   0.249   4.140   3.145 -0.8047  0.1883  2.3244
 2682SOL     OW19681   3.548   0.410   5.163 -0.0940  0.1801  0.5601
 2682SOL    HW119682   3.590   0.428   5.248  3.0462 -2.0063 -0.5226
 2682SOL    HW219683   3.624   0.394   5.107  0.5484  2.5189  0.7805
 2683SOL     OW19684   1.128   4.170   8.076 -0.0084  0.1905 -0.3638
 2683SOL    HW119685   1.082   4.123   8.145 -1.7031  0.3276 -1.3921
 2683SOL    HW219686   1.067   4.240   8.055 -0.3805  0.0549  0.2938
 2684SOL     OW19687   1.368   0.346  16.937 -0.0043  0.5848 -0.3113
 2684SOL    HW119688   1.413   0.263  16.922 -0.9970 -0.4392  2.4394
 2684SOL    HW219689   1.444   0.395  16.968 -0.2990  0.3579  0.7571
 2685SOL     OW19690   1.924   3.794   0.175  0.1028  0.1549  1.0464
 2685SOL    HW119691   1.862   3.742   0.124  1.4102 -0.8661  0.4785
 2685SOL    HW219692   1.873   3.811   0.254  1.3072  0.4736  1.7509
 2686SOL     OW19693   3.449   2.157  12.698 -0.0917 -0.3328  0.0371
 2686SOL    HW119694   3.412   2.157  12.610 -1.4717  1.9233  0.6282
 2686SOL    HW219695   3.425   2.066  12.717 -0.7067 -0.2751 -0.4449
 2687SOL     OW19696   2.503   3.574   3.657  0.5303  0.4485 -0.5497
 2687SOL    HW119697   2.477   3.665   3.670 -2.0064 -0.2920 -0.4209
 2687SOL    HW219698   2.595   3.574   3.683  0.4387  0.1141 -0.2198
 2688SOL     OW19699   3.376   0.261   4.407 -0.9898  0.1430  0.2726
 2688SOL    HW119700   3.441   0.207   4.362 -1.9827  0.5887 -1.7196
 2688SOL    HW219701   3.308   0.197   4.429  1.8561 -2.8140  0.4958
 2689SOL     OW19702   4.148   4.605   4.684  1.0024 -0.2898 -0.0456
 2689SOL    HW119703   4.178   4.519   4.716  2.7869  0.4153  0.1905
 2689SOL    HW219704   4.082   4.575   4.622  0.4538 -3.6265  2.1120
 2690SOL     OW19705   0.711   1.671   8.112  0.0248  0.7335 -0.0887
 2690SOL    HW119706   0.793   1.666   8.161  0.6060 -0.6877 -1.2249
 2690SOL    HW219707   0.744   1.666   8.023  0.4119 -2.2273  0.1954
 2691SOL     OW19708   2.481   1.648   3.552 -0.1994 -0.1061  0.2262
 2691SOL    HW119709   2.487   1.710   3.624 -1.5027 -0.1798  0.4013
 2691SOL    HW219710   2.523   1.691   3.477 -0.4285 -0.0137  0.1483
 2692SOL     OW19711   3.055   0.209   8.334  0.0199  0.6757 -0.1308
 2692SOL    HW119712   3.082   0.286   8.283  2.0627 -0.5900 -0.9659
 2692SOL    HW219713   3.025   0.146   8.269  0.6508  0.5534 -0.3030
 2693SOL     OW19714   4.564   0.985  15.642  0.1926  0.3002 -0.2016
 2693SOL    HW119715   4.640   1.043  15.651 -1.9339  2.9089  0.9907
 2693SOL    HW219716   4.545   0.961  15.733 -0.3206  1.6329  0.0444
 2694SOL     OW19717   1.865   2.800  14.155 -0.3147  0.2105 -0.4458
 2694SOL    HW119718   1.960   2.801  14.165 -0.2532  0.3976 -1.0603
 2694SOL    HW219719   1.861   2.714  14.197 -0.0348 -1.1560 -3.2474
 2695SOL     OW19720   0.660   1.203   5.846 -0.1680 -0.5074 -0.1750
 2695SOL    HW119721   0.636   1.257   5.770  1.4583  0.1625 -0.2203
 2695SOL    HW219722   0.672   1.270   5.913  1.3970  0.8469 -1.8004
 2696SOL     OW19723   2.208   4.461   1.880 -0.7163  0.7292  0.5602
 2696SOL    HW119724   2.252   4.539   1.913  2.3324 -0.8372  0.1208
 2696SOL    HW219725   2.267   4.391   1.908 -0.5397  0.3086 -0.9068
 2697SOL     OW19726   2.866   2.820   8.712  0.1128  0.0092 -0.1537
 2697SOL    HW119727   2.911   2.794   8.792  1.1933 -4.0729 -2.1004
 2697SOL    HW219728   2.935   2.871   8.670 -0.6600  0.1928 -1.1905
 2698SOL     OW19729   0.480   0.188   6.065 -0.0905 -0.3636 -0.3813
 2698SOL    HW119730   0.540   0.139   6.009  1.1766  1.6845 -0.8537
 2698SOL    HW219731   0.456   0.251   5.997 -0.9294  0.6566  0.8553
 2699SOL     OW19732   3.327   0.423   4.089 -0.0264 -0.6354 -0.0976
 2699SOL    HW119733   3.293   0.352   4.144  2.5309 -1.6123  0.2394
 2699SOL    HW219734   3.262   0.433   4.020  1.4754 -1.9619 -1.7157
 2700SOL     OW19735   1.935   0.769   3.738 -0.2468 -0.0147  0.0399
 2700SOL    HW119736   1.953   0.831   3.809 -0.6504  1.2482 -0.9549
 2700SOL    HW219737   2.019   0.725   3.730  0.2833  0.8122  1.1400
 2701SOL     OW19738   2.573   0.724  12.913 -0.5957  0.1209 -0.3737
 2701SOL    HW119739   2.637   0.728  12.985  0.7802 -0.5458 -1.5492
 2701SOL    HW219740   2.565   0.629  12.921  1.0784  0.0174  0.0947
 2702SOL     OW19741   3.392   3.217  12.404 -0.1340  0.1650  0.2409
 2702SOL    HW119742   3.450   3.190  12.476 -2.8757 -1.1966  1.9194
 2702SOL    HW219743   3.412   3.148  12.342 -2.1777  1.1643 -1.5089
 2703SOL     OW19744   2.955   3.721  16.847 -0.3748  0.1767 -0.5021
 2703SOL    HW119745   2.927   3.636  16.813 -2.3291  1.0863 -1.1702
 2703SOL    HW219746   3.043   3.702  16.881 -1.4486 -0.6809  1.7323
 2704SOL     OW19747   1.470   2.184  11.342 -0.6228  0.9515 -0.0418
 2704SOL    HW119748   1.508   2.128  11.409 -0.0355  0.6601 -0.6230
 2704SOL    HW219749   1.432   2.115  11.287 -2.3666 -0.2034  2.6245
 2705SOL     OW19750   0.514   0.614  15.591 -0.0659 -0.1045  0.1997
 2705SOL    HW119751   0.479   0.579  15.510 -1.1149  0.5394  0.3836
 2705SOL    HW219752   0.503   0.703  15.559  1.5705 -0.5600 -1.6426
 2706SOL     OW19753   1.958   0.869   8.953 -0.5419 -0.3036 -0.0121
 2706SOL    HW119754   1.957   0.773   8.959 -2.2308 -0.3809 -1.8994
 2706SOL    HW219755   2.016   0.889   8.880  0.9686 -3.7433  0.2003
 2707SOL     OW19756   4.251   1.400  11.535  0.1454  0.1908 -0.0169
 2707SOL    HW119757   4.205   1.417  11.453 -0.2648  2.6630  0.7183
 2707SOL    HW219758   4.326   1.459  11.536  1.0697 -0.9863 -0.7035
 2708SOL     OW19759   4.630   2.259   2.250 -0.3597  0.8629  0.2806
 2708SOL    HW119760   4.622   2.296   2.162 -1.5800 -0.6633 -0.2480
 2708SOL    HW219761   4.597   2.170   2.241 -0.9958  0.9947  1.2259
 2709SOL     OW19762   3.068   3.519   6.576  0.2318  0.0361 -0.5972
 2709SOL    HW119763   3.087   3.479   6.491 -1.2173 -2.8013  0.4086
 2709SOL    HW219764   3.073   3.442   6.632  0.1302 -0.4906 -1.2992
 2710SOL     OW19765   0.178   0.227   8.025 -0.1156 -0.1387 -0.0576
 2710SOL    HW119766   0.219   0.236   7.939  0.8926 -0.6491  0.3635
 2710SOL    HW219767   0.249   0.222   8.089  0.3103  2.7360 -0.3141
 2711SOL     OW19768   4.642   1.378   8.505  0.2883 -0.0901  0.0977
 2711SOL    HW119769   4.719   1.334   8.470  0.1342  0.8649 -1.3990
 2711SOL    HW219770   4.610   1.409   8.421  0.0092 -1.9320 -0.4925
 2712SOL     OW19771   4.604   1.496   6.758  0.2702  0.7669  0.1137
 2712SOL    HW119772   4.676   1.473   6.817 -0.8695 -1.9331  0.4754
 2712SOL    HW219773   4.588   1.412   6.715 -0.7722  0.5176  0.9912
 2713SOL     OW19774   0.389   4.249   6.336  0.2360 -0.1526 -0.0256
 2713SOL    HW119775   0.350   4.277   6.419 -0.1282 -0.5198 -0.0733
 2713SOL    HW219776   0.382   4.155   6.352 -0.2880  0.2208  1.9343
 2714SOL     OW19777   2.728   3.722  10.903 -0.1665 -0.0402  0.0934
 2714SOL    HW119778   2.776   3.671  10.837 -1.7990  1.3891 -2.1980
 2714SOL    HW219779   2.771   3.700  10.985 -1.1070 -0.2398  0.5351
 2715SOL     OW19780   4.175   1.932   7.301  0.7672 -0.8890 -0.2455
 2715SOL    HW119781   4.246   1.870   7.316  1.6244  0.4367  1.0702
 2715SOL    HW219782   4.211   1.982   7.228  1.3182 -1.2667 -0.2282
 2716SOL     OW19783   4.032   4.560   2.995  0.0121  0.2483  0.1070
 2716SOL    HW119784   4.094   4.596   3.059  0.4138  0.8710 -0.6256
 2716SOL    HW219785   3.951   4.566   3.046  1.8925  2.0853  2.9001
 2717SOL     OW19786   4.113   4.071   9.095  0.0394 -0.2408 -0.6330
 2717SOL    HW119787   4.064   3.995   9.064 -0.0389 -0.3043 -0.3542
 2717SOL    HW219788   4.042   4.135   9.104  1.1301  1.0592 -1.2518
 2718SOL     OW19789   3.563   3.470   1.179 -0.5590 -0.1292 -0.2074
 2718SOL    HW119790   3.614   3.436   1.105  0.9042 -0.4335  0.9576
 2718SOL    HW219791   3.528   3.387   1.213  2.0764 -1.2140 -0.1479
 2719SOL     OW19792   1.577   4.387   9.335 -0.0727  0.0902  0.0485
 2719SOL    HW119793   1.621   4.466   9.303 -0.7478  0.5668  0.3072
 2719SOL    HW219794   1.593   4.386   9.430 -0.7293  0.3892  0.1648
 2720SOL     OW19795   3.811   4.493  14.480 -0.1437 -0.1092  0.4873
 2720SOL    HW119796   3.855   4.443  14.411  0.1386 -0.1914  0.7252
 2720SOL    HW219797   3.885   4.551  14.496  0.2528 -0.0952 -1.4301
 2721SOL     OW19798   4.459   0.300   2.114  0.1356  0.9320 -0.2760
 2721SOL    HW119799   4.484   0.247   2.038  0.1859  1.1015 -0.3764
 2721SOL    HW219800   4.513   0.260   2.182 -2.6735 -0.3959  1.1694
 2722SOL     OW19801   1.074   4.106   2.323 -0.1083  0.1865 -0.2601
 2722SOL    HW119802   1.066   4.151   2.407 -0.8277 -0.3899 -0.0165
 2722SOL    HW219803   1.091   4.018   2.355  0.2014  0.4085  0.1827
 2723SOL     OW19804   1.557   3.742   0.972 -0.1308 -0.4130  0.4283
 2723SOL    HW119805   1.463   3.760   0.977 -0.0585 -0.4144  1.8862
 2723SOL    HW219806   1.593   3.786   1.049 -1.3147 -0.5441  1.0608
 2724SOL     OW19807   2.722   3.096   6.278 -0.3337 -0.2049 -0.3375
 2724SOL    HW119808   2.738   3.141   6.361  1.8615 -1.1532 -0.2330
 2724SOL    HW219809   2.813   3.077   6.255 -0.1566  0.6958 -0.4117
 2725SOL     OW19810   1.495   3.513  11.239 -0.0751  0.5132 -0.2133
 2725SOL    HW119811   1.462   3.531  11.327 -1.6784  0.6058 -0.8418
 2725SOL    HW219812   1.412   3.489  11.198 -0.9544  2.0334  0.6276
 2726SOL     OW19813   4.100   1.926   8.114 -0.1688 -0.4474  0.0884
 2726SOL    HW119814   4.060   1.996   8.062 -2.0874 -0.5698  1.4414
 2726SOL    HW219815   4.164   1.969   8.172 -1.4966 -0.4163  1.5108
 2727SOL     OW19816   4.304   4.633   3.979  0.1788  0.8329 -0.2043
 2727SOL    HW119817   4.220   4.677   3.970 -0.2981 -0.0203  0.0565
 2727SOL    HW219818   4.314   4.642   4.074  2.5599  0.1387 -0.3803
 2728SOL     OW19819   4.433   3.876   4.047 -0.2937  0.1104  0.2346
 2728SOL    HW119820   4.500   3.903   4.109  0.2323 -1.3841  0.3150
 2728SOL    HW219821   4.360   3.847   4.102 -1.1327  1.1758 -0.3116
 2729SOL     OW19822   1.915   3.982  11.723  0.0318 -0.2753  0.4734
 2729SOL    HW119823   1.950   3.911  11.669 -0.8045  2.3785 -3.5838
 2729SOL    HW219824   1.835   3.941  11.755 -0.7243 -1.0501 -2.4316
 2730SOL     OW19825   3.761   3.645   7.995  0.3010 -0.0830 -0.4904
 2730SOL    HW119826   3.677   3.658   7.952  0.2486 -1.0409 -0.6767
 2730SOL    HW219827   3.814   3.583   7.945  0.6615 -0.0962 -0.0901
 2731SOL     OW19828   3.434   4.358   6.260  0.7157  0.7169  0.2149
 2731SOL    HW119829   3.438   4.272   6.219  2.3050  1.5391 -1.3616
 2731SOL    HW219830   3.425   4.333   6.352  3.3360 -1.1421 -0.0515
 2732SOL     OW19831   3.498   2.647   8.070 -0.3005 -0.3299 -0.2085
 2732SOL    HW119832   3.425   2.663   8.011 -0.3559  0.2451  0.0151
 2732SOL    HW219833   3.479   2.561   8.108  2.7177 -0.5858  0.7425
 2733SOL     OW19834   0.621   3.348   9.185  0.1350  0.1246  0.2556
 2733SOL    HW119835   0.593   3.419   9.243  2.0256 -0.0108  1.3173
 2733SOL    HW219836   0.641   3.278   9.247 -1.4894 -1.0651 -0.5541
 2734SOL     OW19837   0.630   2.790  10.859 -0.5753 -0.2810 -0.0431
 2734SOL    HW119838   0.725   2.802  10.862 -0.4656 -0.6619 -2.1953
 2734SOL    HW219839   0.608   2.817  10.770  0.9127  0.2386 -0.2558
 2735SOL     OW19840   3.996   3.931   5.117  0.3362 -0.3934 -0.2639
 2735SOL    HW119841   3.932   4.000   5.132  3.6254  2.7561 -0.7698
 2735SOL    HW219842   4.073   3.978   5.086 -0.3748  1.1753  0.3846
 2736SOL     OW19843   3.225   4.447   3.070 -0.0560 -0.4588 -0.5088
 2736SOL    HW119844   3.262   4.413   2.988  1.0602  0.8621 -0.5384
 2736SOL    HW219845   3.239   4.539   3.048  1.7279 -0.3837  0.9556
 2737SOL     OW19846   2.976   2.386   4.623 -0.4733  0.7143  0.1606
 2737SOL    HW119847   2.956   2.445   4.551  0.0762  0.3804 -0.2659
 2737SOL    HW219848   2.974   2.306   4.570  2.3350  0.5576  0.2873
 2738SOL     OW19849   1.354   0.699   1.972  0.5379 -0.0243  0.3337
 2738SOL    HW119850   1.447   0.701   1.992  0.5919 -0.3938  0.1150
 2738SOL    HW219851   1.358   0.775   1.914 -0.3113  0.0196  0.3238
 2739SOL     OW19852   4.456   0.146  13.303  0.0095 -0.1014 -0.3073
 2739SOL    HW119853   4.425   0.066  13.262 -0.6798  0.2355 -0.4504
 2739SOL    HW219854   4.427   0.209  13.237  1.2336  0.6919 -0.0968
 2740SOL     OW19855   3.879   3.396   2.790 -0.9697  0.0272  0.1996
 2740SOL    HW119856   3.825   3.322   2.764 -0.5882  0.8121 -2.7672
 2740SOL    HW219857   3.819   3.463   2.756 -0.6900 -0.2413 -0.8191
 2741SOL     OW19858   2.361   2.475   2.578  0.4147 -0.3550  0.4575
 2741SOL    HW119859   2.343   2.394   2.626  1.5354  0.1829  1.7952
 2741SOL    HW219860   2.439   2.495   2.630  0.4882 -1.8679  0.9481
 2742SOL     OW19861   0.908   2.618  12.828  0.8137 -0.3992 -0.0217
 2742SOL    HW119862   0.868   2.632  12.913  1.6030 -0.0632  0.2988
 2742SOL    HW219863   0.833   2.618  12.769  0.3054  0.2059  0.6442
 2743SOL     OW19864   1.264   2.908   9.005  0.2746 -0.0941 -0.2639
 2743SOL    HW119865   1.199   2.843   8.978 -1.5424  1.1691  1.0535
 2743SOL    HW219866   1.301   2.920   8.918 -1.0313  0.2451 -0.7760
 2744SOL     OW19867   4.024   1.987   5.611 -0.1225 -0.1660  0.1824
 2744SOL    HW119868   4.023   1.965   5.704 -1.1049 -1.1162 -0.0492
 2744SOL    HW219869   4.013   2.082   5.615  2.7748  0.1297  0.7509
 2745SOL     OW19870   3.450   0.310  15.542  0.3954 -0.1299 -0.2467
 2745SOL    HW119871   3.442   0.272  15.454 -2.3524  2.3862 -1.0892
 2745SOL    HW219872   3.423   0.402  15.538 -0.1997 -0.2721  0.4744
 2746SOL     OW19873   1.791   0.223   7.057  0.4445 -0.0158  0.7522
 2746SOL    HW119874   1.799   0.185   6.969  0.5956  1.9215 -0.0533
 2746SOL    HW219875   1.844   0.165   7.112 -0.2732  0.8307  2.3297
 2747SOL     OW19876   1.558   0.974   6.610 -0.2241 -0.0984  0.3895
 2747SOL    HW119877   1.556   1.064   6.577  1.2943  0.2762  1.3208
 2747SOL    HW219878   1.528   0.918   6.538  0.9015  0.1719 -0.2861
 2748SOL     OW19879   4.316   1.116   4.620  0.2196 -0.1255 -0.5492
 2748SOL    HW119880   4.393   1.084   4.668  1.0114  0.6733 -1.2665
 2748SOL    HW219881   4.355   1.138   4.535 -3.3770 -0.0190 -2.1376
 2749SOL     OW19882   4.520   0.818   2.198  0.3422  0.0146 -0.1457
 2749SOL    HW119883   4.537   0.839   2.290 -1.2738  1.5191 -0.1879
 2749SOL    HW219884   4.532   0.908   2.169 -1.1035  0.0523 -0.5990
 2750SOL     OW19885   2.026   1.866   1.988  0.1057 -0.4402 -0.2711
 2750SOL    HW119886   1.978   1.883   1.907  1.2215 -1.1052 -1.0697
 2750SOL    HW219887   2.067   1.780   1.976 -1.5286 -1.1801 -0.5868
 2751SOL     OW19888   4.181   1.035   8.862  0.5017  0.5638 -0.5862
 2751SOL    HW119889   4.159   1.091   8.937 -0.7994 -0.8114  0.0516
 2751SOL    HW219890   4.276   1.029   8.868  0.3476 -0.6693  0.6892
 2752SOL     OW19891   1.849   1.422  10.063 -0.3309  0.4549  0.4463
 2752SOL    HW119892   1.899   1.383  10.135  1.2741  1.1470 -0.2836
 2752SOL    HW219893   1.798   1.350  10.027 -0.2960  1.4158 -1.5319
 2753SOL     OW19894   1.217   2.259   8.769  0.3213 -0.1745  0.2081
 2753SOL    HW119895   1.128   2.276   8.739  0.4078 -0.4144 -0.1827
 2753SOL    HW219896   1.263   2.328   8.721  1.8861 -0.4096  1.3532
 2754SOL     OW19897   0.093   3.318   8.357  0.1352  0.9960 -0.3269
 2754SOL    HW119898   0.138   3.252   8.409 -1.1623 -0.6456 -1.3026
 2754SOL    HW219899   0.131   3.297   8.272 -1.4144 -2.0757 -0.2560
 2755SOL     OW19900   0.378   2.107   4.231 -0.0585 -0.2043 -0.0302
 2755SOL    HW119901   0.348   2.018   4.249  1.9625 -1.5922 -3.5533
 2755SOL    HW219902   0.459   2.099   4.181  0.9524 -0.9918  1.7444
 2756SOL     OW19903   1.662   2.739   8.182 -0.3143  0.4379  0.3135
 2756SOL    HW119904   1.700   2.815   8.225 -2.5639  1.6079  0.2484
 2756SOL    HW219905   1.660   2.775   8.093 -0.7707  2.2547  1.0709
 2757SOL     OW19906   2.092   4.355   5.284 -0.3850 -0.8666 -0.3836
 2757SOL    HW119907   2.036   4.396   5.350 -1.1002 -1.1500 -0.8070
 2757SOL    HW219908   2.157   4.318   5.344  1.8923  1.1671 -1.6443
 2758SOL     OW19909   2.556   4.586  13.003  0.6438  0.2162 -0.1279
 2758SOL    HW119910   2.582   4.677  13.019 -1.9838  1.0848 -0.7632
 2758SOL    HW219911   2.509   4.561  13.082  1.4237 -1.3364 -0.1617
 2759SOL     OW19912   1.220   1.244  17.494 -0.1055 -0.2790 -0.1907
 2759SOL    HW119913   1.212   1.198  17.411 -1.6719  0.4635 -0.4545
 2759SOL    HW219914   1.175   1.327  17.476  1.3314  0.7918  1.0741
 2760SOL     OW19915   0.489   0.564  17.384  0.0041  0.3522 -0.4357
 2760SOL    HW119916   0.555   0.580  17.316 -0.9970 -0.8117 -1.6865
 2760SOL    HW219917   0.439   0.644  17.367  0.3292  0.9007  1.2190
 2761SOL     OW19918   0.226   2.442   8.868 -0.0944  0.4922 -0.2120
 2761SOL    HW119919   0.212   2.470   8.959  1.3545  0.3631  0.0481
 2761SOL    HW219920   0.308   2.394   8.881  1.3586  2.9353 -0.3144
 2762SOL     OW19921   2.128   2.025   2.970 -0.5813 -0.3988 -0.2560
 2762SOL    HW119922   2.105   1.964   3.040  1.6180 -2.2829 -1.1832
 2762SOL    HW219923   2.070   1.988   2.904 -0.6998  1.8692 -1.4257
 2763SOL     OW19924   3.766   2.842  16.435 -0.1046 -0.7999  0.4736
 2763SOL    HW119925   3.771   2.864  16.342 -2.4215 -1.4084  0.1848
 2763SOL    HW219926   3.672   2.853  16.449 -0.4626 -2.0919 -0.9714
 2764SOL     OW19927   2.357   2.821   5.612 -0.0768  0.0626 -0.1260
 2764SOL    HW119928   2.334   2.752   5.549  1.0793 -2.2768  2.0106
 2764SOL    HW219929   2.449   2.812   5.636 -0.5285 -3.5243  0.2393
 2765SOL     OW19930   0.178   1.355  11.231  0.4527 -0.1661 -0.4246
 2765SOL    HW119931   0.172   1.320  11.142  1.8349 -3.2337  0.7033
 2765SOL    HW219932   0.198   1.272  11.274 -2.4653 -1.4233 -1.4198
 2766SOL     OW19933   0.573   3.767   3.591  0.5165  0.1275  0.3916
 2766SOL    HW119934   0.488   3.732   3.617  1.4142 -2.4700 -0.1712
 2766SOL    HW219935   0.570   3.761   3.496  1.8133 -0.0020  0.3483
 2767SOL     OW19936   2.003   2.525   8.805 -0.3059  0.3242 -0.3521
 2767SOL    HW119937   2.078   2.584   8.809  1.9286 -2.5898  1.4916
 2767SOL    HW219938   1.959   2.552   8.725  0.3974 -0.5765 -1.0538
 2768SOL     OW19939   3.580   0.991   0.970 -0.1830  0.3374  0.1259
 2768SOL    HW119940   3.531   0.955   0.896  0.6080  1.7281 -1.0644
 2768SOL    HW219941   3.654   1.029   0.924  0.3502 -0.1898  0.5418
 2769SOL     OW19942   4.708   2.805   1.619 -0.5625 -0.0704  0.2445
 2769SOL    HW119943   0.019   2.742   1.565 -2.7696  0.0615 -1.7977
 2769SOL    HW219944   4.616   2.790   1.599 -0.0623 -1.9562 -0.6058
 2770SOL     OW19945   1.318   1.133   8.238  0.0418 -0.0243 -0.0567
 2770SOL    HW119946   1.374   1.061   8.268 -0.6083 -0.5249 -0.0533
 2770SOL    HW219947   1.360   1.206   8.283 -2.8969  0.8652  1.2051
 2771SOL     OW19948   2.959   0.264   5.359  0.0876 -0.0163  0.5057
 2771SOL    HW119949   3.029   0.249   5.296 -0.6724  0.7401 -0.5058
 2771SOL    HW219950   2.964   0.185   5.413 -1.3591 -1.4552 -1.4797
 2772SOL     OW19951   0.688   0.657   4.340 -0.3285  0.2232 -1.0465
 2772SOL    HW119952   0.651   0.722   4.400  1.0372 -1.7684  1.9449
 2772SOL    HW219953   0.774   0.640   4.377 -0.4979 -0.9179 -1.1610
 2773SOL     OW19954   1.626   4.070   3.495 -0.6091 -0.5251 -0.0288
 2773SOL    HW119955   1.686   4.016   3.444 -0.2085  0.9541 -1.1034
 2773SOL    HW219956   1.556   4.080   3.430  0.1498  1.4593 -0.5351
 2774SOL     OW19957   1.027   1.607   5.713 -0.0351  0.3598  0.6116
 2774SOL    HW119958   0.987   1.646   5.791 -0.6111  0.0889  0.4556
 2774SOL    HW219959   0.949   1.574   5.668  0.9362 -3.7996  1.9732
 2775SOL     OW19960   0.798   0.804   5.384  0.6930 -0.1610 -0.7620
 2775SOL    HW119961   0.807   0.894   5.415 -1.0555  0.3980 -1.8883
 2775SOL    HW219962   0.837   0.810   5.296  1.7642 -0.0642 -0.2747
 2776SOL     OW19963   1.308   2.314   6.122  0.0142 -0.4072 -0.0550
 2776SOL    HW119964   1.377   2.313   6.056  1.0663  0.4608  1.0314
 2776SOL    HW219965   1.265   2.230   6.106 -0.2742 -0.7793  2.5916
 2777SOL     OW19966   3.067   4.113   3.954  1.0389  0.9635 -0.2050
 2777SOL    HW119967   2.985   4.092   3.999  0.3126  0.8514 -1.5957
 2777SOL    HW219968   3.073   4.208   3.958  1.3172  0.9966 -1.6348
 2778SOL     OW19969   4.079   4.533   2.716 -0.9524 -0.1950  0.0262
 2778SOL    HW119970   4.026   4.458   2.689 -1.1027 -0.2076  0.3571
 2778SOL    HW219971   4.048   4.543   2.806 -0.5720  2.2797 -0.1201
 2779SOL     OW19972   0.143   4.295  10.700 -0.7392  0.4102  0.2932
 2779SOL    HW119973   0.208   4.232  10.728 -0.9742  0.2716  0.5300
 2779SOL    HW219974   0.080   4.304  10.772  1.1396 -2.4143  2.2637
 2780SOL     OW19975   1.078   4.203   5.622 -0.2881 -0.1862 -0.5850
 2780SOL    HW119976   1.065   4.108   5.631  0.3710  0.0185  2.2607
 2780SOL    HW219977   1.100   4.233   5.710 -0.7196  1.6493 -1.1034
 2781SOL     OW19978   4.526   1.071  16.066  0.6460 -0.1238 -0.2965
 2781SOL    HW119979   4.602   1.100  16.016  1.4146 -1.1166  0.2840
 2781SOL    HW219980   4.492   1.003  16.007  2.2209 -1.5736  0.4529
 2782SOL     OW19981   2.820   4.497   7.601  0.2800  0.9081  0.1177
 2782SOL    HW119982   2.769   4.464   7.676  0.5409  0.8923  0.2887
 2782SOL    HW219983   2.811   4.589   7.627 -2.0928  0.2218  1.7755
 2783SOL     OW19984   0.519   4.559   4.195  0.2735  0.0818  0.3139
 2783SOL    HW119985   0.431   4.546   4.159 -0.2083  1.5322  0.9626
 2783SOL    HW219986   0.559   4.474   4.175 -1.0218 -0.4647  0.0282
 2784SOL     OW19987   2.580   0.489   5.509 -0.3382 -0.0010 -0.4645
 2784SOL    HW119988   2.619   0.573   5.534 -2.5574  0.9387 -0.1455
 2784SOL    HW219989   2.637   0.456   5.440  0.0100 -1.7020  0.6277
 2785SOL     OW19990   4.294   0.276   4.065  0.3223  0.0541 -0.3730
 2785SOL    HW119991   4.265   0.184   4.058 -3.0354  1.0140  0.7708
 2785SOL    HW219992   4.225   0.317   4.012  1.3362  2.5866  0.3251
 2786SOL     OW19993   0.753   2.186   9.148 -0.0247  0.2326 -0.5100
 2786SOL    HW119994   0.795   2.181   9.234  1.3874 -2.5079 -1.3610
 2786SOL    HW219995   0.667   2.214   9.178 -0.4781  0.2476 -1.8257
 2787SOL     OW19996   3.073   0.005  13.169  0.1962  0.3452 -0.3355
 2787SOL    HW119997   3.094   0.029  13.079 -1.6457  3.5516  0.1193
 2787SOL    HW219998   3.163   0.001  13.200  0.3155  0.9045 -0.6180
 2788SOL     OW19999   3.165   0.556   0.674  0.1456 -0.0744  0.1702
 2788SOL    HW120000   3.132   0.628   0.621 -1.6201  0.1070  1.4923
 2788SOL    HW220001   3.257   0.582   0.685  0.1253  0.6884 -1.5620
 2789SOL     OW20002   3.270   2.551  16.013  0.5612 -0.3191 -0.0767
 2789SOL    HW120003   3.350   2.604  16.010  2.7722 -3.6911  0.0650
 2789SOL    HW220004   3.243   2.570  15.923 -0.0297  0.6183  0.3035
 2790SOL     OW20005   1.276   2.911   0.101  0.2614  0.1988 -0.4257
 2790SOL    HW120006   1.249   2.935   0.190 -1.4706  2.8432 -1.6431
 2790SOL    HW220007   1.198   2.863   0.073  1.7604 -1.2051 -2.1323
 2791SOL     OW20008   3.206   4.371   4.277  0.2406  0.1264 -0.4209
 2791SOL    HW120009   3.188   4.421   4.198  1.2631  1.3517  0.1304
 2791SOL    HW220010   3.123   4.327   4.296 -0.3046  1.9630  1.4289
 2792SOL     OW20011   1.138   0.047  16.352  0.1415 -0.3565  0.2280
 2792SOL    HW120012   1.125   0.092  16.268 -2.9107 -1.1918  0.2792
 2792SOL    HW220013   1.079   4.708  16.342  0.2668 -0.5077  0.6290
 2793SOL     OW20014   0.253   3.761   6.975  0.2954  0.1843 -0.5786
 2793SOL    HW120015   0.341   3.777   6.940  0.0364  0.1764 -1.2470
 2793SOL    HW220016   0.241   3.827   7.042  2.5874  0.6481 -0.6193
 2794SOL     OW20017   1.020   2.553   9.450 -0.0405 -0.1780 -0.3036
 2794SOL    HW120018   1.094   2.544   9.510  0.6224  0.5624 -0.9999
 2794SOL    HW220019   0.963   2.477   9.465 -2.1601  1.0441 -2.2100
 2795SOL     OW20020   0.233   4.362   2.186  0.7094  0.1279  0.1706
 2795SOL    HW120021   0.144   4.326   2.181 -0.3612  2.5466  1.8662
 2795SOL    HW220022   0.282   4.287   2.153 -0.4649 -0.0722 -1.1173
 2796SOL     OW20023   0.498   3.434   3.790 -0.2857 -0.4655  0.2873
 2796SOL    HW120024   0.561   3.485   3.740  1.2295 -2.1002  0.5508
 2796SOL    HW220025   0.463   3.387   3.714 -1.5784  2.5129 -1.0088
 2797SOL     OW20026   4.039   2.074   6.700  0.2066  0.6865  0.3104
 2797SOL    HW120027   4.100   2.139   6.666  0.6101 -0.4001 -1.0413
 2797SOL    HW220028   4.022   2.021   6.622  1.4416 -0.9042  1.1255
 2798SOL     OW20029   0.361   1.962   5.443 -0.2430  0.2510 -0.2030
 2798SOL    HW120030   0.384   1.874   5.474 -0.8548 -0.0788 -0.6750
 2798SOL    HW220031   0.360   2.005   5.528 -1.6213  1.3266 -0.7684
 2799SOL     OW20032   4.217   0.263   5.206 -0.0602 -0.2091  0.7181
 2799SOL    HW120033   4.141   0.241   5.152  1.2196  0.0600 -1.1789
 2799SOL    HW220034   4.199   0.210   5.284  0.1165  1.1171  1.6512
 2800SOL     OW20035   2.281   2.943   2.432 -0.1145  0.0302 -0.0388
 2800SOL    HW120036   2.229   3.018   2.402  0.1750  0.4959  0.6470
 2800SOL    HW220037   2.353   2.934   2.370  0.5079  0.4728  0.6312
 2801SOL     OW20038   3.647   3.266   3.718 -0.0498 -0.2297  0.5902
 2801SOL    HW120039   3.567   3.310   3.746  1.4254  1.8610  1.6085
 2801SOL    HW220040   3.695   3.335   3.673 -1.1128  1.0928  1.4900
 2802SOL     OW20041   3.304   4.579   8.442 -0.5041  0.4308  0.5508
 2802SOL    HW120042   3.286   4.666   8.477  1.5064  0.7296  0.8808
 2802SOL    HW220043   3.321   4.525   8.520 -2.8343 -0.0523  0.7173
 2803SOL     OW20044   3.906   1.763   3.207  0.6634 -0.3863  0.1533
 2803SOL    HW120045   3.910   1.820   3.284 -0.7874 -0.2745  0.1598
 2803SOL    HW220046   3.931   1.823   3.138 -0.1527 -2.6810 -2.1534
 2804SOL     OW20047   1.697   0.338   5.117  0.0120 -0.2025  0.5497
 2804SOL    HW120048   1.707   0.244   5.103 -0.1331  0.0776 -1.4494
 2804SOL    HW220049   1.784   0.358   5.150 -0.9196  1.0362  2.3046
 2805SOL     OW20050   4.136   0.447   6.709  0.7591  0.3934 -0.2730
 2805SOL    HW120051   4.081   0.449   6.631 -0.1723  5.4032  0.4981
 2805SOL    HW220052   4.173   0.359   6.706 -0.0285  0.0802 -0.6982
 2806SOL     OW20053   0.325   0.855   9.432 -0.2868  0.3877  0.0991
 2806SOL    HW120054   0.402   0.911   9.429 -0.8168  1.1348  0.5600
 2806SOL    HW220055   0.260   0.916   9.396  1.9679  3.3869  1.1396
 2807SOL     OW20056   0.218   0.943   7.500  0.7091  0.1611  1.0592
 2807SOL    HW120057   0.189   0.950   7.591 -1.8174 -0.3471  0.2888
 2807SOL    HW220058   0.312   0.931   7.518  0.5188 -2.5008  0.1688
 2808SOL     OW20059   4.300   2.669   7.065 -0.3528 -0.1620 -0.7234
 2808SOL    HW120060   4.255   2.646   7.146 -1.0479 -1.3168 -1.4437
 2808SOL    HW220061   4.335   2.583   7.043 -2.4991 -0.7811 -1.6986
 2809SOL     OW20062   0.438   1.091   4.663  0.4203 -0.3341 -0.5528
 2809SOL    HW120063   0.472   1.021   4.606  0.0452 -0.6739 -0.3592
 2809SOL    HW220064   0.378   1.043   4.719  2.1784  1.2398  2.6559
 2810SOL     OW20065   2.430   0.803   8.306 -0.0892  0.3542 -0.8959
 2810SOL    HW120066   2.461   0.796   8.215  1.3230 -0.1931 -0.3745
 2810SOL    HW220067   2.336   0.799   8.289 -0.1659 -1.6646  0.0353
 2811SOL     OW20068   2.384   2.452   5.804  0.0537  0.1603 -0.4122
 2811SOL    HW120069   2.363   2.484   5.892 -0.4714 -4.2648  1.0856
 2811SOL    HW220070   2.404   2.360   5.820  2.5938  0.6088 -0.9999
 2812SOL     OW20071   1.240   2.152  17.637  0.7096  0.0957 -0.0691
 2812SOL    HW120072   1.251   2.067  17.679 -1.7429 -0.0807  0.2254
 2812SOL    HW220073   1.227   2.117  17.549 -1.0060  2.3199 -0.7248
 2813SOL     OW20074   3.503   3.124   3.151  0.5374  0.3358  0.0301
 2813SOL    HW120075   3.493   3.067   3.075  1.2811 -2.1606  1.8111
 2813SOL    HW220076   3.444   3.194   3.121  1.4257  1.3405  0.6478
 2814SOL     OW20077   3.901   1.233   9.204  0.0603 -0.1290 -0.0800
 2814SOL    HW120078   3.980   1.204   9.159 -0.0235 -3.6071  2.0334
 2814SOL    HW220079   3.839   1.163   9.187  1.3936 -1.1920 -0.4780
 2815SOL     OW20080   0.344   3.229  11.490 -0.1680  0.1513 -0.5429
 2815SOL    HW120081   0.316   3.299  11.432  0.3919  1.4502  0.7616
 2815SOL    HW220082   0.283   3.243  11.562  0.9412  0.7370  0.2931
 2816SOL     OW20083   3.972   3.239   4.020 -0.5060  0.2411  0.5823
 2816SOL    HW120084   3.920   3.282   4.089 -3.0433 -1.4971 -0.2365
 2816SOL    HW220085   3.897   3.191   3.985 -1.3517  0.1021  2.5642
 2817SOL     OW20086   2.825   0.619  16.458 -0.2387  0.1323 -0.6106
 2817SOL    HW120087   2.825   0.626  16.554  0.1031 -0.2247 -0.5859
 2817SOL    HW220088   2.811   0.525  16.448  2.1983 -0.3760  0.7837
 2818SOL     OW20089   2.091   3.721   2.846 -0.2547 -0.0577  0.0027
 2818SOL    HW120090   2.177   3.702   2.809  0.6411  1.5381  1.2835
 2818SOL    HW220091   2.038   3.723   2.766 -0.2378 -0.7546 -0.0255
 2819SOL     OW20092   3.281   3.417   7.320  0.2878 -0.2747 -0.8680
 2819SOL    HW120093   3.230   3.475   7.376 -0.9887 -1.0227 -1.2539
 2819SOL    HW220094   3.222   3.355   7.276  2.5871 -2.3489 -1.0125
 2820SOL     OW20095   2.162   1.925   3.482 -0.8504  0.1961 -0.1470
 2820SOL    HW120096   2.246   1.935   3.438 -1.4414 -0.0730 -1.3215
 2820SOL    HW220097   2.114   1.858   3.433  0.4092 -2.0710  1.6678
 2821SOL     OW20098   4.178   2.063   0.450  0.8319 -0.1243 -0.1999
 2821SOL    HW120099   4.106   2.050   0.513 -0.7562  2.8245 -1.3896
 2821SOL    HW220100   4.135   2.115   0.382 -1.0335 -0.0881  1.0103
 2822SOL     OW20101   3.388   3.409   5.430  0.2999  0.0192 -0.1338
 2822SOL    HW120102   3.298   3.417   5.462  0.7170 -1.7540  1.5072
 2822SOL    HW220103   3.413   3.496   5.461  1.1616  0.0505 -0.9089
 2823SOL     OW20104   4.644   3.254   6.394  0.6572  0.1280 -0.0250
 2823SOL    HW120105   4.645   3.187   6.463  0.0781  1.5853  1.4221
 2823SOL    HW220106   4.731   3.255   6.354  0.2287 -0.6336 -0.9577
 2824SOL     OW20107   2.005   0.010  10.596 -0.0364 -0.3962  0.6587
 2824SOL    HW120108   1.982   0.040  10.508 -2.0682  0.9584  1.6486
 2824SOL    HW220109   2.100   0.026  10.594 -0.6007  2.8127 -0.6743
 2825SOL     OW20110   0.481   2.524   3.638  0.0796  0.0001  0.1491
 2825SOL    HW120111   0.559   2.473   3.614 -0.4363 -0.0080 -1.4827
 2825SOL    HW220112   0.416   2.477   3.586  1.2061  0.0901 -1.3533
 2826SOL     OW20113   4.524   3.841   6.390  0.1731 -0.1295  0.0312
 2826SOL    HW120114   4.508   3.834   6.296 -0.5766  1.1971  0.0580
 2826SOL    HW220115   4.434   3.840   6.422 -0.2826 -0.6196 -1.2734
 2827SOL     OW20116   0.334   3.948   5.134 -0.3181 -0.1872 -0.0435
 2827SOL    HW120117   0.292   3.979   5.214  0.5543 -1.0157  0.7421
 2827SOL    HW220118   0.403   4.013   5.118  0.7000 -0.9962  1.0344
 2828SOL     OW20119   2.278   0.176  12.599 -0.0455  0.1317  0.2857
 2828SOL    HW120120   2.363   0.156  12.638  1.1284  1.9604 -1.3830
 2828SOL    HW220121   2.223   0.173  12.678 -0.7620 -2.0315 -0.2880
 2829SOL     OW20122   1.777   2.380  10.960  0.1311  0.1266 -0.4582
 2829SOL    HW120123   1.702   2.350  10.908  0.9256  2.0235 -2.7299
 2829SOL    HW220124   1.843   2.311  10.958  0.0746  0.0845 -0.8740
 2830SOL     OW20125   2.332   4.702   8.074  0.2093 -0.4462 -0.4311
 2830SOL    HW120126   2.306   4.614   8.046 -1.5829  0.1522 -0.6983
 2830SOL    HW220127   2.318   4.694   8.168  1.4236  0.5528 -0.1660
 2831SOL     OW20128   3.014   2.291   9.858 -0.0749  0.0233  0.0691
 2831SOL    HW120129   2.993   2.231   9.930 -2.8693  1.2955  0.2968
 2831SOL    HW220130   2.926   2.293   9.822 -0.1279  1.2505  0.3010
 2832SOL     OW20131   0.328   3.474  11.330  0.5107 -0.3774  0.8860
 2832SOL    HW120132   0.303   3.555  11.374 -1.1341  0.8381 -2.3121
 2832SOL    HW220133   0.421   3.471  11.353  0.5159 -2.7892  0.5379
 2833SOL     OW20134   4.038   4.728   6.870  0.3786 -0.0017 -0.4201
 2833SOL    HW120135   4.066   4.712   6.780 -3.1591  1.6905 -1.8262
 2833SOL    HW220136   4.098   0.060   6.900 -0.7817  1.3255 -1.1756
 2834SOL     OW20137   1.539   4.480  12.951 -0.1134 -0.6579 -0.1325
 2834SOL    HW120138   1.513   4.475  12.859  0.5125 -1.0047 -0.2924
 2834SOL    HW220139   1.470   4.434  12.998 -0.5844 -1.6324 -1.7816
 2835SOL     OW20140   0.283   2.012   7.203  0.3323  0.5141 -0.2044
 2835SOL    HW120141   0.201   2.017   7.252 -0.6056 -1.0621 -1.6101
 2835SOL    HW220142   0.322   2.098   7.216 -1.1666  1.1679 -0.1067
 2836SOL     OW20143   1.189   0.419   7.749  0.6068 -0.5274 -0.2597
 2836SOL    HW120144   1.196   0.339   7.697 -0.3094 -0.1785 -0.9019
 2836SOL    HW220145   1.164   0.392   7.838 -3.1241 -0.3922 -1.2713
 2837SOL     OW20146   1.029   0.626  12.741 -0.0397  0.0937 -0.1267
 2837SOL    HW120147   1.004   0.712  12.707  2.1054  1.1476  0.9609
 2837SOL    HW220148   0.948   0.579  12.761 -0.9638  1.0711 -1.5326
 2838SOL     OW20149   2.002   0.123   4.189 -0.4078 -0.3418  0.2286
 2838SOL    HW120150   2.053   0.123   4.108  0.5788  2.0064  0.8634
 2838SOL    HW220151   1.915   0.100   4.156  0.0692 -0.1579 -1.1600
 2839SOL     OW20152   0.081   2.058   4.969 -0.0480  0.0030 -0.3045
 2839SOL    HW120153   0.097   2.001   5.044  0.9901  0.1070 -0.4421
 2839SOL    HW220154   0.124   2.138   4.999 -1.2542  0.0024  1.3996
 2840SOL     OW20155   2.508   2.532  14.391 -0.6812  0.3145  0.5893
 2840SOL    HW120156   2.589   2.554  14.345 -0.5750 -1.6208 -0.1272
 2840SOL    HW220157   2.496   2.438  14.377 -1.0350  0.2025  1.6722
 2841SOL     OW20158   1.075   1.732   3.638 -0.4576 -0.2618 -0.2579
 2841SOL    HW120159   1.012   1.692   3.578  0.8315 -0.6941 -1.3142
 2841SOL    HW220160   1.071   1.827   3.624  0.3960  0.0215  1.4318
 2842SOL     OW20161   0.820   3.102   4.788 -0.3225  0.1149  1.0541
 2842SOL    HW120162   0.857   3.188   4.772 -1.2027  0.3379  0.2607
 2842SOL    HW220163   0.892   3.045   4.759  0.4274  1.9653 -0.6964
 2843SOL     OW20164   3.402   2.525  15.516  0.4483  0.4739  0.1928
 2843SOL    HW120165   3.488   2.567  15.518  0.1042  1.1850  0.2224
 2843SOL    HW220166   3.420   2.448  15.463 -0.0434  0.7349 -0.3500
 2844SOL     OW20167   3.594   2.162   3.054 -0.1350 -0.2066  0.0461
 2844SOL    HW120168   3.613   2.229   3.119 -0.0322 -0.6034  0.4261
 2844SOL    HW220169   3.501   2.182   3.048 -0.2504 -0.4064  1.2490
 2845SOL     OW20170   2.297   2.889  13.256  0.4242 -0.2556  0.2986
 2845SOL    HW120171   2.371   2.934  13.215  0.4185  1.6417  2.3458
 2845SOL    HW220172   2.327   2.801  13.234  0.0159 -0.1269 -0.7739
 2846SOL     OW20173   2.073   3.888  15.577 -0.0718 -0.3265 -0.4729
 2846SOL    HW120174   2.083   3.793  15.575  2.0055 -0.1104 -0.5336
 2846SOL    HW220175   2.135   3.909  15.646  0.4045 -3.0879 -0.0819
 2847SOL     OW20176   3.603   3.391  12.225  0.0592 -0.3021 -0.1447
 2847SOL    HW120177   3.511   3.364  12.221  0.2968 -1.1722  0.3519
 2847SOL    HW220178   3.595   3.484  12.245  0.3271 -0.0433 -1.1998
 2848SOL     OW20179   4.416   1.361   1.444  0.2141  0.3107 -0.9230
 2848SOL    HW120180   4.493   1.349   1.499 -0.1583  0.0953 -0.4466
 2848SOL    HW220181   4.400   1.272   1.411  0.3349  1.2845 -3.5735
 2849SOL     OW20182   2.330   4.647  10.536  0.4161  0.4397  0.4745
 2849SOL    HW120183   2.286   4.605  10.463 -1.7897  0.0155  2.0368
 2849SOL    HW220184   2.418   4.641  10.500  0.6574  0.4384  1.0531
 2850SOL     OW20185   1.812   3.184   4.371 -1.0234  1.1529 -0.0450
 2850SOL    HW120186   1.829   3.137   4.453  0.0662  0.2451 -0.7829
 2850SOL    HW220187   1.816   3.276   4.397  0.9419  0.7079  1.2541
 2851SOL     OW20188   0.235   4.181   7.626  0.2795 -0.5970 -0.1773
 2851SOL    HW120189   0.213   4.217   7.540  0.1793  1.2877  0.6232
 2851SOL    HW220190   0.204   4.243   7.693  0.5086 -1.8454  1.0861
 2852SOL     OW20191   4.249   3.990   2.891  0.0401  0.2610 -0.0597
 2852SOL    HW120192   4.181   3.969   2.826 -1.3896  0.6443  1.3296
 2852SOL    HW220193   4.279   4.077   2.866  0.9905  0.0502  0.3758
 2853SOL     OW20194   3.413   1.570   1.720  0.1296  0.3029  0.3255
 2853SOL    HW120195   3.318   1.562   1.731  0.1910 -1.5305 -0.3941
 2853SOL    HW220196   3.451   1.563   1.808 -0.5032  0.0949  0.5869
 2854SOL     OW20197   0.095   0.445   6.789 -0.7575 -0.9798 -0.2493
 2854SOL    HW120198   0.167   0.440   6.852 -0.5113  2.2307 -0.2698
 2854SOL    HW220199   0.030   0.379   6.814 -1.5715  0.3974  1.2745
 2855SOL     OW20200   4.147   2.057   3.688  0.1995 -0.1441 -0.2324
 2855SOL    HW120201   4.172   2.003   3.613  2.1727 -1.7596  1.5695
 2855SOL    HW220202   4.172   2.136   3.641 -0.7083 -0.2573 -0.9188
 2856SOL     OW20203   2.339   2.644  15.261  0.6171 -0.0529 -0.3681
 2856SOL    HW120204   2.245   2.657  15.269  0.8085 -0.0975  2.1640
 2856SOL    HW220205   2.347   2.553  15.233  2.1706  0.0270 -0.1921
 2857SOL     OW20206   2.986   4.002   2.681  0.3097  1.0042 -0.3164
 2857SOL    HW120207   2.983   4.097   2.685  2.7591  1.1937 -3.3691
 2857SOL    HW220208   3.011   3.989   2.590  3.8947  1.6117  0.5812
 2858SOL     OW20209   3.957   3.766  15.940  0.6089 -0.2310  0.0660
 2858SOL    HW120210   3.904   3.725  15.871 -0.1462  1.6915 -0.4818
 2858SOL    HW220211   4.036   3.778  15.888  0.5628  1.2695  0.3491
 2859SOL     OW20212   0.381   1.978   5.084  0.1469 -0.3301  0.1133
 2859SOL    HW120213   0.307   1.976   5.144  0.4773 -1.2989  0.4945
 2859SOL    HW220214   0.434   2.051   5.117  0.2047 -1.1677  1.9247
 2860SOL     OW20215   0.588   3.533   8.707  0.1355 -0.1833  0.0992
 2860SOL    HW120216   0.540   3.452   8.690 -1.4041  0.2835  2.2996
 2860SOL    HW220217   0.634   3.507   8.786 -1.7477  0.8979  1.5423
 2861SOL     OW20218   2.529   1.145   0.337  0.2023 -0.2135  0.1751
 2861SOL    HW120219   2.468   1.079   0.304 -1.4870  1.9160 -1.0003
 2861SOL    HW220220   2.560   1.094   0.411  1.4354 -0.6868 -0.6633
 2862SOL     OW20221   0.554   0.853  12.809  0.1159  0.0053 -0.3255
 2862SOL    HW120222   0.633   0.816  12.850  0.1099 -0.4366 -0.7106
 2862SOL    HW220223   0.530   0.914  12.879  1.2012  0.1759 -0.0965
 2863SOL     OW20224   4.667   0.404   9.655  0.0997  0.2211  0.4109
 2863SOL    HW120225   4.674   0.441   9.743  2.0249  4.6242 -1.6026
 2863SOL    HW220226   4.611   0.470   9.616  0.3909  0.0275 -0.3270
 2864SOL     OW20227   4.642   4.720   5.993 -0.2452  0.2327  0.1749
 2864SOL    HW120228   4.726   4.728   5.948 -0.1225 -1.7473  0.0903
 2864SOL    HW220229   4.605   4.639   5.959  1.6735 -0.3349 -0.5653
 2865SOL     OW20230   3.667   1.532   9.745 -0.5188  0.1586  0.0492
 2865SOL    HW120231   3.701   1.574   9.824 -1.9690  0.2376  0.6142
 2865SOL    HW220232   3.616   1.459   9.779  0.1945  0.3269  1.4790
 2866SOL     OW20233   3.707   3.686   4.345 -0.0268 -0.1575  0.5952
 2866SOL    HW120234   3.683   3.648   4.430 -2.0473 -0.1234  0.0538
 2866SOL    HW220235   3.681   3.777   4.356  1.0763  0.4519 -1.8138
 2867SOL     OW20236   1.920   3.716   8.120 -0.2318  0.5551 -0.0604
 2867SOL    HW120237   1.928   3.714   8.025  1.6046 -0.4043  0.1102
 2867SOL    HW220238   1.955   3.800   8.151 -1.7501  1.1106  0.1123
 2868SOL     OW20239   2.032   2.176  16.213 -0.6898  0.0539 -0.2144
 2868SOL    HW120240   1.973   2.244  16.181  1.6129  1.4208 -1.5418
 2868SOL    HW220241   1.993   2.141  16.293  1.9419 -1.2719  0.4812
 2869SOL     OW20242   0.118   0.047   6.769  0.5937 -0.5547 -0.6052
 2869SOL    HW120243   0.085   0.005   6.690  1.5695  0.1484 -1.3982
 2869SOL    HW220244   0.033   0.075   6.802  0.1433 -2.1658 -0.4045
 2870SOL     OW20245   3.984   3.866  15.066  0.3433 -0.2053 -0.1874
 2870SOL    HW120246   3.919   3.932  15.041 -0.4890 -1.0882 -0.3383
 2870SOL    HW220247   4.030   3.839  14.987 -0.7996 -0.3389 -0.8183
 2871SOL     OW20248   1.762   2.139   4.702  0.0853  0.2825  0.1673
 2871SOL    HW120249   1.778   2.134   4.608  0.9797 -1.3281  0.4150
 2871SOL    HW220250   1.744   2.050   4.732  0.1549  0.4512  0.7202
 2872SOL     OW20251   0.905   2.848  10.877 -0.0565  0.3549  0.4721
 2872SOL    HW120252   0.999   2.849  10.861 -0.1787  1.6877 -0.1718
 2872SOL    HW220253   0.887   2.942  10.879  0.8918  0.6038 -3.0910
 2873SOL     OW20254   0.280   0.861   8.351 -0.4570  1.0070 -0.3815
 2873SOL    HW120255   0.226   0.913   8.292 -0.8390  0.2934 -0.6658
 2873SOL    HW220256   0.361   0.858   8.301 -0.2112  3.0281 -0.1139
 2874SOL     OW20257   0.459   4.247  10.677 -0.4781  0.4220  0.5402
 2874SOL    HW120258   0.500   4.161  10.676  0.6530  0.9558  0.6590
 2874SOL    HW220259   0.499   4.285  10.755  0.6374  1.8568 -0.7403
 2875SOL     OW20260   2.595   2.515  15.465 -0.5501  0.0778  0.1304
 2875SOL    HW120261   2.538   2.498  15.390  2.4632 -1.2472 -1.8637
 2875SOL    HW220262   2.679   2.549  15.434 -0.4881 -0.7990 -0.6942
 2876SOL     OW20263   4.493   4.307   8.890 -0.0160 -0.1266  0.4039
 2876SOL    HW120264   4.532   4.290   8.804 -2.8103  1.7525 -1.2244
 2876SOL    HW220265   4.570   4.303   8.946 -0.7811 -1.9962  1.3215
 2877SOL     OW20266   3.066   2.653   4.291  0.2065 -0.1605  0.4069
 2877SOL    HW120267   2.976   2.625   4.304  0.3019 -0.1679  1.0471
 2877SOL    HW220268   3.070   2.703   4.373 -0.6930 -2.3262  1.7708
 2878SOL     OW20269   0.625   2.994   5.845 -0.4662  0.0165  0.2481
 2878SOL    HW120270   0.576   2.934   5.789 -1.3972  1.0745 -0.0609
 2878SOL    HW220271   0.627   2.943   5.926 -1.7588  2.2037  1.6492
 2879SOL     OW20272   2.456   0.056   1.599 -0.4380  0.2722  0.5585
 2879SOL    HW120273   2.430   4.702   1.618  1.0581 -0.3256 -0.3036
 2879SOL    HW220274   2.547   0.063   1.627  0.2014 -0.2075 -1.4574
 2880SOL     OW20275   0.962   1.909   5.645 -0.2656 -0.3583 -0.0962
 2880SOL    HW120276   0.867   1.917   5.652 -0.0290  2.4318  0.3155
 2880SOL    HW220277   0.975   1.825   5.688  0.1278 -0.1787  0.1414
 2881SOL     OW20278   2.546   3.507   7.439 -0.8264 -0.1483 -1.3256
 2881SOL    HW120279   2.595   3.566   7.497 -0.5182 -1.1999 -0.5199
 2881SOL    HW220280   2.499   3.449   7.497  1.2822 -1.7036 -1.1516
 2882SOL     OW20281   2.897   0.128   2.646 -0.4693 -0.9250  0.6727
 2882SOL    HW120282   2.827   0.090   2.700 -1.3759 -0.9613 -0.5299
 2882SOL    HW220283   2.953   0.159   2.717 -1.6928  0.0463  1.2231
 2883SOL     OW20284   2.750   4.363   5.589  0.4578 -0.0627  0.0059
 2883SOL    HW120285   2.722   4.359   5.680 -0.3898  2.0266 -0.1591
 2883SOL    HW220286   2.759   4.270   5.567  0.3518  0.3489 -1.7396
 2884SOL     OW20287   4.002   3.184   8.834  0.1510 -0.6596 -0.5990
 2884SOL    HW120288   4.009   3.099   8.878 -2.4525 -0.3626  0.3979
 2884SOL    HW220289   4.054   3.167   8.756 -1.8720 -0.8803 -1.9074
 2885SOL     OW20290   2.178   3.796   1.833  0.0657 -0.2590 -0.8504
 2885SOL    HW120291   2.221   3.721   1.792 -1.4506 -0.7562 -1.5538
 2885SOL    HW220292   2.093   3.751   1.833  0.2381 -0.5771  1.5542
 2886SOL     OW20293   1.760   4.339   9.904 -0.5651 -0.5920 -0.1885
 2886SOL    HW120294   1.726   4.428   9.910  0.2595 -0.3138  0.4306
 2886SOL    HW220295   1.688   4.294   9.946  0.5695 -3.4269 -1.3008
 2887SOL     OW20296   2.801   3.329   3.828 -0.6149  0.2301 -0.3692
 2887SOL    HW120297   2.774   3.420   3.816  0.3854  0.3586 -1.5952
 2887SOL    HW220298   2.800   3.286   3.743 -2.7619  1.3046 -0.9144
 2888SOL     OW20299   1.195   4.471   1.815 -0.3701  0.1482 -0.2756
 2888SOL    HW120300   1.189   4.467   1.911  0.8430  3.3142 -0.0605
 2888SOL    HW220301   1.279   4.515   1.799 -0.1912 -0.2272 -0.3538
 2889SOL     OW20302   0.860   0.776   1.430  0.7090 -0.3841 -0.1277
 2889SOL    HW120303   0.840   0.720   1.505 -0.5750 -2.3749 -1.9154
 2889SOL    HW220304   0.772   0.797   1.399  0.4414  0.9379  1.5729
 2890SOL     OW20305   2.950   4.013   6.453  0.6210 -0.0678 -0.5654
 2890SOL    HW120306   2.961   3.990   6.545 -0.5891  1.7040  0.0318
 2890SOL    HW220307   2.923   3.933   6.409 -2.7472  1.5232 -1.3104
 2891SOL     OW20308   1.590   2.950   7.969 -0.6904 -0.0096  0.6406
 2891SOL    HW120309   1.533   3.000   7.911  0.2992  2.7057  2.0070
 2891SOL    HW220310   1.644   3.024   7.996 -0.9825  0.7309 -0.8252
 2892SOL     OW20311   2.283   3.830  11.602 -0.2223 -0.3487  0.6250
 2892SOL    HW120312   2.242   3.818  11.688  1.5153 -1.0487  1.3588
 2892SOL    HW220313   2.222   3.894  11.566  0.9112 -0.0482 -0.7672
 2893SOL     OW20314   1.202   3.379   4.241 -0.6852  0.0373  0.3666
 2893SOL    HW120315   1.113   3.378   4.276  0.5075 -0.7292  3.4025
 2893SOL    HW220316   1.193   3.317   4.169 -2.6874  0.0233  0.6225
 2894SOL     OW20317   2.893   4.590   5.706  0.4114  1.0223  0.0313
 2894SOL    HW120318   2.825   4.657   5.715 -0.4369  0.1201  0.3530
 2894SOL    HW220319   2.843   4.511   5.687  0.5893  0.9020  0.0683
 2895SOL     OW20320   0.496   0.827   3.415  0.0081 -0.4192  0.3313
 2895SOL    HW120321   0.522   0.744   3.454 -0.0368 -0.1351  0.9706
 2895SOL    HW220322   0.518   0.889   3.485  1.1130  0.4309 -0.7661
 2896SOL     OW20323   1.952   0.915   4.752  0.1435 -0.0869  0.7432
 2896SOL    HW120324   1.912   0.836   4.790 -3.2268  0.4297 -1.7301
 2896SOL    HW220325   2.044   0.889   4.757 -0.0794 -1.1216 -0.5504
 2897SOL     OW20326   0.040   0.779  17.664 -0.1524  0.3049 -0.0350
 2897SOL    HW120327   0.074   0.812   0.004 -2.9549  0.3206  1.0827
 2897SOL    HW220328   0.062   0.686  17.675 -0.0261 -0.0439 -3.2276
 2898SOL     OW20329   3.071   4.224  17.235  0.3368  0.4937  0.0691
 2898SOL    HW120330   2.976   4.215  17.234  0.4023 -0.1397 -0.6963
 2898SOL    HW220331   3.093   4.131  17.238 -1.4663  0.0126 -1.6868
 2899SOL     OW20332   3.027   0.631  14.736  0.3735  0.2459  0.3011
 2899SOL    HW120333   3.045   0.691  14.808  2.4113 -1.5983  1.3119
 2899SOL    HW220334   2.936   0.606  14.753  0.1994  1.3741  1.0656
 2900SOL     OW20335   4.248   3.868   7.526 -0.5797  0.4889  0.1190
 2900SOL    HW120336   4.308   3.834   7.460  0.6144  0.2343  1.3264
 2900SOL    HW220337   4.202   3.785   7.536  1.2637 -0.7688 -1.6847
 2901SOL     OW20338   1.818   2.221   8.496  0.3222  0.3487  0.2627
 2901SOL    HW120339   1.777   2.254   8.577  1.8437  1.5709  0.5441
 2901SOL    HW220340   1.743   2.167   8.470 -1.0824  1.0370  2.8338
 2902SOL     OW20341   1.715   1.784  16.191  0.6693 -0.3077 -0.5915
 2902SOL    HW120342   1.780   1.846  16.158  0.3191  1.4420  2.0485
 2902SOL    HW220343   1.759   1.737  16.262 -1.1039 -1.9164 -0.5635
 2903SOL     OW20344   1.271   1.352   7.274 -0.3423  0.4418  0.5375
 2903SOL    HW120345   1.349   1.322   7.320 -0.8076 -0.4698  0.7293
 2903SOL    HW220346   1.309   1.407   7.205  2.4569  0.7965  2.3473
 2904SOL     OW20347   2.649   2.989  14.149  0.2765 -0.6796 -0.2017
 2904SOL    HW120348   2.603   2.976  14.232 -2.2259  0.3572 -1.4163
 2904SOL    HW220349   2.628   3.078  14.122  1.6456 -0.6353 -1.0891
 2905SOL     OW20350   2.849   1.685   6.348 -0.2265  0.2571  0.3274
 2905SOL    HW120351   2.925   1.628   6.363 -0.4678 -1.1521 -3.6722
 2905SOL    HW220352   2.819   1.708   6.436  1.0582  1.6541  0.3931
 2906SOL     OW20353   0.794   3.114   3.999 -0.0367  0.3940 -0.4826
 2906SOL    HW120354   0.767   3.023   3.989  1.3458 -0.2093  1.4370
 2906SOL    HW220355   0.806   3.110   4.094 -1.6060 -1.7174 -0.3758
 2907SOL     OW20356   1.451   2.570   2.570 -0.0083 -0.2979  0.1718
 2907SOL    HW120357   1.413   2.494   2.525  1.4071 -0.6809 -0.3726
 2907SOL    HW220358   1.393   2.639   2.540  0.2599  0.0974  0.5609
 2908SOL     OW20359   0.760   2.218   7.292  0.3098  0.0935  0.6539
 2908SOL    HW120360   0.763   2.184   7.382 -2.3830 -0.2632  0.6003
 2908SOL    HW220361   0.705   2.154   7.246 -0.7671 -1.2876  3.8663
 2909SOL     OW20362   4.728   3.399  15.643 -0.1606  0.2409 -0.4251
 2909SOL    HW120363   4.650   3.419  15.592 -0.0711  2.3004  0.2532
 2909SOL    HW220364   0.025   3.323  15.596 -1.9511 -0.6626 -0.2251
 2910SOL     OW20365   2.159   3.100   6.794  0.4230 -0.2865  0.3232
 2910SOL    HW120366   2.191   3.011   6.779 -0.9613 -0.9354  1.2430
 2910SOL    HW220367   2.176   3.094   6.888  2.4455 -1.2267 -0.1013
 2911SOL     OW20368   1.456   2.488   5.602 -0.3324  0.2919  0.2207
 2911SOL    HW120369   1.510   2.410   5.612 -0.5716 -0.1823 -2.0470
 2911SOL    HW220370   1.523   2.556   5.596  0.4889 -0.3386  2.5035
 2912SOL     OW20371   0.534   1.919   9.542  0.1478 -0.1500  0.1610
 2912SOL    HW120372   0.481   1.840   9.539 -1.7166  1.1065 -0.3160
 2912SOL    HW220373   0.475   1.990   9.569 -2.0703 -2.0270  0.2318
 2913SOL     OW20374   0.601   3.226   6.019  0.4752  0.4335 -0.2568
 2913SOL    HW120375   0.691   3.255   6.030  0.1003  2.6173 -2.9078
 2913SOL    HW220376   0.602   3.160   5.949 -2.6115  2.6675 -2.3944
 2914SOL     OW20377   4.434   1.445   1.192  0.1686  0.3365  0.4816
 2914SOL    HW120378   4.443   1.418   1.283  0.0896 -1.4848 -0.0514
 2914SOL    HW220379   4.464   1.535   1.197 -0.6002  0.4475  3.1809
 2915SOL     OW20380   2.543   4.589   4.846 -0.0391  0.3090  0.6714
 2915SOL    HW120381   2.561   4.671   4.800  0.9038  0.0205  0.5098
 2915SOL    HW220382   2.499   4.618   4.925 -1.8197 -1.7228  0.4351
 2916SOL     OW20383   1.282   4.010   4.270 -0.1336  0.1354  0.3499
 2916SOL    HW120384   1.249   3.927   4.237  0.6850 -0.0197 -0.0760
 2916SOL    HW220385   1.214   4.068   4.236 -0.6830 -0.6470  0.1144
 2917SOL     OW20386   2.187   2.772   7.471 -0.3567 -0.7222  0.0815
 2917SOL    HW120387   2.267   2.724   7.497 -0.9077  0.0411  3.1580
 2917SOL    HW220388   2.160   2.808   7.555  0.7234 -1.0818  0.5859
 2918SOL     OW20389   1.814   3.768   6.690  0.1599 -0.2026 -0.4175
 2918SOL    HW120390   1.908   3.781   6.677 -0.0665  3.5277  1.5155
 2918SOL    HW220391   1.801   3.827   6.765  1.2339  0.1532 -0.5155
 2919SOL     OW20392   3.544   1.281   6.687 -0.0455  0.3638 -0.0848
 2919SOL    HW120393   3.575   1.360   6.732 -1.1369 -0.2809  1.7812
 2919SOL    HW220394   3.620   1.229   6.712 -0.6722 -0.2545  0.5219
 2920SOL     OW20395   3.696   3.664  14.963  0.3364 -0.1591  0.6873
 2920SOL    HW120396   3.743   3.674  14.880 -1.6892  2.4820 -0.1448
 2920SOL    HW220397   3.605   3.659  14.934 -0.1894  1.6835  2.0451
 2921SOL     OW20398   1.407   4.699   7.575  0.0177 -0.2894  0.0366
 2921SOL    HW120399   1.497   4.719   7.551  0.3563 -1.1936  0.5270
 2921SOL    HW220400   1.413   4.630   7.641 -0.8643  0.2837  0.7122
 2922SOL     OW20401   3.912   2.935   0.121  0.2507 -0.3579  0.1484
 2922SOL    HW120402   3.894   2.903   0.033  4.3151  0.0221 -0.8146
 2922SOL    HW220403   3.951   2.856   0.159 -1.2249 -0.9934  0.3144
 2923SOL     OW20404   3.242   0.041   7.774 -0.8158  0.2443  0.2880
 2923SOL    HW120405   3.256   4.712   7.705 -0.3898  1.5445 -0.8637
 2923SOL    HW220406   3.263   4.723   7.850 -1.5001  0.2879  0.5096
 2924SOL     OW20407   3.602   0.441   7.916  0.1109  0.8270  0.3898
 2924SOL    HW120408   3.573   0.386   7.989 -2.0983  1.4269 -0.0460
 2924SOL    HW220409   3.518   0.455   7.872  0.8027  0.8952 -0.9147
 2925SOL     OW20410   4.192   1.096   6.790  0.4776 -0.5258 -0.0147
 2925SOL    HW120411   4.246   1.023   6.760  2.0308  1.1324 -1.2530
 2925SOL    HW220412   4.256   1.165   6.772  1.0091 -0.4689  2.0762
 2926SOL     OW20413   2.566   2.726   5.957 -0.1776  0.0090 -0.7009
 2926SOL    HW120414   2.557   2.667   5.882  0.2247  0.2705 -0.9575
 2926SOL    HW220415   2.474   2.729   5.981  0.1616  3.1803  0.1908
 2927SOL     OW20416   2.721   3.174   1.745 -0.5639  0.4536  0.3370
 2927SOL    HW120417   2.627   3.177   1.729 -0.1825 -0.2273 -2.1545
 2927SOL    HW220418   2.734   3.261   1.783  1.0295 -0.1455  1.1770
 2928SOL     OW20419   2.788   1.516   0.532  0.0529  0.5434 -0.1259
 2928SOL    HW120420   2.803   1.503   0.438 -0.1683 -2.0713  0.2259
 2928SOL    HW220421   2.702   1.477   0.540  0.4488 -0.2972  0.0108
 2929SOL     OW20422   0.538   4.207   7.547 -0.1162  0.5019  0.2929
 2929SOL    HW120423   0.526   4.133   7.607 -0.7068  1.1692  1.0016
 2929SOL    HW220424   0.451   4.216   7.508 -0.1492 -0.0055  0.2497
 2930SOL     OW20425   1.674   1.916  14.950  0.1423  0.5613  0.0463
 2930SOL    HW120426   1.681   1.847  14.885 -2.1162 -1.0756  1.5311
 2930SOL    HW220427   1.580   1.925  14.965  0.1843  0.0962  0.6185
 2931SOL     OW20428   2.641   1.408   4.224 -0.2809 -0.4537  0.2697
 2931SOL    HW120429   2.724   1.427   4.181 -0.1977 -4.2628 -1.3222
 2931SOL    HW220430   2.664   1.433   4.313 -1.3757 -0.1783  0.4767
 2932SOL     OW20431   0.335   1.765  14.656  0.0557  0.1383  0.4053
 2932SOL    HW120432   0.306   1.715  14.580  1.2388 -1.1602  0.8096
 2932SOL    HW220433   0.390   1.825  14.605  0.8129 -1.0868 -0.2255
 2933SOL     OW20434   2.495   0.924   7.508  0.3819  0.1970  0.2735
 2933SOL    HW120435   2.461   0.949   7.422  2.5377 -0.4116 -0.7612
 2933SOL    HW220436   2.570   0.984   7.502  0.4775  0.2144  1.7782
 2934SOL     OW20437   2.144   4.169   8.694 -0.1670  0.1461 -0.0189
 2934SOL    HW120438   2.086   4.096   8.716 -1.0428  0.8195 -0.1227
 2934SOL    HW220439   2.223   4.144   8.742  0.7054  0.5959 -1.2276
 2935SOL     OW20440   1.020   3.535   1.933  0.4109  0.2526  0.2067
 2935SOL    HW120441   1.100   3.504   1.891 -0.4370  2.6176 -3.1774
 2935SOL    HW220442   0.984   3.457   1.973 -1.1640  1.1698  0.5972
 2936SOL     OW20443   1.454   0.247   1.915  0.1155  0.0756 -0.0400
 2936SOL    HW120444   1.523   0.284   1.970  0.0783  0.2498 -0.1100
 2936SOL    HW220445   1.447   0.320   1.853  1.8697  0.5848  0.3476
 2937SOL     OW20446   4.135   0.459  11.769 -0.1371 -0.1971 -0.4473
 2937SOL    HW120447   4.160   0.433  11.857  1.9315  2.0914 -0.3500
 2937SOL    HW220448   4.042   0.438  11.767  0.5305 -2.9817 -1.4155
 2938SOL     OW20449   1.012   1.814   7.350  0.0658 -0.0013 -0.2290
 2938SOL    HW120450   0.980   1.758   7.280 -1.3064  0.9448 -0.3681
 2938SOL    HW220451   1.039   1.749   7.415 -1.8140 -0.3006  0.2597
 2939SOL     OW20452   3.136   2.660   5.400 -0.1429 -0.5348  0.3041
 2939SOL    HW120453   3.169   2.668   5.311  0.2486 -1.6104  0.3558
 2939SOL    HW220454   3.203   2.721   5.432  0.0445 -0.5908  0.0125
 2940SOL     OW20455   4.292   4.617   5.931 -0.2506 -0.1024  0.6827
 2940SOL    HW120456   4.287   4.699   5.881  2.2201 -1.0938 -1.2367
 2940SOL    HW220457   4.209   4.576   5.909  0.3928 -1.0332 -0.0528
 2941SOL     OW20458   3.310   1.143   6.565 -0.8783  0.1788 -0.0446
 2941SOL    HW120459   3.309   1.078   6.636  0.1369  0.2659  0.0551
 2941SOL    HW220460   3.401   1.174   6.565 -1.0130  0.5566  0.4247
 2942SOL     OW20461   0.485   1.830   4.256  0.1777 -0.1526  0.3434
 2942SOL    HW120462   0.501   1.763   4.322 -0.7444 -2.2799 -1.6062
 2942SOL    HW220463   0.568   1.854   4.215 -0.8997  2.1816 -0.4955
 2943SOL     OW20464   1.962   0.571   5.566 -0.2402  0.1194  0.4201
 2943SOL    HW120465   1.891   0.554   5.627 -0.4067 -0.7996 -0.0306
 2943SOL    HW220466   1.941   0.664   5.562 -0.8873 -0.1421 -1.9198
 2944SOL     OW20467   1.359   2.872   2.714 -0.0106  0.4953 -0.3817
 2944SOL    HW120468   1.448   2.851   2.743  0.8624  3.5302 -0.8687
 2944SOL    HW220469   1.368   2.967   2.723  0.1242  0.5287 -0.8561
 2945SOL     OW20470   0.983   0.625   3.458  0.4196  0.4700  0.2080
 2945SOL    HW120471   0.920   0.674   3.405  1.1269  0.0285 -1.0634
 2945SOL    HW220472   1.044   0.695   3.482  0.7352  0.3185 -0.1361
 2946SOL     OW20473   4.538   1.750   0.885 -1.1003  0.0978  0.1605
 2946SOL    HW120474   4.616   1.791   0.922 -2.2730  1.9998  0.5131
 2946SOL    HW220475   4.571   1.688   0.820 -1.6465  0.2390 -0.2468
 2947SOL     OW20476   1.116   1.951   0.791 -0.0839 -0.1054 -0.6809
 2947SOL    HW120477   1.063   2.022   0.755 -2.1363  0.2989  3.2451
 2947SOL    HW220478   1.200   1.981   0.825 -0.7911  1.9210 -0.7164
 2948SOL     OW20479   1.539   3.617   7.622  0.1840 -0.5444  0.1392
 2948SOL    HW120480   1.517   3.636   7.531 -1.1745 -1.5429  0.2741
 2948SOL    HW220481   1.485   3.541   7.639 -1.8075  0.7110 -0.6013
 2949SOL     OW20482   4.684   0.829  16.521 -0.5215  0.6796 -0.4843
 2949SOL    HW120483   4.638   0.828  16.437  2.6220  0.0237 -2.1877
 2949SOL    HW220484   4.604   0.834  16.575  0.0919 -1.2238  0.5929
 2950SOL     OW20485   1.587   3.839   7.090  0.2226  0.1220  0.0643
 2950SOL    HW120486   1.580   3.772   7.022 -0.2361  1.6844 -1.4372
 2950SOL    HW220487   1.596   3.912   7.029 -0.0050  0.5572  0.5456
 2951SOL     OW20488   0.333   0.682   9.154 -0.6044  0.6546  0.1059
 2951SOL    HW120489   0.290   0.761   9.124 -0.7092  1.0259  1.2366
 2951SOL    HW220490   0.275   0.679   9.230 -2.1168  1.1812 -1.0572
 2952SOL     OW20491   0.501   2.750   3.466  0.9451 -0.0220  0.5543
 2952SOL    HW120492   0.459   2.683   3.519  2.3194 -0.5738  0.9544
 2952SOL    HW220493   0.492   2.823   3.528 -0.1511  0.8519 -0.6338
 2953SOL     OW20494   1.644   3.488  17.302 -0.2194 -0.1355  0.2561
 2953SOL    HW120495   1.642   3.575  17.263  2.7805  0.4526  1.3913
 2953SOL    HW220496   1.697   3.500  17.381  0.3160  1.1287 -0.2954
 2954SOL     OW20497   0.074   0.095  14.392 -0.2114  0.3420  0.2777
 2954SOL    HW120498   0.067   0.052  14.306  0.5166 -2.3283  1.5772
 2954SOL    HW220499   0.168   0.094  14.409 -0.1489 -0.0478 -0.0920
 2955SOL     OW20500   4.468   2.714   5.259 -0.4489 -0.1067 -0.4684
 2955SOL    HW120501   4.431   2.627   5.275 -0.0453 -0.0061  1.0075
 2955SOL    HW220502   4.544   2.716   5.316 -1.1686  1.1213  0.4261
 2956SOL     OW20503   2.508   0.656   7.886 -0.9181  0.2586 -0.4113
 2956SOL    HW120504   2.521   0.568   7.853  0.3259  0.3492 -0.1468
 2956SOL    HW220505   2.542   0.709   7.813 -0.7022  1.2255  0.3828
 2957SOL     OW20506   2.050   0.403  10.686 -0.0203 -0.0915 -0.3905
 2957SOL    HW120507   2.001   0.329  10.724  0.5192  0.6150  1.6487
 2957SOL    HW220508   1.981   0.468  10.673  0.0465  0.5158  2.3137
 2958SOL     OW20509   1.457   3.620   2.031  0.2551  0.5232  0.3090
 2958SOL    HW120510   1.419   3.681   2.094 -2.7420 -1.5179  0.4622
 2958SOL    HW220511   1.550   3.626   2.055  0.0836 -0.2624  1.1843
 2959SOL     OW20512   0.001   1.205   0.267  0.2087 -0.1902 -0.1309
 2959SOL    HW120513   4.724   1.198   0.173  0.9355  1.6994 -0.3670
 2959SOL    HW220514   4.650   1.208   0.306  1.2547 -1.8334  2.3382
 2960SOL     OW20515   2.668   2.988   3.248 -0.0717  0.1483 -0.1507
 2960SOL    HW120516   2.702   3.039   3.321 -0.4429  1.5982 -0.9872
 2960SOL    HW220517   2.602   2.939   3.297 -0.3435  0.1338 -0.5259
 2961SOL     OW20518   2.253   4.440   2.301  0.3199 -0.6357  0.1172
 2961SOL    HW120519   2.164   4.472   2.318  0.6884 -1.4190  3.5774
 2961SOL    HW220520   2.290   4.515   2.256 -0.4287 -0.0740  0.4489
 2962SOL     OW20521   1.558   2.592  14.232 -0.0753 -0.2888 -1.0526
 2962SOL    HW120522   1.511   2.511  14.212  0.5285 -0.2070 -2.7935
 2962SOL    HW220523   1.650   2.574  14.251 -0.8245 -0.9536  2.0265
 2963SOL     OW20524   3.692   2.837   6.569  0.0525  0.4712  0.2439
 2963SOL    HW120525   3.652   2.918   6.602 -1.4048  0.0437 -0.4507
 2963SOL    HW220526   3.773   2.843   6.619  0.5597 -1.6318 -0.3476
 2964SOL     OW20527   1.319   0.597  11.961  0.2669 -0.0552 -0.4074
 2964SOL    HW120528   1.326   0.568  12.052 -2.4134 -0.3043 -0.2650
 2964SOL    HW220529   1.393   0.543  11.935 -1.9182 -2.0018 -2.5540
 2965SOL     OW20530   1.956   0.358   7.360  0.1459 -0.1507  0.6342
 2965SOL    HW120531   2.003   0.436   7.389 -0.4004  0.7259 -0.8740
 2965SOL    HW220532   2.002   0.334   7.279 -0.6493  1.6818 -0.3608
 2966SOL     OW20533   1.087   3.568   5.135  0.1522  0.6477  0.2661
 2966SOL    HW120534   1.067   3.532   5.221  0.8787  1.3157  0.7235
 2966SOL    HW220535   1.141   3.497   5.101 -1.7066 -0.7704  0.3151
 2967SOL     OW20536   2.478   1.488  16.517 -0.7053  0.5602  0.0744
 2967SOL    HW120537   2.489   1.583  16.517 -2.3224  0.7568 -1.7912
 2967SOL    HW220538   2.412   1.473  16.585 -2.9639 -2.8027 -2.8500
 2968SOL     OW20539   1.541   1.582   4.675 -0.1817  0.1975  0.1803
 2968SOL    HW120540   1.492   1.531   4.610 -0.3796 -0.4915  0.8766
 2968SOL    HW220541   1.605   1.617   4.613 -1.2212 -0.9059 -1.5088
 2969SOL     OW20542   1.292   2.293   5.130  0.3134 -0.6645 -0.1331
 2969SOL    HW120543   1.329   2.333   5.208  0.4544 -1.8788  0.4341
 2969SOL    HW220544   1.297   2.367   5.070  0.4448  0.5598  1.3934
 2970SOL     OW20545   4.646   4.624  17.392  0.3485  0.1347 -0.2673
 2970SOL    HW120546   4.553   4.607  17.381  0.8806 -1.4787 -2.2537
 2970SOL    HW220547   4.679   4.655  17.307 -1.1818  1.0420 -0.5324
 2971SOL     OW20548   1.922   4.493   4.067 -0.6914 -0.0561  0.2841
 2971SOL    HW120549   1.882   4.578   4.085 -2.3107 -0.6601 -0.4927
 2971SOL    HW220550   1.861   4.429   4.104 -0.8468  0.5020  0.9879
 2972SOL     OW20551   2.623   1.692   6.218  0.1290  0.6619  0.5953
 2972SOL    HW120552   2.700   1.686   6.275  0.6711  0.1987 -0.1821
 2972SOL    HW220553   2.552   1.635   6.247  0.9728 -0.7777 -0.1295
 2973SOL     OW20554   0.558   4.494   1.528  0.2093  0.0733  0.2403
 2973SOL    HW120555   0.637   4.545   1.548 -0.5602  1.4460 -0.2320
 2973SOL    HW220556   0.606   4.412   1.542  1.6273  0.4849 -2.0949
 2974SOL     OW20557   1.926   2.573   0.258 -0.5618 -0.3948 -0.6199
 2974SOL    HW120558   1.869   2.612   0.324 -0.9135 -1.5466 -0.2340
 2974SOL    HW220559   2.003   2.555   0.312  0.7399  0.3022 -2.2399
 2975SOL     OW20560   2.927   4.376  17.614 -0.2852  0.2036  0.3418
 2975SOL    HW120561   2.896   4.428  17.689 -1.8095 -0.2978  0.0669
 2975SOL    HW220562   2.860   4.308  17.627  2.0130 -2.1576 -0.2862
 2976SOL     OW20563   2.052   3.401   7.436 -0.1671 -0.3708  0.4347
 2976SOL    HW120564   2.035   3.455   7.513 -2.3421 -1.4116  0.6884
 2976SOL    HW220565   1.961   3.388   7.409  0.0088  0.3043 -0.4874
 2977SOL     OW20566   4.458   1.842   2.754 -0.2333  0.2640  0.0343
 2977SOL    HW120567   4.408   1.768   2.718  0.3520 -0.2800  0.3281
 2977SOL    HW220568   4.487   1.805   2.838 -2.7494  0.0548  0.7931
 2978SOL     OW20569   1.119   0.112  14.711 -0.3504  0.3494  0.4495
 2978SOL    HW120570   1.156   0.122  14.798  0.8520 -1.2225  0.1078
 2978SOL    HW220571   1.083   0.026  14.734 -0.1278 -0.2197 -1.2824
 2979SOL     OW20572   2.252   0.843   3.461  0.0950 -0.3683 -0.4185
 2979SOL    HW120573   2.321   0.868   3.522 -1.4529  0.4745  0.9768
 2979SOL    HW220574   2.209   0.772   3.509 -0.1561 -1.1397 -1.7795
 2980SOL     OW20575   2.381   0.183   7.929 -0.2847  0.4275  0.6873
 2980SOL    HW120576   2.318   0.146   7.868  2.0255  1.1794 -2.1649
 2980SOL    HW220577   2.374   0.129   8.008 -0.0801  0.1176  0.4933
 2981SOL     OW20578   1.194   4.551   4.730 -0.1873 -0.2684 -0.4200
 2981SOL    HW120579   1.142   4.588   4.802  0.0749  1.7906 -1.3192
 2981SOL    HW220580   1.273   4.604   4.733 -0.9981  0.9104  0.3450
 2982SOL     OW20581   4.489   0.300   7.373  0.6592 -0.4217  0.4605
 2982SOL    HW120582   4.529   0.385   7.392 -1.3256  1.0978 -2.2061
 2982SOL    HW220583   4.533   0.266   7.296 -2.1048 -0.7152 -0.9971
 2983SOL     OW20584   1.573   2.819  17.569 -0.0622 -1.1542  0.2049
 2983SOL    HW120585   1.578   2.726  17.549 -2.3562 -1.0998 -0.5835
 2983SOL    HW220586   1.587   2.816  17.663  0.5673 -0.7331  0.1241
 2984SOL     OW20587   1.088   3.969  10.164 -0.1888 -0.0182  0.0394
 2984SOL    HW120588   1.070   3.905  10.095 -1.0525  0.4946 -0.2189
 2984SOL    HW220589   1.158   3.924  10.210  0.7455  0.3348 -1.0272
 2985SOL     OW20590   4.444   3.216   3.105  0.3112  0.3105  0.4435
 2985SOL    HW120591   4.370   3.158   3.123 -1.1322  1.1594 -2.8034
 2985SOL    HW220592   4.488   3.170   3.034 -1.0958  0.4734 -0.5245
 2986SOL     OW20593   0.153   4.378   5.013 -0.3179 -0.0864 -0.1251
 2986SOL    HW120594   0.199   4.411   5.090 -1.8723  2.1487 -0.1532
 2986SOL    HW220595   0.227   4.331   4.975  0.3048  0.8106 -0.0274
 2987SOL     OW20596   3.441   3.007   8.437  0.4956 -0.0194 -0.5618
 2987SOL    HW120597   3.418   2.915   8.431 -0.5486  0.2491 -0.6205
 2987SOL    HW220598   3.535   2.999   8.421  0.3682 -0.9376 -0.8257
 2988SOL     OW20599   1.124   1.900   1.088  0.4765  0.1652 -0.3555
 2988SOL    HW120600   1.210   1.918   1.050  1.0221 -0.7468  0.4346
 2988SOL    HW220601   1.125   1.804   1.081  2.4060  0.0298  1.7178
 2989SOL     OW20602   0.417   2.669   4.496  0.5376 -0.6536  0.9607
 2989SOL    HW120603   0.413   2.584   4.539 -2.4071 -0.4209  1.1524
 2989SOL    HW220604   0.465   2.716   4.564  0.4126  1.9184 -0.6944
 2990SOL     OW20605   0.623   0.187   0.116 -0.7255  0.2794  0.1604
 2990SOL    HW120606   0.659   0.199   0.028 -2.1160 -0.3003 -0.4857
 2990SOL    HW220607   0.583   0.274   0.120 -0.8457  0.1972  0.8883
 2991SOL     OW20608   2.720   1.075   6.959  0.2390 -0.1611  1.1906
 2991SOL    HW120609   2.786   1.061   7.027  2.9597  1.1083 -1.1830
 2991SOL    HW220610   2.648   1.017   6.983 -0.7883 -0.0990 -1.8471
 2992SOL     OW20611   1.992   1.753  16.348 -0.3888  0.4883 -0.1181
 2992SOL    HW120612   2.006   1.663  16.320 -0.1052  0.5576 -0.1926
 2992SOL    HW220613   2.062   1.798  16.300 -1.0666 -0.1057 -1.6674
 2993SOL     OW20614   3.262   3.895   2.292 -0.2257  0.5048  0.6919
 2993SOL    HW120615   3.227   3.921   2.207  1.8493 -1.0073 -0.6143
 2993SOL    HW220616   3.179   3.874   2.335 -0.5815  0.9576  0.2098
 2994SOL     OW20617   2.255   3.360   3.004 -0.2929 -0.0400  0.2186
 2994SOL    HW120618   2.241   3.308   3.084  1.3284 -1.4422 -0.4020
 2994SOL    HW220619   2.169   3.403   2.996  0.2936  0.8462 -1.2536
 2995SOL     OW20620   3.581   2.120  14.722 -0.1724  0.3477  0.5528
 2995SOL    HW120621   3.655   2.094  14.777 -0.0975  0.2073  0.3847
 2995SOL    HW220622   3.505   2.071  14.753  1.1176 -1.1753  1.3106
 2996SOL     OW20623   0.817   1.571  15.534  0.7008 -0.0184 -0.6050
 2996SOL    HW120624   0.733   1.597  15.494  0.4603  0.6821  0.3505
 2996SOL    HW220625   0.855   1.652  15.568 -0.3887 -0.8189  2.5411
 2997SOL     OW20626   4.652   0.296   6.960 -0.2792 -0.0989 -0.1234
 2997SOL    HW120627   4.699   0.273   7.040  1.9462  1.3779 -1.0112
 2997SOL    HW220628   4.607   0.214   6.943  0.1300 -0.4629  0.5702
 2998SOL     OW20629   1.276   1.425   2.129  0.0850  0.0136 -0.0734
 2998SOL    HW120630   1.308   1.415   2.218 -0.6891 -1.0143  0.1026
 2998SOL    HW220631   1.287   1.518   2.112  1.7053  0.1908  1.9945
 2999SOL     OW20632   0.161   0.176  15.263 -0.3170  0.4005 -0.6146
 2999SOL    HW120633   0.103   0.219  15.202  1.0442 -0.1128 -2.2783
 2999SOL    HW220634   0.216   0.250  15.290  1.3795 -1.2832  0.6235
 3000SOL     OW20635   0.518   2.613   6.528 -0.0117 -0.4184 -0.0082
 3000SOL    HW120636   0.567   2.640   6.605 -0.4933  1.3878 -0.3396
 3000SOL    HW220637   0.456   2.551   6.568  0.7532  0.2361  2.1695
 3001SOL     OW20638   3.141   0.049   8.950  0.1571  0.7563  0.1559
 3001SOL    HW120639   3.109   0.110   8.883 -1.8666 -0.3742  0.1173
 3001SOL    HW220640   3.070   0.061   9.012 -0.9950  1.1589 -1.2419
 3002SOL     OW20641   3.793   2.080  14.542  0.0663 -0.0470 -0.4643
 3002SOL    HW120642   3.776   1.990  14.515 -0.7095 -0.0933  0.1558
 3002SOL    HW220643   3.714   2.104  14.591  2.1989  0.0834  2.9230
 3003SOL     OW20644   1.992   1.629   4.871  0.1585  0.0215 -0.2953
 3003SOL    HW120645   1.954   1.640   4.958 -0.3888  1.0414 -0.6702
 3003SOL    HW220646   1.910   1.599   4.832  0.4495 -1.1675 -0.0134
 3004SOL     OW20647   4.620   2.998   6.872 -0.0407 -0.3281  0.4609
 3004SOL    HW120648   4.545   2.948   6.904 -0.6465  1.0019  1.1177
 3004SOL    HW220649   4.699   2.945   6.878  1.7676  2.4351  1.4401
 3005SOL     OW20650   0.290   3.451   2.321  0.4868 -0.2553 -0.2073
 3005SOL    HW120651   0.234   3.388   2.368 -0.8736  1.1669  0.0628
 3005SOL    HW220652   0.280   3.525   2.381 -1.8188 -0.5284 -0.2860
 3006SOL     OW20653   0.215   4.018  15.538 -0.0126 -0.3669 -0.1916
 3006SOL    HW120654   0.203   4.111  15.523  0.2156 -0.0281  1.7419
 3006SOL    HW220655   0.169   3.981  15.463 -0.8362 -1.4383  0.8387
 3007SOL     OW20656   1.830   0.312   8.645 -0.0947 -0.0858  0.0173
 3007SOL    HW120657   1.853   0.315   8.737 -0.2952 -0.2628  0.0742
 3007SOL    HW220658   1.912   0.327   8.598  0.1807 -0.9617  0.2230
 3008SOL     OW20659   0.533   0.608  14.714 -0.2959  0.0898 -0.3162
 3008SOL    HW120660   0.493   0.532  14.758 -0.9166  0.4553 -0.2423
 3008SOL    HW220661   0.461   0.653  14.668 -2.0134 -0.1388  2.1421
 3009SOL     OW20662   4.536   3.125  15.006 -0.2074  0.7003 -0.1729
 3009SOL    HW120663   4.559   3.113  14.914 -2.0408 -0.8169 -0.4052
 3009SOL    HW220664   4.451   3.082  15.009  0.0276  0.2099 -0.5076
 3010SOL     OW20665   2.830   3.197   3.051  0.1878  0.5461 -0.5282
 3010SOL    HW120666   2.750   3.145   3.041 -1.2702  2.6986 -0.1320
 3010SOL    HW220667   2.863   3.154   3.130  0.0945  0.3865 -0.5755
 3011SOL     OW20668   0.883   4.407   4.728  0.4986  0.1289  0.2202
 3011SOL    HW120669   0.835   4.381   4.650  3.3626 -1.7477 -0.9420
 3011SOL    HW220670   0.946   4.335   4.739  0.0777  0.0230  1.9713
 3012SOL     OW20671   3.530   2.101  16.685  0.4700  0.0803  0.5517
 3012SOL    HW120672   3.547   2.049  16.607 -0.7033 -1.1493  1.1205
 3012SOL    HW220673   3.537   2.189  16.646 -0.6776  0.6914  1.7234
 3013SOL     OW20674   1.672   1.131   4.397  0.1695 -0.6091 -0.1265
 3013SOL    HW120675   1.701   1.053   4.444  2.6620  0.2690 -0.2045
 3013SOL    HW220676   1.653   1.191   4.470 -0.0909  0.2568 -0.9157
 3014SOL     OW20677   2.094   4.027   3.625  0.1935 -0.5988  0.2659
 3014SOL    HW120678   2.132   3.939   3.621  3.2428  0.8550 -2.3950
 3014SOL    HW220679   2.159   4.059   3.563 -1.1928 -0.3904 -1.0889
 3015SOL     OW20680   2.120   0.123   4.490 -0.6011 -0.5685 -0.1577
 3015SOL    HW120681   2.028   0.110   4.512 -0.6337 -0.3443 -0.1654
 3015SOL    HW220682   2.138   0.039   4.447  1.8007  0.2274 -0.7118
 3016SOL     OW20683   0.027   1.694   1.930  0.6173  0.4098 -0.3442
 3016SOL    HW120684   0.054   1.716   2.019 -1.0944  1.6777 -0.1235
 3016SOL    HW220685   0.043   1.780   1.891 -0.2487  0.3639 -0.8100
 3017SOL     OW20686   3.929   4.253   7.047  0.8949  0.1958 -0.9318
 3017SOL    HW120687   3.941   4.347   7.033  0.0193  0.2489 -1.3243
 3017SOL    HW220688   3.982   4.217   6.977 -0.2148 -3.5424  0.1634
 3018SOL     OW20689   4.465   0.252   2.583 -0.1216 -0.2261  0.1436
 3018SOL    HW120690   4.536   0.283   2.527 -1.2065  0.0510 -1.0855
 3018SOL    HW220691   4.511   0.247   2.667  1.1905  0.0301 -0.5624
 3019SOL     OW20692   3.899   2.848   6.374  0.2362  0.0635  0.4191
 3019SOL    HW120693   3.978   2.804   6.406  0.5513 -1.9800 -3.1749
 3019SOL    HW220694   3.828   2.792   6.407 -1.2688 -0.5261 -3.7475
 3020SOL     OW20695   3.380   3.736   3.566 -0.0336  0.3114  0.0868
 3020SOL    HW120696   3.452   3.792   3.595  0.9084 -1.2524  0.7911
 3020SOL    HW220697   3.304   3.794   3.574  1.4402  1.9615  2.0098
 3021SOL     OW20698   1.527   1.128   0.039 -0.3944 -0.4964  0.0822
 3021SOL    HW120699   1.569   1.061  17.728 -0.8510  2.0889 -3.4421
 3021SOL    HW220700   1.449   1.076   0.058 -0.3114 -0.1290  1.4207
 3022SOL     OW20701   1.337   4.200  13.715  0.3975  0.8078 -0.3414
 3022SOL    HW120702   1.373   4.253  13.644  1.2686  1.7873  0.8313
 3022SOL    HW220703   1.246   4.187  13.691 -0.0225  0.3255  1.5348
 3023SOL     OW20704   4.127   2.507  16.758 -0.2490  0.2615 -0.4967
 3023SOL    HW120705   4.137   2.577  16.693  1.6805 -2.2639 -2.9454
 3023SOL    HW220706   4.048   2.530  16.806 -0.5932 -3.7712  0.8657
 3024SOL     OW20707   2.326   1.064   6.637  0.0793  0.5623 -0.2426
 3024SOL    HW120708   2.347   0.974   6.614 -1.3583  0.4977 -1.3040
 3024SOL    HW220709   2.401   1.120   6.618 -0.6162  1.4692 -0.3271
 3025SOL     OW20710   0.031   3.866   3.211 -0.3397  0.1209  0.1163
 3025SOL    HW120711   0.017   3.873   3.117  0.1818 -1.5091 -0.0881
 3025SOL    HW220712   4.698   3.811   3.245  1.2143 -1.8735  0.0578
 3026SOL     OW20713   1.890   1.241   3.523 -0.3558  0.5266 -0.4239
 3026SOL    HW120714   1.898   1.248   3.618 -0.1607 -2.0502 -0.2500
 3026SOL    HW220715   1.899   1.147   3.508 -0.7452  0.2265  1.2896
 3027SOL     OW20716   3.075   1.506   2.411 -0.1594 -0.5442 -0.1420
 3027SOL    HW120717   3.060   1.552   2.328 -0.5080  1.3571  0.9768
 3027SOL    HW220718   3.026   1.424   2.398 -1.2467 -0.0908  1.1643
 3028SOL     OW20719   2.879   3.784   6.315  0.1340 -0.0447 -0.0866
 3028SOL    HW120720   2.973   3.766   6.310  0.0410 -0.9252  1.2802
 3028SOL    HW220721   2.848   3.726   6.246  0.2891  0.7702 -0.8408
 3029SOL     OW20722   4.217   2.019   8.973 -0.3806  0.1742 -0.0287
 3029SOL    HW120723   4.304   2.021   8.933 -0.5950  1.9673 -0.4263
 3029SOL    HW220724   4.172   2.069   8.905 -0.2116  2.2559  1.3656
 3030SOL     OW20725   4.548   4.622  15.693 -0.4202 -0.4105  0.3652
 3030SOL    HW120726   4.627   4.630  15.639 -1.5352  1.3355 -0.9709
 3030SOL    HW220727   4.487   4.578  15.634  0.5410 -1.0963 -0.1280
 3031SOL     OW20728   3.321   0.161  16.358 -0.0864  1.0500  0.3171
 3031SOL    HW120729   3.412   0.150  16.332 -0.6768 -0.1061 -1.2367
 3031SOL    HW220730   3.308   0.067  16.372  1.6310  0.9392  1.1528
 3032SOL     OW20731   0.428   1.068   9.121 -0.0813 -1.0630  0.7163
 3032SOL    HW120732   0.397   1.148   9.164 -3.8552 -0.9927 -2.1684
 3032SOL    HW220733   0.369   1.066   9.046  0.4538  1.4080  0.2143
 3033SOL     OW20734   0.440   0.652   6.510 -0.4987  0.2939  0.5930
 3033SOL    HW120735   0.422   0.645   6.416 -0.3985 -2.0157  0.7293
 3033SOL    HW220736   0.365   0.596   6.533  0.2002 -0.5747  0.7677
 3034SOL     OW20737   4.151   1.598   6.144 -0.0955 -0.4551 -0.5918
 3034SOL    HW120738   4.156   1.663   6.074  1.5182 -1.1084 -1.0832
 3034SOL    HW220739   4.230   1.548   6.124 -0.4987 -1.1146 -0.5301
 3035SOL     OW20740   3.581   3.850   0.992  0.2470 -0.2365 -0.5326
 3035SOL    HW120741   3.657   3.818   0.944  0.6709 -3.2633  2.1479
 3035SOL    HW220742   3.507   3.848   0.931 -0.8428  0.9169  0.7669
 3036SOL     OW20743   3.780   1.882   5.022  0.3762  0.6910 -0.6265
 3036SOL    HW120744   3.766   1.898   5.115  0.6480  1.8786 -0.7899
 3036SOL    HW220745   3.824   1.961   4.991  1.8475  0.8670  1.9144
 3037SOL     OW20746   2.732   3.219  10.713  0.0121  0.3062 -0.2458
 3037SOL    HW120747   2.785   3.213  10.633  0.6572 -1.8013  0.3502
 3037SOL    HW220748   2.657   3.272  10.687 -1.5933 -1.7735  0.2149
 3038SOL     OW20749   0.496   0.471   9.028 -0.5042 -0.1311  0.4353
 3038SOL    HW120750   0.497   0.399   9.091  1.4825  0.3713  0.9888
 3038SOL    HW220751   0.442   0.539   9.068  2.1215  1.6065  1.0853
 3039SOL     OW20752   1.014   2.914  15.077  0.1646 -0.1168  0.0107
 3039SOL    HW120753   1.016   2.858  15.154 -2.8160  0.8447  0.7716
 3039SOL    HW220754   1.095   2.881  15.038 -0.0585 -0.8700  0.1822
 3040SOL     OW20755   2.435   0.138   3.457  0.2094 -0.1155  0.0374
 3040SOL    HW120756   2.362   0.191   3.488  1.5579  1.5039  0.5119
 3040SOL    HW220757   2.456   0.101   3.543 -0.5952 -0.1608  0.2076
 3041SOL     OW20758   1.579   3.996   4.566 -0.3301  0.5274 -0.1226
 3041SOL    HW120759   1.557   3.965   4.478 -0.0473  1.4993 -0.5298
 3041SOL    HW220760   1.499   3.970   4.611 -0.4773  1.2578  0.0344
 3042SOL     OW20761   3.935   1.742   0.470 -0.3584 -0.0984  0.4951
 3042SOL    HW120762   3.951   1.820   0.416 -0.2376  0.0090  0.6852
 3042SOL    HW220763   3.859   1.711   0.421  0.7093 -2.1470  0.1343
 3043SOL     OW20764   0.766   2.936  14.924 -0.5479  0.0855 -0.1395
 3043SOL    HW120765   0.819   2.902  14.852  0.8751  0.8152  0.5770
 3043SOL    HW220766   0.834   2.944  14.990  0.6966 -0.9314 -1.2959
 3044SOL     OW20767   4.212   4.374   3.898  0.6723  0.1302  0.0001
 3044SOL    HW120768   4.284   4.312   3.909 -0.0328 -1.3039 -3.3630
 3044SOL    HW220769   4.248   4.433   3.964  1.9103 -2.4091  1.5950
 3045SOL     OW20770   0.104   3.986   2.585  0.1863  0.1698 -0.2724
 3045SOL    HW120771   0.136   3.999   2.496 -2.1708  0.9053 -1.0219
 3045SOL    HW220772   0.115   4.079   2.607  1.5832 -0.1247  0.2694
 3046SOL     OW20773   3.178   4.289   5.685 -0.1050  0.4306  0.0061
 3046SOL    HW120774   3.118   4.250   5.621  0.6382 -0.6895 -0.0019
 3046SOL    HW220775   3.245   4.321   5.624 -0.1522  0.3615 -0.0834
 3047SOL     OW20776   0.712   3.988   0.556  0.5418 -0.0635 -0.4001
 3047SOL    HW120777   0.744   3.952   0.638 -1.5442  2.6703  1.5844
 3047SOL    HW220778   0.677   3.907   0.519 -1.6637  0.2594  1.0239
 3048SOL     OW20779   0.911   1.327   5.437  0.1160  0.1645  0.1310
 3048SOL    HW120780   0.999   1.348   5.469  0.3852 -1.4460  0.4503
 3048SOL    HW220781   0.894   1.419   5.420  0.2629  0.0367 -0.7459
 3049SOL     OW20782   3.776   2.412   7.536  0.6125 -0.0736  0.1830
 3049SOL    HW120783   3.723   2.352   7.484  1.1359 -0.0522 -0.3714
 3049SOL    HW220784   3.711   2.451   7.594 -0.9763  0.5322 -2.0195
 3050SOL     OW20785   0.478   1.729   7.255  0.4930 -0.0613  0.0580
 3050SOL    HW120786   0.534   1.758   7.183  1.0291 -1.0935  0.0545
 3050SOL    HW220787   0.499   1.636   7.249  2.7210  0.7318 -4.1976
 3051SOL     OW20788   1.144   0.640  14.506 -0.4004  0.6249 -0.0801
 3051SOL    HW120789   1.106   0.556  14.533 -1.6907  0.5362 -2.1621
 3051SOL    HW220790   1.207   0.613  14.440  0.7862 -2.8885  2.5174
 3052SOL     OW20791   0.651   3.823   5.126 -0.0673 -0.2168  0.6035
 3052SOL    HW120792   0.621   3.851   5.212 -1.8212 -0.3566  0.0312
 3052SOL    HW220793   0.736   3.864   5.141 -0.1871  0.7059 -1.1686
 3053SOL     OW20794   3.664   1.641   0.578 -0.4027  0.3849  0.1287
 3053SOL    HW120795   3.677   1.697   0.655  0.4370 -0.9014  0.9244
 3053SOL    HW220796   3.604   1.689   0.521  0.9458  0.7354 -0.9757
 3054SOL     OW20797   1.537   2.171  16.996 -0.5936  0.1366  0.3814
 3054SOL    HW120798   1.442   2.174  16.984 -0.7275 -1.8248  0.9903
 3054SOL    HW220799   1.566   2.216  16.917 -1.3025  0.7471  0.4654
 3055SOL     OW20800   1.556   1.840   7.941  0.9583  0.0720  0.3791
 3055SOL    HW120801   1.560   1.804   7.852 -0.5699 -0.2942  0.4570
 3055SOL    HW220802   1.647   1.821   7.965  0.3255 -1.7590  1.2499
 3056SOL     OW20803   3.815   2.233   5.316  0.4677 -0.3285  0.2689
 3056SOL    HW120804   3.908   2.225   5.294  0.9107 -0.3978  2.1766
 3056SOL    HW220805   3.821   2.251   5.410  1.7188  1.7910 -0.2216
 3057SOL     OW20806   4.097   2.224   2.880  0.0063  0.4453  0.3054
 3057SOL    HW120807   4.192   2.228   2.868 -0.0915 -0.5429 -0.7260
 3057SOL    HW220808   4.065   2.215   2.790  0.8327  2.7490 -0.2250
 3058SOL     OW20809   0.274   1.083   2.189  0.0100  0.8212  0.0804
 3058SOL    HW120810   0.259   1.168   2.148  1.5618  0.5373 -1.0620
 3058SOL    HW220811   0.290   1.020   2.119  2.0222  0.7238  0.6152
 3059SOL     OW20812   3.381   3.807  16.977 -0.1728 -0.2181  0.0914
 3059SOL    HW120813   3.458   3.753  16.993 -0.3841 -0.3889  0.5393
 3059SOL    HW220814   3.429   3.889  16.984  1.5144 -1.1506 -0.5891
 3060SOL     OW20815   2.985   3.314  11.907  0.4149  0.1368  0.6399
 3060SOL    HW120816   2.910   3.306  11.966  0.5497  0.6213  0.8799
 3060SOL    HW220817   2.954   3.389  11.856 -0.3836 -1.8711 -1.8234
 3061SOL     OW20818   1.109   2.746   1.500 -0.1167  0.0429 -0.2065
 3061SOL    HW120819   1.140   2.665   1.540  1.1978 -0.0493 -1.3932
 3061SOL    HW220820   1.115   2.723   1.407  1.1154 -0.3378 -0.0391
 3062SOL     OW20821   2.567   2.199   6.433  0.4891  0.6096  0.9517
 3062SOL    HW120822   2.565   2.118   6.382  1.0214  2.0430 -1.3007
 3062SOL    HW220823   2.560   2.263   6.362  0.3228 -0.9977 -0.4769
 3063SOL     OW20824   3.548   0.858   9.230 -0.0883 -0.0426 -0.2690
 3063SOL    HW120825   3.590   0.866   9.144  0.8237 -2.2314 -0.0091
 3063SOL    HW220826   3.618   0.892   9.285  0.1428 -1.4992  0.3162
 3064SOL     OW20827   4.102   1.575   2.475 -0.6879 -0.1253  0.2950
 3064SOL    HW120828   4.104   1.480   2.462 -0.8957  0.1782 -1.9817
 3064SOL    HW220829   4.060   1.608   2.395  0.3876  0.0167 -0.2024
 3065SOL     OW20830   1.115   2.870  16.853 -0.5392  1.0039  0.2390
 3065SOL    HW120831   1.057   2.946  16.860 -0.5425  0.9983  0.2696
 3065SOL    HW220832   1.060   2.817  16.911  0.1888  0.2083  0.2002
 3066SOL     OW20833   3.040   0.671   8.792 -0.0362 -0.4508 -0.2376
 3066SOL    HW120834   3.015   0.733   8.724 -1.6251 -0.3346  0.4510
 3066SOL    HW220835   3.061   0.740   8.855 -1.1178  1.4610 -1.9960
 3067SOL     OW20836   4.323   1.203   6.432  0.1382  0.0743  0.4735
 3067SOL    HW120837   4.244   1.244   6.397  0.4929 -0.4394 -0.9292
 3067SOL    HW220838   4.356   1.162   6.352 -4.4272  1.0615 -1.9144
 3068SOL     OW20839   1.183   3.712   7.560  0.2083  0.2615 -0.1278
 3068SOL    HW120840   1.210   3.800   7.587 -0.8224  0.4704  0.2465
 3068SOL    HW220841   1.129   3.737   7.486  0.5698  0.1900 -0.4174
 3069SOL     OW20842   2.728   2.583   2.903 -0.2288 -0.0137 -0.0362
 3069SOL    HW120843   2.759   2.664   2.944  0.8129  0.4088 -1.6498
 3069SOL    HW220844   2.643   2.591   2.945  0.7643 -1.5291  2.2369
 3070SOL     OW20845   1.554   2.197   7.085  0.0644 -0.2070 -0.6229
 3070SOL    HW120846   1.461   2.176   7.093  0.5663 -0.8823  3.0367
 3070SOL    HW220847   1.594   2.156   7.162  2.0132 -0.2616 -1.6634
 3071SOL     OW20848   1.120   2.798  11.856 -0.2132  0.2768 -0.4260
 3071SOL    HW120849   1.192   2.735  11.851 -1.2161 -0.9749  0.9963
 3071SOL    HW220850   1.057   2.732  11.885  1.0168  0.2656  2.1816
 3072SOL     OW20851   2.883   1.988   1.860 -0.1123  0.4481 -0.2494
 3072SOL    HW120852   2.879   2.031   1.775 -0.6126 -2.0624 -1.4849
 3072SOL    HW220853   2.971   1.950   1.867 -0.2732  0.1809  0.3541
 3073SOL     OW20854   0.424   1.023   2.392  0.3574  0.2915 -0.4977
 3073SOL    HW120855   0.381   1.052   2.312 -2.3065 -0.7464  0.5497
 3073SOL    HW220856   0.510   1.064   2.383  0.7765 -0.3476  0.5033
 3074SOL     OW20857   3.992   1.905   2.454  0.0476  0.2450 -0.0479
 3074SOL    HW120858   3.926   1.936   2.392  0.6794 -1.2728 -1.4785
 3074SOL    HW220859   4.060   1.871   2.397 -2.1101  0.8446 -2.9940
 3075SOL     OW20860   2.401   3.870   2.465 -0.3538 -0.1630 -0.0727
 3075SOL    HW120861   2.318   3.875   2.418 -1.2311 -0.7950  1.3937
 3075SOL    HW220862   2.440   3.787   2.438 -1.7520 -0.3436 -1.4841
 3076SOL     OW20863   4.203   0.646   3.411 -0.5285  0.2522 -0.4189
 3076SOL    HW120864   4.269   0.709   3.442  0.0693 -0.1122 -0.9320
 3076SOL    HW220865   4.249   0.562   3.415  1.3869  1.3176  0.2287
 3077SOL     OW20866   1.145   3.001   8.325  0.1332 -0.7128 -0.4031
 3077SOL    HW120867   1.094   2.963   8.396 -0.9468 -2.6834 -2.2226
 3077SOL    HW220868   1.103   3.087   8.317  1.3061 -0.1626 -0.6776
 3078SOL     OW20869   2.675   0.317  10.512 -0.6623 -0.0535 -0.0026
 3078SOL    HW120870   2.714   0.350  10.431 -0.7337  0.9082  0.3533
 3078SOL    HW220871   2.718   0.232  10.521  0.6921  0.4619 -1.5786
 3079SOL     OW20872   2.291   2.242   6.444 -0.1116  0.0640 -0.3691
 3079SOL    HW120873   2.378   2.280   6.454 -0.0524 -0.2880  0.4541
 3079SOL    HW220874   2.310   2.152   6.417  0.3979 -0.1837  0.8208
 3080SOL     OW20875   0.494   3.032   8.854  0.0059 -0.3986  0.3198
 3080SOL    HW120876   0.563   3.080   8.899 -0.3660  0.0965  0.3703
 3080SOL    HW220877   0.414   3.080   8.875  0.4928 -0.1857  1.6465
 3081SOL     OW20878   1.904   2.183  11.363  0.3641 -0.1806 -0.1743
 3081SOL    HW120879   1.845   2.248  11.326  3.4242  1.5350 -1.9481
 3081SOL    HW220880   1.878   2.108  11.309 -0.3292  1.1913 -1.7514
 3082SOL     OW20881   3.425   2.997   0.625 -0.5443  0.4071 -0.1434
 3082SOL    HW120882   3.470   3.016   0.542 -2.1409 -0.0567 -1.1115
 3082SOL    HW220883   3.483   3.043   0.686 -1.1135  0.5866  0.2571
 3083SOL     OW20884   4.155   1.143  14.382  0.1311  0.1861 -0.1858
 3083SOL    HW120885   4.186   1.166  14.295 -1.2641 -1.2554 -1.0535
 3083SOL    HW220886   4.080   1.202  14.387 -0.7747 -0.9348 -0.5247
 3084SOL     OW20887   3.552   3.099   8.080 -0.0970  0.0924 -0.1141
 3084SOL    HW120888   3.597   3.095   7.996 -4.6765 -1.6765 -2.4323
 3084SOL    HW220889   3.525   3.190   8.081 -1.1467 -0.2304  1.0554
 3085SOL     OW20890   0.277   1.546   8.636  0.1465  0.2695  0.2304
 3085SOL    HW120891   0.335   1.535   8.560 -0.2381 -0.8233  0.0919
 3085SOL    HW220892   0.337   1.596   8.690  0.4103  0.6631 -0.4304
 3086SOL     OW20893   0.437   3.196  12.013  0.0670  0.3586 -1.2732
 3086SOL    HW120894   0.468   3.112  12.048 -1.5413  0.0439 -0.5784
 3086SOL    HW220895   0.374   3.167  11.947 -4.0690  3.6350  1.2324
 3087SOL     OW20896   3.300   1.393   8.310  0.4254 -0.0315  0.1327
 3087SOL    HW120897   3.281   1.329   8.241  2.7412 -1.1354  0.5247
 3087SOL    HW220898   3.243   1.362   8.381  0.6024 -3.0257 -1.0456
 3088SOL     OW20899   3.674   4.655   9.837  0.3595  0.3960  0.2197
 3088SOL    HW120900   3.591   4.675   9.879  0.7607  1.4880  0.4827
 3088SOL    HW220901   3.667   4.559   9.840  1.2287  0.2656 -1.7143
 3089SOL     OW20902   1.720   4.717   6.156 -0.1661 -0.1684  0.1859
 3089SOL    HW120903   1.802   0.020   6.125 -0.4648 -2.0113 -2.8696
 3089SOL    HW220904   1.648   0.031   6.119  0.6484  0.5959 -0.3767
 3090SOL     OW20905   3.499   1.127  10.403  0.0501 -0.2368 -0.2665
 3090SOL    HW120906   3.449   1.194  10.451  1.6395 -0.2251  1.3940
 3090SOL    HW220907   3.490   1.056  10.466  1.9665 -0.9562 -0.8069
 3091SOL     OW20908   2.516   1.173   1.962  0.4094  0.0973  0.2048
 3091SOL    HW120909   2.510   1.194   1.869 -2.8783 -0.3910  0.2881
 3091SOL    HW220910   2.503   1.079   1.952 -0.1793  0.3690 -1.4948
 3092SOL     OW20911   0.654   2.328   4.496  0.3504  0.2022  0.1768
 3092SOL    HW120912   0.705   2.313   4.576 -1.5735 -1.0202  1.1661
 3092SOL    HW220913   0.651   2.236   4.470  0.7992  0.2719 -0.1259
 3093SOL     OW20914   3.017   4.638   3.844 -0.2933 -0.4577 -0.3154
 3093SOL    HW120915   3.097   4.686   3.869 -0.8838 -0.8236  2.3122
 3093SOL    HW220916   3.055   4.593   3.769  0.6716  1.5634 -1.0539
 3094SOL     OW20917   0.682   3.330  12.120 -0.2613  0.0023  0.4336
 3094SOL    HW120918   0.714   3.315  12.031  2.5875 -0.4815  1.5287
 3094SOL    HW220919   0.589   3.350  12.112 -0.4250 -1.1048 -0.3735
 3095SOL     OW20920   4.475   4.022   8.447 -0.0588  0.7526 -0.3457
 3095SOL    HW120921   4.386   4.037   8.415 -0.9902 -0.6933  1.5454
 3095SOL    HW220922   4.523   4.007   8.365 -0.4580 -0.5329 -0.3398
 3096SOL     OW20923   0.751   3.708   5.892  0.0581 -0.2404 -0.6929
 3096SOL    HW120924   0.685   3.766   5.854 -1.4152 -0.3139  1.7866
 3096SOL    HW220925   0.724   3.619   5.871 -1.5973  0.6639 -2.3647
 3097SOL     OW20926   4.556   4.682  11.646 -0.3213 -0.4353 -0.1627
 3097SOL    HW120927   4.631   4.661  11.589  0.3998  0.3035  0.5085
 3097SOL    HW220928   4.488   4.644  11.590 -1.6273  2.5586 -0.5557
 3098SOL     OW20929   0.102   1.676  14.097  0.2583  0.2573  0.7237
 3098SOL    HW120930   0.101   1.589  14.056 -0.3569 -0.1495  1.6021
 3098SOL    HW220931   0.182   1.660  14.148 -0.3968  0.0295  1.6748
 3099SOL     OW20932   2.578   1.312   6.907  0.0902  0.3512 -0.1739
 3099SOL    HW120933   2.638   1.238   6.903  2.3016  2.2541 -1.8997
 3099SOL    HW220934   2.614   1.336   6.993  1.0066 -3.1040  0.4210
 3100SOL     OW20935   0.837   4.656   2.703  0.9815  0.6068  0.7551
 3100SOL    HW120936   0.744   4.675   2.717  0.7787  0.2030 -0.0468
 3100SOL    HW220937   0.849   4.683   2.612  1.7139 -0.4271  0.5495
 3101SOL     OW20938   2.449   1.155   4.724 -0.0307  0.8400 -0.1921
 3101SOL    HW120939   2.391   1.186   4.794 -0.6283  2.0247 -1.2353
 3101SOL    HW220940   2.520   1.117   4.775 -0.2294 -0.8800 -1.2007
 3102SOL     OW20941   4.307   3.862   3.811  0.0741  0.0351 -0.0390
 3102SOL    HW120942   4.251   3.939   3.818  1.3084  0.7282  2.0644
 3102SOL    HW220943   4.366   3.863   3.886  4.0405 -1.7483 -3.1894
 3103SOL     OW20944   0.495   1.458   2.733 -0.0734 -0.1292  0.2477
 3103SOL    HW120945   0.499   1.399   2.658 -0.3992  1.5240 -1.0791
 3103SOL    HW220946   0.409   1.438   2.770  1.1361 -1.0143  2.6266
 3104SOL     OW20947   1.924   4.201   9.221  0.5675 -1.1108 -0.1002
 3104SOL    HW120948   2.002   4.154   9.190 -1.4673 -3.2198 -2.0372
 3104SOL    HW220949   1.912   4.259   9.145 -3.6086 -0.6414  0.9597
 3105SOL     OW20950   1.427   3.765  15.354 -0.3586 -0.4456  0.3569
 3105SOL    HW120951   1.366   3.808  15.295  0.5695 -1.7222 -1.5215
 3105SOL    HW220952   1.384   3.762  15.440 -0.8899  0.5988  0.1259
 3106SOL     OW20953   2.530   3.265   2.170 -0.1585  0.0864  0.1369
 3106SOL    HW120954   2.439   3.291   2.184 -0.4773 -0.1274 -1.6203
 3106SOL    HW220955   2.555   3.328   2.103  0.8393  0.5719  0.9634
 3107SOL     OW20956   2.997   4.011   4.727  0.0804 -0.1408 -0.0780
 3107SOL    HW120957   2.976   3.951   4.799 -1.0417  1.1243  0.6401
 3107SOL    HW220958   2.915   4.014   4.679  0.0024 -1.4212 -0.0304
 3108SOL     OW20959   2.571   2.476  12.803 -0.3105  0.4015  0.3749
 3108SOL    HW120960   2.652   2.426  12.805  0.1396  1.1775  2.2287
 3108SOL    HW220961   2.598   2.564  12.775 -0.4495  0.2431 -0.2501
 3109SOL     OW20962   1.079   0.483   4.140  0.0850 -0.1421  0.3076
 3109SOL    HW120963   1.080   0.572   4.106  1.2758 -0.6127 -0.9109
 3109SOL    HW220964   1.169   0.463   4.166  0.5477 -0.0270 -1.1985
 3110SOL     OW20965   3.720   3.911   4.741 -0.6283 -0.2859 -0.4086
 3110SOL    HW120966   3.661   3.952   4.804 -0.0987 -1.1966  0.6745
 3110SOL    HW220967   3.735   3.987   4.685 -1.6851 -0.3062 -0.7072
 3111SOL     OW20968   0.580   1.324   6.205  0.2732 -0.3650  0.1886
 3111SOL    HW120969   0.652   1.356   6.151 -1.4865  0.2387 -1.8082
 3111SOL    HW220970   0.581   1.384   6.279 -2.4244 -1.6492  1.2492
 3112SOL     OW20971   0.523   2.038   2.769 -0.3181  0.1401 -0.4318
 3112SOL    HW120972   0.594   2.097   2.743 -1.3777  0.8362 -1.7169
 3112SOL    HW220973   0.536   2.023   2.863 -1.7751  1.7769  0.0303
 3113SOL     OW20974   4.627   3.796  14.350  0.2439 -0.2799 -0.1030
 3113SOL    HW120975   4.722   3.797  14.336  0.1326 -1.0638 -0.8744
 3113SOL    HW220976   4.597   3.706  14.341 -1.0539  0.3292 -1.6320
 3114SOL     OW20977   4.186   1.307  16.593 -0.2503  0.6662  0.2601
 3114SOL    HW120978   4.110   1.363  16.604 -0.8197  0.0962 -0.7868
 3114SOL    HW220979   4.206   1.280  16.683  1.3375  0.8660 -0.0211
 3115SOL     OW20980   0.433   2.666   1.590 -0.1628 -0.2619 -0.0457
 3115SOL    HW120981   0.466   2.576   1.595  1.7947  0.5291  1.3773
 3115SOL    HW220982   0.376   2.676   1.666  1.5730  0.4519  1.1833
 3116SOL     OW20983   3.388   2.555   5.591 -0.5851 -0.0801 -0.2501
 3116SOL    HW120984   3.448   2.628   5.573  1.3548 -0.8471  2.8969
 3116SOL    HW220985   3.400   2.493   5.519 -2.2555 -1.1455  0.4064
 3117SOL     OW20986   4.159   0.748   6.576 -0.1212 -0.0165  0.7096
 3117SOL    HW120987   4.166   0.662   6.534 -0.3895 -0.1937  1.0316
 3117SOL    HW220988   4.078   0.743   6.625 -1.0684  0.3753 -0.8154
 3118SOL     OW20989   4.357   3.044  10.353  0.0648 -0.7436  0.2528
 3118SOL    HW120990   4.289   2.979  10.369 -2.0414  0.8772 -2.0772
 3118SOL    HW220991   4.311   3.128  10.345  2.6440  0.6084 -0.3917
 3119SOL     OW20992   0.603   4.455  13.312  0.6076  0.4397 -1.2361
 3119SOL    HW120993   0.540   4.500  13.369  1.3221 -0.1177  0.0013
 3119SOL    HW220994   0.667   4.521  13.285  1.3004  0.0122 -0.6230
 3120SOL     OW20995   0.403   4.139   3.540  0.3757 -0.4686 -0.2198
 3120SOL    HW120996   0.386   4.046   3.525 -1.1672 -0.1353 -0.5321
 3120SOL    HW220997   0.317   4.181   3.533 -0.4296 -1.9703  0.7191
 3121SOL     OW20998   2.079   0.756   5.877  0.2571 -0.2563 -0.3958
 3121SOL    HW120999   2.108   0.718   5.960 -0.7285  0.6934  0.3835
 3121SOL    HW221000   2.138   0.725   5.808 -0.4712 -3.2892  0.3738
 3122SOL     OW21001   3.091   3.853   3.396  0.0263  0.1458  0.2861
 3122SOL    HW121002   3.172   3.841   3.346 -0.3355  0.5025 -0.3935
 3122SOL    HW221003   3.036   3.889   3.326  1.0987  3.8577  1.3428
 3123SOL     OW21004   0.579   3.359   9.997  0.3925  0.0839  0.1409
 3123SOL    HW121005   0.556   3.320   9.913 -0.5681 -0.7670  0.7769
 3123SOL    HW221006   0.509   3.423  10.005 -0.3238 -1.0319  3.1597
 3124SOL     OW21007   1.766   4.157   7.688 -0.8976 -0.0473  0.5832
 3124SOL    HW121008   1.733   4.215   7.756  0.4606  0.2212  1.0059
 3124SOL    HW221009   1.748   4.075   7.735  0.0246 -0.3330  0.4533
 3125SOL     OW21010   2.562   4.125   1.802 -0.0541  0.1428 -0.4346
 3125SOL    HW121011   2.648   4.166   1.793  0.6102 -0.9773  0.7688
 3125SOL    HW221012   2.520   4.188   1.860  1.0624  0.9245 -0.4742
 3126SOL     OW21013   0.668   4.699   6.588  0.1775 -0.7749  0.4535
 3126SOL    HW121014   0.712   4.684   6.672  0.8427 -0.8458  0.0908
 3126SOL    HW221015   0.698   0.053   6.576 -0.4071 -0.8118 -1.3212
 3127SOL     OW21016   3.864   2.003   3.724 -0.8221 -0.0206  0.1213
 3127SOL    HW121017   3.947   2.038   3.693 -0.2646 -0.5711  0.9895
 3127SOL    HW221018   3.804   2.078   3.723  0.6784  1.1983  1.5265
 3128SOL     OW21019   0.200   2.052   4.463 -0.0118  0.0571 -0.0696
 3128SOL    HW121020   0.118   2.017   4.428 -0.7551 -0.2142  1.9537
 3128SOL    HW221021   0.176   2.144   4.451 -0.0722  0.3637  2.4521
 3129SOL     OW21022   0.388   3.175  14.873 -0.4566  0.2352  0.3393
 3129SOL    HW121023   0.401   3.270  14.868 -1.3904  0.4907  3.0075
 3129SOL    HW221024   0.473   3.154  14.911  0.8947  1.4929 -1.9392
 3130SOL     OW21025   2.443   1.729   4.225 -0.3000  0.2556 -0.4225
 3130SOL    HW121026   2.390   1.687   4.293  0.7371 -0.9695 -0.3780
 3130SOL    HW221027   2.529   1.736   4.267  0.3367  0.1621 -1.7436
 3131SOL     OW21028   0.498   3.165   1.849  0.7595 -0.1773 -0.3254
 3131SOL    HW121029   0.506   3.071   1.833  0.0687 -0.2611 -0.1962
 3131SOL    HW221030   0.430   3.193   1.788  1.5022 -0.4410 -1.2799
 3132SOL     OW21031   1.385   0.982   8.590 -0.1325  0.2193 -0.0103
 3132SOL    HW121032   1.444   0.931   8.534 -0.7055 -1.9320  1.3414
 3132SOL    HW221033   1.360   0.910   8.648  0.9842  1.0407  1.5099
 3133SOL     OW21034   4.034   0.574   4.200  0.4667 -0.2178 -0.6349
 3133SOL    HW121035   4.116   0.623   4.192  0.9021 -0.7943  0.2625
 3133SOL    HW221036   4.044   0.529   4.284  2.1955 -0.6994 -1.0930
 3134SOL     OW21037   0.544   3.138   3.439 -0.7902 -0.0366  0.1421
 3134SOL    HW121038   0.519   3.226   3.409 -1.2107  0.1773  1.1349
 3134SOL    HW221039   0.629   3.162   3.476  0.5785 -0.6393 -2.6314
 3135SOL     OW21040   2.905   2.849   2.413  0.1751 -0.1426 -0.1525
 3135SOL    HW121041   2.975   2.787   2.436  0.9166  1.5214  2.1008
 3135SOL    HW221042   2.948   2.934   2.411  0.1659 -0.1733 -1.9517
 3136SOL     OW21043   4.714   4.307   9.045  0.4390  0.4521 -0.2540
 3136SOL    HW121044   0.049   4.322   8.983 -1.2167 -0.0018 -2.2959
 3136SOL    HW221045   0.002   4.217   9.070  0.8176  0.1967 -1.5208
 3137SOL     OW21046   4.707   2.375   6.302  0.0702  0.2824 -0.3158
 3137SOL    HW121047   4.683   2.383   6.209  1.2517  0.2824 -0.6253
 3137SOL    HW221048   0.064   2.396   6.292  0.2594 -0.6937 -0.6386
 3138SOL     OW21049   1.842   0.453   5.342 -0.5555 -0.0639 -0.5655
 3138SOL    HW121050   1.884   0.465   5.427 -0.6529  0.3027 -0.5707
 3138SOL    HW221051   1.800   0.539   5.344 -0.9880 -0.3179  0.7790
 3139SOL     OW21052   0.171   2.160   1.971 -0.2247 -0.2025  0.1428
 3139SOL    HW121053   0.157   2.201   2.056 -1.0381  0.2223 -0.1920
 3139SOL    HW221054   0.112   2.086   1.988  1.3815 -1.6303 -0.4903
 3140SOL     OW21055   0.351   2.821  12.227  0.0808 -0.4931  0.1589
 3140SOL    HW121056   0.377   2.808  12.319 -2.8953  0.1013  1.0753
 3140SOL    HW221057   0.426   2.779  12.185 -0.5266  0.3866 -1.7599
 3141SOL     OW21058   0.739   3.792   9.992 -0.0862 -0.2787  0.1797
 3141SOL    HW121059   0.665   3.836   9.949  1.6329 -0.0481 -2.5363
 3141SOL    HW221060   0.722   3.785  10.085  0.2533 -2.3782  0.0891
 3142SOL     OW21061   0.038   2.766   7.182 -0.3856  0.1002 -0.2690
 3142SOL    HW121062   0.064   2.843   7.131  3.1518 -0.7829  0.2061
 3142SOL    HW221063   0.027   2.701   7.113 -4.2732  0.7474 -0.2491
 3143SOL     OW21064   0.175   1.928  10.605  0.6764 -0.0854 -0.1327
 3143SOL    HW121065   0.101   1.902  10.660  0.3390  0.8370 -0.1594
 3143SOL    HW221066   0.162   2.021  10.591  1.6135 -0.1197 -1.2873
 3144SOL     OW21067   0.534   4.562  10.686 -0.8910  0.2646  0.4258
 3144SOL    HW121068   0.446   4.524  10.690 -0.5400 -0.5719  0.0889
 3144SOL    HW221069   0.519   4.615  10.609  2.3501 -0.9404 -1.0092
 3145SOL     OW21070   4.574   0.702   8.720 -0.9249  0.1437  0.2921
 3145SOL    HW121071   4.596   0.634   8.657  0.5390  0.8373  0.0621
 3145SOL    HW221072   4.498   0.739   8.676 -1.1218  1.5042  1.7723
 3146SOL     OW21073   1.375   0.966  13.768 -0.4957  0.0753 -0.1230
 3146SOL    HW121074   1.435   0.950  13.695  1.2085  0.9503  1.0751
 3146SOL    HW221075   1.386   0.886  13.819 -0.6410  1.2980  1.8566
 3147SOL     OW21076   0.382   0.492   7.924 -0.0479 -0.5710  0.1363
 3147SOL    HW121077   0.292   0.472   7.899 -0.7162  0.7412  1.5681
 3147SOL    HW221078   0.370   0.578   7.962 -1.1981 -0.6290 -0.0877
 3148SOL     OW21079   4.525   1.905   8.237 -0.7680  0.2783 -0.4242
 3148SOL    HW121080   4.482   1.985   8.268  1.5006  1.0477  0.7598
 3148SOL    HW221081   4.515   1.851   8.315 -0.5793 -0.6552 -1.0454
 3149SOL     OW21082   0.566   2.044  14.763 -0.3269 -0.0819  0.2741
 3149SOL    HW121083   0.586   1.966  14.815  0.9676 -0.7459 -1.2223
 3149SOL    HW221084   0.500   2.090  14.815 -0.0230  0.8397 -0.1567
 3150SOL     OW21085   1.217   0.400  15.557  0.0003  0.1900  0.2206
 3150SOL    HW121086   1.273   0.434  15.627  0.1352 -2.1902  1.2424
 3150SOL    HW221087   1.138   0.387  15.611 -0.5996  0.3292 -0.6224
 3151SOL     OW21088   3.463   2.644   6.973 -0.4069 -0.5264 -0.2889
 3151SOL    HW121089   3.493   2.575   6.914  4.5871  0.4651  1.1215
 3151SOL    HW221090   3.382   2.614   7.013 -0.0569 -0.5079  0.4237
 3152SOL     OW21091   3.550   4.116   2.573  0.5171  0.3847 -0.2590
 3152SOL    HW121092   3.475   4.062   2.547 -0.2309  1.1149  0.3524
 3152SOL    HW221093   3.510   4.203   2.560 -0.3990  0.4335  2.7979
 3153SOL     OW21094   0.365   3.311   5.679 -0.0061 -0.5112  0.1068
 3153SOL    HW121095   0.277   3.329   5.646 -0.8779 -1.7640  1.7585
 3153SOL    HW221096   0.376   3.387   5.736 -1.1815  0.5819 -1.1276
 3154SOL     OW21097   0.403   0.245   1.272  0.5886 -0.2734 -0.0916
 3154SOL    HW121098   0.446   0.196   1.342  0.6132  0.4011  0.3665
 3154SOL    HW221099   0.477   0.232   1.213 -0.4950 -1.8736 -1.0954
 3155SOL     OW21100   3.476   2.508   0.659  0.5807  0.8034  0.1928
 3155SOL    HW121101   3.510   2.592   0.688  0.5546  1.7267 -2.3943
 3155SOL    HW221102   3.550   2.448   0.645 -0.3849 -0.3122 -0.1838
 3156SOL     OW21103   2.579   1.284  14.462  0.0856 -0.5004  0.2368
 3156SOL    HW121104   2.638   1.336  14.517  2.5608 -2.4904 -0.5058
 3156SOL    HW221105   2.643   1.238  14.408 -0.2321 -1.9684  1.0990
 3157SOL     OW21106   4.630   1.611   7.134 -0.2168 -0.0788  0.5589
 3157SOL    HW121107   4.618   1.567   7.218 -2.2271  0.9088  0.7973
 3157SOL    HW221108   4.725   1.618   7.126 -0.4760  0.6950 -2.0212
 3158SOL     OW21109   1.643   1.892   2.380  0.2859  0.2482  0.0409
 3158SOL    HW121110   1.614   1.972   2.423  1.8936  0.9526 -0.1994
 3158SOL    HW221111   1.567   1.883   2.323  0.5007 -0.1312 -0.1836
 3159SOL     OW21112   1.644   3.076   3.716  0.2512  0.6871 -0.0867
 3159SOL    HW121113   1.722   3.063   3.770 -0.9389 -0.1049  1.4497
 3159SOL    HW221114   1.621   3.168   3.728 -1.3812  0.1796  0.6213
 3160SOL     OW21115   3.843   2.394   4.643  0.0320 -0.3956 -0.2362
 3160SOL    HW121116   3.902   2.348   4.583 -3.8476 -1.7310 -3.0375
 3160SOL    HW221117   3.796   2.460   4.592 -2.1440 -1.0976  0.8719
 3161SOL     OW21118   4.436   3.453   7.716  0.2724 -0.0468  0.3087
 3161SOL    HW121119   4.422   3.547   7.707  0.1913  0.1726  2.8543
 3161SOL    HW221120   4.447   3.447   7.810 -0.7030  0.8411  0.4740
 3162SOL     OW21121   0.619   1.220   6.964 -0.0865  0.4810 -0.7970
 3162SOL    HW121122   0.597   1.161   7.035  0.4762 -1.6755 -2.4045
 3162SOL    HW221123   0.548   1.283   6.967  2.3713  3.1552  1.5191
 3163SOL     OW21124   3.690   2.260  15.787  0.1328 -0.4330  0.2177
 3163SOL    HW121125   3.661   2.200  15.718 -1.7873 -0.2996  0.8988
 3163SOL    HW221126   3.610   2.303  15.817  0.0436 -0.5656  0.1686
 3164SOL     OW21127   1.458   0.666  12.783 -0.3035 -0.1195  0.1615
 3164SOL    HW121128   1.519   0.732  12.815 -0.0193 -1.4862  2.3783
 3164SOL    HW221129   1.506   0.584  12.781  0.1321  0.1426 -0.2776
 3165SOL     OW21130   2.953   4.198  15.877  0.0262  0.1863  0.1759
 3165SOL    HW121131   2.896   4.257  15.828 -3.0885 -0.1479  3.4241
 3165SOL    HW221132   3.039   4.240  15.869  1.1054 -1.9573  0.4522
 3166SOL     OW21133   2.653   3.867   3.373  0.0427  0.1929 -0.0240
 3166SOL    HW121134   2.720   3.799   3.374  0.7679  0.9242  2.3884
 3166SOL    HW221135   2.700   3.930   3.428 -0.3604  0.5673 -0.1077
 3167SOL     OW21136   4.279   4.646   4.281 -0.2551  0.1956 -0.1257
 3167SOL    HW121137   4.341   4.631   4.352 -0.4699 -2.0227 -0.4040
 3167SOL    HW221138   4.253   4.730   4.318 -3.7022 -0.4622 -0.9772
 3168SOL     OW21139   2.104   3.941   2.068  0.8818 -0.3449  0.2985
 3168SOL    HW121140   2.107   3.868   2.131  0.3869 -1.5470 -1.0766
 3168SOL    HW221141   2.089   3.895   1.986 -1.3023  2.1920 -0.7342
 3169SOL     OW21142   3.335   0.214  11.718 -0.0674  0.2351 -0.2051
 3169SOL    HW121143   3.242   0.230  11.700 -0.2989 -0.5655  0.3005
 3169SOL    HW221144   3.347   0.259  11.801  0.7796  0.5175 -0.4833
 3170SOL     OW21145   1.060   2.394   8.002 -0.3978 -0.2606 -0.0548
 3170SOL    HW121146   1.153   2.408   7.989 -0.2429 -0.2891  1.0038
 3170SOL    HW221147   1.051   2.466   8.064  0.6444 -0.7178  0.6288
 3171SOL     OW21148   0.341   1.277   1.133 -0.3646  0.2494  0.0319
 3171SOL    HW121149   0.319   1.369   1.121  0.1145  0.3393 -0.1677
 3171SOL    HW221150   0.257   1.250   1.171  0.6379 -1.0126  1.3752
 3172SOL     OW21151   4.455   0.854  16.615  0.2095  0.1821 -0.1908
 3172SOL    HW121152   4.366   0.841  16.582  0.8600 -0.4601 -1.6593
 3172SOL    HW221153   4.440   0.842  16.709  4.0797  0.3253  0.4285
 3173SOL     OW21154   3.289   0.749   3.980 -0.0473  0.0473  0.1664
 3173SOL    HW121155   3.352   0.811   3.942  0.6651 -1.4387 -1.1032
 3173SOL    HW221156   3.289   0.776   4.071  2.0263 -0.2070  0.2364
 3174SOL     OW21157   3.084   1.502   3.372  0.3575 -0.3711  0.4156
 3174SOL    HW121158   2.989   1.504   3.370  0.2589 -2.4112  3.9405
 3174SOL    HW221159   3.095   1.584   3.323  0.4297 -0.7268 -0.1613
 3175SOL     OW21160   2.198   1.680   6.124 -0.8981 -1.1291  0.3036
 3175SOL    HW121161   2.176   1.634   6.205 -2.6842 -1.9230 -0.6154
 3175SOL    HW221162   2.200   1.609   6.060  2.2109 -1.8856  1.2693
 3176SOL     OW21163   0.331   2.439  14.313  0.4366  0.2749  0.3833
 3176SOL    HW121164   0.408   2.462  14.260  0.2363  0.7985  0.3213
 3176SOL    HW221165   0.343   2.495  14.389 -0.9101 -0.4685  1.1274
 3177SOL     OW21166   1.383   2.096   6.613  0.7916 -0.1636 -0.1235
 3177SOL    HW121167   1.459   2.113   6.668  0.0428  0.7222  0.6498
 3177SOL    HW221168   1.320   2.062   6.677  0.7762  0.2439  0.0797
 3178SOL     OW21169   3.667   1.319   5.473  0.5374 -0.7349  0.2509
 3178SOL    HW121170   3.692   1.374   5.546  0.1434  0.0629 -0.2164
 3178SOL    HW221171   3.751   1.293   5.434  0.5269 -1.3769  0.6580
 3179SOL     OW21172   3.149   0.152   6.274  0.4610  0.8428  0.1881
 3179SOL    HW121173   3.137   0.092   6.201  0.9324 -1.3052  1.8561
 3179SOL    HW221174   3.224   0.103   6.309 -1.0214 -0.4837  1.5293
 3180SOL     OW21175   1.093   0.132   7.217  0.4349  0.2388  0.7496
 3180SOL    HW121176   1.094   0.053   7.270 -2.1386  0.3312  0.9330
 3180SOL    HW221177   1.186   0.133   7.191 -0.0330  1.9034 -0.8501
 3181SOL     OW21178   2.622   0.997   6.076 -0.0660 -0.0575 -0.0131
 3181SOL    HW121179   2.697   1.055   6.061 -0.6408  0.2958 -1.4583
 3181SOL    HW221180   2.552   1.058   6.099  1.6516  1.9772 -0.1737
 3182SOL     OW21181   0.678   0.499  12.638  0.5593 -0.2711  0.5207
 3182SOL    HW121182   0.688   0.475  12.546  0.9994  0.0131  0.4951
 3182SOL    HW221183   0.622   0.576  12.626 -0.3992 -1.2971 -1.5567
 3183SOL     OW21184   3.526   0.292   2.101  0.1535 -0.7581  0.8279
 3183SOL    HW121185   3.556   0.308   2.190  1.1535  0.8177  0.2122
 3183SOL    HW221186   3.594   0.327   2.043 -0.1127 -1.6743 -0.0449
 3184SOL     OW21187   1.272   4.200   5.026 -0.2468 -0.1194  0.3821
 3184SOL    HW121188   1.196   4.174   5.078 -0.8398 -1.4093 -1.1055
 3184SOL    HW221189   1.338   4.168   5.088  1.0342 -1.1561 -1.5067
 3185SOL     OW21190   0.544   2.835   8.673 -0.1134  1.2310  0.0069
 3185SOL    HW121191   0.539   2.903   8.741  0.2143  0.0248  1.2214
 3185SOL    HW221192   0.479   2.869   8.611 -0.7152 -1.5570 -0.8659
 3186SOL     OW21193   1.429   1.175  16.929 -0.3645 -0.7861 -0.1012
 3186SOL    HW121194   1.399   1.085  16.937 -0.0462 -0.7495  1.5728
 3186SOL    HW221195   1.365   1.211  16.868 -1.6845 -1.6826  0.7544
 3187SOL     OW21196   1.635   3.592   6.033  0.7974 -0.6133  0.1219
 3187SOL    HW121197   1.701   3.542   6.081 -0.2546 -1.4312  0.7112
 3187SOL    HW221198   1.604   3.525   5.971 -2.2751 -0.5883  1.6138
 3188SOL     OW21199   0.930   2.009   3.731 -0.2812 -0.0269  0.6418
 3188SOL    HW121200   0.955   2.032   3.820  2.7647  2.3894 -0.8174
 3188SOL    HW221201   0.956   2.084   3.677  1.6938 -1.1398  0.0589
 3189SOL     OW21202   1.417   1.126   3.978 -0.1528  0.3329 -0.7788
 3189SOL    HW121203   1.473   1.069   3.924  1.5688  1.7724 -0.4974
 3189SOL    HW221204   1.403   1.070   4.054 -2.3826  1.4965 -0.3335
 3190SOL     OW21205   0.920   1.091   5.768 -0.0522  0.2997  0.2215
 3190SOL    HW121206   0.924   1.025   5.838 -1.9781 -0.4420 -0.3652
 3190SOL    HW221207   0.844   1.144   5.791  0.8080  0.5467  2.4478
 3191SOL     OW21208   4.679   0.838   5.840  0.4704  1.0483  0.4741
 3191SOL    HW121209   4.690   0.743   5.848 -3.9793  0.5675  0.5832
 3191SOL    HW221210   4.624   0.847   5.762  0.1061 -0.8269  0.5065
 3192SOL     OW21211   4.356   0.806   3.587 -0.4596  0.9637  0.3062
 3192SOL    HW121212   4.330   0.861   3.661 -0.9493 -0.6781  1.3527
 3192SOL    HW221213   4.443   0.845   3.579  0.9874 -1.9052  1.9139
 3193SOL     OW21214   1.931   4.518   2.036 -0.2754 -0.5308  0.1552
 3193SOL    HW121215   1.894   4.431   2.018  0.4480 -0.6765 -0.6481
 3193SOL    HW221216   2.025   4.503   2.025 -0.8506 -1.7930 -3.0025
 3194SOL     OW21217   3.860   0.291  14.391 -0.0242  0.0828  0.1559
 3194SOL    HW121218   3.849   0.378  14.352 -0.7121  0.1403  0.4828
 3194SOL    HW221219   3.952   0.294  14.418 -0.0509 -1.3958  0.3664
 3195SOL     OW21220   1.924   0.973   6.326 -0.8040 -0.6702  0.5045
 3195SOL    HW121221   2.014   0.947   6.347 -1.3141 -1.6131  1.5577
 3195SOL    HW221222   1.943   0.967   6.232  0.3699  2.6646  0.5430
 3196SOL     OW21223   0.404   2.935  10.614  0.0074  0.3471 -0.1272
 3196SOL    HW121224   0.336   2.883  10.571  0.4901  0.1039 -0.6025
 3196SOL    HW221225   0.474   2.934  10.548 -1.1070 -2.5031 -1.2892
 3197SOL     OW21226   2.129   2.037  13.556 -0.1610  0.1084  0.1786
 3197SOL    HW121227   2.129   1.942  13.563  2.7187  0.0292 -0.6312
 3197SOL    HW221228   2.216   2.047  13.517 -1.0264  1.0588 -1.4814
 3198SOL     OW21229   2.202   0.735  12.128  0.3528  0.1604  0.3102
 3198SOL    HW121230   2.278   0.739  12.069 -0.1806  2.8646 -0.1893
 3198SOL    HW221231   2.207   0.644  12.160  1.8555  0.3836  0.7351
 3199SOL     OW21232   0.668   4.059  13.575 -0.2230 -0.0848 -0.7590
 3199SOL    HW121233   0.708   4.001  13.640 -1.6212 -1.6893 -1.3362
 3199SOL    HW221234   0.591   4.080  13.627  0.3502  0.4393 -0.1182
 3200SOL     OW21235   2.220   1.058  11.857 -0.1067 -0.4370 -0.7165
 3200SOL    HW121236   2.137   1.074  11.901  0.4223  1.6268 -0.4602
 3200SOL    HW221237   2.273   1.138  11.856 -0.0080 -0.4859  0.3275
 3201SOL     OW21238   2.888   3.356   2.427  0.8230  0.1501 -0.2619
 3201SOL    HW121239   2.883   3.364   2.523 -3.1325 -1.4032 -0.3262
 3201SOL    HW221240   2.970   3.402   2.410  1.1343  0.7472  2.8498
 3202SOL     OW21241   1.408   2.051   0.939  0.0796  0.5446  0.5800
 3202SOL    HW121242   1.488   2.080   0.896 -0.2124 -3.2398 -2.5575
 3202SOL    HW221243   1.443   1.975   0.986  1.7904  0.1655 -1.3053
 3203SOL     OW21244   2.876   0.232   7.470 -0.0711  0.3073 -0.7820
 3203SOL    HW121245   2.969   0.224   7.489  0.2771  0.3855 -2.4756
 3203SOL    HW221246   2.873   0.186   7.386  0.5359 -0.1094 -0.5738
 3204SOL     OW21247   0.725   0.007   5.079 -0.2691  0.1921 -0.4976
 3204SOL    HW121248   0.796   0.069   5.091 -0.1776  0.0388 -0.2201
 3204SOL    HW221249   0.769   4.662   5.106  2.3375  1.2571 -1.6222
 3205SOL     OW21250   4.319   3.056   7.257  0.6450  0.0118 -0.5374
 3205SOL    HW121251   4.373   3.122   7.215  0.6124 -0.7767 -1.8237
 3205SOL    HW221252   4.288   3.006   7.181  0.7664 -0.1945 -0.4511
 3206SOL     OW21253   4.318   1.361  15.889  0.5877 -0.1309 -0.4148
 3206SOL    HW121254   4.286   1.440  15.846  0.1018  0.0105  0.2169
 3206SOL    HW221255   4.315   1.380  15.982  2.0921 -0.9670 -0.1853
 3207SOL     OW21256   3.461   2.986  15.579  0.3384 -0.3247  0.1095
 3207SOL    HW121257   3.509   2.945  15.507 -0.0313 -1.0633  0.2810
 3207SOL    HW221258   3.396   3.039  15.532 -1.4840 -0.9061  1.9243
 3208SOL     OW21259   0.664   4.723   1.669  0.1664  0.0820 -0.1721
 3208SOL    HW121260   0.731   4.678   1.618  0.8467 -0.4123  1.1464
 3208SOL    HW221261   0.708   4.708   1.753  0.3413  0.1227 -0.2562
 3209SOL     OW21262   3.043   4.394   4.000 -0.0697  0.4450  0.0429
 3209SOL    HW121263   2.991   4.397   4.080  0.7536  1.7640  0.5297
 3209SOL    HW221264   3.016   4.477   3.961  0.1639  0.7127  0.4532
 3210SOL     OW21265   3.365   3.279  16.042 -0.0002 -0.0639 -0.0178
 3210SOL    HW121266   3.401   3.364  16.066  1.5088 -0.2158 -1.7527
 3210SOL    HW221267   3.414   3.256  15.963  1.9243  2.0818  0.5604
 3211SOL     OW21268   1.486   2.177   5.458 -0.0093  0.2825  0.0281
 3211SOL    HW121269   1.559   2.227   5.420 -1.0504  1.1039 -0.9118
 3211SOL    HW221270   1.412   2.233   5.435 -0.4050 -0.5036 -0.5972
 3212SOL     OW21271   3.113   1.736   3.559  0.2935  0.8600 -0.1775
 3212SOL    HW121272   3.075   1.775   3.480  1.2333  1.9136 -0.1194
 3212SOL    HW221273   3.172   1.676   3.514  1.0456  1.8747 -0.5542
 3213SOL     OW21274   3.121   2.015   4.756 -0.1852 -0.2854  0.2605
 3213SOL    HW121275   3.175   1.994   4.832  1.4391 -1.2621 -1.1734
 3213SOL    HW221276   3.178   2.070   4.703  0.0790 -0.4313  0.3908
 3214SOL     OW21277   1.030   2.010   2.378  0.0317  0.7442  0.6754
 3214SOL    HW121278   0.998   2.062   2.452 -1.6148  1.4219 -0.5102
 3214SOL    HW221279   1.037   1.926   2.423 -3.2369  0.1464  0.0557
 3215SOL     OW21280   1.971   4.335   7.322 -0.2738 -0.4320  0.1575
 3215SOL    HW121281   1.929   4.373   7.245  0.0463  0.3757  0.3804
 3215SOL    HW221282   1.901   4.271   7.333 -1.0229  0.3728  0.1296
 3216SOL     OW21283   4.121   0.298   8.407  0.1238  0.7838 -0.3541
 3216SOL    HW121284   4.183   0.265   8.473  0.1956  1.3539 -0.1362
 3216SOL    HW221285   4.048   0.332   8.458 -1.2125  0.7551 -2.2655
 3217SOL     OW21286   0.886   4.396   3.664 -0.1463 -0.1594 -0.3305
 3217SOL    HW121287   0.879   4.472   3.721 -1.1262  0.1004 -0.8062
 3217SOL    HW221288   0.819   4.345   3.710 -1.0462 -0.6494 -2.2070
 3218SOL     OW21289   3.004   3.884   2.418  0.0742 -0.2616  0.0673
 3218SOL    HW121290   2.923   3.874   2.368 -1.1906 -1.8157  2.4370
 3218SOL    HW221291   3.014   3.801   2.464  2.5773  0.2051  0.3722
 3219SOL     OW21292   4.244   2.373   7.906 -0.0046 -0.1326 -0.4559
 3219SOL    HW121293   4.185   2.368   7.831 -1.6154 -0.5156  0.8355
 3219SOL    HW221294   4.330   2.346   7.873 -0.2950 -0.8222 -0.6508
 3220SOL     OW21295   0.004   0.953   4.960  0.4504  1.0229  0.3717
 3220SOL    HW121296   4.733   1.048   4.968 -0.8245  0.9446  0.1792
 3220SOL    HW221297   4.677   0.924   5.025  0.9544  0.4428  0.6121
 3221SOL     OW21298   0.450   1.578   8.939 -0.1613  0.4331 -0.2469
 3221SOL    HW121299   0.537   1.615   8.926  1.2461 -2.6238  0.4428
 3221SOL    HW221300   0.451   1.567   9.034 -0.0202 -1.0529 -0.4222
 3222SOL     OW21301   0.281   2.340   9.365 -0.2041  0.4768 -0.1025
 3222SOL    HW121302   0.204   2.379   9.408 -0.2278  0.6904 -0.3377
 3222SOL    HW221303   0.349   2.381   9.418 -0.4740  0.1077  0.5454
 3223SOL     OW21304   0.084   1.139   7.964 -0.3412  0.1642 -0.1859
 3223SOL    HW121305   0.153   1.205   7.968  0.2491 -0.3004 -2.7433
 3223SOL    HW221306   0.005   1.188   7.986 -0.4550  0.9225 -2.2421
 3224SOL     OW21307   1.834   1.441   5.847 -0.2098 -0.1193 -0.1880
 3224SOL    HW121308   1.867   1.356   5.878 -1.0059 -0.0163  0.9382
 3224SOL    HW221309   1.750   1.423   5.803 -0.8447  1.2631  0.4814
 3225SOL     OW21310   2.516   0.544  16.341  0.2449 -0.2962  0.1520
 3225SOL    HW121311   2.495   0.630  16.377 -0.5394 -0.1664 -0.6079
 3225SOL    HW221312   2.451   0.491  16.388 -0.9569  0.9463 -0.1004
 3226SOL     OW21313   1.467   0.453  13.768 -0.0854 -0.2280  0.3955
 3226SOL    HW121314   1.517   0.492  13.696 -0.3379 -1.3780 -0.3883
 3226SOL    HW221315   1.428   0.375  13.730 -0.6295 -0.0530  0.5983
 3227SOL     OW21316   1.126   3.806   6.814 -0.7204  0.1695 -0.0257
 3227SOL    HW121317   1.167   3.802   6.727  0.2549  0.5276  0.4086
 3227SOL    HW221318   1.052   3.864   6.797 -1.4713 -0.2732  1.7656
 3228SOL     OW21319   2.710   0.873   4.513 -0.1195 -0.8501  0.2004
 3228SOL    HW121320   2.756   0.948   4.549 -0.0314 -0.6552 -0.3258
 3228SOL    HW221321   2.625   0.893   4.553 -1.0209  0.2516 -2.2644
 3229SOL     OW21322   0.803   4.296   5.942  0.9184  0.1296  0.2983
 3229SOL    HW121323   0.816   4.279   6.035 -1.0838 -1.5231  0.2806
 3229SOL    HW221324   0.708   4.305   5.945  0.7059 -1.0142 -2.6689
 3230SOL     OW21325   3.264   2.522   6.652  0.1798  0.3937 -0.1259
 3230SOL    HW121326   3.212   2.565   6.584 -0.9739 -1.1492 -0.2016
 3230SOL    HW221327   3.266   2.595   6.713  0.4575  1.3562 -1.2752
 3231SOL     OW21328   1.216   4.713   5.237  0.4562  0.6945 -0.4371
 3231SOL    HW121329   1.255   4.674   5.315  2.2904 -1.2679 -2.3412
 3231SOL    HW221330   1.285   0.040   5.214  0.5282  0.5598 -0.5877
 3232SOL     OW21331   2.850   1.974   2.645 -0.4071 -0.3414 -0.2562
 3232SOL    HW121332   2.781   1.918   2.681  1.2245 -2.0269  0.2775
 3232SOL    HW221333   2.900   1.908   2.596  1.7785  0.9592  0.2308
 3233SOL     OW21334   0.890   2.085   6.068 -0.1369  0.1705 -0.5461
 3233SOL    HW121335   0.850   2.160   6.112  1.0741 -0.1404  1.0839
 3233SOL    HW221336   0.828   2.017   6.094  0.5773  0.3314  1.5895
 3234SOL     OW21337   4.345   2.601   8.290  0.0663 -0.3401  0.3226
 3234SOL    HW121338   4.419   2.639   8.243 -0.2966  1.0234  0.8488
 3234SOL    HW221339   4.308   2.672   8.342  0.6824  0.3465 -0.1583
 3235SOL     OW21340   0.588   3.621  11.285  0.2329 -0.5057 -0.0716
 3235SOL    HW121341   0.613   3.694  11.227  0.5204  0.6482  1.4991
 3235SOL    HW221342   0.516   3.657  11.336  1.0640  0.3806  0.4861
 3236SOL     OW21343   0.970   0.218   8.323 -0.3044  0.1125 -0.4563
 3236SOL    HW121344   0.888   0.190   8.363  0.1409 -0.7367 -0.1334
 3236SOL    HW221345   0.972   0.311   8.343 -0.5839 -0.1020  0.5941
 3237SOL     OW21346   3.059   0.337   3.506  0.1955 -0.1476 -0.4480
 3237SOL    HW121347   3.042   0.421   3.465 -0.8707 -0.3465 -0.4176
 3237SOL    HW221348   3.134   0.357   3.561 -1.3468 -0.1322  1.6683
 3238SOL     OW21349   0.797   1.860   9.428 -0.1127 -0.4629  0.1922
 3238SOL    HW121350   0.746   1.833   9.352  2.2993 -1.0689 -1.2038
 3238SOL    HW221351   0.731   1.868   9.497  0.3821  1.4201  0.4702
 3239SOL     OW21352   0.924   0.180   6.741 -0.4361  0.0477 -0.2303
 3239SOL    HW121353   0.869   0.244   6.696 -0.0060  1.7166  1.5756
 3239SOL    HW221354   1.014   0.195   6.711 -0.6557  0.5571 -0.6375
 3240SOL     OW21355   3.402   1.817   6.886 -0.4087  0.1412 -0.0573
 3240SOL    HW121356   3.476   1.868   6.854  0.0143  0.7937  1.9568
 3240SOL    HW221357   3.450   1.741   6.918  1.3140  0.2831 -2.3196
 3241SOL     OW21358   3.117   3.374   3.629  0.0571  0.0037 -0.2050
 3241SOL    HW121359   3.115   3.459   3.585 -0.2997 -0.9204 -1.9713
 3241SOL    HW221360   3.052   3.333   3.572  2.2808 -1.7199 -1.4741
 3242SOL     OW21361   2.024   3.526  17.682 -0.1433 -0.0149  0.0711
 3242SOL    HW121362   2.010   3.618  17.704 -1.9979  0.5839 -3.7013
 3242SOL    HW221363   1.949   3.497  17.631 -0.2238 -0.0247  0.1974
 3243SOL     OW21364   2.959   2.962   3.930  0.0746 -0.4221 -0.5944
 3243SOL    HW121365   3.022   3.032   3.917  1.1548 -0.9684  1.6144
 3243SOL    HW221366   3.020   2.888   3.939  0.7365  0.3298  1.1384
 3244SOL     OW21367   3.882   4.669   5.244 -0.0090 -0.1726 -0.1595
 3244SOL    HW121368   3.848   4.648   5.156 -1.0255  0.3178  0.1167
 3244SOL    HW221369   3.892   4.580   5.279  1.0820 -0.9328 -2.3925
 3245SOL     OW21370   3.396   0.901   3.657  0.5081  0.1677 -0.2982
 3245SOL    HW121371   3.351   0.937   3.581  0.4440 -0.8591 -0.7453
 3245SOL    HW221372   3.424   0.817   3.618 -1.4583 -0.7517  0.2706
 3246SOL     OW21373   3.483   2.316   3.805  0.2226  0.1604  0.0682
 3246SOL    HW121374   3.579   2.308   3.800  0.2183  0.5058 -0.5490
 3246SOL    HW221375   3.460   2.376   3.734 -2.8525  0.2083  1.1162
 3247SOL     OW21376   2.711   4.554  10.592  0.1861 -0.2946  0.2201
 3247SOL    HW121377   2.784   4.526  10.647  0.8800  0.8607 -0.0964
 3247SOL    HW221378   2.637   4.540  10.651 -0.1081  3.3098  0.7504
 3248SOL     OW21379   1.837   4.327   7.082  0.2078  0.0270 -0.1504
 3248SOL    HW121380   1.922   4.327   7.038  0.3926 -1.7525  0.1954
 3248SOL    HW221381   1.787   4.389   7.028 -0.0840 -0.1039 -0.0291
 3249SOL     OW21382   1.639   3.859   1.214  0.3929 -0.3673 -0.2476
 3249SOL    HW121383   1.710   3.918   1.239 -0.3403 -0.1597  1.3085
 3249SOL    HW221384   1.560   3.908   1.240  1.0332  0.2134  0.6098
 3250SOL     OW21385   1.556   0.997   8.219 -0.9254 -0.1086  0.0036
 3250SOL    HW121386   1.605   1.001   8.136 -1.0061 -1.7624 -0.1224
 3250SOL    HW221387   1.614   0.948   8.278 -1.6310  2.0364  2.4874
 3251SOL     OW21388   0.167   1.779   8.351 -0.4332 -0.1845  0.2044
 3251SOL    HW121389   0.126   1.864   8.337 -1.5047 -0.5284  1.3076
 3251SOL    HW221390   0.223   1.798   8.426 -2.2116  3.1337  0.6833
 3252SOL     OW21391   4.052   0.885   6.044 -0.7367 -0.1859  0.4005
 3252SOL    HW121392   3.979   0.866   5.985 -1.2385 -0.8917  1.2479
 3252SOL    HW221393   4.014   0.942   6.111  1.6284  0.5624  1.1044
 3253SOL     OW21394   3.294   0.047  15.797  0.2458 -0.9773  0.4903
 3253SOL    HW121395   3.272   0.043  15.890  2.7002  0.1899  1.1010
 3253SOL    HW221396   3.367   0.107  15.784  0.8685 -1.8818 -0.2359
 3254SOL     OW21397   4.553   0.756   1.505 -0.0918  0.1848  0.4517
 3254SOL    HW121398   4.558   0.815   1.580  0.5913  0.4115  0.2270
 3254SOL    HW221399   4.614   0.689   1.535  1.3196  1.6886  0.9605
 3255SOL     OW21400   0.034   4.366  17.458  0.0383 -0.1268  1.1124
 3255SOL    HW121401   0.007   4.453  17.429  1.3841 -0.4757 -1.1863
 3255SOL    HW221402   0.039   4.319  17.375 -2.2579 -0.3129  1.0894
 3256SOL     OW21403   2.514   0.322   6.662 -0.3559 -0.0892 -0.4423
 3256SOL    HW121404   2.459   0.273   6.601  0.0782  0.1749 -1.0437
 3256SOL    HW221405   2.464   0.323   6.743  0.7656  0.4309  0.2385
 3257SOL     OW21406   3.112   2.727   3.591  0.2220  0.4456 -0.1479
 3257SOL    HW121407   3.160   2.770   3.662  0.2893 -2.2921  1.4822
 3257SOL    HW221408   3.102   2.642   3.635  1.4791 -0.4260 -1.5383
 3258SOL     OW21409   1.004   0.041   4.569  0.3980  0.0197  0.3567
 3258SOL    HW121410   0.916   0.075   4.555  0.3383 -0.8330 -1.3764
 3258SOL    HW221411   0.986   0.012   4.659  0.2738  0.0005  0.3259
 3259SOL     OW21412   4.451   1.047   8.918 -0.2102  0.5354  0.3075
 3259SOL    HW121413   4.450   1.127   8.865  1.7859 -0.9283 -1.9396
 3259SOL    HW221414   4.545   1.028   8.917 -0.5361 -1.0090 -0.8486
 3260SOL     OW21415   1.266   0.196   1.511  1.2471  0.2465  0.3385
 3260SOL    HW121416   1.296   0.286   1.500  1.0181  0.6697  3.1723
 3260SOL    HW221417   1.342   0.165   1.560  0.1103 -2.8078  0.1646
 3261SOL     OW21418   3.376   2.378   4.457  0.2977 -0.0668  0.0689
 3261SOL    HW121419   3.353   2.417   4.373 -0.7437 -1.6878 -0.3979
 3261SOL    HW221420   3.340   2.436   4.524  2.9348  1.0494  0.5439
 3262SOL     OW21421   1.529   0.267   2.233  0.0616  0.3182 -1.3155
 3262SOL    HW121422   1.487   0.345   2.267 -0.0336  0.5834 -2.0442
 3262SOL    HW221423   1.619   0.284   2.263 -0.8552  1.0836  0.9612
 3263SOL     OW21424   2.144   4.079   6.631  0.3572 -0.1189  0.1521
 3263SOL    HW121425   2.116   3.987   6.631 -1.1080  0.3285  0.3507
 3263SOL    HW221426   2.217   4.081   6.570 -0.1778 -1.2321 -0.5330
 3264SOL     OW21427   0.574   4.696   7.598 -0.1246  0.8887 -0.0606
 3264SOL    HW121428   0.493   4.678   7.646 -0.1029  0.8153 -0.0509
 3264SOL    HW221429   0.586   0.050   7.628 -1.0060  1.3949 -1.2337
 3265SOL     OW21430   2.255   4.316   7.680 -0.4370 -0.1352  0.4172
 3265SOL    HW121431   2.307   4.243   7.646 -0.7770 -0.3333  0.3158
 3265SOL    HW221432   2.307   4.342   7.756 -1.3436 -0.4560  1.1527
 3266SOL     OW21433   4.384   2.203  14.658  0.1820 -0.4022  0.4500
 3266SOL    HW121434   4.301   2.241  14.627  0.3501  0.7663  1.4277
 3266SOL    HW221435   4.414   2.177  14.571  0.2061  0.6228  0.1527
 3267SOL     OW21436   1.629   2.094   2.060 -0.7714 -0.3023  0.2681
 3267SOL    HW121437   1.670   2.153   1.997  0.9641  0.2549  1.8914
 3267SOL    HW221438   1.607   2.018   2.007 -0.6567 -1.6386  2.1531
 3268SOL     OW21439   4.693   3.055   3.695 -0.5902  0.2846 -0.1578
 3268SOL    HW121440   4.727   3.052   3.785 -0.9205  1.3887  0.0001
 3268SOL    HW221441   4.635   2.979   3.692  2.1757 -1.7621 -1.5444
 3269SOL     OW21442   0.996   4.491  13.558 -0.1454  0.0481  0.2393
 3269SOL    HW121443   0.987   4.567  13.500 -1.2071  0.8126  1.4175
 3269SOL    HW221444   0.926   4.504  13.622 -1.8984  0.0376 -1.6459
 3270SOL     OW21445   1.144   3.848   6.013  0.1952 -0.0834  1.2019
 3270SOL    HW121446   1.093   3.929   6.020 -0.1998 -0.2251 -0.0555
 3270SOL    HW221447   1.175   3.849   6.103 -0.2237 -0.1706  1.3466
 3271SOL     OW21448   1.036   0.296   3.145 -0.0578  0.3310  0.0023
 3271SOL    HW121449   1.013   0.204   3.162  0.4127  0.1832 -0.1658
 3271SOL    HW221450   1.132   0.295   3.150 -0.1098 -1.7733  0.5185
 3272SOL     OW21451   2.711   1.014   5.165  0.0476 -0.3165  0.1851
 3272SOL    HW121452   2.737   0.927   5.195  1.3748 -0.0660 -0.2112
 3272SOL    HW221453   2.797   1.056   5.156 -1.2376  2.3588  0.5559
 3273SOL     OW21454   4.132   2.461  16.411  0.6870  0.0652  0.5709
 3273SOL    HW121455   4.098   2.519  16.343 -1.1063 -1.2889  0.3357
 3273SOL    HW221456   4.167   2.524  16.475  1.4113 -1.5385  1.7647
 3274SOL     OW21457   3.285   3.489   6.984 -0.2995  0.2043 -0.2120
 3274SOL    HW121458   3.251   3.535   6.907 -1.1336 -0.6352 -0.3504
 3274SOL    HW221459   3.204   3.485   7.036 -0.3502  1.7326 -0.1652
 3275SOL     OW21460   0.259   1.524   3.970  0.0504  0.0292  0.1559
 3275SOL    HW121461   0.251   1.506   3.876 -0.0397 -0.2812  0.2224
 3275SOL    HW221462   0.173   1.489   3.994 -0.3976  0.8286 -0.2765
 3276SOL     OW21463   0.901   2.974   7.380  0.1995 -0.1324  0.6879
 3276SOL    HW121464   0.834   2.995   7.445  1.3361  0.1008  1.8043
 3276SOL    HW221465   0.897   2.879   7.373 -0.0125 -0.1895  1.5623
 3277SOL     OW21466   1.588   3.088   4.955 -0.2686 -0.1251 -0.0645
 3277SOL    HW121467   1.605   3.048   4.870  0.8536  1.7814 -0.7372
 3277SOL    HW221468   1.501   3.052   4.969 -0.0453 -0.2599  1.0039
 3278SOL     OW21469   0.402   2.699  15.739  0.0619  0.0322 -0.2245
 3278SOL    HW121470   0.424   2.651  15.819 -1.6567 -0.0708  0.2021
 3278SOL    HW221471   0.314   2.661  15.731  0.8803 -1.7006 -0.8442
 3279SOL     OW21472   4.321   4.217   6.386 -0.2007 -0.0875 -0.1054
 3279SOL    HW121473   4.416   4.221   6.375 -0.3115 -1.3243 -1.5234
 3279SOL    HW221474   4.311   4.167   6.304  3.8883 -0.3925 -0.4060
 3280SOL     OW21475   0.515   0.194   7.729  0.1205 -0.1561  0.5296
 3280SOL    HW121476   0.531   0.271   7.673 -4.2940  0.1779 -0.3131
 3280SOL    HW221477   0.527   0.237   7.814  4.3282 -1.0892  0.3626
 3281SOL     OW21478   2.768   4.138  12.394 -0.5304  0.0079  0.0574
 3281SOL    HW121479   2.847   4.084  12.384  0.7599  1.6176  1.6107
 3281SOL    HW221480   2.696   4.077  12.409 -0.6578  0.4269  1.1175
 3282SOL     OW21481   0.502   2.565  10.878  0.6623  0.0886  0.4176
 3282SOL    HW121482   0.562   2.636  10.858 -0.1099  0.5667 -0.2005
 3282SOL    HW221483   0.538   2.535  10.961 -0.6941 -0.7970  0.6875
 3283SOL     OW21484   1.194   1.308   1.389  0.2947 -0.0832  0.7173
 3283SOL    HW121485   1.110   1.353   1.399  0.8002  1.1006 -0.4924
 3283SOL    HW221486   1.175   1.248   1.316 -2.0645  1.3232  0.1690
 3284SOL     OW21487   3.494   2.414  12.687 -0.2801  0.3607 -0.0711
 3284SOL    HW121488   3.553   2.412  12.611 -0.4872  2.3864 -0.2955
 3284SOL    HW221489   3.444   2.334  12.676  0.2722  0.1320 -0.9229
 3285SOL     OW21490   3.000   2.016   8.410 -0.7300  0.2759 -0.6461
 3285SOL    HW121491   2.988   1.945   8.472  1.0179  1.1179  0.6401
 3285SOL    HW221492   2.949   1.971   8.343 -0.4068 -2.9447  1.2913
 3286SOL     OW21493   2.599   4.060   9.281  0.2761 -0.0736 -0.3418
 3286SOL    HW121494   2.646   4.132   9.240  0.0191  0.1113 -0.3131
 3286SOL    HW221495   2.573   4.085   9.370 -0.7544 -0.5400 -0.5062
 3287SOL     OW21496   2.371   0.872  15.637  0.2124  0.2067 -0.0082
 3287SOL    HW121497   2.366   0.906  15.548 -0.5756 -1.9305 -0.7516
 3287SOL    HW221498   2.461   0.894  15.664  0.4167  0.0860 -0.5994
 3288SOL     OW21499   4.077   2.430   8.673 -0.3347  0.0866  0.5992
 3288SOL    HW121500   3.997   2.382   8.694 -0.1733  0.5954  2.3830
 3288SOL    HW221501   4.051   2.511   8.628  2.0237 -0.7675 -2.3085
 3289SOL     OW21502   1.728   4.253   1.587  0.1813 -0.3971  0.1853
 3289SOL    HW121503   1.772   4.201   1.521 -2.9820 -1.2323 -1.2613
 3289SOL    HW221504   1.643   4.208   1.585 -0.6351  1.1051  0.4458
 3290SOL     OW21505   1.766   1.407   8.259 -0.5119 -0.1998 -0.0271
 3290SOL    HW121506   1.809   1.493   8.257 -1.1032  0.0673 -1.6528
 3290SOL    HW221507   1.700   1.426   8.326 -2.8264 -0.6351 -2.1785
 3291SOL     OW21508   0.856   3.315   2.266  0.2618  0.0817 -0.9240
 3291SOL    HW121509   0.781   3.258   2.277 -0.4502  1.1696 -0.1503
 3291SOL    HW221510   0.872   3.313   2.172 -1.1448 -0.7906 -1.1333
 3292SOL     OW21511   0.765   0.500  15.214  0.2115 -0.1449  0.1129
 3292SOL    HW121512   0.786   0.582  15.170 -0.1168 -0.7560 -1.1757
 3292SOL    HW221513   0.793   0.436  15.149 -1.6222 -0.8257 -0.0220
 3293SOL     OW21514   2.680   0.125  10.134  0.9532  0.1165  0.4788
 3293SOL    HW121515   2.758   0.071  10.127 -1.0245 -2.6652  0.0819
 3293SOL    HW221516   2.720   0.211  10.116  1.0044  0.1406  0.7102
 3294SOL     OW21517   1.775   1.820  11.616  0.3175  0.0084  0.3094
 3294SOL    HW121518   1.824   1.903  11.615  1.1966 -0.5213 -0.3560
 3294SOL    HW221519   1.847   1.757  11.611  0.6767  0.4408  0.0206
 3295SOL     OW21520   4.392   4.427   5.560  0.4808  0.7467  0.0588
 3295SOL    HW121521   4.351   4.501   5.513 -0.7072 -0.1819 -0.3641
 3295SOL    HW221522   4.322   4.384   5.608 -1.0559  1.1878 -1.7696
 3296SOL     OW21523   1.063   1.834   5.406 -0.5920 -0.0170  0.2099
 3296SOL    HW121524   0.991   1.862   5.462 -0.4928 -1.1862  0.9334
 3296SOL    HW221525   1.133   1.894   5.433 -2.4946  1.2300  2.3645
 3297SOL     OW21526   3.563   0.078   2.482  0.3450 -0.2578  0.5333
 3297SOL    HW121527   3.657   0.060   2.486  0.3843 -0.2759 -0.4093
 3297SOL    HW221528   3.580   0.154   2.427  1.1602 -2.1705 -1.8742
 3298SOL     OW21529   3.670   0.853   2.455 -0.2477 -0.1275 -0.1728
 3298SOL    HW121530   3.617   0.926   2.487  0.5275  1.1275 -1.7319
 3298SOL    HW221531   3.609   0.800   2.403 -0.1742 -1.0797  0.7088
 3299SOL     OW21532   3.331   3.836   3.255  0.1165  0.5406  0.4624
 3299SOL    HW121533   3.349   3.898   3.185  1.6419 -0.0460  0.3413
 3299SOL    HW221534   3.411   3.861   3.301 -0.1348  1.7920  0.2282
 3300SOL     OW21535   4.599   2.806   8.346  0.0912  0.0395 -0.3819
 3300SOL    HW121536   4.661   2.852   8.290  1.2149  0.1106  0.9161
 3300SOL    HW221537   4.660   2.736   8.372  1.6667  2.3749  2.2519
 3301SOL     OW21538   4.483   1.849   1.835  0.6523 -0.1596  0.6310
 3301SOL    HW121539   4.503   1.769   1.883  0.6472  0.6857  2.0316
 3301SOL    HW221540   4.402   1.835   1.787  1.6990 -0.5571 -1.0160
 3302SOL     OW21541   0.441   3.698   7.826 -0.4073  0.6609  0.0911
 3302SOL    HW121542   0.480   3.667   7.744 -0.5242  0.0617  0.2568
 3302SOL    HW221543   0.489   3.779   7.840 -0.9281  0.8812  0.6189
 3303SOL     OW21544   1.936   1.907   7.215 -0.3103  0.2667  0.5564
 3303SOL    HW121545   1.971   1.872   7.133  1.5458  2.3279  0.4536
 3303SOL    HW221546   1.988   1.863   7.282  0.1278  0.4528  0.3471
 3304SOL     OW21547   4.315   1.233   5.646  0.0496  0.2200 -0.4347
 3304SOL    HW121548   4.393   1.258   5.597  2.2070 -1.6459  2.0647
 3304SOL    HW221549   4.342   1.277   5.727 -3.0728 -1.6751  1.6140
 3305SOL     OW21550   0.477   1.847   9.913  0.0838  0.5502  0.1157
 3305SOL    HW121551   0.458   1.783   9.982 -4.6466  0.4477 -1.2349
 3305SOL    HW221552   0.386   1.859   9.883 -0.2488 -0.3455  0.7723
 3306SOL     OW21553   0.894   3.932   8.843  0.4439  0.5711 -0.1207
 3306SOL    HW121554   0.901   3.985   8.923  0.6283  1.2035 -0.5607
 3306SOL    HW221555   0.817   3.973   8.804  1.6864  2.5383 -0.4580
 3307SOL     OW21556   3.399   3.902  15.445  0.2071 -0.4415  0.6150
 3307SOL    HW121557   3.323   3.846  15.463  0.7707 -1.5126 -0.3695
 3307SOL    HW221558   3.453   3.880  15.521  1.0512  1.5208  0.5914
 3308SOL     OW21559   0.463   2.998   4.633  0.1031  0.1289  0.6149
 3308SOL    HW121560   0.511   3.054   4.694 -0.5655 -1.3233  2.4741
 3308SOL    HW221561   0.496   2.914   4.665 -0.4869 -0.3088  0.0672
 3309SOL     OW21562   3.367   2.289   3.359  0.3851  0.4478 -0.2057
 3309SOL    HW121563   3.283   2.335   3.367  0.0392  0.1925 -2.3008
 3309SOL    HW221564   3.372   2.274   3.264 -1.0953  0.8326 -0.3508
 3310SOL     OW21565   0.569   1.624   4.432 -0.1095  0.0713  0.5887
 3310SOL    HW121566   0.552   1.542   4.478  2.3650 -1.4239 -1.1839
 3310SOL    HW221567   0.617   1.590   4.357 -0.4278 -0.4055  0.6014
 3311SOL     OW21568   2.622   1.478   9.106  0.5042 -0.4325 -0.6058
 3311SOL    HW121569   2.607   1.572   9.101 -1.1102 -0.6826 -0.5368
 3311SOL    HW221570   2.534   1.447   9.085  1.1722 -1.6535 -1.6598
 3312SOL     OW21571   0.124   4.368   7.869 -0.3336  0.2521  0.7147
 3312SOL    HW121572   0.177   4.435   7.914 -1.7483  1.7495  0.1605
 3312SOL    HW221573   0.050   4.360   7.929 -0.1367  0.1820  0.9467
 3313SOL     OW21574   0.159   3.038  14.789  0.0188 -0.3678  0.9994
 3313SOL    HW121575   0.220   2.964  14.796  3.5137  2.7024  3.1773
 3313SOL    HW221576   0.229   3.100  14.811 -1.5742  1.8604 -0.2569
 3314SOL     OW21577   3.143   1.863   6.347  0.1548 -0.1546  0.1464
 3314SOL    HW121578   3.192   1.812   6.282  0.2793  0.8917 -0.5686
 3314SOL    HW221579   3.182   1.833   6.430 -0.6366  0.0509  0.5947
 3315SOL     OW21580   3.749   3.329   5.457  0.0551 -0.0342  0.4372
 3315SOL    HW121581   3.819   3.336   5.393  0.3960  1.2383  0.9538
 3315SOL    HW221582   3.777   3.251   5.505 -1.1946 -0.6176  0.2145
 3316SOL     OW21583   4.589   3.984   8.195  0.0600  0.7082 -0.1635
 3316SOL    HW121584   4.612   3.900   8.158 -1.0880  0.0890  0.5222
 3316SOL    HW221585   4.671   4.034   8.201  0.6312 -0.2655  0.0414
 3317SOL     OW21586   3.058   3.370   1.879 -0.2073 -0.5499  0.7691
 3317SOL    HW121587   3.151   3.392   1.868 -0.1296 -1.3486 -0.2281
 3317SOL    HW221588   3.011   3.452   1.864  2.2047  0.9292  1.1169
 3318SOL     OW21589   2.165   4.408   8.806 -0.0581  0.6095  0.1915
 3318SOL    HW121590   2.192   4.478   8.746 -0.8592  0.5409 -0.2489
 3318SOL    HW221591   2.157   4.341   8.738  0.5402 -1.5619  2.2429
 3319SOL     OW21592   1.040   2.566   4.083 -0.0037  0.1752  0.2952
 3319SOL    HW121593   1.028   2.542   3.991  0.3158  1.3892 -0.0546
 3319SOL    HW221594   1.078   2.482   4.111 -0.6277  0.4662  2.0206
 3320SOL     OW21595   2.334   0.994   0.256 -0.0440 -0.1091  0.0501
 3320SOL    HW121596   2.345   0.901   0.277 -1.3215 -0.3616 -0.4440
 3320SOL    HW221597   2.289   0.984   0.172 -1.3899 -0.1004  0.7704
 3321SOL     OW21598   1.899   4.224   6.333  0.4676 -0.0796 -0.2925
 3321SOL    HW121599   1.888   4.294   6.269 -1.5123 -0.1049  0.0384
 3321SOL    HW221600   1.905   4.267   6.418  3.0583 -1.8582  0.4523
 3322SOL     OW21601   4.324   1.127  11.470  0.1432  0.7994 -0.4409
 3322SOL    HW121602   4.254   1.074  11.508  2.1243 -0.4048  1.5205
 3322SOL    HW221603   4.328   1.202  11.529  2.1336 -0.5027  1.0694
 3323SOL     OW21604   0.959   4.176  12.541 -0.1204  0.6548 -0.1212
 3323SOL    HW121605   1.026   4.243  12.551 -0.6220  1.4166 -1.9516
 3323SOL    HW221606   1.003   4.107  12.592 -0.2481  0.5581 -0.1400
 3324SOL     OW21607   0.205   1.368   8.085 -0.4344  0.0958  0.4457
 3324SOL    HW121608   0.173   1.453   8.116  1.3747  1.1608 -0.6131
 3324SOL    HW221609   0.296   1.392   8.068  0.9823 -4.4183  1.7155
 3325SOL     OW21610   3.749   2.108  11.225 -0.1453 -0.5070  0.1730
 3325SOL    HW121611   3.755   2.039  11.159  0.0860 -0.3646  0.0495
 3325SOL    HW221612   3.708   2.061  11.298 -0.3349 -0.1423  0.3022
 3326SOL     OW21613   1.452   3.423  12.816 -0.3885  0.4331 -0.0772
 3326SOL    HW121614   1.407   3.405  12.899 -0.3239 -0.3095 -0.1963
 3326SOL    HW221615   1.478   3.513  12.834 -0.7628  0.8271 -1.5737
 3327SOL     OW21616   3.858   1.446   8.762 -0.3285  0.0489 -0.4051
 3327SOL    HW121617   3.773   1.402   8.770 -1.1863  1.5803 -1.0132
 3327SOL    HW221618   3.835   1.536   8.739  0.9222  0.2368 -0.8733
 3328SOL     OW21619   2.255   2.431  11.151  0.8718 -0.4603 -0.2282
 3328SOL    HW121620   2.238   2.361  11.088 -1.5387  1.2162 -1.4290
 3328SOL    HW221621   2.350   2.421  11.165  1.0932  1.3987 -0.2762
 3329SOL     OW21622   1.341   3.579   6.185 -0.0572 -0.0219 -0.1557
 3329SOL    HW121623   1.309   3.536   6.106 -0.5356 -2.7145  1.5078
 3329SOL    HW221624   1.269   3.615   6.237  1.6192 -0.5076  2.5013
 3330SOL     OW21625   1.111   0.843   1.792  0.3788 -0.2280 -0.2267
 3330SOL    HW121626   1.193   0.868   1.834  0.8425 -0.9178 -0.7000
 3330SOL    HW221627   1.051   0.866   1.863 -1.6313 -1.3203 -1.5592
 3331SOL     OW21628   3.848   2.006   4.115 -0.7100  0.1098  0.1715
 3331SOL    HW121629   3.942   2.002   4.132 -0.6777 -0.1296 -0.0526
 3331SOL    HW221630   3.839   2.096   4.085 -0.9329  0.7304  2.1111
 3332SOL     OW21631   3.609   1.505   7.903  0.2067  0.5038  0.1217
 3332SOL    HW121632   3.627   1.475   7.993 -1.2851  1.2109  0.6544
 3332SOL    HW221633   3.697   1.525   7.872 -0.1658 -1.3788 -2.0605
 3333SOL     OW21634   4.102   2.812   7.840 -0.0912  0.3376 -0.1880
 3333SOL    HW121635   4.041   2.846   7.906  0.0624  0.2604 -0.0068
 3333SOL    HW221636   4.140   2.735   7.884 -0.0331  0.5185  0.0760
 3334SOL     OW21637   1.565   1.342   5.232  0.3577 -0.0829 -0.4157
 3334SOL    HW121638   1.579   1.436   5.234 -0.4542  0.0606 -1.2336
 3334SOL    HW221639   1.490   1.333   5.291  0.6242  0.8026  0.0506
 3335SOL     OW21640   0.206   4.392   6.541  0.1828 -0.0857  0.2480
 3335SOL    HW121641   0.128   4.337   6.536  1.0000 -1.2745  0.8089
 3335SOL    HW221642   0.240   4.359   6.624  2.0772 -1.2310 -0.9886
 3336SOL     OW21643   0.810   3.380  11.439 -0.2326  0.0213 -0.3431
 3336SOL    HW121644   0.746   3.442  11.406  1.7854  3.2182  1.7215
 3336SOL    HW221645   0.750   3.308  11.461  1.9436 -2.2905 -1.9192
 3337SOL     OW21646   4.431   4.234   3.929 -0.0670  0.2105 -0.0189
 3337SOL    HW121647   4.512   4.200   3.891  1.6189  0.6668  3.1535
 3337SOL    HW221648   4.464   4.239   4.019  0.2326  1.2388 -0.1815
 3338SOL     OW21649   3.350   2.766   2.326 -0.2079 -0.1083 -0.0705
 3338SOL    HW121650   3.274   2.774   2.268 -1.1930 -4.5895  0.5877
 3338SOL    HW221651   3.388   2.854   2.322 -3.2146  1.0954 -2.1216
 3339SOL     OW21652   0.219   2.097   3.427 -0.4886  0.1271  0.3770
 3339SOL    HW121653   0.168   2.151   3.487 -2.0539  1.1481 -1.8651
 3339SOL    HW221654   0.205   2.006   3.454 -2.6249  0.2199 -0.4170
 3340SOL     OW21655   2.319   0.033   7.263 -0.0408 -0.1032 -0.3857
 3340SOL    HW121656   2.236   4.732   7.293 -0.0840  1.4464  1.4931
 3340SOL    HW221657   2.305   0.048   7.170  0.0561 -0.2058 -0.4158
 3341SOL     OW21658   4.144   2.488   5.541  0.3172  0.1782  0.2790
 3341SOL    HW121659   4.100   2.521   5.463 -0.7292 -0.4066  0.6150
 3341SOL    HW221660   4.195   2.567   5.559 -1.1454  1.3352 -0.6264
 3342SOL     OW21661   3.926   3.797   6.701  0.2488  0.1176  0.2364
 3342SOL    HW121662   3.886   3.735   6.641 -2.4719  0.6381  1.5107
 3342SOL    HW221663   3.864   3.870   6.704 -0.8607 -0.8390  0.4893
 3343SOL     OW21664   0.966   0.033   2.027 -0.0910  0.3285  0.0857
 3343SOL    HW121665   1.028   0.086   1.977 -0.6469 -2.1568 -3.1944
 3343SOL    HW221666   0.943   0.091   2.100 -2.6272 -1.2876  0.5682
 3344SOL     OW21667   1.077   2.555   5.908 -0.1733 -0.1897 -0.2415
 3344SOL    HW121668   1.101   2.570   5.999  0.3436  0.7955 -0.5351
 3344SOL    HW221669   1.012   2.485   5.913 -0.2593 -0.1392 -0.6278
 3345SOL     OW21670   2.767   1.854   4.937  0.4075  0.0281 -0.3039
 3345SOL    HW121671   2.730   1.775   4.897 -0.7753  0.0086  0.8466
 3345SOL    HW221672   2.858   1.828   4.954  0.4667 -0.2109 -0.9836
 3346SOL     OW21673   4.570   0.117  17.520  0.0235 -0.0500  0.0977
 3346SOL    HW121674   4.631   0.190  17.510  0.7034 -0.1924  3.0139
 3346SOL    HW221675   4.627   0.050  17.481 -1.2663 -0.8001 -0.4819
 3347SOL     OW21676   2.106   4.631   6.444  0.2452  0.5307 -0.0965
 3347SOL    HW121677   2.081   4.722   6.426  0.2261  0.4974 -0.2419
 3347SOL    HW221678   2.056   4.590   6.373 -0.1239  0.7247  0.0487
 3348SOL     OW21679   3.533   0.960   3.291  0.5106 -0.2633  0.2575
 3348SOL    HW121680   3.574   1.019   3.227 -1.1349  1.2202  0.5559
 3348SOL    HW221681   3.598   0.944   3.360  0.7532  0.0801  0.1094
 3349SOL     OW21682   2.552   2.293   5.196  0.4041  0.0812  0.5051
 3349SOL    HW121683   2.553   2.280   5.291 -0.5864 -1.8705  0.2566
 3349SOL    HW221684   2.596   2.213   5.168  0.8748  1.5872 -3.0055
 3350SOL     OW21685   3.541   2.637  17.705  0.0869 -0.4097 -0.5827
 3350SOL    HW121686   3.532   2.549  17.743  0.0188  0.7944  2.1159
 3350SOL    HW221687   3.572   2.698   0.028 -2.2669 -0.5552  0.6386
 3351SOL     OW21688   2.130   1.604   8.318 -0.3940 -0.6903  0.0919
 3351SOL    HW121689   2.154   1.670   8.252  0.1238 -1.5271 -0.5617
 3351SOL    HW221690   2.114   1.661   8.393  0.8745  0.3728 -0.4487
 3352SOL     OW21691   3.780   1.105   8.608 -0.0632 -0.3366 -0.0544
 3352SOL    HW121692   3.840   1.071   8.674  0.1800  0.5173  0.1728
 3352SOL    HW221693   3.738   1.171   8.664 -0.8618  0.9790 -2.2040
 3353SOL     OW21694   2.011   3.779   6.277 -0.0070 -0.2854  0.2223
 3353SOL    HW121695   2.043   3.696   6.240 -0.3872 -0.0306 -0.6721
 3353SOL    HW221696   2.029   3.768   6.370  1.7945  0.1431 -0.0823
 3354SOL     OW21697   1.077   4.264   7.605  0.6068 -0.0497 -0.0197
 3354SOL    HW121698   0.996   4.313   7.619  1.2290  1.0408 -0.3112
 3354SOL    HW221699   1.060   4.231   7.517 -2.7882  3.6062 -0.7390
 3355SOL     OW21700   3.094   4.042   7.140 -0.0686  0.3171  0.1998
 3355SOL    HW121701   3.051   4.010   7.219  0.1992  1.0852  0.6589
 3355SOL    HW221702   3.119   3.959   7.099 -1.0562  0.3757 -0.5122
 3356SOL     OW21703   4.535   2.021   0.786  0.3122 -1.0020 -0.2501
 3356SOL    HW121704   4.616   1.990   0.745  1.3396  0.5324  0.6420
 3356SOL    HW221705   4.503   1.931   0.796 -0.1377 -0.5727  2.1645
 3357SOL     OW21706   0.275   4.538  10.606  0.4028 -0.5198 -0.7669
 3357SOL    HW121707   0.222   4.592  10.665  2.3792  0.3390  0.2182
 3357SOL    HW221708   0.238   4.450  10.616  0.1434 -0.1567  1.5169
 3358SOL     OW21709   4.686   3.620  10.539 -0.1754  0.4597 -0.7284
 3358SOL    HW121710   4.630   3.696  10.549  0.4626  0.8616 -0.2106
 3358SOL    HW221711   0.039   3.653  10.545  0.3801 -1.3563  1.0918
 3359SOL     OW21712   1.062   1.584   2.858  0.1510  0.1456 -0.5603
 3359SOL    HW121713   1.006   1.646   2.811 -0.7474  1.3319  2.0900
 3359SOL    HW221714   1.051   1.612   2.949  1.0301  1.1843 -0.7704
 3360SOL     OW21715   1.835   4.328   8.349  0.1995  0.8831 -0.3193
 3360SOL    HW121716   1.825   4.248   8.401  1.1758 -0.5091 -2.2207
 3360SOL    HW221717   1.752   4.315   8.303 -0.3540 -1.7803  1.4220
 3361SOL     OW21718   1.442   2.716   7.921  0.0014 -0.0875  0.1898
 3361SOL    HW121719   1.378   2.774   7.879  0.3102 -0.1823 -0.4125
 3361SOL    HW221720   1.509   2.781   7.945  1.7463 -2.2201  1.1355
 3362SOL     OW21721   0.459   1.532   4.160 -0.2043 -0.3656  0.2464
 3362SOL    HW121722   0.542   1.543   4.113  0.6115 -1.4411  1.4610
 3362SOL    HW221723   0.408   1.513   4.081  0.4953 -1.6351  0.1101
 3363SOL     OW21724   2.735   4.179   0.493 -0.0071  0.3031  0.0679
 3363SOL    HW121725   2.718   4.225   0.411 -0.7491 -1.7265 -0.9282
 3363SOL    HW221726   2.815   4.131   0.472  1.5098  2.2923  1.3554
 3364SOL     OW21727   3.272   2.805   0.407  0.0270 -0.3680 -0.4392
 3364SOL    HW121728   3.217   2.808   0.485  2.6848  1.1041  1.3891
 3364SOL    HW221729   3.196   2.822   0.351 -1.6368 -2.6923  1.1177
 3365SOL     OW21730   3.673   0.021   8.070 -0.3631 -0.0027  0.5638
 3365SOL    HW121731   3.713   0.095   8.116  2.5055 -1.0770 -0.1940
 3365SOL    HW221732   3.619   0.063   8.003 -4.1463 -1.5024  2.6799
 3366SOL     OW21733   0.698   3.065   6.665 -0.6133  0.7747  0.2229
 3366SOL    HW121734   0.631   3.065   6.733 -0.6525 -2.2561  0.1702
 3366SOL    HW221735   0.691   2.982   6.617 -1.2367 -0.6050  2.7259
 3367SOL     OW21736   4.237   2.903  10.098  0.1070  0.2044 -0.3402
 3367SOL    HW121737   4.236   2.980  10.154  0.9780 -0.8775  1.1425
 3367SOL    HW221738   4.245   2.937  10.008 -2.1141  2.0873  0.1705
 3368SOL     OW21739   2.227   3.623   3.386  0.3293  0.0912 -0.2843
 3368SOL    HW121740   2.181   3.696   3.428 -2.6650 -2.6235  1.1283
 3368SOL    HW221741   2.162   3.605   3.318 -2.5354  0.1819  2.4220
 3369SOL     OW21742   3.697   4.282   6.743  0.5612  0.0648  0.2904
 3369SOL    HW121743   3.607   4.311   6.758  0.6503  1.2204 -1.4587
 3369SOL    HW221744   3.743   4.356   6.781 -0.3032  1.4315 -1.3591
 3370SOL     OW21745   3.089   1.538   6.220 -0.4631 -0.1481  0.1436
 3370SOL    HW121746   3.181   1.536   6.247 -1.3152  1.7276  3.2092
 3370SOL    HW221747   3.070   1.448   6.193 -3.8109 -0.1287  2.3461
 3371SOL     OW21748   3.947   4.228   7.520 -0.4821 -0.2011 -0.2549
 3371SOL    HW121749   3.903   4.313   7.525 -1.8164 -0.8124 -1.5289
 3371SOL    HW221750   3.886   4.166   7.479 -0.7221 -0.3244  0.2833
 3372SOL     OW21751   0.002   3.527  13.604 -0.0765  0.0301 -0.0929
 3372SOL    HW121752   4.708   3.601  13.551 -0.8842  0.4969  1.0099
 3372SOL    HW221753   4.695   3.551  13.686 -2.1863 -0.2123 -1.1082
 3373SOL     OW21754   1.249   3.471   5.844  0.1894 -0.3294  0.1318
 3373SOL    HW121755   1.179   3.535   5.842  0.4408 -0.0835 -0.5583
 3373SOL    HW221756   1.303   3.483   5.766 -0.1141 -0.6456 -0.1235
 3374SOL     OW21757   1.253   1.896  17.504 -0.5197  0.0140  0.5308
 3374SOL    HW121758   1.197   1.846  17.563  1.3021  0.7397  2.8406
 3374SOL    HW221759   1.200   1.899  17.424  1.2265  2.5761 -0.5224
 3375SOL     OW21760   0.940   2.683  13.788  0.6575  0.1987  0.2974
 3375SOL    HW121761   0.944   2.593  13.755 -0.4307 -0.4282  1.8429
 3375SOL    HW221762   0.878   2.679  13.861 -0.3527  0.6318 -0.5420
 3376SOL     OW21763   1.273   4.429   6.532 -0.5199  0.6687 -0.1439
 3376SOL    HW121764   1.188   4.387   6.547  0.6247 -1.5403  0.1206
 3376SOL    HW221765   1.320   4.423   6.615 -0.7272 -3.3578 -0.3203
 3377SOL     OW21766   1.142   2.793   3.852  0.0891  0.4465 -0.0523
 3377SOL    HW121767   1.215   2.732   3.843 -0.4575 -0.2033 -0.0832
 3377SOL    HW221768   1.066   2.736   3.839  0.0859  0.8876 -1.8892
 3378SOL     OW21769   3.176   2.014   0.321 -0.0396  0.4415  0.0055
 3378SOL    HW121770   3.231   2.066   0.262 -0.2192 -0.4029 -0.9163
 3378SOL    HW221771   3.192   2.068   0.398  2.1536  2.7686 -2.0806
 3379SOL     OW21772   2.740   2.920   5.427 -0.5936  0.0588 -0.2409
 3379SOL    HW121773   2.830   2.951   5.439 -0.3484 -0.6025 -0.3429
 3379SOL    HW221774   2.764   2.839   5.382  3.4068  1.6892 -1.0763
 3380SOL     OW21775   4.140   4.420   4.260  0.0354  0.1989 -0.3343
 3380SOL    HW121776   4.071   4.443   4.323 -0.4581 -1.3892 -0.3057
 3380SOL    HW221777   4.191   4.501   4.257  0.6096 -0.1179  0.7355
 3381SOL     OW21778   4.593   0.642  16.196 -0.1465  0.1004  0.9160
 3381SOL    HW121779   4.559   0.729  16.220  2.0907  0.6841  2.0341
 3381SOL    HW221780   4.649   0.655  16.119  0.1499  0.9761  1.2773
 3382SOL     OW21781   4.673   1.413   2.169  0.0389  0.1470 -0.2916
 3382SOL    HW121782   4.726   1.342   2.206  0.5936  0.1627 -1.0696
 3382SOL    HW221783   4.592   1.405   2.220 -0.4846  0.0558 -1.1475
 3383SOL     OW21784   3.479   2.975  10.099 -0.2625  0.4852 -0.3731
 3383SOL    HW121785   3.512   2.985  10.189 -1.3570  0.1884  0.0664
 3383SOL    HW221786   3.553   3.013  10.052 -0.7501  1.8769 -0.0290
 3384SOL     OW21787   4.442   1.199   7.928  0.2309  0.6384 -0.1341
 3384SOL    HW121788   4.472   1.288   7.945  1.2781  0.8384 -3.1117
 3384SOL    HW221789   4.469   1.182   7.838 -0.2477 -1.4652  0.1127
 3385SOL     OW21790   1.256   4.309   6.274 -0.0371 -0.2423  0.4137
 3385SOL    HW121791   1.270   4.350   6.359 -0.7264 -1.6220  1.2013
 3385SOL    HW221792   1.347   4.282   6.258 -0.8980 -3.5785  1.2274
 3386SOL     OW21793   2.857   0.971   1.363  0.6791  0.2991  0.5188
 3386SOL    HW121794   2.805   0.892   1.367 -3.1338  2.7020 -1.7141
 3386SOL    HW221795   2.889   0.974   1.272 -1.0248 -4.1840 -0.1876
 3387SOL     OW21796   2.374   1.445   6.774 -0.1082  0.3735 -0.4718
 3387SOL    HW121797   2.398   1.512   6.838 -2.1651  0.8072 -0.1336
 3387SOL    HW221798   2.435   1.375   6.797 -0.0877  1.0454  1.5552
 3388SOL     OW21799   1.077   1.567  17.180 -0.2270  0.1987  0.0197
 3388SOL    HW121800   1.066   1.510  17.256  1.4932 -0.7197 -0.4075
 3388SOL    HW221801   1.098   1.499  17.115  0.1031  3.0541 -2.8675
 3389SOL     OW21802   1.940   3.942   5.788  0.0172 -0.0357  0.2381
 3389SOL    HW121803   1.963   4.003   5.858 -2.7031  0.2823  0.8757
 3389SOL    HW221804   1.867   3.986   5.743 -1.7874 -2.7628  0.5014
 3390SOL     OW21805   3.877   2.943   6.760 -0.0769 -0.1571 -0.2632
 3390SOL    HW121806   3.922   2.887   6.823 -0.5665 -0.4848 -0.2057
 3390SOL    HW221807   3.807   2.973   6.818  0.9246  2.3864 -0.3754
 3391SOL     OW21808   2.665   3.328   9.099  0.3475  0.6292  0.1032
 3391SOL    HW121809   2.591   3.388   9.087  1.8663  2.2089 -1.2272
 3391SOL    HW221810   2.709   3.361   9.177 -1.0623  0.3259  1.0268
 3392SOL     OW21811   2.225   0.631   4.295  0.1206  0.4545  0.4087
 3392SOL    HW121812   2.201   0.585   4.214  0.0713 -0.0996  0.7339
 3392SOL    HW221813   2.316   0.602   4.288 -0.0114 -0.3149  1.8725
 3393SOL     OW21814   0.295   2.534  10.699  0.1552 -0.0656  0.0720
 3393SOL    HW121815   0.367   2.554  10.759 -1.0691 -1.2699  1.9216
 3393SOL    HW221816   0.310   2.440  10.683  0.8103 -0.1447  1.1474
 3394SOL     OW21817   4.193   3.271   0.720 -0.2930  0.1802  0.3652
 3394SOL    HW121818   4.229   3.218   0.791  2.7782 -0.1491 -1.4568
 3394SOL    HW221819   4.265   3.259   0.658  1.4257  1.1468  2.1802
 3395SOL     OW21820   3.938   1.402   2.745 -0.1041  0.2541 -0.1475
 3395SOL    HW121821   3.944   1.448   2.661 -3.2006 -2.3832 -1.8151
 3395SOL    HW221822   4.024   1.363   2.759  0.4548  1.0253 -1.4238
 3396SOL     OW21823   0.615   2.702  14.370  0.0661 -0.8528 -0.1027
 3396SOL    HW121824   0.674   2.755  14.317 -0.0758 -0.5095  0.0850
 3396SOL    HW221825   0.544   2.690  14.308  1.0496 -3.0263 -0.8091
 3397SOL     OW21826   3.732   0.096   8.939  0.3338  0.4196 -0.4183
 3397SOL    HW121827   3.659   0.142   8.980  1.3556  1.5570  0.1355
 3397SOL    HW221828   3.692   0.018   8.901 -4.0266  0.8292  3.3297
 3398SOL     OW21829   2.160   3.716  16.640 -0.1474 -0.0881  0.6248
 3398SOL    HW121830   2.197   3.792  16.686 -0.8720  0.0073  1.0480
 3398SOL    HW221831   2.241   3.690  16.597 -1.9046 -1.4558 -1.8810
 3399SOL     OW21832   0.938   3.212  14.633  0.2010 -0.0867 -0.3465
 3399SOL    HW121833   1.019   3.183  14.591  0.1423  3.1665 -2.7106
 3399SOL    HW221834   0.920   3.285  14.574 -0.3235  1.7963  2.1421
 3400SOL     OW21835   2.784   0.480   1.889 -0.5873 -0.3628 -0.3184
 3400SOL    HW121836   2.700   0.450   1.854 -1.3962  1.6999 -0.1152
 3400SOL    HW221837   2.851   0.436   1.836 -0.3023  0.0373 -0.2857
 3401SOL     OW21838   2.444   4.412  12.842 -0.0726  0.0646 -0.1876
 3401SOL    HW121839   2.437   4.336  12.901 -0.8252  2.0630  2.3114
 3401SOL    HW221840   2.488   4.472  12.902  0.0372 -0.4731  0.2727
 3402SOL     OW21841   0.459   3.561   6.531  0.0384  0.4632 -0.1159
 3402SOL    HW121842   0.369   3.552   6.497  0.8617  1.1939 -2.4619
 3402SOL    HW221843   0.447   3.534   6.622  2.2884  1.6489  0.5083
 3403SOL     OW21844   2.526   3.472   3.021  0.7401  0.2331 -0.0476
 3403SOL    HW121845   2.446   3.430   2.992  0.4949  0.9269 -0.3704
 3403SOL    HW221846   2.549   3.432   3.105 -0.0886 -2.0124 -0.9018
 3404SOL     OW21847   4.499   4.168   9.365  0.3472  0.4225  0.1594
 3404SOL    HW121848   4.447   4.108   9.311  0.4517  1.4606 -1.0956
 3404SOL    HW221849   4.576   4.112   9.367 -0.2423 -0.3473  1.5384
 3405SOL     OW21850   4.295   3.092   5.923 -0.6727  0.2376 -0.0333
 3405SOL    HW121851   4.302   3.035   6.000  1.5308 -1.8216 -1.7618
 3405SOL    HW221852   4.202   3.114   5.926 -1.2823 -2.1363 -1.1830
 3406SOL     OW21853   1.999   4.021   4.699 -0.1203 -0.4070  0.1993
 3406SOL    HW121854   1.962   3.935   4.717 -2.0286  0.2115 -0.8363
 3406SOL    HW221855   2.080   4.018   4.750 -0.2536  4.3108  0.6375
 3407SOL     OW21856   3.753   3.126  16.924  0.0835 -0.5389  0.1784
 3407SOL    HW121857   3.676   3.075  16.900 -1.5218  1.7132  0.5853
 3407SOL    HW221858   3.777   3.093  17.011 -2.3445  0.2071  1.1514
 3408SOL     OW21859   1.290   0.303  11.629 -0.4341 -0.0186 -0.2020
 3408SOL    HW121860   1.285   0.395  11.653  0.0313  0.0136 -0.2378
 3408SOL    HW221861   1.365   0.304  11.569 -0.0195 -1.0595  0.2872
 3409SOL     OW21862   4.530   4.386   5.261 -0.0658 -0.3890  0.0359
 3409SOL    HW121863   4.591   4.331   5.212 -0.9133 -0.2141 -1.2130
 3409SOL    HW221864   4.490   4.425   5.183  0.4252 -0.5160 -0.2741
 3410SOL     OW21865   0.729   2.008   8.491  0.1741  0.5568  0.3430
 3410SOL    HW121866   0.659   1.971   8.545  0.8902 -2.7119 -0.9316
 3410SOL    HW221867   0.804   1.986   8.548 -0.5304 -0.0691  1.0292
 3411SOL     OW21868   4.143   3.226   6.224  0.9865  0.4247 -0.1357
 3411SOL    HW121869   4.238   3.218   6.214  1.1890  0.1842  1.9532
 3411SOL    HW221870   4.112   3.219   6.314 -0.1713  3.0397 -0.3363
 3412SOL     OW21871   1.718   0.707   8.219  0.3763  0.4267  0.0372
 3412SOL    HW121872   1.697   0.703   8.126  2.6596  1.0318 -0.4971
 3412SOL    HW221873   1.717   0.617   8.250  1.8561  0.7743  1.0983
 3413SOL     OW21874   1.102   1.766   2.527 -0.0383 -0.0157 -0.5670
 3413SOL    HW121875   1.078   1.677   2.551 -2.1716  0.5951 -0.4384
 3413SOL    HW221876   1.154   1.794   2.602 -0.7363  2.1461 -0.8975
 3414SOL     OW21877   3.450   2.382   1.335  0.3335 -0.0260  0.1655
 3414SOL    HW121878   3.544   2.366   1.331  0.0785 -1.0963 -1.5482
 3414SOL    HW221879   3.428   2.415   1.248 -0.3379  1.3239  0.8473
 3415SOL     OW21880   3.578   2.823   5.573  0.0440 -0.5391 -0.1148
 3415SOL    HW121881   3.614   2.907   5.543 -0.0152  0.1260  1.6979
 3415SOL    HW221882   3.657   2.770   5.578 -0.4050 -1.3937 -2.1999
 3416SOL     OW21883   3.274   3.895   6.379  0.2438 -0.0230  0.5373
 3416SOL    HW121884   3.359   3.857   6.354 -0.1112  0.1710 -0.9499
 3416SOL    HW221885   3.211   3.830   6.346  1.7241 -1.0198 -0.3634
 3417SOL     OW21886   0.436   0.443  16.143  0.3048  0.0332  0.4869
 3417SOL    HW121887   0.380   0.385  16.091  0.0111 -0.8109  1.7495
 3417SOL    HW221888   0.423   0.529  16.101  0.4863  0.1824  0.7408
 3418SOL     OW21889   1.717   4.520   5.543 -0.3429  0.0220  0.1895
 3418SOL    HW121890   1.633   4.498   5.504  0.3823 -1.0159 -0.8135
 3418SOL    HW221891   1.693   4.556   5.628 -0.2870  0.5783 -0.0289
 3419SOL     OW21892   2.361   2.569   3.541  0.1579  0.7160  0.0411
 3419SOL    HW121893   2.388   2.568   3.449 -0.5237 -1.3740 -0.1407
 3419SOL    HW221894   2.377   2.474   3.541 -0.1852  0.6561  0.2290
 3420SOL     OW21895   2.141   0.162  12.836 -0.5870  0.4377 -0.8684
 3420SOL    HW121896   2.185   0.165  12.920  0.8700 -1.0267 -1.5851
 3420SOL    HW221897   2.092   0.080  12.836 -2.3269  1.4638  1.3352
 3421SOL     OW21898   0.957   4.641   3.813 -0.0451  0.4447  0.0332
 3421SOL    HW121899   0.995   4.625   3.899  0.3259  2.1681  0.1854
 3421SOL    HW221900   1.020   4.689   3.759  1.8692 -0.4281  1.4915
 3422SOL     OW21901   3.850   2.405   2.391 -0.0496 -0.3085  0.2637
 3422SOL    HW121902   3.806   2.349   2.455 -1.3349  0.3876 -0.0266
 3422SOL    HW221903   3.830   2.494   2.417 -2.1978 -1.2641  1.8305
 3423SOL     OW21904   1.857   3.172   9.660  0.0859  0.2196 -0.1884
 3423SOL    HW121905   1.937   3.216   9.689 -0.1412  0.9816 -0.7145
 3423SOL    HW221906   1.795   3.196   9.729 -1.5377  0.5148 -1.7338
 3424SOL     OW21907   0.905   2.799   3.478 -0.0502 -0.7250  0.2106
 3424SOL    HW121908   0.922   2.869   3.541 -0.0868 -0.3249 -0.2164
 3424SOL    HW221909   0.846   2.837   3.412  0.3498  1.2754  1.0071
 3425SOL     OW21910   1.250   2.641   1.277  0.0860 -0.1110  0.1930
 3425SOL    HW121911   1.287   2.574   1.334 -0.1369  0.9822  1.6425
 3425SOL    HW221912   1.307   2.620   1.203  0.8308  1.1280  0.4160
 3426SOL     OW21913   2.103   1.062  16.845  0.0368 -0.0781 -0.0010
 3426SOL    HW121914   2.052   1.128  16.799  1.9479 -0.2963 -2.4062
 3426SOL    HW221915   2.173   1.045  16.782  0.7961  1.3568  0.4506
 3427SOL     OW21916   3.021   2.461   5.620  0.5778 -0.0966 -0.3896
 3427SOL    HW121917   3.030   2.537   5.563 -1.9073  0.6619  0.2245
 3427SOL    HW221918   2.985   2.399   5.556 -0.9819  0.5881 -0.1872
 3428SOL     OW21919   3.769   1.757   0.834  0.1442  0.3297  0.3243
 3428SOL    HW121920   3.860   1.772   0.810 -0.3077 -0.3825 -1.8651
 3428SOL    HW221921   3.778   1.743   0.928 -0.0913 -0.8249  0.1786
 3429SOL     OW21922   1.324   1.048   5.887 -0.6534  0.0640 -0.2977
 3429SOL    HW121923   1.246   1.022   5.936  0.8618 -1.2326  1.4201
 3429SOL    HW221924   1.309   1.143   5.883  1.6409  0.4009 -1.2910
 3430SOL     OW21925   1.807   3.915   6.090 -0.2047 -0.4598 -0.0611
 3430SOL    HW121926   1.832   3.865   6.013  1.3433  0.6696 -0.2806
 3430SOL    HW221927   1.877   3.897   6.153 -0.2789 -0.2347  0.0829
 3431SOL     OW21928   3.816   0.074   2.108  0.3025 -0.2085  0.0385
 3431SOL    HW121929   3.859   0.138   2.052 -1.5643  1.8814  0.9770
 3431SOL    HW221930   3.726   0.105   2.101  0.6239  0.0717 -2.8867
 3432SOL     OW21931   0.703   3.738  13.940  0.3303 -0.2374 -0.1339
 3432SOL    HW121932   0.781   3.684  13.932 -0.9142 -2.1182  0.5314
 3432SOL    HW221933   0.678   3.748  13.848  0.1457  0.2058 -0.0374
 3433SOL     OW21934   1.520   1.253   0.578 -0.2256  0.1924  0.0002
 3433SOL    HW121935   1.552   1.210   0.499 -2.0173 -0.3079 -0.4626
 3433SOL    HW221936   1.543   1.345   0.569 -1.9325  0.9883  3.6085
 3434SOL     OW21937   0.906   0.572   8.162 -0.2319 -0.0406 -0.2160
 3434SOL    HW121938   0.964   0.627   8.111  1.1168 -1.7763 -0.5528
 3434SOL    HW221939   0.848   0.636   8.203 -1.6926 -1.2466 -0.3917
 3435SOL     OW21940   0.481   2.351   5.601  0.7882 -0.3304 -0.4089
 3435SOL    HW121941   0.571   2.321   5.614  0.7823  0.1485  0.7659
 3435SOL    HW221942   0.436   2.268   5.623  0.6499  0.4335  2.2208
 3436SOL     OW21943   0.705   2.377   9.683 -0.7046  0.9948 -1.0032
 3436SOL    HW121944   0.756   2.456   9.702 -0.6790  0.7393 -0.0174
 3436SOL    HW221945   0.664   2.344   9.763 -0.1026 -0.5650 -1.3459
 3437SOL     OW21946   4.405   1.476   7.022  0.7224  0.4130 -0.2403
 3437SOL    HW121947   4.489   1.492   7.064  0.5171  0.7417  0.0358
 3437SOL    HW221948   4.397   1.386   7.054 -0.7495  0.8269  0.5240
 3438SOL     OW21949   4.360   0.867  17.572  0.2282 -0.0444 -0.0897
 3438SOL    HW121950   4.339   0.932  17.505  2.4035 -1.8146 -2.5182
 3438SOL    HW221951   4.296   0.878  17.642  0.3270 -0.6270  0.0956
 3439SOL     OW21952   4.490   0.005   5.445 -0.3145  0.3992 -0.0507
 3439SOL    HW121953   4.464   0.059   5.370  2.2945  1.2555 -0.3448
 3439SOL    HW221954   4.551   0.064   5.490 -0.5503  1.3800 -1.0040
 3440SOL     OW21955   0.424   4.063   5.540  0.0541  0.4375 -0.0436
 3440SOL    HW121956   0.390   4.017   5.617 -0.8773  0.4148 -0.4649
 3440SOL    HW221957   0.417   4.153   5.569 -0.3774  0.4637 -0.2262
 3441SOL     OW21958   0.661   3.489   8.959 -0.2515 -0.1730  0.0992
 3441SOL    HW121959   0.619   3.524   9.038 -0.2413  2.7841 -1.1946
 3441SOL    HW221960   0.684   3.405   8.997 -1.1256 -0.7769 -0.6897
 3442SOL     OW21961   0.742   3.440  10.247 -0.3548  0.0454  0.2806
 3442SOL    HW121962   0.722   3.419  10.155  1.1600 -3.3096  0.6923
 3442SOL    HW221963   0.665   3.483  10.283 -1.0290 -2.1165  1.4156
 3443SOL     OW21964   3.872   3.781   3.637 -0.4791  0.1580  0.0491
 3443SOL    HW121965   3.907   3.777   3.548  2.1437  0.7488  1.0613
 3443SOL    HW221966   3.927   3.854   3.664 -1.6986  0.2138  2.3975
 3444SOL     OW21967   3.157   0.434   3.857  0.5361  0.8345 -0.2827
 3444SOL    HW121968   3.219   0.392   3.796 -0.6259  0.7261 -1.3931
 3444SOL    HW221969   3.140   0.523   3.826 -0.5436 -0.8813 -4.6593
 3445SOL     OW21970   0.661   0.706   2.678 -0.1024 -0.6779  0.5138
 3445SOL    HW121971   0.747   0.749   2.678 -0.3383 -0.2021 -0.3254
 3445SOL    HW221972   0.595   0.774   2.668  0.4350 -0.1019  0.9259
 3446SOL     OW21973   0.877   4.223  13.133 -0.0669 -0.0515 -0.2737
 3446SOL    HW121974   0.815   4.213  13.205  0.8683  0.4789  0.6166
 3446SOL    HW221975   0.823   4.264  13.067  1.6527  1.2718 -0.8402
 3447SOL     OW21976   2.750   4.294  13.580 -0.1693 -0.0905 -0.3247
 3447SOL    HW121977   2.661   4.280  13.547 -1.1148  0.2855  2.0700
 3447SOL    HW221978   2.769   4.231  13.650  1.1170  0.3258 -0.3019
 3448SOL     OW21979   3.288   1.061   2.956 -0.7203 -0.0532  0.2378
 3448SOL    HW121980   3.254   1.145   2.988 -0.2603  0.4504 -0.5791
 3448SOL    HW221981   3.383   1.074   2.952 -0.8130 -0.0411 -1.9554
 3449SOL     OW21982   3.158   0.458   8.671  0.0358 -0.0398  0.4620
 3449SOL    HW121983   3.131   0.386   8.728 -0.2590 -0.0910  0.2546
 3449SOL    HW221984   3.135   0.538   8.720 -0.7537  0.4642 -0.7449
 3450SOL     OW21985   2.069   1.833  15.849  0.1916 -0.2468  0.0030
 3450SOL    HW121986   2.160   1.812  15.830  0.3202  0.4036 -0.1179
 3450SOL    HW221987   2.053   1.909  15.793  1.1422 -1.2761 -1.6537
 3451SOL     OW21988   0.649   2.844  13.146 -0.0817  0.2449  0.0539
 3451SOL    HW121989   0.716   2.896  13.191  0.3878  0.3999 -0.8115
 3451SOL    HW221990   0.581   2.846  13.213 -0.6059  2.2031 -0.5456
 3452SOL     OW21991   3.668   1.537   9.469 -0.4599  0.1229 -0.1016
 3452SOL    HW121992   3.614   1.530   9.548 -0.3135 -0.1178 -0.0227
 3452SOL    HW221993   3.733   1.597   9.506 -2.1874  0.6180  2.1758
 3453SOL     OW21994   1.660   1.397   6.796 -0.0528  0.5566  0.3775
 3453SOL    HW121995   1.719   1.328   6.765  0.7531  0.8960  1.1319
 3453SOL    HW221996   1.574   1.358   6.808 -0.5433  1.7384  0.7455
 3454SOL     OW21997   3.547   1.636  11.524  0.6543 -0.5306  0.4295
 3454SOL    HW121998   3.537   1.543  11.503  1.5679 -0.7606  1.0284
 3454SOL    HW221999   3.593   1.632  11.607 -0.0894  2.4063  0.9776
 3455SOL     OW22000   4.662   0.068  12.528  0.0958 -0.3267  0.2752
 3455SOL    HW122001   4.679   0.145  12.584 -2.2223 -0.4337  1.1671
 3455SOL    HW222002   4.639   0.114  12.447 -0.8356 -2.6779 -0.7800
 3456SOL     OW22003   3.945   1.039   6.227  0.2381 -0.2278 -0.5110
 3456SOL    HW122004   4.022   1.004   6.272  0.9320 -0.6239 -1.9940
 3456SOL    HW222005   3.884   1.068   6.294  0.4320 -0.3084 -0.3007
 3457SOL     OW22006   4.067   3.482  14.646 -0.1324  0.3185 -0.0783
 3457SOL    HW122007   4.020   3.549  14.596  1.2257  0.6483 -0.9330
 3457SOL    HW222008   4.001   3.414  14.653 -2.2644  2.3931 -0.1696
 3458SOL     OW22009   3.909   3.054   4.837 -0.5783 -0.6610 -0.4975
 3458SOL    HW122010   3.903   2.983   4.774 -1.9477 -2.1574  1.3444
 3458SOL    HW222011   3.822   3.046   4.875  0.0555 -0.6941  0.9700
 3459SOL     OW22012   1.485   2.257   2.217 -0.4800 -0.2350 -0.2760
 3459SOL    HW122013   1.454   2.322   2.155  2.2384  0.7037 -0.6483
 3459SOL    HW222014   1.541   2.197   2.167 -1.5621  0.0994 -1.8690
 3460SOL     OW22015   0.636   1.245   9.410  0.6959  0.5564  1.0111
 3460SOL    HW122016   0.724   1.229   9.443  1.2837  0.3292 -0.7224
 3460SOL    HW222017   0.601   1.166   9.451  0.9962 -0.6754 -1.1281
 3461SOL     OW22018   3.580   2.196   5.758  0.0938 -0.3415 -0.1227
 3461SOL    HW122019   3.507   2.253   5.782  2.3979  3.0079 -1.0568
 3461SOL    HW222020   3.531   2.136   5.701  2.9551 -2.3905 -0.4184
 3462SOL     OW22021   3.235   4.684  11.802  0.4591 -0.7989 -0.6030
 3462SOL    HW122022   3.260   4.706  11.892 -1.8560  0.5558 -0.2891
 3462SOL    HW222023   3.289   0.012  11.756 -1.9306  2.2191  0.8030
 3463SOL     OW22024   2.255   2.907   4.532 -0.1977 -0.2245 -0.5832
 3463SOL    HW122025   2.281   2.999   4.545 -1.6224  0.0377  0.3803
 3463SOL    HW222026   2.334   2.874   4.488 -0.7207 -1.9974 -0.1937
 3464SOL     OW22027   1.583   3.239   7.810 -0.3252 -0.3529  0.0669
 3464SOL    HW122028   1.629   3.226   7.893  0.6330 -0.5525 -0.4954
 3464SOL    HW222029   1.651   3.214   7.747  1.7926  1.5007  1.6071
 3465SOL     OW22030   3.580   0.881  16.881 -0.4094  0.0678  0.2890
 3465SOL    HW122031   3.635   0.849  16.952  0.0719  1.9301  0.7468
 3465SOL    HW222032   3.505   0.916  16.928 -0.7148 -1.1306  0.6738
 3466SOL     OW22033   0.672   3.954   3.356  0.3036 -0.3337  0.5133
 3466SOL    HW122034   0.707   3.867   3.371  0.0260 -0.3315  1.1518
 3466SOL    HW222035   0.599   3.938   3.296  0.4532  0.0790  0.2193
 3467SOL     OW22036   1.222   0.181   8.503 -0.2283 -0.0159  0.2851
 3467SOL    HW122037   1.137   0.211   8.470  1.2550 -0.5055 -3.9843
 3467SOL    HW222038   1.262   0.165   8.417 -0.7584  0.7668 -0.1053
 3468SOL     OW22039   2.063   0.777   7.430 -0.5505  0.6814 -0.3132
 3468SOL    HW122040   2.074   0.837   7.504  0.5557  0.3923 -0.2467
 3468SOL    HW222041   2.084   0.690   7.462  0.6265  0.8586 -0.5985
 3469SOL     OW22042   2.249   1.839  15.454  0.4044  0.2524 -0.0582
 3469SOL    HW122043   2.202   1.915  15.487  2.5957  2.0105 -0.9687
 3469SOL    HW222044   2.246   1.780  15.529 -3.2066 -0.6172 -0.8996
 3470SOL     OW22045   0.948   0.323  15.082 -0.5923  0.6665  0.4240
 3470SOL    HW122046   1.019   0.386  15.094  0.1713  0.3652 -2.6865
 3470SOL    HW222047   0.958   0.269  15.161 -2.6399  0.3255  0.4494
 3471SOL     OW22048   3.334   3.278   5.013  0.0625  0.7603 -0.3290
 3471SOL    HW122049   3.340   3.185   4.990  1.3923  0.2753  1.9542
 3471SOL    HW222050   3.385   3.281   5.094 -0.7161 -0.4139  0.2039
 3472SOL     OW22051   0.184   0.496   7.285 -0.1138 -0.1765  0.4670
 3472SOL    HW122052   0.215   0.566   7.227 -0.9127  0.9818  1.4251
 3472SOL    HW222053   0.183   0.422   7.225  2.9743  0.7432 -0.7454
 3473SOL     OW22054   3.987   3.088   2.678 -0.4258 -0.1336 -0.3639
 3473SOL    HW122055   3.930   3.041   2.617 -0.8222  0.8382 -0.7373
 3473SOL    HW222056   3.977   3.033   2.756 -1.4211 -0.6793 -0.8723
 3474SOL     OW22057   3.603   0.644   7.301  0.0410 -0.2056  0.7439
 3474SOL    HW122058   3.698   0.652   7.293  0.0738 -0.6433  0.7337
 3474SOL    HW222059   3.599   0.601   7.386  1.6413  1.8236  1.8688
 3475SOL     OW22060   2.754   4.463   5.004  0.3012  0.4841  0.1810
 3475SOL    HW122061   2.737   4.400   5.074 -1.5042  1.4217  0.5993
 3475SOL    HW222062   2.697   4.438   4.931  0.0029 -0.9724  0.9222
 3476SOL     OW22063   0.055   4.536   4.826  0.3744  0.2933 -0.1361
 3476SOL    HW122064   0.080   4.471   4.892 -2.5017 -0.9818 -0.3233
 3476SOL    HW222065   0.138   4.575   4.797  0.6206  0.1623  0.3886
 3477SOL     OW22066   2.602   4.048  16.662 -0.0511  0.4669  0.1392
 3477SOL    HW122067   2.671   4.001  16.710 -1.3769 -2.8205 -1.1320
 3477SOL    HW222068   2.649   4.118  16.617  1.6062 -1.8028 -1.6586
 3478SOL     OW22069   0.007   0.784  15.499 -0.0411 -0.0872 -0.0867
 3478SOL    HW122070   4.686   0.842  15.550  0.0974  1.8512 -2.1384
 3478SOL    HW222071   0.089   0.831  15.488  0.2452 -0.6222 -0.1964
 3479SOL     OW22072   2.466   1.426  10.506  0.3365  0.2221  0.2067
 3479SOL    HW122073   2.554   1.390  10.503 -0.4522 -1.8326  1.6323
 3479SOL    HW222074   2.464   1.495  10.573 -0.0982 -2.0666  2.5576
 3480SOL     OW22075   3.531   4.494   3.754  0.3211  0.0408 -0.1893
 3480SOL    HW122076   3.444   4.513   3.790  1.4383  2.4691  1.2389
 3480SOL    HW222077   3.576   4.560   3.807 -2.0134  0.0839  1.7538
 3481SOL     OW22078   4.125   1.082   5.198  0.5686 -0.0354  0.1123
 3481SOL    HW122079   4.214   1.050   5.183  0.6688 -1.1567  3.1403
 3481SOL    HW222080   4.116   1.054   5.289  2.8020  2.4622  1.1137
 3482SOL     OW22081   1.461   2.736   7.358  0.4634  0.0334 -0.4635
 3482SOL    HW122082   1.408   2.664   7.324  1.0802 -0.6071 -0.0521
 3482SOL    HW222083   1.449   2.737   7.453  1.0268  0.4651 -0.3973
 3483SOL     OW22084   0.628   0.128   0.747  0.2165  0.3318  0.2907
 3483SOL    HW122085   0.633   0.176   0.665  3.1397 -0.2187  0.1407
 3483SOL    HW222086   0.536   0.140   0.768  0.0932 -2.0981  1.1760
 3484SOL     OW22087   2.061   0.134   6.282 -0.1468  0.3757 -0.4707
 3484SOL    HW122088   2.134   0.190   6.257 -1.6335  2.1595 -0.8175
 3484SOL    HW222089   2.020   0.134   6.196 -0.0810  0.9284 -0.5062
 3485SOL     OW22090   3.070   1.624   9.427 -0.1513 -0.1788  0.5198
 3485SOL    HW122091   3.018   1.668   9.493 -0.5294 -0.5704  0.4804
 3485SOL    HW222092   3.046   1.533   9.445  0.1257 -0.4852 -0.6253
 3486SOL     OW22093   3.796   1.108   1.196  0.0928  0.2944  0.2668
 3486SOL    HW122094   3.848   1.057   1.134  2.5752 -0.9765  3.3575
 3486SOL    HW222095   3.850   1.187   1.210 -2.3361  1.6429  2.0696
 3487SOL     OW22096   1.725   3.111   2.533 -0.6068 -0.1521  0.5936
 3487SOL    HW122097   1.732   3.037   2.473 -0.8782  1.6636 -1.6408
 3487SOL    HW222098   1.816   3.114   2.562 -0.7780  3.1966  0.8506
 3488SOL     OW22099   1.927   0.546   6.475  0.3705 -0.6548 -0.0146
 3488SOL    HW122100   1.869   0.498   6.416  0.9828 -2.7080  1.0390
 3488SOL    HW222101   1.894   0.634   6.458 -1.7510 -1.4852 -0.0921
 3489SOL     OW22102   1.984   3.983   1.533  0.2512  0.1596 -0.2226
 3489SOL    HW122103   2.070   3.989   1.574 -0.8663  1.8289  1.8369
 3489SOL    HW222104   1.972   3.888   1.534  1.8266 -0.0352 -0.4284
 3490SOL     OW22105   2.675   4.043  17.127 -0.1376  0.5117 -0.3704
 3490SOL    HW122106   2.651   3.956  17.160  0.2471  0.9171  0.9929
 3490SOL    HW222107   2.601   4.049  17.066 -1.1934  1.6796  1.0056
 3491SOL     OW22108   1.218   4.035   8.458  0.4152  0.3956 -0.0698
 3491SOL    HW122109   1.155   4.017   8.388  1.3932  1.0525 -1.1246
 3491SOL    HW222110   1.170   4.098   8.511  2.4787 -0.6229  3.0081
 3492SOL     OW22111   1.683   3.749   3.219  0.1437  0.0520 -0.0326
 3492SOL    HW122112   1.742   3.803   3.273 -1.3716  3.0595 -1.4029
 3492SOL    HW222113   1.733   3.763   3.139  0.3451  4.2396  0.8374
 3493SOL     OW22114   0.219   0.494  17.210  0.2290  0.3634  0.2859
 3493SOL    HW122115   0.187   0.562  17.269 -0.9261  0.2178 -0.1621
 3493SOL    HW222116   0.199   0.412  17.255 -0.1516 -0.8241 -2.0369
 3494SOL     OW22117   4.438   2.623  12.315  0.3307  0.0559 -0.0238
 3494SOL    HW122118   4.407   2.609  12.404  1.1722  0.1678  0.2815
 3494SOL    HW222119   4.522   2.578  12.316 -0.5184 -1.5637 -0.2940
 3495SOL     OW22120   4.052   4.021   8.014 -0.2201  0.3291  0.6290
 3495SOL    HW122121   3.985   3.985   8.071  1.4959  2.2963  3.8706
 3495SOL    HW222122   3.997   4.085   7.969 -1.1517 -1.3500 -0.6143
 3496SOL     OW22123   3.767   2.625   5.589  0.1050 -0.0401 -0.2590
 3496SOL    HW122124   3.856   2.614   5.623  0.3348  0.3437 -0.7253
 3496SOL    HW222125   3.718   2.553   5.628  0.5536 -0.7783 -1.0622
 3497SOL     OW22126   4.318   1.069  14.905  0.4609 -0.1843  0.1497
 3497SOL    HW122127   4.357   1.131  14.966  0.6099  0.0886 -0.2215
 3497SOL    HW222128   4.242   1.117  14.872  0.2348  0.4127  1.5332
 3498SOL     OW22129   0.659   3.920   7.710  0.0154 -0.3960 -1.1445
 3498SOL    HW122130   0.658   3.832   7.671 -0.4504 -1.0560  0.3770
 3498SOL    HW222131   0.750   3.923   7.739 -0.2919  1.3438 -0.3635
 3499SOL     OW22132   0.883   1.097   4.852 -0.0726  0.0352 -0.2810
 3499SOL    HW122133   0.967   1.058   4.877  0.2272  1.0496  0.2915
 3499SOL    HW222134   0.892   1.137   4.766 -1.4658 -0.5225 -0.6873
 3500SOL     OW22135   1.351   0.385   4.202  0.6511 -0.2503  0.2260
 3500SOL    HW122136   1.392   0.422   4.279  0.3364  1.2751 -0.3425
 3500SOL    HW222137   1.347   0.291   4.222 -1.1733 -0.3584 -0.5879
 3501SOL     OW22138   2.049   2.413  16.990  0.9689  0.3871 -0.2971
 3501SOL    HW122139   1.976   2.354  17.009  0.4310  1.4738  0.9742
 3501SOL    HW222140   2.039   2.470  17.066  2.4833 -0.2461  0.3775
 3502SOL     OW22141   0.321   0.624   3.131 -0.4724  0.2954 -0.5480
 3502SOL    HW122142   0.390   0.648   3.070 -1.2776 -0.7817 -1.8808
 3502SOL    HW222143   0.299   0.531   3.120  1.0209  0.0510 -1.3880
 3503SOL     OW22144   0.494   0.926   6.848  0.1330  0.4166  0.5116
 3503SOL    HW122145   0.479   0.963   6.935  0.1621  1.0906  0.2319
 3503SOL    HW222146   0.405   0.936   6.815  1.5619  0.6470 -3.1907
 3504SOL     OW22147   4.573   2.399   6.051 -0.5308  0.2867 -0.3853
 3504SOL    HW122148   4.534   2.407   5.963  0.8737  0.8128 -0.9553
 3504SOL    HW222149   4.622   2.481   6.052 -1.8939  1.0967  1.0249
 3505SOL     OW22150   1.343   2.060   8.567  0.0114  0.0545 -0.1011
 3505SOL    HW122151   1.420   2.115   8.577 -2.4907  2.9552  2.9508
 3505SOL    HW222152   1.283   2.107   8.624 -2.5838 -1.0054 -1.9719
 3506SOL     OW22153   1.250   1.986  11.579  0.1796 -0.3600 -0.4401
 3506SOL    HW122154   1.339   1.966  11.549 -0.3648 -1.4696 -1.3389
 3506SOL    HW222155   1.212   2.046  11.514  0.8990 -0.0374 -0.5689
 3507SOL     OW22156   1.013   1.446   6.850  0.3740  0.1885  0.2914
 3507SOL    HW122157   1.058   1.501   6.786 -1.3903 -0.1180 -1.2132
 3507SOL    HW222158   1.065   1.365   6.850 -1.1391 -0.7814 -0.3670
 3508SOL     OW22159   1.885   0.947   8.230  0.5958  0.2057 -0.0691
 3508SOL    HW122160   1.970   0.911   8.207  0.2948 -0.9569  0.6381
 3508SOL    HW222161   1.850   0.867   8.270 -1.0139  0.1712 -1.5595
 3509SOL     OW22162   1.582   2.500  14.663  0.0500 -0.4148 -0.2213
 3509SOL    HW122163   1.492   2.474  14.642  0.2782  0.5294 -2.3247
 3509SOL    HW222164   1.574   2.573  14.725  0.6364  0.1813 -0.8494
 3510SOL     OW22165   2.125   0.110  17.680 -0.6474  0.5729  0.1868
 3510SOL    HW122166   2.135   0.020  17.649 -0.3548  1.0208 -1.0104
 3510SOL    HW222167   2.116   0.163  17.601  1.2555  2.3173  1.1556
 3511SOL     OW22168   2.342   1.297   8.004  0.0075 -0.6163  0.3560
 3511SOL    HW122169   2.358   1.316   7.911  1.7993 -0.2461  0.7298
 3511SOL    HW222170   2.398   1.222   8.024  2.9005  0.6439 -2.8375
 3512SOL     OW22171   4.157   0.499   0.726 -0.2181  0.1224  1.1385
 3512SOL    HW122172   4.078   0.452   0.751  0.7831 -0.9262  2.3251
 3512SOL    HW222173   4.174   0.478   0.634 -0.5198 -0.2317  1.1648
 3513SOL     OW22174   3.080   4.707   1.014 -0.0902 -0.3521 -0.3790
 3513SOL    HW122175   2.992   4.670   1.007 -1.7175  3.3121  0.8199
 3513SOL    HW222176   3.059   0.063   0.997  0.6284 -0.0652  0.2494
 3514SOL     OW22177   2.733   3.904   7.495  0.2868  0.1720 -0.6388
 3514SOL    HW122178   2.726   3.962   7.571  3.2888 -0.2754 -0.0280
 3514SOL    HW222179   2.697   3.974   7.441 -0.5584 -1.2096 -1.8745
 3515SOL     OW22180   1.862   0.195   9.135  0.8365  0.5731  0.5317
 3515SOL    HW122181   1.861   0.276   9.187 -0.3980  1.8883 -1.5002
 3515SOL    HW222182   1.781   0.158   9.170  0.1520  0.2005 -1.4610
 3516SOL     OW22183   2.542   0.169   0.303  0.0420  0.4065  0.0506
 3516SOL    HW122184   2.472   0.127   0.254 -0.2122  0.5151  0.3232
 3516SOL    HW222185   2.544   0.261   0.277  1.6316  0.3504 -0.0675
 3517SOL     OW22186   2.436   3.873  13.111 -0.4079 -0.3331 -0.2138
 3517SOL    HW122187   2.456   3.965  13.097  1.0914 -0.3829  1.6097
 3517SOL    HW222188   2.470   3.832  13.031 -0.3269 -3.7407  1.5639
 3518SOL     OW22189   2.150   3.813   3.095  0.6541  0.7891 -0.1139
 3518SOL    HW122190   2.240   3.780   3.106 -0.3967 -1.6099  1.2517
 3518SOL    HW222191   2.124   3.783   3.008  0.0232 -0.8481  0.6435
 3519SOL     OW22192   2.751   4.433   2.685 -0.2109  0.0412  0.2681
 3519SOL    HW122193   2.785   4.487   2.613 -0.3492  1.2582  1.1207
 3519SOL    HW222194   2.775   4.483   2.763 -1.9576 -0.4106  1.0899
 3520SOL     OW22195   0.897   3.003   1.846 -1.0926  0.0252 -0.3075
 3520SOL    HW122196   0.908   2.908   1.832  0.4829  0.2165 -0.4340
 3520SOL    HW222197   0.810   3.006   1.806 -2.0609  1.5546  1.9387
 3521SOL     OW22198   0.141   1.743   7.466  0.0969  0.0386 -0.3650
 3521SOL    HW122199   0.221   1.795   7.476  1.7582 -2.3262 -1.3992
 3521SOL    HW222200   0.094   1.765   7.547 -2.4299  1.8360 -2.3551
 3522SOL     OW22201   2.138   3.092   4.997 -0.5483 -0.4741 -0.0714
 3522SOL    HW122202   2.125   3.045   4.915 -1.0076 -2.9252  1.4135
 3522SOL    HW222203   2.232   3.074   5.005 -0.3815  0.1358 -0.6391
 3523SOL     OW22204   2.376   1.849  11.909 -0.0019  0.5516  0.5516
 3523SOL    HW122205   2.432   1.878  11.837 -0.7690 -0.7114 -0.5242
 3523SOL    HW222206   2.381   1.925  11.968  1.1593  0.9900 -0.1072
 3524SOL     OW22207   0.009   1.287   7.654 -0.5297  0.5265  0.2666
 3524SOL    HW122208   0.093   1.253   7.684 -0.3076  1.4927  0.7248
 3524SOL    HW222209   4.695   1.206   7.663 -2.0163  1.5185  0.8723
 3525SOL     OW22210   0.938   4.557  12.938  0.8892 -0.3226  0.3634
 3525SOL    HW122211   0.936   4.632  12.878 -1.5316  1.3153  2.4782
 3525SOL    HW222212   1.011   4.589  12.989  1.4106  0.1051 -0.6390
 3526SOL     OW22213   0.050   3.810  11.841  0.3150 -0.2592  0.3019
 3526SOL    HW122214   0.075   3.862  11.765 -3.2276  1.0185 -0.0073
 3526SOL    HW222215   4.699   3.787  11.811  0.9568 -1.2578 -0.7687
 3527SOL     OW22216   0.546   2.471   7.507  0.1615 -0.0031 -1.1365
 3527SOL    HW122217   0.461   2.504   7.537  0.4536 -1.9493  1.8083
 3527SOL    HW222218   0.522   2.379   7.510  2.8809 -0.6524  1.2646
 3528SOL     OW22219   4.383   0.927   0.272 -0.3259 -0.1946  0.2066
 3528SOL    HW122220   4.318   0.920   0.342 -0.4168 -2.4438 -0.1194
 3528SOL    HW222221   4.326   0.909   0.198  0.1746  0.2989 -0.2997
 3529SOL     OW22222   0.698   3.979   6.673  0.7369 -0.7203 -0.5689
 3529SOL    HW122223   0.680   4.073   6.668  1.4358 -0.6427 -1.5410
 3529SOL    HW222224   0.748   3.958   6.594 -1.8801 -0.6140 -2.2359
 3530SOL     OW22225   3.003   4.273   0.139 -0.1919 -0.2725  0.4447
 3530SOL    HW122226   3.024   4.237   0.053  0.9201 -0.4590  0.7819
 3530SOL    HW222227   3.014   4.193   0.191  2.8725  0.3613  0.7731
 3531SOL     OW22228   1.998   4.062   5.258  0.3135  0.0435  0.3643
 3531SOL    HW122229   1.939   4.136   5.274 -1.0091 -0.6545 -1.2283
 3531SOL    HW222230   1.942   4.008   5.202  3.1407 -0.1050 -2.3451
 3532SOL     OW22231   1.286   4.217   4.542  0.5949  0.0694  0.5617
 3532SOL    HW122232   1.225   4.169   4.598 -0.7481 -2.0779 -2.7568
 3532SOL    HW222233   1.240   4.299   4.525 -0.3982 -0.4176  0.8701
 3533SOL     OW22234   1.295   3.722  12.664  0.2841 -0.3113 -0.0654
 3533SOL    HW122235   1.327   3.719  12.755 -0.6639  0.3891  0.2918
 3533SOL    HW222236   1.207   3.760  12.670  1.3057  2.2986 -1.9814
 3534SOL     OW22237   3.303   0.347   3.668 -0.4641 -0.0222 -0.1692
 3534SOL    HW122238   3.396   0.371   3.667 -0.4336  0.0092  2.1576
 3534SOL    HW222239   3.293   0.285   3.596  1.5412  0.6602 -1.0358
 3535SOL     OW22240   2.301   0.292   6.480 -0.5714  0.0658 -0.2518
 3535SOL    HW122241   2.211   0.314   6.501 -1.2050 -1.6846 -1.0983
 3535SOL    HW222242   2.289   0.237   6.402 -1.4598  1.7847 -1.3074
 3536SOL     OW22243   1.617   0.717   7.963  0.4577 -0.1049 -0.4917
 3536SOL    HW122244   1.601   0.807   7.936  2.3630  0.4055  0.0766
 3536SOL    HW222245   1.639   0.672   7.882 -0.9172 -0.9435 -0.4042
 3537SOL     OW22246   3.802   0.784   6.805 -0.6134  0.2296  0.3958
 3537SOL    HW122247   3.740   0.762   6.875  0.3988 -1.1041  0.8775
 3537SOL    HW222248   3.865   0.720   6.840 -0.2799 -0.8529 -2.1688
 3538SOL     OW22249   3.744   4.134   1.056 -0.4675 -0.1603 -0.6108
 3538SOL    HW122250   3.781   4.193   0.990  1.8784  0.5151  1.2908
 3538SOL    HW222251   3.713   4.063   1.000 -2.4036  1.0499 -1.0736
 3539SOL     OW22252   1.022   2.833   5.774 -0.5686 -0.4531 -0.1511
 3539SOL    HW122253   1.014   2.798   5.863 -0.6965 -0.1716 -0.0518
 3539SOL    HW222254   1.025   2.927   5.792 -2.4894 -0.3229 -0.5546
 3540SOL     OW22255   2.790   0.780   4.900 -0.2137 -0.4940 -0.4929
 3540SOL    HW122256   2.814   0.693   4.866  0.7354 -0.1362 -0.7541
 3540SOL    HW222257   2.870   0.829   4.881 -0.4585  0.1010  0.0526
 3541SOL     OW22258   2.314   3.021   6.200  0.1938  0.0605 -0.2985
 3541SOL    HW122259   2.404   3.001   6.227 -0.5595 -2.1394  0.5517
 3541SOL    HW222260   2.265   2.977   6.269 -0.5071  0.4378 -0.5505
 3542SOL     OW22261   0.974   3.813   7.427  0.0415  0.0189 -0.2552
 3542SOL    HW122262   0.940   3.897   7.395  1.2940  0.4033 -0.5713
 3542SOL    HW222263   0.898   3.756   7.417 -0.0647  0.0315  0.4615
 3543SOL     OW22264   3.178   1.531   4.980  0.1332  0.8499 -0.6138
 3543SOL    HW122265   3.223   1.545   5.064 -2.3187 -0.8291  0.9979
 3543SOL    HW222266   3.246   1.487   4.929 -1.9135 -0.7136 -1.9635
 3544SOL     OW22267   0.158   0.707  11.159  0.3868  0.1338 -0.3255
 3544SOL    HW122268   0.094   0.745  11.098  1.3598  0.3643 -1.2103
 3544SOL    HW222269   0.135   0.766  11.231  2.6005  1.0175 -0.3557
 3545SOL     OW22270   2.248   0.780   6.151 -0.0811  0.1931  0.0169
 3545SOL    HW122271   2.291   0.830   6.081 -0.5092  0.0628 -0.3386
 3545SOL    HW222272   2.315   0.712   6.153 -1.2798 -0.8909  2.4292
 3546SOL     OW22273   3.340   2.986   2.692 -0.0709 -0.7448  0.3163
 3546SOL    HW122274   3.365   2.998   2.783 -0.3295  2.7064 -0.0733
 3546SOL    HW222275   3.337   3.075   2.657 -0.4084  0.3623  3.1828
 3547SOL     OW22276   1.510   1.879  16.017 -0.4320 -0.1606 -0.3105
 3547SOL    HW122277   1.550   1.832  15.944 -1.4043 -1.0525 -0.2622
 3547SOL    HW222278   1.564   1.837  16.084  0.2912 -2.5637 -2.3761
 3548SOL     OW22279   0.192   0.062  12.009 -0.2549  0.2206 -0.1020
 3548SOL    HW122280   0.114   0.039  12.060  0.0572  2.3451  1.3031
 3548SOL    HW222281   0.240   4.716  12.012 -1.7006 -0.5509  2.0271
 3549SOL     OW22282   0.029   4.492   5.718 -0.1701  0.0510 -0.2199
 3549SOL    HW122283   4.687   4.517   5.767  1.4987  1.4317  1.7680
 3549SOL    HW222284   0.006   4.525   5.632 -2.9321  2.2688  1.4089
 3550SOL     OW22285   1.588   0.435  17.037 -0.7207 -0.0182 -0.1362
 3550SOL    HW122286   1.651   0.507  17.036  1.1726 -1.6895 -0.5816
 3550SOL    HW222287   1.536   0.460  17.114  1.8290  0.3796  1.4673
 3551SOL     OW22288   0.840   2.535  10.591 -0.4286 -0.6413  0.7092
 3551SOL    HW122289   0.805   2.624  10.590  1.5006  0.0663 -2.9045
 3551SOL    HW222290   0.893   2.546  10.670  2.0938 -0.0045 -1.0791
 3552SOL     OW22291   1.037   2.758   0.049  0.7296 -0.4440  0.9053
 3552SOL    HW122292   1.034   2.664   0.069  0.8838 -0.7231 -0.3863
 3552SOL    HW222293   1.090   2.760  17.713 -1.2438 -1.1704 -0.4578
 3553SOL     OW22294   0.395   0.848  15.469  0.2594 -0.0777  0.1207
 3553SOL    HW122295   0.326   0.842  15.403  1.5440  0.8207 -1.3279
 3553SOL    HW222296   0.346   0.868  15.548 -0.2823  1.7509 -0.6688
 3554SOL     OW22297   0.669   2.071   4.396 -0.4153  0.7604  0.3416
 3554SOL    HW122298   0.587   2.049   4.439  0.0466  0.2977  0.9835
 3554SOL    HW222299   0.688   1.997   4.338  0.2122  1.1879 -0.0033
 3555SOL     OW22300   3.010   3.580  11.867  0.6160 -0.3709 -0.1560
 3555SOL    HW122301   3.083   3.620  11.820  0.9034 -0.8229 -0.0994
 3555SOL    HW222302   2.939   3.640  11.847  0.3145 -0.2164  1.3946
 3556SOL     OW22303   2.147   2.394   7.955  0.0452  0.1419  0.3375
 3556SOL    HW122304   2.144   2.407   8.050  0.9495  1.1804  0.2274
 3556SOL    HW222305   2.054   2.377   7.939  0.5029 -0.6554 -1.4874
 3557SOL     OW22306   0.925   4.626  10.198  0.4630  0.1571 -0.7708
 3557SOL    HW122307   1.012   4.591  10.217 -0.7792 -0.9812  2.7021
 3557SOL    HW222308   0.922   4.658  10.107  1.7011  1.3355 -0.3907
 3558SOL     OW22309   4.291   3.579   9.731  0.1336  0.6484  0.3137
 3558SOL    HW122310   4.337   3.647   9.779 -1.2643  0.7187  1.5228
 3558SOL    HW222311   4.249   3.639   9.670 -0.0937  0.8941  0.7151
 3559SOL     OW22312   3.689   4.637   4.815 -0.2982 -0.3245  0.4876
 3559SOL    HW122313   3.626   4.576   4.776  0.3394 -1.3221  1.0049
 3559SOL    HW222314   3.687   4.702   4.745  0.7927 -1.2856 -0.4209
 3560SOL     OW22315   1.739   4.047   1.400 -0.2032  0.0312 -0.0010
 3560SOL    HW122316   1.767   4.121   1.347 -3.4386  0.3998 -1.1947
 3560SOL    HW222317   1.825   4.036   1.441 -0.0669  0.2246 -0.2430
 3561SOL     OW22318   0.739   1.670  12.537  0.0154  0.0114  0.2046
 3561SOL    HW122319   0.652   1.632  12.551  0.7253 -1.8041 -0.3732
 3561SOL    HW222320   0.718   1.729  12.464  0.7571 -0.2278 -0.2020
 3562SOL     OW22321   2.460   1.870   9.408  0.3199 -0.1327 -0.1323
 3562SOL    HW122322   2.496   1.935   9.468  0.9820 -0.4159 -0.2200
 3562SOL    HW222323   2.532   1.806   9.411  0.8672  0.5812  2.1741
 3563SOL     OW22324   3.952   4.128   2.072  0.4723  0.3042  0.0426
 3563SOL    HW122325   3.870   4.079   2.065  0.0942  1.2796 -2.2851
 3563SOL    HW222326   3.954   4.168   1.985  2.5513 -1.0102 -0.5230
 3564SOL     OW22327   0.093   2.233   9.110  0.5777 -0.4503 -0.1662
 3564SOL    HW122328   0.124   2.153   9.068 -1.3839 -1.6351  0.5795
 3564SOL    HW222329   0.062   2.195   9.193 -0.1661  1.7004  0.5360
 3565SOL     OW22330   1.597   1.576   9.021  0.4803  0.2431 -0.3081
 3565SOL    HW122331   1.608   1.490   8.980  2.9056  1.8269 -2.9908
 3565SOL    HW222332   1.528   1.626   8.977  0.6712  1.8963  1.2518
 3566SOL     OW22333   0.412   1.760   5.760  0.0666  0.0173 -0.2157
 3566SOL    HW122334   0.324   1.732   5.785  0.8886  0.5724  3.2424
 3566SOL    HW222335   0.405   1.728   5.670  1.4172 -1.4796  0.2054
 3567SOL     OW22336   3.152   3.619   8.435 -0.6468  0.0760  0.0967
 3567SOL    HW122337   3.240   3.611   8.397  0.7276  1.2578  2.9859
 3567SOL    HW222338   3.117   3.682   8.373 -1.0383  0.0674  0.3119
 3568SOL     OW22339   1.877   1.942   2.228  0.0727  0.0519 -0.5700
 3568SOL    HW122340   1.792   1.985   2.233  1.2253  2.1659  1.1375
 3568SOL    HW222341   1.897   1.930   2.135 -0.4415  1.6302 -0.8734
 3569SOL     OW22342   0.873   4.682  15.129 -0.2777  0.2594  0.2751
 3569SOL    HW122343   0.819   0.025  15.131 -1.0146 -0.2752  1.6939
 3569SOL    HW222344   0.956   4.724  15.149 -0.9418  1.3781  0.6567
 3570SOL     OW22345   4.480   1.349   0.933 -0.1748 -1.2297  0.0507
 3570SOL    HW122346   4.484   1.387   1.021 -1.3005  0.7496 -0.7546
 3570SOL    HW222347   4.423   1.410   0.886  1.6341  0.3634 -0.1181
 3571SOL     OW22348   2.480   2.459   7.622  0.2421 -0.2190 -0.0637
 3571SOL    HW122349   2.482   2.550   7.593  1.3293 -0.4667 -0.7656
 3571SOL    HW222350   2.385   2.449   7.626  0.3213 -0.7805  0.4859
 3572SOL     OW22351   4.543   3.658   4.584 -0.1266  0.3154 -0.4869
 3572SOL    HW122352   4.527   3.750   4.608  1.4336 -0.2637  2.7793
 3572SOL    HW222353   4.638   3.658   4.595  0.0517  3.7297 -1.8526
 3573SOL     OW22354   1.409   2.998   9.654  0.3140  0.4258 -0.6419
 3573SOL    HW122355   1.494   3.036   9.634  0.0137  1.9781  0.9698
 3573SOL    HW222356   1.356   3.019   9.578  0.4323 -0.8716 -1.0744
 3574SOL     OW22357   1.229   1.639   7.015  0.5089 -0.0751  0.1044
 3574SOL    HW122358   1.145   1.642   7.061  1.4733  1.6303  1.7638
 3574SOL    HW222359   1.209   1.649   6.922  0.8485 -1.5683 -0.1178
 3575SOL     OW22360   0.694   3.771  11.068  1.0611 -0.2800  0.2386
 3575SOL    HW122361   0.776   3.819  11.053 -0.9447  2.9461 -0.5062
 3575SOL    HW222362   0.668   3.774  10.976  0.5828 -0.7504  0.3580
 3576SOL     OW22363   1.137   2.144   5.517  0.2306  0.0127 -0.1312
 3576SOL    HW122364   1.129   2.238   5.531  1.3569  0.0072  0.5986
 3576SOL    HW222365   1.136   2.142   5.422 -0.4492  0.5590 -0.1338
 3577SOL     OW22366   1.953   3.773  13.588 -0.3754 -0.2151 -0.0772
 3577SOL    HW122367   1.915   3.686  13.602 -0.1278 -0.0487  1.7434
 3577SOL    HW222368   1.899   3.824  13.648 -0.9020  0.6200 -1.2686
 3578SOL     OW22369   1.350   0.415  14.035 -0.3682  0.1328  0.1388
 3578SOL    HW122370   1.337   0.507  14.056  0.6297  0.0749  1.0268
 3578SOL    HW222371   1.374   0.422  13.943 -1.3372  1.0995 -0.0428
 3579SOL     OW22372   1.150   4.129   3.863 -0.0082  0.2757  0.4690
 3579SOL    HW122373   1.125   4.055   3.808  0.7626  0.3902 -0.0280
 3579SOL    HW222374   1.070   4.118   3.913 -1.3633  1.3896 -1.4524
 3580SOL     OW22375   4.592   2.728   5.507  0.4153 -0.3623  0.0462
 3580SOL    HW122376   4.538   2.713   5.584  0.1122  1.2260  0.1530
 3580SOL    HW222377   4.633   2.642   5.506  1.2047  0.0047  2.2098
 3581SOL     OW22378   1.157   3.360   8.980 -0.1156  0.6636  0.0799
 3581SOL    HW122379   1.157   3.446   8.939 -3.1825  1.2332  1.2702
 3581SOL    HW222380   1.071   3.365   9.020  0.4612  0.9781  1.2756
 3582SOL     OW22381   2.765   4.307  15.179 -0.0162  0.3639  0.4109
 3582SOL    HW122382   2.805   4.231  15.222  0.0309  0.5072  0.6193
 3582SOL    HW222383   2.802   4.374  15.237  1.3940  0.2710 -0.3862
 3583SOL     OW22384   4.418   0.943   5.725 -0.4097  0.0355  0.0871
 3583SOL    HW122385   4.336   0.956   5.772 -1.6088  1.0412 -2.2887
 3583SOL    HW222386   4.469   1.014   5.764  1.6119 -0.8545 -0.9125
 3584SOL     OW22387   3.961   1.434   8.153 -0.0108  0.2210 -0.1005
 3584SOL    HW122388   3.965   1.528   8.135  0.7912  0.2018  0.0076
 3584SOL    HW222389   3.944   1.427   8.247 -1.3045  1.8229 -0.2143
 3585SOL     OW22390   4.568   0.016   3.924  0.2137  0.3563 -0.8030
 3585SOL    HW122391   4.476   4.726   3.921 -0.2481  1.9464  0.0204
 3585SOL    HW222392   4.611   4.718   3.845 -2.1704 -3.2398 -0.5941
 3586SOL     OW22393   2.350   0.011   1.347  0.5158  0.2687  0.1863
 3586SOL    HW122394   2.404   0.012   1.426  0.5737 -2.7073  0.2131
 3586SOL    HW222395   2.320   4.656   1.345 -1.7921  1.0961 -3.8421
 3587SOL     OW22396   4.400   1.480   8.923 -0.4458  0.4588 -0.7033
 3587SOL    HW122397   4.408   1.401   8.869 -2.0722  0.0321 -0.3315
 3587SOL    HW222398   4.355   1.451   9.003  2.2154  2.3479  1.4815
 3588SOL     OW22399   1.614   4.116  15.863 -1.1358 -0.1609  0.2888
 3588SOL    HW122400   1.623   4.156  15.949  1.6818 -1.7133  0.7356
 3588SOL    HW222401   1.530   4.152  15.835 -1.2513 -0.3419  0.3962
 3589SOL     OW22402   4.530   0.746   9.934 -0.0194  0.2026 -0.5898
 3589SOL    HW122403   4.577   0.666   9.907  1.8781  0.4186  2.0898
 3589SOL    HW222404   4.611   0.797   9.930 -0.3733  0.6458 -2.0257
 3590SOL     OW22405   2.614   3.087  16.848  0.3185 -0.1685  0.3927
 3590SOL    HW122406   2.552   3.022  16.815  2.2663 -2.3957  1.1357
 3590SOL    HW222407   2.589   3.100  16.939 -0.3820  0.4843  0.1095
 3591SOL     OW22408   2.826   1.860   0.032 -0.1539 -0.1717 -0.5985
 3591SOL    HW122409   2.891   1.806  17.730  0.3795 -0.0124 -0.0289
 3591SOL    HW222410   2.854   1.856   0.124 -0.7484 -0.7459 -0.4392
 3592SOL     OW22411   1.457   1.610   3.511  0.3540 -0.6045 -0.3489
 3592SOL    HW122412   1.512   1.547   3.558  0.5734  0.8191  1.3245
 3592SOL    HW222413   1.366   1.584   3.527 -0.1967 -0.0752 -2.7043
 3593SOL     OW22414   2.231   0.675   0.412 -0.3769 -0.8198  0.5113
 3593SOL    HW122415   2.139   0.700   0.411 -0.7266 -2.1806 -1.0947
 3593SOL    HW222416   2.245   0.689   0.318 -0.8296  1.7741  0.8322
 3594SOL     OW22417   0.366   3.969  13.376  0.0617  0.1641  0.1083
 3594SOL    HW122418   0.371   3.877  13.399 -0.6990  0.7973  2.7737
 3594SOL    HW222419   0.448   3.995  13.420 -1.0112  2.3183  0.8359
 3595SOL     OW22420   4.303   2.752   6.237 -0.1909  0.6463 -0.2152
 3595SOL    HW122421   4.278   2.732   6.327  3.0121  1.7422  0.9456
 3595SOL    HW222422   4.225   2.799   6.208  0.9407  1.9012 -1.2157
 3596SOL     OW22423   0.144   2.844   4.153  0.3974 -0.1673 -0.2536
 3596SOL    HW122424   0.207   2.780   4.185 -1.5726 -0.9535  2.0760
 3596SOL    HW222425   0.065   2.803   4.187  0.8358  0.9215  2.0719
 3597SOL     OW22426   1.039   0.007   8.135  0.1697  0.4920  0.0298
 3597SOL    HW122427   1.018   0.079   8.195  1.8346  0.4830  0.6141
 3597SOL    HW222428   1.022   4.670   8.194  2.3399 -1.8739 -2.2752
 3598SOL     OW22429   1.692   4.026   2.603  0.3427 -0.4472  0.3901
 3598SOL    HW122430   1.606   4.062   2.627  1.4262  1.1648  1.8756
 3598SOL    HW222431   1.742   4.054   2.680  1.4308  1.8996 -1.1722
 3599SOL     OW22432   0.264   3.072   6.779  0.6028  0.7682 -0.4541
 3599SOL    HW122433   0.295   3.153   6.738 -0.2972  0.2297 -2.1753
 3599SOL    HW222434   0.174   3.054   6.752  0.6007 -0.8938  0.6665
 3600SOL     OW22435   1.222   1.790  13.473 -0.1455  0.0402  0.0430
 3600SOL    HW122436   1.211   1.855  13.543 -0.7613  0.7635 -0.7331
 3600SOL    HW222437   1.317   1.776  13.478  0.3001  3.1917  0.7829
 3601SOL     OW22438   0.544   3.559   8.311  0.2979  0.1880  0.2042
 3601SOL    HW122439   0.464   3.611   8.316  0.3183  0.3535 -1.0502
 3601SOL    HW222440   0.593   3.602   8.381  2.0746 -0.6045 -0.5428
 3602SOL     OW22441   1.725   3.033   4.156  0.0946 -0.3869 -0.2479
 3602SOL    HW122442   1.640   3.061   4.122 -0.3034 -1.4749 -0.1551
 3602SOL    HW222443   1.723   3.078   4.240 -3.4075 -0.7441 -0.1483
 3603SOL     OW22444   0.457   2.041   7.951  0.3739  0.2875 -0.5954
 3603SOL    HW122445   0.441   2.009   7.862 -3.5584  0.8867 -0.0897
 3603SOL    HW222446   0.374   2.088   7.958  0.7385  0.6221  1.7277
 3604SOL     OW22447   1.658   4.428   8.650  0.1674  0.0127 -0.1649
 3604SOL    HW122448   1.733   4.433   8.709 -0.3187  1.2834  0.3360
 3604SOL    HW222449   1.630   4.519   8.641 -1.8680 -0.5697  0.2688
 3605SOL     OW22450   4.150   4.565  13.016 -0.0627 -0.0097 -0.0471
 3605SOL    HW122451   4.064   4.598  13.043 -0.6157 -3.4918  2.3823
 3605SOL    HW222452   4.126   4.493  12.957 -1.4257  0.5782 -0.2023
 3606SOL     OW22453   0.757   1.355  16.446  0.5248 -0.1422 -0.0352
 3606SOL    HW122454   0.766   1.387  16.536 -0.4429 -0.5393  0.2055
 3606SOL    HW222455   0.782   1.262  16.446  2.0137  0.2432 -0.7892
 3607SOL     OW22456   4.199   0.496  13.919 -0.0484  0.0578  0.2603
 3607SOL    HW122457   4.212   0.488  13.825 -3.3814 -2.2850  0.0030
 3607SOL    HW222458   4.246   0.577  13.938 -0.1501  0.5491 -1.5861
 3608SOL     OW22459   2.309   4.026   6.389  0.4991 -0.1158 -0.7198
 3608SOL    HW122460   2.298   3.931   6.396 -0.3974  0.0495  0.1928
 3608SOL    HW222461   2.247   4.044   6.318  0.5871  2.6134 -0.1254
 3609SOL     OW22462   0.846   2.713   4.255  0.0041 -0.1727  0.1495
 3609SOL    HW122463   0.818   2.627   4.287 -0.9286 -0.1798 -0.6972
 3609SOL    HW222464   0.926   2.693   4.206  0.3975 -0.0198  0.7227
 3610SOL     OW22465   0.473   3.298   8.224 -0.6258 -0.3484  0.5656
 3610SOL    HW122466   0.510   3.319   8.138 -1.9414  0.5915  0.2280
 3610SOL    HW222467   0.489   3.380   8.270  1.4509 -0.3497 -0.1236
 3611SOL     OW22468   0.584   0.622   3.030 -0.1190 -0.2207 -0.6347
 3611SOL    HW122469   0.601   0.592   3.120  3.1563 -0.9487 -1.4862
 3611SOL    HW222470   0.585   0.538   2.985 -0.0391 -0.2707 -0.5418
 3612SOL     OW22471   2.216   1.071   5.102 -0.1576  0.1081  0.7172
 3612SOL    HW122472   2.285   1.066   5.168 -0.9284 -0.3793  1.4786
 3612SOL    HW222473   2.214   1.167   5.097  0.5652  0.1009  0.2999
 3613SOL     OW22474   3.293   2.614   4.939  0.1915 -0.3463  1.0054
 3613SOL    HW122475   3.374   2.664   4.931  0.1219 -0.3867  0.0308
 3613SOL    HW222476   3.266   2.647   5.024 -0.2452 -0.6402  0.9797
 3614SOL     OW22477   0.108   3.653  15.334 -0.2648 -0.4387 -0.3598
 3614SOL    HW122478   0.067   3.694  15.258  3.9101  0.2234 -2.2572
 3614SOL    HW222479   0.027   3.656  15.385 -0.5686 -1.1183 -0.8009
 3615SOL     OW22480   4.243   0.384   7.446  0.0847 -0.2988 -0.3092
 3615SOL    HW122481   4.195   0.309   7.481 -1.1811 -1.0522 -3.6421
 3615SOL    HW222482   4.331   0.347   7.445  1.1416  2.1074  2.6691
 3616SOL     OW22483   2.152   1.362  13.379 -0.2531 -0.5199  0.0910
 3616SOL    HW122484   2.155   1.410  13.296 -2.4603 -0.9157 -0.2051
 3616SOL    HW222485   2.181   1.274  13.353 -1.1941 -1.0394  0.7899
 3617SOL     OW22486   4.629   0.195   1.502 -0.3119  0.2797 -0.3292
 3617SOL    HW122487   4.648   0.101   1.501  1.3534  0.6211  0.0457
 3617SOL    HW222488   4.715   0.238   1.504 -0.5847  0.7819  1.1225
 3618SOL     OW22489   2.034   2.549   4.748  0.4452 -0.6388 -0.1722
 3618SOL    HW122490   1.985   2.536   4.829 -2.6877 -0.3375 -2.0131
 3618SOL    HW222491   2.089   2.471   4.742  1.2749  0.0126 -0.8719
 3619SOL     OW22492   4.168   1.288  16.132  0.7438 -0.3735 -0.7233
 3619SOL    HW122493   4.105   1.236  16.083 -2.1568  0.0835  2.5860
 3619SOL    HW222494   4.144   1.377  16.105 -1.0837 -1.0147 -1.1706
 3620SOL     OW22495   3.124   0.096  16.627 -0.4153 -0.0762  0.1215
 3620SOL    HW122496   3.184   0.023  16.612 -0.6928 -0.1110 -0.8051
 3620SOL    HW222497   3.131   0.151  16.549 -0.3364 -0.0844  0.1225
 3621SOL     OW22498   1.091   3.625   0.125  0.2044 -0.0798 -0.0939
 3621SOL    HW122499   1.168   3.594   0.077  0.3834  1.0175 -0.5042
 3621SOL    HW222500   1.043   3.682   0.066 -0.6839  1.1344  1.8046
 3622SOL     OW22501   2.547   0.164   3.972  0.3923  0.1226  0.6258
 3622SOL    HW122502   2.537   0.157   4.067 -0.4110  2.0595  0.6619
 3622SOL    HW222503   2.634   0.127   3.955  0.1936 -0.1516  0.1974
 3623SOL     OW22504   2.321   1.467   0.468 -0.4282  0.4884  0.0791
 3623SOL    HW122505   2.372   1.548   0.473  1.2823 -0.5180 -1.0237
 3623SOL    HW222506   2.238   1.503   0.497 -0.0838  1.1176  0.2792
 3624SOL     OW22507   1.086   2.109   7.922 -0.5606  0.9430  0.9436
 3624SOL    HW122508   1.116   2.193   7.956 -0.3367  0.9982  0.6091
 3624SOL    HW222509   1.008   2.129   7.870 -0.9156 -1.7435  0.4374
 3625SOL     OW22510   3.374   3.523   6.553  0.2410  0.2504  0.5689
 3625SOL    HW122511   3.375   3.440   6.600  1.2978 -0.9193 -1.5344
 3625SOL    HW222512   3.358   3.499   6.462  0.7496  1.8610  0.0489
 3626SOL     OW22513   1.888   4.543   0.611  0.0772 -0.6787  0.4271
 3626SOL    HW122514   1.978   4.516   0.597 -0.0853 -0.2052 -1.5560
 3626SOL    HW222515   1.892   4.639   0.603 -2.1503 -0.6662 -0.8769
 3627SOL     OW22516   0.739   3.888   9.398 -0.1972  0.3507 -0.0112
 3627SOL    HW122517   0.713   3.888   9.490  0.6669 -0.9762  0.2428
 3627SOL    HW222518   0.740   3.983   9.384  0.3614  0.6549  2.1101
 3628SOL     OW22519   2.122   4.546  12.123  0.2387 -0.4036 -0.0224
 3628SOL    HW122520   2.179   4.620  12.144 -0.3835 -0.0401  0.3964
 3628SOL    HW222521   2.116   4.501  12.208  1.9845  0.4840  0.5898
 3629SOL     OW22522   0.346   2.008   2.592  0.0901  0.2013  0.2437
 3629SOL    HW122523   0.422   2.013   2.650  0.4208  2.6735 -0.3958
 3629SOL    HW222524   0.304   1.931   2.630  0.4283  0.8645  1.9555
 3630SOL     OW22525   0.072   4.292  12.863  0.0650  0.2103 -0.1223
 3630SOL    HW122526   0.050   4.267  12.773  0.4978  0.1398 -0.2072
 3630SOL    HW222527   0.117   4.377  12.862  0.6308 -0.0666  2.7416
 3631SOL     OW22528   4.112   4.014   2.672  0.2954 -0.1448  0.4024
 3631SOL    HW122529   4.113   4.104   2.639  2.5780 -0.0504  0.7785
 3631SOL    HW222530   4.174   3.984   2.606  1.2568  1.4586  0.5847
 3632SOL     OW22531   3.135   3.543  16.583 -0.0943 -0.4210 -0.3550
 3632SOL    HW122532   3.110   3.492  16.506  2.6229  1.4422 -2.4378
 3632SOL    HW222533   3.065   3.527  16.647  0.8662 -0.0961  0.7683
 3633SOL     OW22534   3.952   1.395  11.571  0.0600  0.0872 -0.4017
 3633SOL    HW122535   3.945   1.432  11.483 -0.6695 -1.1202 -0.8636
 3633SOL    HW222536   4.044   1.402  11.594 -0.4698  1.6483  1.2762
 3634SOL     OW22537   2.059   1.399   4.009 -0.3499 -0.9302  0.0147
 3634SOL    HW122538   2.053   1.351   4.092  0.0513 -0.4260  0.3349
 3634SOL    HW222539   2.147   1.398   3.970 -0.8860 -2.1415 -1.1480
 3635SOL     OW22540   2.801   2.660   6.105  0.7209  0.3219 -0.7335
 3635SOL    HW122541   2.824   2.588   6.046 -0.0529 -1.1157  0.7123
 3635SOL    HW222542   2.716   2.684   6.066  0.0465  0.2156  0.6940
 3636SOL     OW22543   3.378   4.212   2.331  0.6321 -0.3718 -0.1724
 3636SOL    HW122544   3.327   4.149   2.280 -0.0498 -0.9355  1.2101
 3636SOL    HW222545   3.458   4.233   2.283 -0.3456 -0.6201 -1.9065
 3637SOL     OW22546   0.125   1.606   2.237  0.1691  0.0179  0.7754
 3637SOL    HW122547   0.215   1.576   2.231  0.9088  2.3820  0.1882
 3637SOL    HW222548   0.075   1.530   2.205 -1.6923  1.8000 -0.5521
 3638SOL     OW22549   2.024   3.207  12.346  0.1213  0.1902 -0.1885
 3638SOL    HW122550   1.971   3.287  12.341  1.1043  0.8472 -0.1198
 3638SOL    HW222551   1.972   3.162  12.412 -1.0310  0.9020 -0.6022
 3639SOL     OW22552   2.126   4.609   4.383 -0.0727 -0.3510 -1.1616
 3639SOL    HW122553   2.038   4.574   4.397  0.1493 -0.0234  1.1414
 3639SOL    HW222554   2.122   4.645   4.295 -1.9928 -0.4034 -1.0928
 3640SOL     OW22555   0.758   1.260   8.226  0.0791 -0.3663 -0.2031
 3640SOL    HW122556   0.837   1.231   8.181 -0.7754 -1.1757 -1.1905
 3640SOL    HW222557   0.749   1.186   8.286  1.3570  1.1248  1.8364
 3641SOL     OW22558   0.590   0.547   3.991 -0.0660 -0.2671 -0.1393
 3641SOL    HW122559   0.509   0.573   4.035  1.4227  1.0444  1.8745
 3641SOL    HW222560   0.616   0.462   4.027  4.6700  1.5249  0.6902
 3642SOL     OW22561   4.439   3.217   3.494 -0.0226  0.1272  0.0338
 3642SOL    HW122562   4.366   3.157   3.511  0.2076 -0.3008 -0.4838
 3642SOL    HW222563   4.510   3.165   3.457 -1.6180 -0.9016 -1.5948
 3643SOL     OW22564   0.589   1.020   1.118 -0.1100 -0.3159 -0.3250
 3643SOL    HW122565   0.618   1.102   1.158  2.7629 -1.0912 -0.7859
 3643SOL    HW222566   0.532   1.046   1.046 -2.1068 -1.0697  0.9915
 3644SOL     OW22567   2.656   0.758   7.660 -0.0341  1.3531 -0.2806
 3644SOL    HW122568   2.599   0.805   7.599 -1.2709  1.1679  0.7382
 3644SOL    HW222569   2.686   0.701   7.590  1.9589 -0.1327  1.7983
 3645SOL     OW22570   2.255   1.678   5.189 -0.0050  0.2386 -0.1054
 3645SOL    HW122571   2.321   1.678   5.119 -0.1702  0.2373 -0.2597
 3645SOL    HW222572   2.178   1.713   5.144 -0.8003  0.3352  1.3339
 3646SOL     OW22573   1.727   4.167  12.360  0.2475 -0.6380  0.4506
 3646SOL    HW122574   1.718   4.251  12.406  2.5261 -0.4880  0.5857
 3646SOL    HW222575   1.773   4.195  12.281 -1.3367 -1.4826 -0.7714
 3647SOL     OW22576   3.742   1.369   6.458 -0.3176 -0.3854  0.1385
 3647SOL    HW122577   3.675   1.383   6.526 -0.2794  1.2867 -0.1727
 3647SOL    HW222578   3.728   1.275   6.447 -2.3880 -0.3964  2.6536
 3648SOL     OW22579   0.831   2.992   5.053 -0.2214 -0.2540  0.2285
 3648SOL    HW122580   0.867   3.063   5.106  1.1502  0.6507 -1.8948
 3648SOL    HW222581   0.792   3.045   4.984 -1.3010 -0.7393  0.4678
 3649SOL     OW22582   3.065   1.695   2.875  0.2461  0.1895  0.0870
 3649SOL    HW122583   3.002   1.656   2.814  0.4953  0.6135 -0.4339
 3649SOL    HW222584   3.134   1.628   2.877  0.5138  0.5133  1.5469
 3650SOL     OW22585   1.906   0.478   3.256 -0.6831 -0.2938  0.3376
 3650SOL    HW122586   1.915   0.479   3.161 -0.5477 -1.2114  0.3364
 3650SOL    HW222587   1.883   0.387   3.273  0.4425 -1.1021 -2.4469
 3651SOL     OW22588   0.634   4.220   4.735 -0.4233  0.4688 -0.0203
 3651SOL    HW122589   0.720   4.179   4.749 -0.4729  0.3663 -0.0172
 3651SOL    HW222590   0.583   4.146   4.768 -2.3518  2.4326  1.3511
 3652SOL     OW22591   3.784   0.377   5.037 -0.1001 -0.5248 -0.1103
 3652SOL    HW122592   3.867   0.340   5.068 -1.0437  0.7286  3.8977
 3652SOL    HW222593   3.768   0.332   4.954  0.2016 -0.3165 -0.2788
 3653SOL     OW22594   1.022   2.898   4.405  0.5787  0.2968  0.4857
 3653SOL    HW122595   0.949   2.841   4.380  0.0900 -0.6901  4.0760
 3653SOL    HW222596   1.100   2.864   4.362  0.7850  0.4718  0.7182
 3654SOL     OW22597   2.068   3.478   1.990  0.1853  0.1505  0.0064
 3654SOL    HW122598   2.106   3.531   2.061 -0.3822  0.7142 -0.1138
 3654SOL    HW222599   2.054   3.548   1.927  0.7043  1.1992  1.0450
 3655SOL     OW22600   3.049   3.038  12.168  0.1774 -0.5626  0.1949
 3655SOL    HW122601   2.978   3.005  12.223 -1.0840  1.0938 -0.4345
 3655SOL    HW222602   3.048   3.132  12.188 -0.3345 -0.5136 -0.0677
 3656SOL     OW22603   1.632   2.388   9.285  0.2378  0.0764  0.0902
 3656SOL    HW122604   1.570   2.461   9.293  0.0580 -0.3013  2.1122
 3656SOL    HW222605   1.703   2.426   9.337 -1.0338 -0.0987  1.9486
 3657SOL     OW22606   3.251   3.135  10.987  0.2257  0.5912 -0.1211
 3657SOL    HW122607   3.186   3.165  11.050  0.4245  0.5346  0.1152
 3657SOL    HW222608   3.280   3.223  10.962  0.8204  1.0835  2.2404
 3658SOL     OW22609   1.441   2.653   9.725 -0.1505 -0.2703 -1.0213
 3658SOL    HW122610   1.489   2.648   9.808 -0.3375  0.5002 -0.8577
 3658SOL    HW222611   1.509   2.670   9.660  1.5391 -2.5555  0.1460
 3659SOL     OW22612   2.041   1.617   1.505 -0.5763  0.4164  0.0637
 3659SOL    HW122613   2.100   1.659   1.442 -1.3930  1.1525 -0.2068
 3659SOL    HW222614   1.987   1.569   1.442 -0.2108 -0.4877  0.4297
 3660SOL     OW22615   2.607   3.196   6.013  0.2502 -0.1581  0.6410
 3660SOL    HW122616   2.606   3.159   6.101  0.0104  1.0335  1.1351
 3660SOL    HW222617   2.572   3.122   5.963 -0.8142  0.2876  0.7272
 3661SOL     OW22618   4.732   1.960   2.057  0.0254  0.0812  0.2268
 3661SOL    HW122619   4.639   1.974   2.038 -0.2459 -1.2498  0.5544
 3661SOL    HW222620   0.006   1.940   2.150 -2.3439  0.5651  0.5951
 3662SOL     OW22621   0.260   1.847   6.534  0.6656  0.4204 -0.8431
 3662SOL    HW122622   0.233   1.893   6.613 -0.0951  1.4642 -1.7216
 3662SOL    HW222623   0.235   1.899   6.458  0.3715  0.9468 -0.3878
 3663SOL     OW22624   3.557   0.785  11.293 -0.9360 -0.0619  0.3172
 3663SOL    HW122625   3.642   0.806  11.252 -2.0055  1.1695 -1.2670
 3663SOL    HW222626   3.545   0.693  11.269  0.8666  0.0160 -0.9523
 3664SOL     OW22627   2.638   1.302   0.019 -0.0450  0.2599 -0.2645
 3664SOL    HW122628   2.646   1.390  17.724  0.2349  0.1465 -0.4599
 3664SOL    HW222629   2.648   1.246  17.686 -0.0665 -0.2406  0.1000
 3665SOL     OW22630   0.161   0.600   9.668  0.4704  0.4592 -0.2564
 3665SOL    HW122631   0.122   0.585   9.582  1.1042  2.0076 -0.8193
 3665SOL    HW222632   0.189   0.510   9.684 -3.2749 -0.5337  0.6027
 3666SOL     OW22633   2.447   1.932   7.386  0.3970 -0.6625  0.0099
 3666SOL    HW122634   2.384   1.911   7.455 -0.6123 -1.2299 -1.0926
 3666SOL    HW222635   2.433   2.026   7.377  0.0721 -0.8500 -1.4814
 3667SOL     OW22636   2.238   0.436  17.159 -0.0339 -0.0596  0.0334
 3667SOL    HW122637   2.305   0.368  17.165  0.7701  0.8964  1.8682
 3667SOL    HW222638   2.170   0.391  17.109 -0.5061  0.3409  0.3066
 3668SOL     OW22639   3.172   2.354   4.016  0.2796 -0.6187  0.0847
 3668SOL    HW122640   3.233   2.287   4.045 -0.5520 -1.6456 -0.5111
 3668SOL    HW222641   3.083   2.317   4.017  0.6532 -1.5049  0.2763
 3669SOL     OW22642   0.220   3.611   4.156 -0.4104 -0.1319 -0.5257
 3669SOL    HW122643   0.303   3.575   4.126 -2.0563 -2.8443 -1.8418
 3669SOL    HW222644   0.168   3.599   4.076 -0.1734  1.7607 -0.9648
 3670SOL     OW22645   2.394   1.351  16.291 -0.8149 -0.2629  0.5935
 3670SOL    HW122646   2.419   1.393  16.374  0.7122 -0.3322  0.1777
 3670SOL    HW222647   2.322   1.292  16.310 -2.3087  0.7881 -1.8944
 3671SOL     OW22648   2.796   2.209   2.554 -0.1140 -0.4207 -0.5509
 3671SOL    HW122649   2.878   2.247   2.586 -0.5280 -0.2703  0.3421
 3671SOL    HW222650   2.801   2.117   2.579  0.5447  0.1820  1.4966
 3672SOL     OW22651   0.335   2.553   7.035  0.1485 -0.3487  0.3029
 3672SOL    HW122652   0.329   2.480   7.097 -2.8370 -1.9918 -1.8715
 3672SOL    HW222653   0.422   2.544   6.996 -0.5566 -1.9814 -0.9287
 3673SOL     OW22654   4.705   0.499   9.006 -0.0462  0.0580  0.1975
 3673SOL    HW122655   4.627   0.453   8.976  0.1827  1.3840 -2.3934
 3673SOL    HW222656   0.033   0.456   8.949  1.3147 -0.8644  2.4101
 3674SOL     OW22657   0.021   3.229   4.068 -0.2275  0.3665  0.5047
 3674SOL    HW122658   4.667   3.253   4.088 -0.8606  0.8956 -2.9149
 3674SOL    HW222659   0.010   3.164   3.998  2.2093  0.4230  0.0635
 3675SOL     OW22660   2.024   2.134   8.635  0.3610  0.1032  0.5658
 3675SOL    HW122661   1.995   2.045   8.653 -0.6409  0.6982  1.8442
 3675SOL    HW222662   1.939   2.166   8.605  1.1218  3.0831  1.5514
 3676SOL     OW22663   1.606   0.796   0.768  0.0751 -0.3450  0.7496
 3676SOL    HW122664   1.573   0.880   0.736  0.2938 -0.9987 -1.2331
 3676SOL    HW222665   1.525   0.759   0.803 -0.3257 -0.7231 -0.5812
 3677SOL     OW22666   1.670   3.654   7.845 -0.0355 -0.2188  0.7871
 3677SOL    HW122667   1.621   3.631   7.924 -0.8743 -0.8326  0.0792
 3677SOL    HW222668   1.602   3.653   7.778  0.7540 -0.8507  0.0019
 3678SOL     OW22669   3.925   3.091   5.254  0.1170  0.0389  0.3626
 3678SOL    HW122670   3.932   2.997   5.239  0.1022 -0.0949  1.1910
 3678SOL    HW222671   4.016   3.120   5.252 -0.6024  2.3206 -0.1718
 3679SOL     OW22672   2.740   0.665   0.604  0.5082  0.1733  0.7178
 3679SOL    HW122673   2.646   0.666   0.619  0.2836  1.3938 -0.8433
 3679SOL    HW222674   2.775   0.616   0.679 -0.6306  0.5390  1.4740
 3680SOL     OW22675   2.184   2.866  16.625  0.0614  0.2787  0.0115
 3680SOL    HW122676   2.223   2.840  16.708 -1.8330  0.9439  1.1326
 3680SOL    HW222677   2.093   2.881  16.653  0.9630  1.1002  2.4294
 3681SOL     OW22678   0.020   1.762   0.241  0.5093  0.4017  0.3240
 3681SOL    HW122679   0.042   1.702   0.169 -0.3428  0.6358 -0.1330
 3681SOL    HW222680   0.101   1.808   0.259 -1.3889  3.4512  1.0168
 3682SOL     OW22681   2.086   4.611  16.313  0.1407  0.3798 -0.3632
 3682SOL    HW122682   2.080   4.550  16.239 -2.0894  1.7596 -1.3402
 3682SOL    HW222683   2.159   4.576  16.363 -0.6756 -0.1908  0.4221
 3683SOL     OW22684   1.681   3.158   9.875  0.1640  0.8168  0.4149
 3683SOL    HW122685   1.591   3.153   9.844 -0.2639 -0.3048  1.7975
 3683SOL    HW222686   1.677   3.185   9.967 -0.6663 -2.5749  1.3947
 3684SOL     OW22687   4.317   0.024   7.985 -0.2318 -0.2137  0.5294
 3684SOL    HW122688   4.337   0.113   7.955 -2.7373 -0.2354 -1.3034
 3684SOL    HW222689   4.282   0.055   8.068 -0.6075  0.2874  0.1889
 3685SOL     OW22690   3.113   3.683   6.261 -0.0622 -0.5074  0.0635
 3685SOL    HW122691   3.165   3.603   6.266 -0.1646 -0.4895  1.3741
 3685SOL    HW222692   3.127   3.706   6.169  0.2026  1.7701  0.6682
 3686SOL     OW22693   0.795   0.643  13.208  0.2831 -0.6006  0.0335
 3686SOL    HW122694   0.882   0.646  13.248 -0.0049 -0.2666  0.6342
 3686SOL    HW222695   0.761   0.556  13.229 -1.2593 -0.4085 -1.7050
 3687SOL     OW22696   3.920   0.596   7.303 -0.8725  0.2075  0.3743
 3687SOL    HW122697   3.956   0.559   7.222 -1.0621 -1.1028  0.8877
 3687SOL    HW222698   3.969   0.546   7.368 -0.8038  1.9694  1.6729
 3688SOL     OW22699   2.956   0.022   9.839 -0.3865 -0.0948  0.3577
 3688SOL    HW122700   2.888   0.041   9.773 -1.6815  0.1030  1.7484
 3688SOL    HW222701   2.937   0.090   9.904  0.4518 -1.1034  1.6538
 3689SOL     OW22702   2.597   2.490  14.857  0.6435  0.4028  0.2577
 3689SOL    HW122703   2.634   2.547  14.924  0.0341 -0.0549  0.9827
 3689SOL    HW222704   2.552   2.418  14.902 -0.6283  0.2729 -1.1992
 3690SOL     OW22705   3.378   3.764   4.193  0.8805 -0.3771  0.4247
 3690SOL    HW122706   3.358   3.737   4.103 -2.1191  3.9606 -0.1883
 3690SOL    HW222707   3.324   3.842   4.204 -0.2953 -0.8410 -2.0229
 3691SOL     OW22708   0.873   1.455   9.114  0.7738  0.4372  0.4109
 3691SOL    HW122709   0.946   1.516   9.126 -0.3728  2.0533 -0.8851
 3691SOL    HW222710   0.855   1.469   9.021  1.2684 -2.1697 -0.0728
 3692SOL     OW22711   2.621   1.250   8.190 -0.1069  0.1759  0.0370
 3692SOL    HW122712   2.633   1.315   8.120  0.7820 -0.2384 -0.1950
 3692SOL    HW222713   2.616   1.169   8.139  1.8585  0.5128 -0.6759
 3693SOL     OW22714   0.751   2.724   5.136 -0.5241 -0.3690  0.0057
 3693SOL    HW122715   0.676   2.749   5.082  0.9115  2.5048 -0.6798
 3693SOL    HW222716   0.813   2.793   5.112 -1.0332 -0.1582 -0.7073
 3694SOL     OW22717   2.502   4.033  14.706 -0.1936  0.7766  0.3348
 3694SOL    HW122718   2.558   4.054  14.631  0.1577 -2.3266 -0.2800
 3694SOL    HW222719   2.447   4.111  14.714  0.8810  1.1523  3.9474
 3695SOL     OW22720   0.594   2.490  11.129  0.5245 -0.4646  1.2413
 3695SOL    HW122721   0.571   2.429  11.199 -1.8335 -1.2696 -0.2334
 3695SOL    HW222722   0.676   2.534  11.150  0.3502  1.0412 -1.1557
 3696SOL     OW22723   1.032   4.097   1.850 -0.3281  0.4074 -0.1286
 3696SOL    HW122724   1.093   4.038   1.893 -0.2852  1.4134  1.1773
 3696SOL    HW222725   0.975   4.119   1.924 -1.9735 -1.4219 -0.8501
 3697SOL     OW22726   1.022   0.747  16.623 -0.3591  0.0686  0.1849
 3697SOL    HW122727   0.957   0.747  16.553 -0.6978  0.4393  0.4982
 3697SOL    HW222728   1.024   0.842  16.634  0.2571  0.0528  0.1976
 3698SOL     OW22729   1.392   1.337   2.669 -0.9021  0.1936  0.6124
 3698SOL    HW122730   1.420   1.248   2.646 -1.3629  0.3007 -0.3872
 3698SOL    HW222731   1.305   1.333   2.709 -0.0709 -0.0074  2.3725
 3699SOL     OW22732   1.030   0.316   6.085  0.2961 -0.2896 -0.3409
 3699SOL    HW122733   1.096   0.383   6.068  0.5209 -1.0557 -2.4880
 3699SOL    HW222734   1.073   0.251   6.139  0.8221 -0.3526 -0.8359
 3700SOL     OW22735   1.023   3.765   9.972  0.4805  0.5597  0.4764
 3700SOL    HW122736   1.049   3.677  10.000 -0.8923 -0.3906 -1.2401
 3700SOL    HW222737   0.929   3.777   9.987  0.6892  0.4826  1.8567
 3701SOL     OW22738   4.470   1.258   8.756  0.3249 -0.2865  0.0864
 3701SOL    HW122739   4.556   1.291   8.730  0.0726  1.9324  2.0689
 3701SOL    HW222740   4.423   1.250   8.673  0.5754 -0.9641  0.0068
 3702SOL     OW22741   3.869   4.488   7.582  0.2046 -0.5890 -0.1046
 3702SOL    HW122742   3.960   4.498   7.608  0.0873 -0.3696  0.2179
 3702SOL    HW222743   3.825   4.508   7.665 -1.4693  1.6489 -1.5282
 3703SOL     OW22744   3.002   2.457   1.970  0.5695 -0.2907 -0.3916
 3703SOL    HW122745   2.921   2.409   1.953 -1.3071  1.7433  2.7031
 3703SOL    HW222746   2.988   2.498   2.056  1.4232  0.8309 -0.7854
 3704SOL     OW22747   1.875   4.415   8.789  0.4198 -0.2372 -0.1275
 3704SOL    HW122748   1.899   4.372   8.871  0.6378 -1.7205 -0.9574
 3704SOL    HW222749   1.961   4.430   8.750  0.4939 -1.2830 -0.3635
 3705SOL     OW22750   1.510   3.251   6.317 -0.3475 -0.8153 -0.7646
 3705SOL    HW122751   1.553   3.337   6.314 -1.4791 -0.3357 -2.9393
 3705SOL    HW222752   1.502   3.224   6.225 -1.3899 -0.6755 -0.7080
 3706SOL     OW22753   3.309   4.571   8.945 -0.5513 -0.2933 -0.0530
 3706SOL    HW122754   3.243   4.504   8.962  1.9467 -3.2743 -2.1854
 3706SOL    HW222755   3.258   4.653   8.948  1.9203  1.2328 -0.1362
 3707SOL     OW22756   0.769   4.684  10.760  0.1980 -0.7631 -0.5173
 3707SOL    HW122757   0.682   4.651  10.740 -0.9015 -0.2241  3.3696
 3707SOL    HW222758   0.821   4.618  10.716  2.4174  0.4518  0.2794
 3708SOL     OW22759   1.596   1.465   8.506  0.4621 -0.0946  0.3975
 3708SOL    HW122760   1.596   1.404   8.580 -0.4658 -0.5100  0.0562
 3708SOL    HW222761   1.633   1.544   8.545  0.5174  0.1149 -0.0918
 3709SOL     OW22762   4.223   2.367  13.253  0.4004  0.2171 -0.0651
 3709SOL    HW122763   4.179   2.399  13.332 -0.2178 -2.1651  0.5388
 3709SOL    HW222764   4.221   2.275  13.278 -0.5058 -0.1097 -1.3777
 3710SOL     OW22765   4.627   3.609  10.179  0.4811 -0.0950  0.2688
 3710SOL    HW122766   4.590   3.562  10.254  0.1156 -0.4825 -0.1580
 3710SOL    HW222767   4.547   3.643  10.140  1.4587  0.2848 -1.4016
 3711SOL     OW22768   3.335   3.002   4.326 -0.2695 -0.2554 -0.1282
 3711SOL    HW122769   3.275   3.076   4.331 -0.7343 -0.7826  2.4669
 3711SOL    HW222770   3.289   2.936   4.379 -0.7403  0.0098 -0.2051
 3712SOL     OW22771   2.620   3.037  10.983 -0.4844  0.3429 -0.1469
 3712SOL    HW122772   2.704   3.058  10.941  1.5405 -1.1575  3.2012
 3712SOL    HW222773   2.625   2.948  11.016 -1.3256 -0.5454 -2.3873
 3713SOL     OW22774   1.428   3.616   8.011  0.7938 -0.1144 -0.1418
 3713SOL    HW122775   1.382   3.546   7.964  3.0446 -1.4613 -0.3566
 3713SOL    HW222776   1.448   3.574   8.094 -2.0195 -0.0296  0.5624
 3714SOL     OW22777   2.521   4.594   3.412  0.0296 -0.1619 -0.5464
 3714SOL    HW122778   2.602   4.551   3.387 -0.9018 -2.7844  0.9258
 3714SOL    HW222779   2.538   4.686   3.434 -2.3079 -0.1313  1.2067
 3715SOL     OW22780   1.592   3.216  13.412 -0.5249 -0.1817  0.2293
 3715SOL    HW122781   1.569   3.124  13.422 -1.0982 -0.1102 -0.4267
 3715SOL    HW222782   1.685   3.215  13.432 -0.4979  2.3635  0.2578
 3716SOL     OW22783   4.577   3.200   0.991 -0.3549  0.4469  0.5539
 3716SOL    HW122784   4.580   3.106   0.977  1.1671  0.5790  0.0096
 3716SOL    HW222785   4.572   3.233   0.901  0.3206  1.7206  0.9787
 3717SOL     OW22786   0.457   3.800   0.856 -0.2878 -0.1088  0.4314
 3717SOL    HW122787   0.547   3.824   0.835  0.8179 -2.3471  2.6909
 3717SOL    HW222788   0.470   3.720   0.907 -0.6337 -1.2253 -1.2082
 3718SOL     OW22789   1.075   4.492   2.075 -0.1621  0.6255 -0.5280
 3718SOL    HW122790   0.980   4.491   2.085 -0.0815 -0.6875  0.1392
 3718SOL    HW222791   1.095   4.584   2.089  0.4277  0.3737  0.2988
 3719SOL     OW22792   2.296   1.446   3.916  0.3062 -0.1412 -0.3383
 3719SOL    HW122793   2.347   1.524   3.938 -0.1652  0.6390 -1.9973
 3719SOL    HW222794   2.367   1.384   3.936 -0.0593 -0.0649  1.1697
 3720SOL     OW22795   0.413   2.696  14.204  1.0853  0.4702  0.0887
 3720SOL    HW122796   0.397   2.790  14.211  2.9037  0.6074  2.1925
 3720SOL    HW222797   0.350   2.681  14.133  0.9095  0.9463  0.1437
 3721SOL     OW22798   0.249   3.656   2.503 -0.3814 -0.1887 -0.0480
 3721SOL    HW122799   0.157   3.672   2.482 -0.1307  0.8975 -0.2955
 3721SOL    HW222800   0.292   3.718   2.445  0.6092 -0.8667 -0.0389
 3722SOL     OW22801   1.096   4.729   3.254  0.2239  0.6975 -0.2032
 3722SOL    HW122802   1.190   4.716   3.267 -0.2763 -0.6626  1.9300
 3722SOL    HW222803   1.060   4.689   3.332 -1.3777  0.3601 -1.1205
 3723SOL     OW22804   1.589   0.144   9.224  0.2255  0.4389 -0.7900
 3723SOL    HW122805   1.544   0.193   9.293  0.2207 -2.0346  0.9286
 3723SOL    HW222806   1.531   0.155   9.148 -0.2388  0.2988 -0.4592
 3724SOL     OW22807   1.296   1.374   4.052  0.5083  0.7620  0.3720
 3724SOL    HW122808   1.345   1.305   4.007 -1.0180 -0.6700  0.9182
 3724SOL    HW222809   1.212   1.331   4.066  2.2577 -2.3781  1.3021
 3725SOL     OW22810   0.043   3.318  10.915 -0.6878 -0.2501 -0.0822
 3725SOL    HW122811   4.723   3.280  10.982  2.4110 -0.5544  2.3192
 3725SOL    HW222812   0.114   3.355  10.967 -2.4124  0.1321  2.0103
 3726SOL     OW22813   1.210   3.283  10.919 -0.3017 -0.3430 -0.8256
 3726SOL    HW122814   1.233   3.308  11.008  2.0669  0.1741 -1.5773
 3726SOL    HW222815   1.299   3.262  10.892 -0.7315 -0.3971 -2.2339
 3727SOL     OW22816   1.799   2.406  11.234  0.0917  0.5232  0.0593
 3727SOL    HW122817   1.807   2.407  11.139  0.2865  0.5071  0.0762
 3727SOL    HW222818   1.866   2.465  11.268 -1.1508  1.3875  1.0271
 3728SOL     OW22819   3.833   0.116   2.490 -0.5982  0.4611 -0.8522
 3728SOL    HW122820   3.870   0.174   2.425  0.6060  0.1217 -0.4773
 3728SOL    HW222821   3.878   0.146   2.569 -0.0177  0.1763 -1.0758
 3729SOL     OW22822   1.841   3.445   7.716 -0.2501 -0.0231  0.4919
 3729SOL    HW122823   1.868   3.514   7.655  0.0977  1.2647  2.0884
 3729SOL    HW222824   1.772   3.485   7.769 -1.8101  0.4487 -1.9338
 3730SOL     OW22825   1.594   0.178  12.636  0.0330 -0.8520 -0.6666
 3730SOL    HW122826   1.511   0.135  12.617 -0.4526 -0.2173  0.0225
 3730SOL    HW222827   1.607   0.155  12.728  1.1651  0.0737 -0.5895
 3731SOL     OW22828   0.139   1.509  11.430 -0.6694  0.3046  0.2864
 3731SOL    HW122829   0.211   1.461  11.469 -1.6953  1.0597  3.1552
 3731SOL    HW222830   0.124   1.447  11.358 -2.0837 -0.6684  1.4082
 3732SOL     OW22831   4.191   1.991   3.385 -0.2206 -0.5805 -0.1638
 3732SOL    HW122832   4.183   1.954   3.297  0.0439  0.6864 -0.7209
 3732SOL    HW222833   4.284   2.002   3.401 -0.3689 -0.4802  0.6332
 3733SOL     OW22834   0.356   1.389   4.348  0.1318 -0.4361 -0.0435
 3733SOL    HW122835   0.438   1.367   4.392  0.5083  0.6224 -0.2054
 3733SOL    HW222836   0.386   1.449   4.280 -0.6659 -0.8771 -0.7920
 3734SOL     OW22837   0.011   3.932  11.186  0.0303 -0.7079  0.1558
 3734SOL    HW122838   4.658   3.966  11.182  0.3722  0.0643 -0.7961
 3734SOL    HW222839   0.064   3.987  11.128  0.9616 -2.5849 -0.7730
 3735SOL     OW22840   0.354   1.130  14.046  0.3113 -0.1841 -0.0942
 3735SOL    HW122841   0.409   1.152  14.121  1.4115  0.7736 -1.1755
 3735SOL    HW222842   0.412   1.077  13.991 -0.0854 -1.3253  0.6029
 3736SOL     OW22843   2.709   3.616   2.434 -0.3630 -0.2146 -0.0419
 3736SOL    HW122844   2.650   3.578   2.499 -1.8569  1.1658 -0.5979
 3736SOL    HW222845   2.794   3.612   2.477 -0.6118  0.7910  0.5281
 3737SOL     OW22846   4.269   2.804   5.840  0.2938 -0.2033 -0.2322
 3737SOL    HW122847   4.329   2.811   5.915  0.4053  0.2907 -0.3666
 3737SOL    HW222848   4.200   2.754   5.883  0.2797 -0.1286 -0.1669
 3738SOL     OW22849   4.000   1.856   1.874  0.1386 -0.2496  0.2305
 3738SOL    HW122850   4.062   1.799   1.828  0.0876 -0.6488  0.6491
 3738SOL    HW222851   3.942   1.885   1.804 -1.7243 -0.4798  1.6860
 3739SOL     OW22852   2.844   3.958   5.606 -0.5554  0.2207  0.3667
 3739SOL    HW122853   2.855   3.864   5.593  1.1000  0.3412  0.7935
 3739SOL    HW222854   2.819   3.954   5.698  1.9037  1.0768  1.0838
 3740SOL     OW22855   3.254   0.421   9.914  0.1548  0.3246  0.0128
 3740SOL    HW122856   3.349   0.409   9.909 -0.3483 -3.3531 -0.6217
 3740SOL    HW222857   3.232   0.436   9.822 -1.8521 -1.6999  0.1616
 3741SOL     OW22858   4.509   1.180   4.430 -0.3133  0.3587  0.1870
 3741SOL    HW122859   4.514   1.257   4.486 -2.0107  0.4679  0.1921
 3741SOL    HW222860   4.482   1.213   4.344 -0.0714 -0.8140 -0.3351
 3742SOL     OW22861   1.997   3.576   3.230 -0.1254  0.4315 -0.4242
 3742SOL    HW122862   1.936   3.503   3.220 -0.0762  0.2236  0.8278
 3742SOL    HW222863   1.998   3.609   3.140 -0.3864 -0.6228 -0.8175
 3743SOL     OW22864   2.573   2.546   3.887 -0.5655 -0.2864  0.1833
 3743SOL    HW122865   2.659   2.584   3.868 -0.4139 -1.2296 -1.0621
 3743SOL    HW222866   2.595   2.455   3.868  3.4498  0.7410 -0.0259
 3744SOL     OW22867   1.767   0.641   4.710  0.3684 -0.5009 -0.2671
 3744SOL    HW122868   1.785   0.615   4.619 -0.2594 -0.5415 -0.3787
 3744SOL    HW222869   1.783   0.560   4.758  0.1768 -0.2128  0.2756
 3745SOL     OW22870   2.776   4.717   3.998 -0.1129 -0.6919 -0.0427
 3745SOL    HW122871   2.845   4.703   3.933 -0.1325 -0.0932 -0.1878
 3745SOL    HW222872   2.762   4.624   4.016 -2.3076  0.1131  2.3929
 3746SOL     OW22873   0.588   2.619  11.456 -0.1623 -0.1280 -0.0709
 3746SOL    HW122874   0.554   2.543  11.408 -1.9535  2.0234 -2.1579
 3746SOL    HW222875   0.669   2.584  11.493 -0.7889 -1.0750  0.4108
 3747SOL     OW22876   1.199   4.612   7.077  0.6238  0.2199 -0.4035
 3747SOL    HW122877   1.268   4.600   7.142  0.0513 -2.4558 -0.2979
 3747SOL    HW222878   1.124   4.608   7.136  0.6705  0.1185 -0.3534
 3748SOL     OW22879   1.924   2.837   5.297  0.0180  0.0332 -0.3283
 3748SOL    HW122880   1.947   2.802   5.383  1.2424  1.6932  0.0217
 3748SOL    HW222881   1.932   2.752   5.254  1.8127 -1.3805  2.7806
 3749SOL     OW22882   2.529   0.137   4.797 -0.1839  0.5769 -0.4432
 3749SOL    HW122883   2.484   0.209   4.752 -1.2119 -0.6366 -1.3416
 3749SOL    HW222884   2.620   0.159   4.778 -0.2676  1.0742 -0.2948
 3750SOL     OW22885   0.646   2.178   8.078  0.3269  0.2224  0.4096
 3750SOL    HW122886   0.666   2.095   8.122 -0.7600  0.2991  1.0668
 3750SOL    HW222887   0.565   2.153   8.033  0.2439 -0.4501  0.9261
 3751SOL     OW22888   0.463   0.889   4.248  0.6847 -0.8684 -0.3064
 3751SOL    HW122889   0.433   0.811   4.202  0.2713  0.8172 -2.8858
 3751SOL    HW222890   0.469   0.952   4.176 -1.5880 -1.4637 -0.9996
 3752SOL     OW22891   0.434   1.826   7.501  0.1508  0.3822 -0.5238
 3752SOL    HW122892   0.453   1.814   7.408  0.1665 -0.7483 -0.3725
 3752SOL    HW222893   0.518   1.791   7.530 -0.9853 -0.9023  1.1940
 3753SOL     OW22894   3.340   0.278  10.519  0.0544 -0.2338  0.1511
 3753SOL    HW122895   3.264   0.239  10.562  1.0379  1.0333  3.0974
 3753SOL    HW222896   3.415   0.260  10.577  0.6704  1.1786 -0.2081
 3754SOL     OW22897   3.803   0.680   5.529 -0.1191  0.1717 -0.2453
 3754SOL    HW122898   3.856   0.653   5.604  0.6110 -0.4122 -0.9550
 3754SOL    HW222899   3.785   0.598   5.482 -0.6436  0.3990 -0.4354
 3755SOL     OW22900   3.551   0.134   4.244 -0.7392 -0.0693 -0.2490
 3755SOL    HW122901   3.612   0.060   4.248 -2.1354 -1.1488  1.2298
 3755SOL    HW222902   3.521   0.118   4.154  2.1036 -1.2828 -0.9704
 3756SOL     OW22903   4.433   2.711   6.733  0.1452  0.3463  0.1973
 3756SOL    HW122904   4.419   2.620   6.705 -0.1444  0.1181  1.0907
 3756SOL    HW222905   4.342   2.726   6.758  0.5679  1.1669  1.2443
 3757SOL     OW22906   3.853   0.617   3.848  0.2515 -0.5763 -0.1521
 3757SOL    HW122907   3.916   0.557   3.806  0.2312  0.0159 -1.0167
 3757SOL    HW222908   3.796   0.557   3.896 -1.2625  1.6577  0.7782
 3758SOL     OW22909   0.344   0.708   4.056  0.3711  0.2000 -0.1406
 3758SOL    HW122910   0.344   0.784   3.998  0.8473 -0.0911 -0.5176
 3758SOL    HW222911   0.253   0.680   4.049 -0.0867  1.3759  1.0217
 3759SOL     OW22912   4.434   0.693   5.386 -0.2254 -0.4092  0.0294
 3759SOL    HW122913   4.443   0.787   5.399  2.7580 -0.3929 -2.2647
 3759SOL    HW222914   4.363   0.671   5.446  0.6616  0.1417  1.2684
 3760SOL     OW22915   4.381   2.296   6.208 -0.1143 -0.1826  0.0458
 3760SOL    HW122916   4.431   2.351   6.148 -1.9606  0.7743 -0.6294
 3760SOL    HW222917   4.430   2.214   6.204 -0.6460 -0.4602 -0.9868
 3761SOL     OW22918   4.373   1.761   7.377  0.3102 -0.2186 -0.6136
 3761SOL    HW122919   4.433   1.757   7.451  0.6022 -0.2912 -0.8543
 3761SOL    HW222920   4.349   1.669   7.365 -0.2205 -0.0978 -0.4840
 3762SOL     OW22921   3.264   0.135   3.485 -0.2033 -0.4646  0.2617
 3762SOL    HW122922   3.324   0.138   3.411 -1.0461 -1.6472 -0.4612
 3762SOL    HW222923   3.184   0.096   3.450  0.5415 -2.0654  0.3769
 3763SOL     OW22924   3.031   3.800  16.287 -0.3325 -0.0237  0.3912
 3763SOL    HW122925   3.041   3.816  16.194  2.1657 -0.5074  0.5689
 3763SOL    HW222926   3.124   3.815  16.304 -0.5815 -0.1331  1.8754
 3764SOL     OW22927   2.831   0.388  13.677 -0.1931 -0.1389 -0.7942
 3764SOL    HW122928   2.883   0.361  13.753 -0.7808  1.3126  0.1186
 3764SOL    HW222929   2.770   0.450  13.717 -0.4969 -1.0829  0.2115
 3765SOL     OW22930   2.415   2.194   5.940  0.2585  0.4281  0.3798
 3765SOL    HW122931   2.406   2.105   5.906  0.0698  1.3223 -1.9063
 3765SOL    HW222932   2.507   2.193   5.966  0.2585 -1.6993  0.3292
 3766SOL     OW22933   1.814   4.226   5.387  0.4762 -0.0723  0.2108
 3766SOL    HW122934   1.756   4.212   5.462 -0.2438  1.2537 -0.0902
 3766SOL    HW222935   1.824   4.321   5.385  0.3156 -0.0369  0.9731
 3767SOL     OW22936   3.682   0.898   4.725  0.0118 -0.4359 -0.2146
 3767SOL    HW122937   3.640   0.939   4.800  2.6049  3.2398 -0.7506
 3767SOL    HW222938   3.765   0.944   4.741  0.7623 -2.3782  1.4487
 3768SOL     OW22939   3.608   0.870  10.979  0.7284 -0.1401 -0.0357
 3768SOL    HW122940   3.634   0.953  10.939  2.1658 -1.5374 -1.9851
 3768SOL    HW222941   3.677   0.849  11.042 -0.0483  2.1308  1.5892
 3769SOL     OW22942   4.098   2.684  16.253  0.6140  0.5827 -0.0848
 3769SOL    HW122943   4.062   2.767  16.219 -0.3426  0.0086 -0.4653
 3769SOL    HW222944   4.192   2.688  16.240  0.7700 -2.1742  0.3402
 3770SOL     OW22945   0.411   0.060  17.189  0.0588 -0.1514 -0.1262
 3770SOL    HW122946   0.419   0.155  17.177 -0.7768 -0.1438 -0.6353
 3770SOL    HW222947   0.469   0.043  17.263  0.2029  2.4745  0.3429
 3771SOL     OW22948   3.473   4.320  12.668  0.0906  0.4179 -0.2350
 3771SOL    HW122949   3.417   4.271  12.607  0.2561 -0.8492  0.6313
 3771SOL    HW222950   3.414   4.321  12.743  1.2349  1.2977  0.6699
 3772SOL     OW22951   0.676   2.650   9.352  0.1874 -0.1424 -0.2839
 3772SOL    HW122952   0.617   2.597   9.299 -0.1515  2.7868 -2.7997
 3772SOL    HW222953   0.656   2.619   9.440 -0.2313 -1.2197 -0.7607
 3773SOL     OW22954   1.135   0.791  11.702  0.0845  0.3445 -0.5129
 3773SOL    HW122955   1.165   0.875  11.739 -0.9628  0.6550 -0.3724
 3773SOL    HW222956   1.098   0.821  11.619 -0.0291  4.2497  0.9085
 3774SOL     OW22957   4.690   4.209   2.840 -0.4878 -0.4871  0.3369
 3774SOL    HW122958   4.616   4.247   2.886  0.5364  2.5069 -0.4971
 3774SOL    HW222959   4.707   4.273   2.770  4.1452 -1.0034  0.9869
 3775SOL     OW22960   0.686   1.185  10.206  0.0729 -0.0921 -0.0467
 3775SOL    HW122961   0.672   1.119  10.274 -1.3700  0.3113  0.0552
 3775SOL    HW222962   0.603   1.176  10.160 -0.7514  0.3018  1.3650
 3776SOL     OW22963   1.816   1.046   2.364  0.2527  0.3899 -0.1501
 3776SOL    HW122964   1.762   1.048   2.443  3.0443 -1.4396  1.7865
 3776SOL    HW222965   1.896   1.078   2.405 -1.6549  2.0605  2.2947
 3777SOL     OW22966   0.235   3.453  14.490 -0.6743  0.5932 -0.1070
 3777SOL    HW122967   0.278   3.444  14.405 -0.6543  0.8373 -0.1224
 3777SOL    HW222968   0.305   3.499  14.536 -0.7770  0.9873 -0.3492
 3778SOL     OW22969   2.155   2.495  16.742 -0.0999  0.2935 -0.3531
 3778SOL    HW122970   2.232   2.551  16.752  0.0765 -0.1245  0.5710
 3778SOL    HW222971   2.128   2.494  16.833 -0.0056  0.5520 -0.3226
 3779SOL     OW22972   2.534   4.710  10.324  0.2060  0.0009  0.0080
 3779SOL    HW122973   2.477   0.030  10.377 -0.9313 -0.1547 -1.0604
 3779SOL    HW222974   2.586   0.031  10.268  1.7727 -0.1563  1.3064
 3780SOL     OW22975   3.685   4.730  14.556  0.4390 -0.5541 -0.8122
 3780SOL    HW122976   3.714   0.006  14.646  0.9704  0.1401 -1.0670
 3780SOL    HW222977   3.701   4.637  14.543  2.4963 -0.5482  1.6280
 3781SOL     OW22978   4.498   0.470  11.392 -0.3529 -0.8826  0.0558
 3781SOL    HW122979   4.581   0.425  11.406  0.6586  0.1023 -2.7901
 3781SOL    HW222980   4.450   0.463  11.475 -0.0670  0.7412  0.3463
 3782SOL     OW22981   1.833   4.050   3.076 -0.0268 -0.0509 -0.0461
 3782SOL    HW122982   1.892   4.114   3.114 -0.2609 -0.3523  0.8224
 3782SOL    HW222983   1.751   4.080   3.115 -0.1880 -0.0146 -0.4085
 3783SOL     OW22984   0.521   0.370   5.092  0.0977  0.0576 -0.2394
 3783SOL    HW122985   0.485   0.430   5.157  1.6507  0.9091 -0.1637
 3783SOL    HW222986   0.456   0.301   5.104 -1.4683  1.3505 -1.3071
 3784SOL     OW22987   3.522   3.529   7.366 -0.7701 -1.1591 -0.0154
 3784SOL    HW122988   3.570   3.453   7.398  0.9085 -0.1125 -0.0389
 3784SOL    HW222989   3.433   3.497   7.353 -2.7410  3.0834  3.1374
 3785SOL     OW22990   1.866   2.989   0.854 -0.4027  0.1782 -0.4543
 3785SOL    HW122991   1.807   3.062   0.835 -1.8796 -0.7137  0.6808
 3785SOL    HW222992   1.881   3.013   0.946  1.0334 -0.2938 -0.5753
 3786SOL     OW22993   2.305   0.708   5.229 -0.2385  0.6113 -0.0549
 3786SOL    HW122994   2.214   0.736   5.228  0.5710  3.2659  0.1306
 3786SOL    HW222995   2.343   0.760   5.300 -1.7566 -0.5617  1.6210
 3787SOL     OW22996   0.147   0.506  15.162  0.8169  0.1357 -0.2202
 3787SOL    HW122997   0.087   0.510  15.237  3.8088  3.4149  1.9830
 3787SOL    HW222998   0.144   0.590  15.117  1.2571 -1.6825 -3.6787
 3788SOL     OW22999   4.632   0.170  11.780  0.4537  0.3473 -0.0492
 3788SOL    HW123000   4.715   0.142  11.741 -0.6011 -0.9018 -1.4162
 3788SOL    HW223001   4.579   0.094  11.756  3.4907 -0.8346 -3.0555
 3789SOL     OW23002   4.121   1.065   3.962  0.1041 -0.4011  0.4040
 3789SOL    HW123003   4.067   0.988   3.944  0.8392 -0.9631  0.5962
 3789SOL    HW223004   4.207   1.045   3.923  1.0120 -1.6332  3.0587
 3790SOL     OW23005   3.299   1.459   6.671  0.4674  0.0689  0.9916
 3790SOL    HW123006   3.283   1.400   6.598 -0.7782  1.0827  0.4605
 3790SOL    HW223007   3.354   1.414   6.736  2.4532  0.3517 -0.4998
 3791SOL     OW23008   2.895   3.777   0.983  0.0555 -0.1342  0.2654
 3791SOL    HW123009   2.953   3.709   0.950 -0.0799 -0.5462  0.8646
 3791SOL    HW223010   2.882   3.747   1.073  0.3491 -0.8783  0.0531
 3792SOL     OW23011   2.163   4.369   9.074  0.0152 -0.1974  0.0093
 3792SOL    HW123012   2.143   4.276   9.063  1.1672 -0.2382 -1.7632
 3792SOL    HW223013   2.182   4.400   8.986 -2.7994  0.5417 -0.3291
 3793SOL     OW23014   2.914   3.540   5.000  0.4218  0.1905 -0.0802
 3793SOL    HW123015   2.843   3.486   4.966 -0.6620  1.8535 -0.4217
 3793SOL    HW223016   2.984   3.475   4.987 -0.2508 -0.5229 -0.1341
 3794SOL     OW23017   2.184   3.233  15.503 -0.2174  0.2907 -0.4696
 3794SOL    HW123018   2.123   3.250  15.575  1.7072 -2.4717  1.8495
 3794SOL    HW223019   2.130   3.177  15.448  0.5941 -0.4501 -0.5154
 3795SOL     OW23020   4.625   3.301  11.152  0.1048  0.1796  0.2084
 3795SOL    HW123021   4.621   3.361  11.226 -1.2470 -1.7021  1.6650
 3795SOL    HW223022   4.532   3.283  11.136 -0.0329 -0.1174  1.3625
 3796SOL     OW23023   2.978   2.377  11.488  0.3463  0.4570  0.6536
 3796SOL    HW123024   2.970   2.323  11.566 -1.6597  0.2411  0.3059
 3796SOL    HW223025   3.016   2.457  11.523 -0.1476  0.8101  0.3720
 3797SOL     OW23026   4.627   4.551   2.076 -0.7594  0.2141  0.0328
 3797SOL    HW123027   4.676   4.543   1.994 -2.8364 -1.9944 -0.9818
 3797SOL    HW223028   4.537   4.546   2.042 -0.0303  0.3025 -1.9250
 3798SOL     OW23029   2.343   0.485   5.052  0.0347 -0.0555  0.2437
 3798SOL    HW123030   2.330   0.556   5.115  1.5776  0.0713  0.4002
 3798SOL    HW223031   2.383   0.426   5.116  3.3181  1.9811  0.0419
 3799SOL     OW23032   2.127   0.601   9.824 -0.3163 -0.4807 -0.0266
 3799SOL    HW123033   2.194   0.545   9.786  0.0896 -0.7583  1.0809
 3799SOL    HW223034   2.183   0.644   9.889 -0.8009  0.6320 -0.3367
 3800SOL     OW23035   1.703   1.082   2.594 -0.9421 -0.1420 -0.1165
 3800SOL    HW123036   1.703   1.177   2.607 -1.3029  0.1568 -2.2154
 3800SOL    HW223037   1.611   1.064   2.577 -0.4879 -1.9662 -0.7271
 3801SOL     OW23038   2.953   1.920   4.176 -0.0108  0.0861 -0.7512
 3801SOL    HW123039   2.990   1.934   4.089  0.7895 -0.9915 -0.5888
 3801SOL    HW223040   2.997   1.972   4.243 -0.2993  2.6877 -2.5937
 3802SOL     OW23041   0.403   3.553   7.533  0.2201 -0.4031  0.2574
 3802SOL    HW123042   0.437   3.525   7.448  0.9382  0.5168  0.2456
 3802SOL    HW223043   0.358   3.477   7.570  0.6212 -0.9805 -0.4486
 3803SOL     OW23044   2.730   2.431  14.592 -0.1522  0.0894 -0.3773
 3803SOL    HW123045   2.664   2.361  14.586  0.8497 -0.8012 -0.9242
 3803SOL    HW223046   2.746   2.418  14.685 -2.3993 -0.0974 -0.0145
 3804SOL     OW23047   0.723   2.111   3.959 -0.3438  0.4540 -0.4781
 3804SOL    HW123048   0.813   2.117   3.992 -0.4098  1.3546 -0.4386
 3804SOL    HW223049   0.736   2.166   3.881  1.2584  0.4629 -0.2015
 3805SOL     OW23050   2.501   3.697   1.707 -1.0282 -0.1207  0.4417
 3805SOL    HW123051   2.437   3.750   1.660  0.7974  2.1372  0.4892
 3805SOL    HW223052   2.440   3.627   1.729  0.7324 -1.7474  0.1640
 3806SOL     OW23053   0.508   3.990   1.244 -0.1965 -0.0419  0.3898
 3806SOL    HW123054   0.432   4.047   1.260  0.4524  0.9241  0.0035
 3806SOL    HW223055   0.469   3.902   1.246 -0.1042 -0.0856  0.2393
 3807SOL     OW23056   1.765   2.367   3.091  0.2492  0.3462 -0.0875
 3807SOL    HW123057   1.796   2.435   3.151 -2.4443  1.1968  0.3376
 3807SOL    HW223058   1.705   2.311   3.141 -0.6015  0.6049 -0.8261
 3808SOL     OW23059   2.308   0.908   3.205  0.0752 -0.0981  0.3431
 3808SOL    HW123060   2.299   0.889   3.299  0.7939 -0.8103  0.2618
 3808SOL    HW223061   2.330   0.822   3.170 -0.1318  1.2573 -3.0986
 3809SOL     OW23062   0.896   2.101   2.750  0.4906  0.0731 -0.8455
 3809SOL    HW123063   0.891   2.131   2.841 -2.3263 -2.2766 -0.2239
 3809SOL    HW223064   0.840   2.159   2.698  0.2657 -0.8910 -1.6726
 3810SOL     OW23065   2.737   2.712  14.256 -0.0944  0.1629 -0.6182
 3810SOL    HW123066   2.800   2.783  14.271 -0.3791  0.0972  0.8770
 3810SOL    HW223067   2.652   2.753  14.267  0.1588  0.9731 -1.6014
 3811SOL     OW23068   4.492   2.802   2.664 -0.0999  0.4163  0.3575
 3811SOL    HW123069   4.399   2.818   2.651 -0.3750 -0.7792  0.8577
 3811SOL    HW223070   4.513   2.895   2.660  0.0562  0.4178  1.0999
 3812SOL     OW23071   3.606   0.610   4.800  0.2294 -0.0001 -0.4236
 3812SOL    HW123072   3.630   0.696   4.764  0.7132  0.0270 -0.0427
 3812SOL    HW223073   3.569   0.632   4.886 -1.2046  0.1955 -1.0924
 3813SOL     OW23074   2.790   0.172   4.471 -0.1062  0.3098 -0.3958
 3813SOL    HW123075   2.762   0.082   4.451  0.2983  0.1017 -0.0308
 3813SOL    HW223076   2.793   0.168   4.567  0.4395  0.9341 -0.3889
 3814SOL     OW23077   0.810   1.083   5.431 -0.2935 -0.1033  0.6817
 3814SOL    HW123078   0.743   1.151   5.432 -1.1119 -0.8816 -1.4198
 3814SOL    HW223079   0.884   1.142   5.448  0.7891 -1.4494  0.6623
 3815SOL     OW23080   3.246   1.018   3.480 -0.6752  0.2902 -0.2687
 3815SOL    HW123081   3.251   1.027   3.384  0.2092 -0.1639 -0.2658
 3815SOL    HW223082   3.245   1.112   3.498  2.9085  0.3670 -0.3610
 3816SOL     OW23083   0.152   3.200   7.889  0.3552  0.3648 -0.1742
 3816SOL    HW123084   0.094   3.125   7.899  1.0862 -0.0610  0.8408
 3816SOL    HW223085   0.171   3.192   7.795  1.0717 -1.7343  0.1316
 3817SOL     OW23086   1.849   2.844   8.909 -0.4066  0.1291  0.9170
 3817SOL    HW123087   1.788   2.839   8.835 -0.6581  0.3366  1.1096
 3817SOL    HW223088   1.843   2.758   8.950 -1.8987  0.0593  0.5483
 3818SOL     OW23089   0.030   2.539   2.358  0.2318 -0.2276  0.4354
 3818SOL    HW123090   4.727   2.453   2.341  1.8013 -0.6860 -0.8783
 3818SOL    HW223091   0.030   2.575   2.269  2.7764  0.1909  0.6120
 3819SOL     OW23092   2.687   3.738   7.860  0.3509  0.2710  0.2507
 3819SOL    HW123093   2.724   3.765   7.944 -2.1266  0.9194  1.1370
 3819SOL    HW223094   2.611   3.690   7.892  0.8411 -1.2620 -0.8819
 3820SOL     OW23095   0.738   2.502   7.860 -0.2904  0.3045 -0.6741
 3820SOL    HW123096   0.649   2.474   7.837  0.1242 -0.9251 -0.8033
 3820SOL    HW223097   0.733   2.506   7.955 -0.1499  2.4325 -0.7569
 3821SOL     OW23098   4.024   0.972   3.574 -0.5343  0.3870  0.7196
 3821SOL    HW123099   3.999   0.881   3.559  0.2736  0.2525  0.2409
 3821SOL    HW223100   4.106   0.979   3.526 -0.9735  1.9475  0.2038
 3822SOL     OW23101   1.011   0.240  15.340 -0.1518  0.2288  0.3505
 3822SOL    HW123102   1.102   0.211  15.343 -0.1577  0.1574 -0.2760
 3822SOL    HW223103   1.020   0.332  15.367  1.2623 -0.1692  1.2509
 3823SOL     OW23104   0.445   1.046   0.888  0.2907  0.1732  0.1508
 3823SOL    HW123105   0.500   1.005   0.821  2.5331  0.2276  1.9434
 3823SOL    HW223106   0.408   1.118   0.837 -1.3669 -1.6549 -1.2216
 3824SOL     OW23107   1.758   3.255   6.893  0.1556  0.1117  0.0937
 3824SOL    HW123108   1.736   3.162   6.888 -0.5712  0.2199  1.4265
 3824SOL    HW223109   1.699   3.282   6.963 -0.5125  1.1338 -0.8701
 3825SOL     OW23110   0.531   4.297   2.998 -0.2892  0.2716 -0.4551
 3825SOL    HW123111   0.560   4.366   3.058  1.8914 -0.7448 -0.3584
 3825SOL    HW223112   0.611   4.284   2.947  1.3194  2.8845  1.3789
 3826SOL     OW23113   0.552   2.950  11.680 -0.1615 -0.5893 -0.4638
 3826SOL    HW123114   0.471   2.936  11.729 -0.3762 -1.3443 -1.0214
 3826SOL    HW223115   0.511   2.959  11.594 -1.1001 -0.6206 -0.0179
 3827SOL     OW23116   0.659   1.156   2.572  0.6620  0.0569  0.1673
 3827SOL    HW123117   0.745   1.174   2.535  1.8186 -0.7321  2.4596
 3827SOL    HW223118   0.696   1.107   2.645 -0.4623  0.7750  1.2209
 3828SOL     OW23119   1.820   2.816  13.884  0.9953  0.6510  0.3397
 3828SOL    HW123120   1.894   2.765  13.853 -1.4243 -1.8877 -1.2966
 3828SOL    HW223121   1.832   2.813  13.978  0.9676  1.6255  0.3734
 3829SOL     OW23122   3.331   4.079   6.865 -0.4341 -0.1406 -0.4977
 3829SOL    HW123123   3.326   4.054   6.773  0.1234 -0.1195 -0.5339
 3829SOL    HW223124   3.246   4.052   6.900 -0.0643 -1.1200 -0.3427
 3830SOL     OW23125   0.992   3.843  14.968  0.1564  0.2416  0.3947
 3830SOL    HW123126   1.019   3.929  14.936 -1.1185  1.1424  1.7187
 3830SOL    HW223127   1.005   3.791  14.889  1.6288  2.8393 -1.0929
 3831SOL     OW23128   2.396   0.607  11.527 -0.1353  1.0700 -0.0998
 3831SOL    HW123129   2.432   0.670  11.589 -0.4433  2.7552 -1.6083
 3831SOL    HW223130   2.322   0.657  11.492  0.2362  0.7748 -1.3371
 3832SOL     OW23131   2.182   2.819   3.959 -0.0895 -0.2182  0.7063
 3832SOL    HW123132   2.276   2.822   3.940  0.2764 -0.8339  2.4263
 3832SOL    HW223133   2.173   2.738   3.909 -0.7059 -0.3283  0.9951
 3833SOL     OW23134   1.231   2.484   7.331 -0.1182  0.5547 -0.6128
 3833SOL    HW123135   1.159   2.511   7.389  1.4492 -0.1073  1.6514
 3833SOL    HW223136   1.249   2.395   7.359 -0.2442  0.4734 -0.7949
 3834SOL     OW23137   0.694   0.418   4.216  0.5591 -0.2781 -0.1849
 3834SOL    HW123138   0.666   0.494   4.267  2.1267 -0.3061  0.7069
 3834SOL    HW223139   0.780   0.396   4.252 -0.3589 -0.8854  1.6517
 3835SOL     OW23140   0.696   1.952   8.224 -0.3939  0.2182  0.6282
 3835SOL    HW123141   0.730   1.865   8.207 -0.2894  0.0679  1.6305
 3835SOL    HW223142   0.687   1.953   8.319 -1.0232  0.4480  0.5630
 3836SOL     OW23143   0.644   2.611  12.508  0.6946  0.5001 -0.3941
 3836SOL    HW123144   0.597   2.688  12.474 -0.1906 -0.0417 -0.3833
 3836SOL    HW223145   0.640   2.615  12.603 -0.0686  1.9034 -0.4806
 3837SOL     OW23146   2.619   2.235   7.759 -0.0785  0.0882  0.3494
 3837SOL    HW123147   2.556   2.275   7.698  1.0005  3.0158  1.1392
 3837SOL    HW223148   2.589   2.282   7.837 -1.7473 -0.2848 -0.0607
 3838SOL     OW23149   0.104   0.468  11.254 -0.0483  0.5517  0.5751
 3838SOL    HW123150   0.157   0.472  11.334  1.2248 -1.3847 -0.1684
 3838SOL    HW223151   0.129   0.547  11.207 -1.5678  0.2928 -0.6398
 3839SOL     OW23152   2.126   3.883   3.346 -0.0563  0.4495  0.0247
 3839SOL    HW123153   2.132   3.863   3.252 -0.6958 -1.0523  0.3024
 3839SOL    HW223154   2.202   3.934   3.374 -0.5535  1.7010 -0.8828
 3840SOL     OW23155   3.896   0.494   6.221 -0.0952 -0.0532 -0.0593
 3840SOL    HW123156   3.907   0.433   6.149  1.9468 -3.1289  2.8405
 3840SOL    HW223157   3.810   0.464   6.250 -0.3307  2.0765  1.5077
 3841SOL     OW23158   0.833   2.129   7.847 -0.3647 -0.3383 -0.2712
 3841SOL    HW123159   0.805   2.039   7.830 -0.4590 -0.3108 -0.2590
 3841SOL    HW223160   0.776   2.172   7.911  0.0506  1.6515 -1.2318
 3842SOL     OW23161   2.902   4.091   5.021  0.2574 -0.0231  0.1874
 3842SOL    HW123162   2.937   4.170   4.981 -3.0702  1.7055  0.7317
 3842SOL    HW223163   2.839   4.140   5.074  0.0942  0.6056 -0.5927
 3843SOL     OW23164   1.348   1.176  13.921 -0.2004  0.1166  0.4083
 3843SOL    HW123165   1.357   1.092  13.876  1.3691  0.9021 -0.7497
 3843SOL    HW223166   1.274   1.150  13.975 -0.2223  0.1599  0.3993
 3844SOL     OW23167   1.227   1.848   5.781  0.2344  0.9357 -0.0862
 3844SOL    HW123168   1.191   1.856   5.692  1.1358  0.2479 -0.5129
 3844SOL    HW223169   1.161   1.803   5.834 -0.6415  1.5146 -0.6781
 3845SOL     OW23170   0.395   3.430  14.248 -0.9963  0.4622 -0.0132
 3845SOL    HW123171   0.472   3.484  14.230  0.1564 -1.4832 -1.0496
 3845SOL    HW223172   0.426   3.349  14.205  0.0580  0.6884  0.3075
 3846SOL     OW23173   2.657   1.139  17.546 -0.0533  0.5139  0.5887
 3846SOL    HW123174   2.690   1.051  17.529  0.3009  0.8824 -0.6758
 3846SOL    HW223175   2.674   1.183  17.462 -2.6856 -0.3284 -0.3964
 3847SOL     OW23176   1.236   1.587   3.206 -0.2955 -0.0533 -0.0042
 3847SOL    HW123177   1.252   1.502   3.165 -1.5591  0.0844 -0.7806
 3847SOL    HW223178   1.144   1.601   3.182  0.2206  4.3544  0.5908
 3848SOL     OW23179   0.736   2.310  12.753 -0.2198 -0.7525  0.4887
 3848SOL    HW123180   0.646   2.318  12.721 -1.2493  0.8091  3.7408
 3848SOL    HW223181   0.755   2.222  12.723  0.4924 -0.2649 -0.5024
 3849SOL     OW23182   4.054   4.014   9.344 -0.2212  0.0233  0.1299
 3849SOL    HW123183   4.088   3.927   9.361  0.7734  0.8896  2.4949
 3849SOL    HW223184   4.110   4.035   9.268 -2.6704  0.0524 -1.6655
 3850SOL     OW23185   3.510   1.678   8.774  0.0445 -0.1154  0.2552
 3850SOL    HW123186   3.472   1.609   8.720  2.1597 -0.6756 -0.5102
 3850SOL    HW223187   3.540   1.623   8.846  0.1794  1.0137  1.0644
 3851SOL     OW23188   0.589   2.114   1.001 -0.6924  0.0189  0.0597
 3851SOL    HW123189   0.595   2.116   1.097  1.1803  1.1830 -0.0874
 3851SOL    HW223190   0.663   2.170   0.977 -0.9430  0.6525  0.7632
 3852SOL     OW23191   0.182   0.194   6.431 -0.2109  0.0685 -0.1469
 3852SOL    HW123192   0.182   0.101   6.411  1.8027  0.0600 -0.1109
 3852SOL    HW223193   0.191   0.234   6.345  2.6935 -0.2356  0.0118
 3853SOL     OW23194   4.227   0.929   4.418  0.8867 -0.3137  0.0121
 3853SOL    HW123195   4.222   0.932   4.513  2.7146  3.3608 -0.0237
 3853SOL    HW223196   4.311   0.887   4.398  1.4574  0.7612  0.1405
 3854SOL     OW23197   0.202   0.957   6.091 -0.0283  0.0853 -0.2922
 3854SOL    HW123198   0.257   0.885   6.061 -0.1623 -1.5768  3.4490
 3854SOL    HW223199   0.270   1.021   6.113  0.1732 -0.3274  0.2864
 3855SOL     OW23200   3.806   4.050   7.779  0.6724  0.2756 -0.2904
 3855SOL    HW123201   3.837   4.137   7.806  0.5611  0.0311  0.6008
 3855SOL    HW223202   3.831   4.060   7.687 -0.3683  0.0622 -0.5995
 3856SOL     OW23203   2.924   0.118   5.050  0.1978  0.2488  0.0501
 3856SOL    HW123204   2.967   0.057   5.110  1.3582 -0.2610 -1.3275
 3856SOL    HW223205   2.832   0.103   5.070 -0.0356 -0.4210 -1.5616
 3857SOL     OW23206   1.985   1.974   1.243  0.3293 -0.7803  0.4182
 3857SOL    HW123207   1.959   1.938   1.159  0.0294  0.5210 -0.0462
 3857SOL    HW223208   2.059   2.026   1.212  0.4283 -1.0521  0.1993
 3858SOL     OW23209   4.580   2.807   6.288  0.5244 -0.3569  0.1406
 3858SOL    HW123210   4.646   2.765   6.233  0.7365 -1.2277  1.0660
 3858SOL    HW223211   4.545   2.731   6.334 -0.6189 -0.2467 -0.5257
 3859SOL     OW23212   0.673   0.791   2.304  0.3287 -0.1630  0.3325
 3859SOL    HW123213   0.648   0.821   2.217 -0.7317 -1.4886  0.1857
 3859SOL    HW223214   0.742   0.856   2.319  0.9546 -0.9955  1.0446
 3860SOL     OW23215   0.000   3.489   7.258 -0.1373  0.3987 -0.2318
 3860SOL    HW123216   4.726   3.571   7.209 -3.0130 -0.1060 -0.4993
 3860SOL    HW223217   4.707   3.507   7.347  0.6917  3.3204 -0.5287
 3861SOL     OW23218   2.811   4.676   0.875 -0.5080 -0.0936  0.4038
 3861SOL    HW123219   2.734   4.717   0.913 -0.5008 -1.1670  1.5754
 3861SOL    HW223220   2.769   4.626   0.805 -0.1499 -1.1527  0.9460
 3862SOL     OW23221   0.069   0.903  14.253 -0.0754  0.5736  0.7509
 3862SOL    HW123222   0.008   0.846  14.206  0.7067 -0.2973  0.8018
 3862SOL    HW223223   0.068   0.984  14.201 -0.6745 -0.4599 -0.8433
 3863SOL     OW23224   3.102   3.292  12.256  0.3201  0.6320 -0.1157
 3863SOL    HW123225   3.100   3.382  12.222 -0.2872  0.3519 -0.8071
 3863SOL    HW223226   3.181   3.254  12.217 -1.1488 -0.6687 -1.7735
 3864SOL     OW23227   3.617   3.244   3.363 -0.1650  0.0318 -0.4545
 3864SOL    HW123228   3.574   3.186   3.300 -0.7378  0.5099 -0.5067
 3864SOL    HW223229   3.561   3.318   3.386 -0.6271 -0.7769  0.9892
 3865SOL     OW23230   0.897   3.541  14.590 -0.6889 -0.2623 -0.0775
 3865SOL    HW123231   0.845   3.496  14.657 -0.3726 -0.8112 -0.1966
 3865SOL    HW223232   0.843   3.533  14.511 -1.9525  0.7775  0.6816
 3866SOL     OW23233   2.747   3.704   8.533 -0.4612 -0.2908 -0.1540
 3866SOL    HW123234   2.793   3.749   8.604  0.1954 -0.3708 -0.5279
 3866SOL    HW223235   2.788   3.619   8.545  1.9275  1.3564  3.4191
 3867SOL     OW23236   1.802   4.622  15.173 -0.6678  0.2425 -0.0513
 3867SOL    HW123237   1.807   4.528  15.189 -0.5029  0.5798  1.8185
 3867SOL    HW223238   1.718   4.649  15.210 -0.1718  1.2429  0.3264
 3868SOL     OW23239   4.065   1.284  15.554  0.1148  0.2271  0.2653
 3868SOL    HW123240   3.999   1.216  15.543  0.8445 -0.1546 -1.8758
 3868SOL    HW223241   4.135   1.255  15.494 -0.7225 -2.0745  0.4281
 3869SOL     OW23242   1.737   1.606   4.133  0.6195 -0.5950 -0.3475
 3869SOL    HW123243   1.814   1.662   4.131  0.8269 -0.8723 -0.1776
 3869SOL    HW223244   1.767   1.533   4.077  2.8063 -0.5503  0.7635
 3870SOL     OW23245   4.060   0.866   8.671 -0.0177 -0.8647 -0.3822
 3870SOL    HW123246   4.062   0.793   8.733  0.2577  0.6011  1.3277
 3870SOL    HW223247   4.064   0.936   8.736  1.0189 -0.0852 -1.2943
 3871SOL     OW23248   2.661   4.728   5.713  0.1844  0.2832 -0.4441
 3871SOL    HW123249   2.656   0.071   5.659 -0.1040 -0.9012 -2.1467
 3871SOL    HW223250   2.580   4.733   5.763  0.8496 -1.2439  0.7765
 3872SOL     OW23251   0.699   3.733   2.317  0.6934  0.3493 -0.0528
 3872SOL    HW123252   0.633   3.666   2.296  2.5054 -1.9612  1.6380
 3872SOL    HW223253   0.634   3.801   2.333  0.4881 -0.2103  1.4938
 3873SOL     OW23254   2.077   2.357  11.490 -0.4554  0.6874 -0.4731
 3873SOL    HW123255   2.026   2.281  11.461 -1.5079  1.4058 -0.4599
 3873SOL    HW223256   2.054   2.424  11.427 -0.5323  0.3793 -0.7755
 3874SOL     OW23257   3.441   2.375   7.496 -0.4558  0.5308 -0.0038
 3874SOL    HW123258   3.365   2.319   7.510 -0.0735  0.3084  1.1951
 3874SOL    HW223259   3.496   2.305   7.460  2.0710  2.8050 -0.5553
 3875SOL     OW23260   4.560   0.763  12.414 -0.4721  0.4827  0.0536
 3875SOL    HW123261   4.597   0.814  12.486 -0.6655 -1.7433  1.6943
 3875SOL    HW223262   4.611   0.802  12.342  0.5355  0.1069  0.5654
 3876SOL     OW23263   4.085   2.969   5.666 -0.2156 -0.3156 -0.2575
 3876SOL    HW123264   4.140   2.948   5.741 -1.2702  0.1050  0.6435
 3876SOL    HW223265   4.138   3.008   5.597 -0.4709 -0.5814 -0.6015
 3877SOL     OW23266   0.589   1.006  15.321 -0.0354  0.0566  0.3342
 3877SOL    HW123267   0.659   1.023  15.384  1.3413  1.4878 -1.5936
 3877SOL    HW223268   0.534   0.956  15.382 -1.6191  0.8938 -0.3910
 3878SOL     OW23269   1.763   2.200   3.503 -0.2910 -0.1912  0.4570
 3878SOL    HW123270   1.733   2.138   3.569  0.6704  1.1503  2.1572
 3878SOL    HW223271   1.805   2.264   3.560 -1.0701  0.9853 -0.2860
 3879SOL     OW23272   0.254   0.882  15.253 -0.1980 -0.8092  0.3204
 3879SOL    HW123273   0.319   0.861  15.186  0.5153  2.0379  0.1146
 3879SOL    HW223274   0.176   0.870  15.198 -0.2055  0.8524 -0.0427
 3880SOL     OW23275   2.900   1.307   8.293 -0.1855  0.4344  0.1719
 3880SOL    HW123276   2.812   1.288   8.260  0.4582 -0.0592 -1.2510
 3880SOL    HW223277   2.946   1.224   8.279  2.5575  1.9981 -0.1182
 3881SOL     OW23278   3.171   0.053   4.449 -0.7119 -0.8847 -0.2185
 3881SOL    HW123279   3.172   0.023   4.540 -0.8838  0.0427  0.0858
 3881SOL    HW223280   3.102   4.734   4.411 -1.8468  0.9670 -0.8609
 3882SOL     OW23281   2.053   4.546   7.694 -0.9090  0.1255  0.3731
 3882SOL    HW123282   2.082   4.455   7.685 -0.5427  0.3408 -0.6768
 3882SOL    HW223283   1.961   4.541   7.717 -0.5787 -1.6330  1.2440
 3883SOL     OW23284   1.107   2.680   8.878  0.9242  0.0272 -0.4033
 3883SOL    HW123285   1.047   2.692   8.951  1.8775  1.3916  0.1451
 3883SOL    HW223286   1.044   2.639   8.818 -0.7228 -0.0544  1.4008
 3884SOL     OW23287   1.722   3.807   0.771  0.0191  0.0350  0.0274
 3884SOL    HW123288   1.651   3.792   0.834 -0.4968 -2.5162 -1.1583
 3884SOL    HW223289   1.701   3.734   0.713 -0.3043 -0.4161  0.7010
 3885SOL     OW23290   0.159   1.094   7.102 -0.1991 -0.8381 -0.2375
 3885SOL    HW123291   0.140   1.004   7.129  0.2277 -1.2565 -1.3215
 3885SOL    HW223292   0.127   1.090   7.012  1.6840 -1.7458 -0.8589
 3886SOL     OW23293   1.704   0.062   2.442  0.4252  0.6621 -0.0253
 3886SOL    HW123294   1.665   4.722   2.400 -0.8523 -0.6079  3.4497
 3886SOL    HW223295   1.665   0.067   2.529 -0.2778 -1.0559 -0.2377
 3887SOL     OW23296   1.287   3.025  16.691 -1.0642 -0.4544 -0.6030
 3887SOL    HW123297   1.261   3.016  16.599  0.4453  1.2208 -1.1858
 3887SOL    HW223298   1.243   2.950  16.732 -0.9431  0.2031  0.7236
 3888SOL     OW23299   0.836   0.590   1.645 -0.4792  0.2336 -0.1904
 3888SOL    HW123300   0.924   0.561   1.668 -1.0165  0.3842  2.0682
 3888SOL    HW223301   0.806   0.512   1.599  0.0512 -1.8328  2.9618
 3889SOL     OW23302   0.836   4.612   1.840  0.2533  0.0143  0.0277
 3889SOL    HW123303   0.885   4.651   1.912  1.4937 -1.2989 -0.0855
 3889SOL    HW223304   0.882   4.527   1.844 -1.2449 -0.7516  0.9744
 3890SOL     OW23305   3.650   2.719   7.138 -0.5520 -0.1830 -0.1775
 3890SOL    HW123306   3.609   2.688   7.219 -1.0483  2.9365  0.7536
 3890SOL    HW223307   3.590   2.679   7.075  0.9775 -1.8888 -0.5386
 3891SOL     OW23308   1.806   3.403  12.379 -0.2804  0.2360 -0.0293
 3891SOL    HW123309   1.724   3.354  12.380 -1.5221  2.3088  1.5359
 3891SOL    HW223310   1.791   3.498  12.378 -0.6505  0.1714 -0.3970
 3892SOL     OW23311   3.569   0.113  16.199 -0.0436  0.5357  0.1483
 3892SOL    HW123312   3.665   0.110  16.198  0.0030  1.9009  0.1737
 3892SOL    HW223313   3.545   0.189  16.146 -1.9371  0.5941  1.1128
 3893SOL     OW23314   3.859   2.549   1.323 -0.7806 -0.2036 -0.4524
 3893SOL    HW123315   3.937   2.561   1.377 -0.6446 -1.2320 -0.4212
 3893SOL    HW223316   3.810   2.489   1.380 -0.5262  1.7858  1.8700
 3894SOL     OW23317   0.041   0.499   4.402 -0.0107 -0.1759  1.0390
 3894SOL    HW123318   0.102   0.519   4.332 -1.1070 -1.8553 -0.3877
 3894SOL    HW223319   0.101   0.510   4.476  0.1496  3.8451  0.3373
 3895SOL     OW23320   0.608   2.125  14.487 -0.3239 -0.2390  0.4068
 3895SOL    HW123321   0.604   2.075  14.569 -1.5776  1.7234  1.5454
 3895SOL    HW223322   0.521   2.165  14.485 -0.6418 -0.9124  0.7971
 3896SOL     OW23323   3.290   2.221  12.465 -0.0853 -0.5327 -0.2118
 3896SOL    HW123324   3.242   2.296  12.499  2.6671  0.6603  1.0086
 3896SOL    HW223325   3.309   2.259  12.380  1.3331 -1.5312 -0.3415
 3897SOL     OW23326   3.843   2.281   1.684 -0.0095 -0.0423 -0.7452
 3897SOL    HW123327   3.929   2.319   1.704 -0.6709  0.7367  0.6140
 3897SOL    HW223328   3.790   2.320   1.754  0.1095 -1.1745 -0.0289
 3898SOL     OW23329   1.788   1.504   1.816 -0.0942  0.3797 -0.1689
 3898SOL    HW123330   1.864   1.454   1.844  0.7363 -0.0509 -3.1581
 3898SOL    HW223331   1.806   1.583   1.867  1.4905 -0.8593  1.1998
 3899SOL     OW23332   1.861   2.344   6.322  0.2468  0.3211  0.1935
 3899SOL    HW123333   1.921   2.398   6.372  0.2996  0.0366  0.4389
 3899SOL    HW223334   1.893   2.256   6.342  2.1784  0.9396 -0.1457
 3900SOL     OW23335   3.436   1.981   1.201 -0.2459  0.5114  0.6296
 3900SOL    HW123336   3.375   1.930   1.149  0.5304  0.8005 -0.5589
 3900SOL    HW223337   3.502   1.914   1.221 -0.3510  0.2149 -0.0199
 3901SOL     OW23338   0.612   0.843   1.343  0.2825 -0.2791 -0.5175
 3901SOL    HW123339   0.519   0.823   1.354  0.4460 -0.7241  0.0624
 3901SOL    HW223340   0.606   0.895   1.264  0.1950  0.5617  0.0434
 3902SOL     OW23341   3.141   2.784   2.668  0.1740 -0.1826  0.3248
 3902SOL    HW123342   3.197   2.854   2.636  0.9830 -0.7909  0.4276
 3902SOL    HW223343   3.183   2.773   2.753 -3.0824 -2.2739  1.7146
 3903SOL     OW23344   0.631   3.616  15.542 -0.2421 -0.3343  0.9017
 3903SOL    HW123345   0.625   3.652  15.630 -2.0169  1.1208  0.1757
 3903SOL    HW223346   0.585   3.678  15.486 -0.3366 -0.5940  0.6897
 3904SOL     OW23347   0.312   1.305   5.852 -0.3652  0.4428 -0.2749
 3904SOL    HW123348   0.354   1.232   5.898 -0.9544 -0.3264 -0.9533
 3904SOL    HW223349   0.230   1.261   5.830 -1.4358  2.2994  0.0543
 3905SOL     OW23350   3.976   4.621  17.219  0.0204  0.1288  0.0858
 3905SOL    HW123351   3.996   4.555  17.285 -0.8842 -0.6814 -0.4662
 3905SOL    HW223352   3.999   4.700  17.269  2.2694 -0.3174 -0.2666
 3906SOL     OW23353   4.557   0.143   0.877 -0.3256 -0.2231  0.3614
 3906SOL    HW123354   4.484   0.205   0.888  0.8167  0.7165  2.6406
 3906SOL    HW223355   4.612   0.200   0.931  0.0226 -1.2310  1.0569
 3907SOL     OW23356   1.508   0.342  13.363  0.3605  0.0004 -0.8224
 3907SOL    HW123357   1.421   0.315  13.391 -0.6991  4.0215 -0.1785
 3907SOL    HW223358   1.490   0.436  13.357  1.4307  0.2973  0.5452
 3908SOL     OW23359   3.443   0.138  12.287 -0.0590  0.1639 -0.5747
 3908SOL    HW123360   3.443   0.165  12.379  0.9008  1.5229 -0.9744
 3908SOL    HW223361   3.467   0.217  12.239 -3.3953  1.9949  0.7156
 3909SOL     OW23362   2.816   0.793   9.014 -0.3873  0.1528  0.0594
 3909SOL    HW123363   2.752   0.802   9.084  0.7208  1.8331  0.8393
 3909SOL    HW223364   2.766   0.737   8.954 -0.5782  0.8571 -0.4431
 3910SOL     OW23365   2.270   2.345   5.235  0.1497  0.2033  0.3305
 3910SOL    HW123366   2.215   2.365   5.159  1.0595  1.0671 -0.1022
 3910SOL    HW223367   2.357   2.342   5.196  0.7321  1.5529  1.5224
 3911SOL     OW23368   2.174   1.022  16.577  0.0463 -0.3328 -0.3447
 3911SOL    HW123369   2.083   1.015  16.550  0.2333  1.1422 -1.3813
 3911SOL    HW223370   2.185   0.941  16.627 -1.6265 -0.7477 -0.6413
 3912SOL     OW23371   1.891   3.789   9.267 -0.3044  0.3936 -0.0408
 3912SOL    HW123372   1.930   3.815   9.184  2.0199  1.6653  1.4280
 3912SOL    HW223373   1.926   3.702   9.284  2.4565  1.4203 -0.4293
 3913SOL     OW23374   2.935   3.970   5.889  0.0779  0.1542  0.0972
 3913SOL    HW123375   2.979   3.890   5.917 -0.3917 -0.0145  0.3591
 3913SOL    HW223376   2.932   4.014   5.974  1.0502  1.7030 -0.6868
 3914SOL     OW23377   2.715   0.908  13.859 -0.1177  0.2882 -0.0973
 3914SOL    HW123378   2.762   0.956  13.927 -0.5369 -0.7052  0.8800
 3914SOL    HW223379   2.722   0.824  13.903 -0.5060 -0.0615 -0.6997
 3915SOL     OW23380   3.236   0.566   6.378 -0.1610  0.6300  0.3251
 3915SOL    HW123381   3.237   0.537   6.287 -0.2735 -0.2643  0.6079
 3915SOL    HW223382   3.232   0.478   6.414  0.9382 -0.3647 -2.0012
 3916SOL     OW23383   1.679   1.922   4.330  0.1624 -0.0174 -0.0632
 3916SOL    HW123384   1.609   1.987   4.335  0.6227  0.3475  1.7584
 3916SOL    HW223385   1.682   1.899   4.237  0.4538  0.5477 -0.1910
 3917SOL     OW23386   1.844   2.149  11.930  0.1121 -0.3783  0.1184
 3917SOL    HW123387   1.892   2.150  12.013 -0.9328  0.1517  0.7100
 3917SOL    HW223388   1.790   2.227  11.941  1.0241  0.4258 -1.1105
 3918SOL     OW23389   1.722   2.523   9.498 -0.0621 -0.1074 -0.1912
 3918SOL    HW123390   1.673   2.598   9.465 -0.4498 -0.9895 -1.6224
 3918SOL    HW223391   1.807   2.555   9.529 -0.3435  1.9099 -1.5526
 3919SOL     OW23392   3.316   3.664   5.814  0.0479 -0.3300 -0.3461
 3919SOL    HW123393   3.331   3.758   5.805  0.4600 -0.2055  1.5722
 3919SOL    HW223394   3.302   3.643   5.722 -0.0409  0.2501 -0.4620
 3920SOL     OW23395   0.649   0.123  12.995 -0.2195  0.4741  0.2935
 3920SOL    HW123396   0.593   0.100  12.920  0.2164 -3.7984  1.2766
 3920SOL    HW223397   0.685   0.208  12.971 -0.0294 -0.2624 -2.0569
 3921SOL     OW23398   3.390   0.732   2.880  0.3748  0.0963  0.0175
 3921SOL    HW123399   3.329   0.665   2.908  1.2277  0.0988  1.8534
 3921SOL    HW223400   3.443   0.742   2.959  0.5273 -1.8715  0.1572
 3922SOL     OW23401   4.734   3.235   9.285 -0.0145  0.4608 -0.6368
 3922SOL    HW123402   4.698   3.263   9.200 -1.7542  0.1496 -0.0046
 3922SOL    HW223403   0.082   3.279   9.282  0.8210 -1.1213  0.0129
 3923SOL     OW23404   1.442   0.891   2.303  0.1445 -0.0882  0.0030
 3923SOL    HW123405   1.347   0.902   2.309  0.3206  2.1784 -1.1343
 3923SOL    HW223406   1.477   0.971   2.264  0.7006 -0.0032  0.6588
 3924SOL     OW23407   0.935   1.546   1.754 -0.2055 -0.9057 -0.3616
 3924SOL    HW123408   0.906   1.583   1.671  0.4235  0.2192 -0.0862
 3924SOL    HW223409   1.026   1.577   1.749  0.3086 -2.6541 -2.0497
 3925SOL     OW23410   2.693   4.315   8.485  0.1976 -0.7821  0.3115
 3925SOL    HW123411   2.751   4.239   8.496  0.0143 -0.9221  0.3159
 3925SOL    HW223412   2.753   4.378   8.445 -1.2006 -0.7278 -1.6944
 3926SOL     OW23413   0.619   1.838  12.035 -0.1136  0.6489 -0.0181
 3926SOL    HW123414   0.540   1.822  12.086  0.7188  1.4211  1.5396
 3926SOL    HW223415   0.684   1.825  12.105 -0.1773  0.1530 -0.0549
 3927SOL     OW23416   2.645   0.271   2.842 -0.5407  0.3708 -0.2096
 3927SOL    HW123417   2.655   0.260   2.936 -0.5889 -0.6699 -0.3191
 3927SOL    HW223418   2.645   0.179   2.814  0.7770  0.0441  0.8512
 3928SOL     OW23419   4.659   0.731  11.958 -0.2441  0.1889 -0.4735
 3928SOL    HW123420   4.565   0.713  11.952 -0.2681 -0.5362  1.9353
 3928SOL    HW223421   4.699   0.644  11.958 -0.5356  0.0539 -0.4135
 3929SOL     OW23422   0.569   0.901   8.347  0.2049 -0.5708  0.3313
 3929SOL    HW123423   0.566   0.989   8.385  3.0444  0.7183 -2.3513
 3929SOL    HW223424   0.565   0.846   8.425 -1.0344 -0.2682  0.4781
 3930SOL     OW23425   3.636   0.478   7.512  0.6387  0.3702 -0.5910
 3930SOL    HW123426   3.708   0.415   7.515  2.4183  2.3279 -2.3752
 3930SOL    HW223427   3.564   0.436   7.561  0.6994 -0.2384 -1.0254
 3931SOL     OW23428   0.294   1.629   2.965  0.2139  0.2873 -0.4749
 3931SOL    HW123429   0.299   1.576   3.045 -0.0506  0.1619 -0.5422
 3931SOL    HW223430   0.384   1.651   2.941  0.5113 -1.3015 -0.8411
 3932SOL     OW23431   2.420   1.957   5.089 -0.0921  0.0915 -0.4505
 3932SOL    HW123432   2.410   1.878   5.035  1.4381  1.3600 -2.6248
 3932SOL    HW223433   2.329   1.986   5.083  0.0728  0.7673  0.4039
 3933SOL     OW23434   1.729   2.930   6.575  0.2497 -0.0395  0.0512
 3933SOL    HW123435   1.768   2.935   6.663 -0.7351  1.2088  0.4087
 3933SOL    HW223436   1.693   2.841   6.576  1.0648 -0.3751 -0.2057
 3934SOL     OW23437   3.986   1.035   7.585  0.1539  0.2852 -0.6506
 3934SOL    HW123438   4.006   0.942   7.578 -0.6907  0.0510  0.0322
 3934SOL    HW223439   4.055   1.060   7.646 -0.7896  0.6697  0.2716
 3935SOL     OW23440   1.814   2.785   2.379 -0.3375  0.3227  0.3571
 3935SOL    HW123441   1.880   2.826   2.323 -0.7049 -3.0582 -2.5587
 3935SOL    HW223442   1.810   2.697   2.342  2.3385  0.3524  0.0466
 3936SOL     OW23443   2.287   0.108   0.153 -0.0364 -0.4444  0.5767
 3936SOL    HW123444   2.215   0.123   0.093  0.8488  1.2695 -0.0895
 3936SOL    HW223445   2.310   0.016   0.141 -0.5207 -0.7512  2.0467
 3937SOL     OW23446   3.357   3.035   4.893  0.1546 -0.6681  0.1262
 3937SOL    HW123447   3.263   3.021   4.901 -0.1239  0.0689 -1.8596
 3937SOL    HW223448   3.372   3.029   4.799  2.1917  1.2744  0.3373
 3938SOL     OW23449   0.686   3.688   9.225  0.2441  0.5402 -0.2041
 3938SOL    HW123450   0.697   3.751   9.297  1.4512 -1.9290  1.7704
 3938SOL    HW223451   0.755   3.713   9.164 -0.6129  1.9323 -0.5846
 3939SOL     OW23452   3.798   3.109   3.885 -0.3300 -0.0909  0.0697
 3939SOL    HW123453   3.717   3.145   3.850  0.3587  1.3927  0.0222
 3939SOL    HW223454   3.772   3.017   3.878  0.5410 -0.2447 -1.1204
 3940SOL     OW23455   3.219   2.772   5.161  0.1294  0.1626 -0.4873
 3940SOL    HW123456   3.299   2.823   5.167  0.3358 -0.1678 -0.4262
 3940SOL    HW223457   3.149   2.834   5.142 -0.7114 -1.6150 -3.1705
 3941SOL     OW23458   0.156   4.066   8.599  0.3717 -0.5704 -0.0803
 3941SOL    HW123459   0.237   4.104   8.632 -1.2687 -0.3614  3.6945
 3941SOL    HW223460   0.158   4.089   8.506 -2.1190  2.3881  0.6180
 3942SOL     OW23461   4.469   0.940  14.749 -0.1301 -0.4216 -0.1306
 3942SOL    HW123462   4.397   0.973  14.802 -0.6172 -1.1332 -0.3503
 3942SOL    HW223463   4.444   0.962  14.659 -1.6912 -1.5636  0.0319
 3943SOL     OW23464   1.817   0.978   5.356 -0.0141  0.7918  0.0549
 3943SOL    HW123465   1.798   1.056   5.408  1.2078  0.8732  0.3778
 3943SOL    HW223466   1.843   1.011   5.270  2.1384 -0.9281  0.0233
 3944SOL     OW23467   4.357   4.237   2.790 -0.5589  0.8298 -0.4697
 3944SOL    HW123468   4.288   4.271   2.846  1.0120  2.9769  0.1979
 3944SOL    HW223469   4.400   4.319   2.764  0.3425  0.1986 -0.9881
 3945SOL     OW23470   0.139   0.008   1.386  0.0061  0.6053 -0.2014
 3945SOL    HW123471   0.227   4.706   1.384 -0.9686 -1.8713  3.1779
 3945SOL    HW223472   0.136   0.045   1.474 -1.4659  0.6434 -0.2718
 3946SOL     OW23473   2.358   0.587   8.509  0.2902 -0.0789 -0.6117
 3946SOL    HW123474   2.402   0.638   8.441 -0.2611  2.7064  1.1758
 3946SOL    HW223475   2.428   0.569   8.572  0.4429 -0.5823 -0.9186
 3947SOL     OW23476   1.310   2.647   5.417  0.0253  0.4146 -0.5204
 3947SOL    HW123477   1.263   2.659   5.500  0.1357 -1.4689 -0.1947
 3947SOL    HW223478   1.325   2.735   5.381 -1.2777 -0.3265 -2.8495
 3948SOL     OW23479   2.483   1.571  15.460 -0.0032 -0.3326  0.2964
 3948SOL    HW123480   2.483   1.551  15.366 -1.3708  0.3928  0.1450
 3948SOL    HW223481   2.449   1.660  15.452  2.9983  0.7434 -0.2625
 3949SOL     OW23482   1.988   3.665   8.393  0.7303 -0.5010  0.6618
 3949SOL    HW123483   1.953   3.660   8.304 -0.1332  2.0261  0.8586
 3949SOL    HW223484   2.038   3.584   8.386  1.8473  0.1533  1.0241
 3950SOL     OW23485   1.657   0.558   2.146  0.2874 -0.2563 -0.1618
 3950SOL    HW123486   1.617   0.619   2.085 -1.5183 -1.2343  0.0635
 3950SOL    HW223487   1.593   0.537   2.213  0.5016 -0.9337 -0.1740
 3951SOL     OW23488   1.837   0.668  14.116  0.3436 -0.5755 -0.1469
 3951SOL    HW123489   1.888   0.596  14.080 -1.1440 -1.6166 -0.1864
 3951SOL    HW223490   1.769   0.680  14.050  0.7323 -1.2835 -0.6695
 3952SOL     OW23491   4.350   1.644   8.316  0.0093  1.2942  0.4031
 3952SOL    HW123492   4.261   1.671   8.339 -0.8001  0.3809 -1.6316
 3952SOL    HW223493   4.407   1.673   8.387  0.9965 -0.4781  0.3322
 3953SOL     OW23494   4.554   2.050  16.763  0.2238 -0.2628  0.0806
 3953SOL    HW123495   4.483   2.046  16.699 -0.6059 -0.6506  1.0302
 3953SOL    HW223496   4.510   2.034  16.846  0.3714 -0.0396  0.2011
 3954SOL     OW23497   2.302   1.774   6.584 -0.2865  0.4170  0.0871
 3954SOL    HW123498   2.375   1.712   6.577  0.6588  1.9352 -3.3406
 3954SOL    HW223499   2.243   1.731   6.645 -2.0136  0.7628 -1.3427
 3955SOL     OW23500   4.145   3.163  16.292 -0.1735 -0.2652 -0.0888
 3955SOL    HW123501   4.212   3.097  16.276  0.3842  0.1314  0.6031
 3955SOL    HW223502   4.123   3.151  16.384  3.4424  0.0508  0.8111
 3956SOL     OW23503   2.719   1.342  10.518 -0.6277  0.2207  0.5654
 3956SOL    HW123504   2.799   1.379  10.480 -0.5049 -0.4818  0.1409
 3956SOL    HW223505   2.743   1.298  10.599  0.2287 -1.2525 -0.4693
 3957SOL     OW23506   2.163   1.962   8.928 -0.2459  0.5513  0.0518
 3957SOL    HW123507   2.210   1.942   9.009  2.6013  2.3368 -1.2092
 3957SOL    HW223508   2.171   2.057   8.920 -2.2085  0.7414  0.2931
 3958SOL     OW23509   1.567   0.851   3.280  0.3284  0.2120 -0.3732
 3958SOL    HW123510   1.619   0.778   3.315  0.5784  0.2814 -0.5957
 3958SOL    HW223511   1.587   0.853   3.186  0.3732 -0.0973 -0.3695
 3959SOL     OW23512   0.084   0.623  16.989  0.2761 -0.0785  0.3935
 3959SOL    HW123513   0.133   0.580  17.059  2.3850 -0.8326 -1.5674
 3959SOL    HW223514   0.145   0.625  16.915 -3.0155  1.7596 -2.2824
 3960SOL     OW23515   4.170   1.751   5.927 -0.1122 -0.5751 -0.1615
 3960SOL    HW123516   4.097   1.812   5.916  0.5456 -0.1824 -2.3933
 3960SOL    HW223517   4.240   1.816   5.929  0.1375 -0.8817  0.8128
 3961SOL     OW23518   1.919   2.530   2.879 -0.5747 -0.0887  0.4586
 3961SOL    HW123519   1.846   2.507   2.821 -0.6891 -0.8914  0.9129
 3961SOL    HW223520   1.948   2.443   2.906 -0.2736  0.3933  1.7018
 3962SOL     OW23521   3.299   1.460   0.488  0.1108 -0.3807  0.1894
 3962SOL    HW123522   3.289   1.555   0.496 -0.5890 -0.7413  3.5150
 3962SOL    HW223523   3.252   1.432   0.409  0.3562 -0.8485  0.2123
 3963SOL     OW23524   1.650   2.835   5.300  0.2117  0.1904 -0.5144
 3963SOL    HW123525   1.623   2.807   5.212 -2.6497 -0.8293  0.7233
 3963SOL    HW223526   1.744   2.815   5.296 -0.7124 -4.3633  0.8983
 3964SOL     OW23527   3.914   0.332   3.444 -0.0196  0.5100  0.3237
 3964SOL    HW123528   3.960   0.262   3.398 -0.3051 -0.5564  1.6610
 3964SOL    HW223529   3.836   0.280   3.462  1.3713 -0.9990  2.0157
 3965SOL     OW23530   1.670   1.795  15.801 -0.0053  0.5146 -0.3303
 3965SOL    HW123531   1.756   1.837  15.790  0.0946  0.1817 -0.8132
 3965SOL    HW223532   1.652   1.755  15.716  0.9852  1.2847 -0.9107
 3966SOL     OW23533   2.595   2.121   4.358 -0.0810  0.1645 -0.4624
 3966SOL    HW123534   2.623   2.039   4.398 -0.2703  0.8989  1.1940
 3966SOL    HW223535   2.620   2.172   4.435 -0.4618 -0.2422 -0.0729
 3967SOL     OW23536   1.093   2.288   4.835  0.2400  0.2891  0.3024
 3967SOL    HW123537   1.131   2.211   4.878 -0.0805  0.0999  0.2456
 3967SOL    HW223538   1.163   2.343   4.871  0.1306 -0.5610  1.8081
 3968SOL     OW23539   2.945   3.051   5.539  0.4190 -0.4408  0.3844
 3968SOL    HW123540   2.911   3.048   5.628  0.9132  1.0071  0.6212
 3968SOL    HW223541   3.018   3.109   5.560  0.0928  0.3287 -0.6094
 3969SOL     OW23542   0.889   4.708   9.950 -0.5423  0.3165 -0.1017
 3969SOL    HW123543   0.867   4.670   9.866 -2.6143 -0.3194  0.7155
 3969SOL    HW223544   0.907   0.064   9.932 -0.8391  0.8902  2.4588
 3970SOL     OW23545   4.365   3.181   6.464 -0.0529  0.4921 -0.6836
 3970SOL    HW123546   4.407   3.153   6.383  1.5529 -0.3700  0.4618
 3970SOL    HW223547   4.380   3.106   6.521 -1.1948  0.4482 -0.4404
 3971SOL     OW23548   3.024   2.576  13.766  0.3928  0.3777 -0.6128
 3971SOL    HW123549   3.010   2.562  13.859  0.5727 -0.2210 -0.6738
 3971SOL    HW223550   2.938   2.553  13.731  0.4787  1.0214 -1.2516
 3972SOL     OW23551   1.022   4.105   5.946 -0.3365 -0.0742  0.5153
 3972SOL    HW123552   1.023   4.051   5.867  2.2491 -0.0089  0.5244
 3972SOL    HW223553   0.937   4.150   5.940 -2.2351 -3.5479  1.1254
 3973SOL     OW23554   0.360   2.204  14.853 -0.2349 -0.3019  0.4844
 3973SOL    HW123555   0.389   2.291  14.880  0.2432 -0.6180  0.9842
 3973SOL    HW223556   0.281   2.194  14.906 -1.5896  0.8118 -1.3320
 3974SOL     OW23557   3.611   2.485  15.232  0.2236  0.7964 -0.8005
 3974SOL    HW123558   3.606   2.538  15.312 -2.2248 -0.9935  0.2522
 3974SOL    HW223559   3.573   2.401  15.259 -3.6399  2.3932 -1.2038
 3975SOL     OW23560   3.241   3.334   4.105  0.0619 -0.1606  0.2728
 3975SOL    HW123561   3.292   3.346   4.185 -0.1587  1.0788  0.2205
 3975SOL    HW223562   3.312   3.334   4.041  2.2735 -1.9581  2.7234
 3976SOL     OW23563   3.389   3.982   4.498  0.1876 -0.1420  0.4111
 3976SOL    HW123564   3.355   3.897   4.526  1.6192 -0.8956 -0.1826
 3976SOL    HW223565   3.329   4.035   4.551  1.2446  1.0632  0.4120
 3977SOL     OW23566   2.869   0.765   6.433  0.6550 -0.0350 -0.0614
 3977SOL    HW123567   2.807   0.820   6.385 -0.8574 -0.0304  1.8940
 3977SOL    HW223568   2.869   0.688   6.375 -0.0614 -1.6412  2.0954
 3978SOL     OW23569   3.794   4.509  10.489 -0.3632 -0.1822 -0.0890
 3978SOL    HW123570   3.880   4.483  10.456  0.8269  1.9235  1.2730
 3978SOL    HW223571   3.743   4.493  10.410  0.2259  0.1765 -0.5474
 3979SOL     OW23572   0.512   0.646   4.587  0.5573  0.2941 -0.2526
 3979SOL    HW123573   0.418   0.630   4.584  0.8749 -1.6601  0.1248
 3979SOL    HW223574   0.530   0.578   4.652 -1.3915  0.3610  0.3606
 3980SOL     OW23575   0.751   0.377   6.673 -0.2411  0.7775  0.0767
 3980SOL    HW123576   0.687   0.376   6.602 -0.4221  0.3455  0.2444
 3980SOL    HW223577   0.705   0.435   6.734  1.2102  0.6550  1.2799
 3981SOL     OW23578   4.279   0.860  13.777 -0.1331  0.5911 -0.5565
 3981SOL    HW123579   4.184   0.865  13.783 -0.0319  1.7278  0.1333
 3981SOL    HW223580   4.305   0.813  13.857 -1.9714 -0.5410 -0.6247
 3982SOL     OW23581   3.937   0.741   0.646 -0.4219 -0.4206 -0.5282
 3982SOL    HW123582   3.908   0.665   0.596  0.1098 -1.7007  1.0887
 3982SOL    HW223583   4.029   0.714   0.651 -0.4334 -0.3729 -0.0596
 3983SOL     OW23584   0.665   1.720   2.282  0.5601  0.7333  0.3355
 3983SOL    HW123585   0.597   1.765   2.232 -0.5340  0.3793  1.5131
 3983SOL    HW223586   0.742   1.746   2.231 -0.8469 -0.3907 -2.3428
 3984SOL     OW23587   3.596   4.010   5.864 -0.3130 -0.5628 -0.8084
 3984SOL    HW123588   3.624   3.926   5.827  0.2249 -0.4537 -0.6522
 3984SOL    HW223589   3.500   4.005   5.865 -0.2778 -0.6631  3.5990
 3985SOL     OW23590   3.881   3.499   4.990 -0.0162  0.6236 -0.0675
 3985SOL    HW123591   3.962   3.481   4.943  0.1812  2.0706 -0.2920
 3985SOL    HW223592   3.862   3.415   5.031 -2.3791  1.4402  0.5345
 3986SOL     OW23593   0.585   2.877  12.886  0.5109 -0.1233  0.4354
 3986SOL    HW123594   0.610   2.859  12.976  2.6736 -3.5813 -0.8272
 3986SOL    HW223595   0.518   2.944  12.898 -0.4850 -1.0016 -0.1634
 3987SOL     OW23596   0.747   2.251   5.603 -0.1017 -0.1425 -0.9965
 3987SOL    HW123597   0.764   2.338   5.565  3.6000  0.0969  1.2572
 3987SOL    HW223598   0.813   2.251   5.672  0.9249  1.4196 -1.9737
 3988SOL     OW23599   4.372   3.778   5.608 -1.0807 -0.5429 -0.0121
 3988SOL    HW123600   4.423   3.811   5.535 -0.8709  0.9253  0.7861
 3988SOL    HW223601   4.317   3.855   5.626 -0.9386  0.1734 -2.7028
 3989SOL     OW23602   1.046   2.240   3.961 -0.6272 -0.2043  0.1641
 3989SOL    HW123603   1.123   2.202   4.002 -1.3683 -0.3139  1.4545
 3989SOL    HW223604   1.079   2.325   3.930 -1.1005  0.7112  2.1462
 3990SOL     OW23605   4.597   2.533   2.713 -0.0040  0.0541 -0.5907
 3990SOL    HW123606   4.574   2.614   2.668  0.8391  2.1891  2.8344
 3990SOL    HW223607   4.688   2.541   2.743 -0.4475  0.6042  0.5773
 3991SOL     OW23608   2.424   0.582   2.069 -0.0534  0.0327  0.1094
 3991SOL    HW123609   2.331   0.581   2.050 -0.0964 -1.4467  0.4590
 3991SOL    HW223610   2.458   0.585   1.980  2.2068  0.0439  0.9713
 3992SOL     OW23611   0.087   4.044   5.907  0.0260  0.0442 -0.0942
 3992SOL    HW123612   0.120   3.970   5.958 -0.9420  0.3392  0.9665
 3992SOL    HW223613   0.086   4.012   5.816  1.0957 -1.1422  0.3115
 3993SOL     OW23614   0.482   0.831  15.017  0.9844 -0.0655  0.6515
 3993SOL    HW123615   0.520   0.753  15.056  2.1283 -0.2920 -0.8924
 3993SOL    HW223616   0.421   0.803  14.949  0.6171 -0.0932  0.9922
 3994SOL     OW23617   0.873   4.496   9.161  0.0384  0.7148  0.3463
 3994SOL    HW123618   0.798   4.553   9.145  0.6559  1.0694 -1.2720
 3994SOL    HW223619   0.909   4.541   9.238 -1.9743  1.7361  0.7023
 3995SOL     OW23620   1.476   1.309   4.910 -0.6551 -0.0295 -0.0002
 3995SOL    HW123621   1.505   1.250   4.980  2.5576 -0.6810 -1.8580
 3995SOL    HW223622   1.401   1.264   4.871 -0.0113 -1.6263  0.5880
 3996SOL     OW23623   3.540   1.198   7.401 -0.6777  0.1610 -0.2215
 3996SOL    HW123624   3.611   1.134   7.411  0.8573  2.0649  1.0956
 3996SOL    HW223625   3.591   1.277   7.419 -2.9032  1.4438  0.4940
 3997SOL     OW23626   3.626   2.277   4.734  0.3775 -0.7071  0.7083
 3997SOL    HW123627   3.633   2.305   4.825 -0.1642  2.9618 -0.3598
 3997SOL    HW223628   3.704   2.308   4.688  0.5261 -1.3168  0.5518
 3998SOL     OW23629   2.195   4.279   6.169 -0.3153 -0.5208  0.2352
 3998SOL    HW123630   2.183   4.298   6.262  0.8720  0.3655  0.2159
 3998SOL    HW223631   2.276   4.320   6.139 -0.5413 -0.9776 -0.9648
 3999SOL     OW23632   2.799   0.320   8.407  0.3063 -1.1652 -0.0670
 3999SOL    HW123633   2.886   0.280   8.413  0.2783 -0.7757  3.2102
 3999SOL    HW223634   2.825   0.412   8.399  0.9151 -1.2514  0.8519
 4000SOL     OW23635   1.439   2.217  11.773 -0.5951 -0.0583  0.0854
 4000SOL    HW123636   1.344   2.226  11.766 -0.5910 -1.0410 -1.0790
 4000SOL    HW223637   1.462   2.307  11.751 -2.6088  0.7083  1.0347
 4001SOL     OW23638   3.693   2.828   3.390 -0.2602 -0.1222 -0.0921
 4001SOL    HW123639   3.746   2.869   3.322 -3.6874  1.3178 -1.9031
 4001SOL    HW223640   3.681   2.900   3.451 -2.2821 -0.8950  0.4268
 4002SOL     OW23641   1.989   3.134   3.011 -0.2228 -0.1513 -0.0643
 4002SOL    HW123642   2.049   3.160   3.081 -0.9008 -0.5283  0.6513
 4002SOL    HW223643   2.037   3.147   2.929 -1.8943 -2.3032 -1.3758
 4003SOL     OW23644   1.481   0.648   6.596 -0.6653 -0.1062 -0.5072
 4003SOL    HW123645   1.505   0.661   6.504 -1.8643 -0.6054 -0.8778
 4003SOL    HW223646   1.538   0.710   6.643 -0.1894 -0.3866 -0.7067
 4004SOL     OW23647   1.864   0.175   5.369  0.1230  0.6520  0.2895
 4004SOL    HW123648   1.831   0.261   5.344 -3.7148 -0.6411  0.8707
 4004SOL    HW223649   1.946   0.158   5.324 -1.1344 -2.0662 -1.0039
 4005SOL     OW23650   1.629   3.790  17.139  0.3366 -0.0186  0.1878
 4005SOL    HW123651   1.564   3.775  17.070  0.3412  0.4096  0.0881
 4005SOL    HW223652   1.679   3.864  17.105  0.1651 -0.8330 -1.8629
 4006SOL     OW23653   3.197   3.167  16.256 -0.0332  0.1111  0.5074
 4006SOL    HW123654   3.111   3.151  16.216  0.8901 -0.2648 -1.3471
 4006SOL    HW223655   3.248   3.184  16.177 -0.3128 -0.4552  0.2027
 4007SOL     OW23656   4.594   2.755   4.244 -0.0664 -0.3516 -0.4698
 4007SOL    HW123657   4.617   2.789   4.331 -1.4583  1.7141 -0.9001
 4007SOL    HW223658   4.540   2.679   4.264  0.5018 -0.9656 -1.2908
 4008SOL     OW23659   4.204   1.473   7.722  0.0840  0.0321  0.1752
 4008SOL    HW123660   4.202   1.454   7.628 -0.1048  0.0474  0.1769
 4008SOL    HW223661   4.297   1.496   7.724 -0.8369  3.7770  0.7200
 4009SOL     OW23662   1.636   2.829   2.799  0.3732 -0.1973 -0.2586
 4009SOL    HW123663   1.726   2.850   2.822  0.1553  1.8369 -1.2918
 4009SOL    HW223664   1.644   2.743   2.757 -1.2610  0.2639 -1.5171
 4010SOL     OW23665   2.849   2.458   5.954  0.5572  0.5405 -0.0795
 4010SOL    HW123666   2.810   2.486   5.871  1.6331  1.3306 -0.3192
 4010SOL    HW223667   2.787   2.390   5.979 -1.4070  1.8636 -1.3834
 4011SOL     OW23668   2.850   1.719   9.210 -0.5622 -0.1204  0.2820
 4011SOL    HW123669   2.929   1.770   9.191 -1.6203  1.7883  0.9871
 4011SOL    HW223670   2.880   1.633   9.181  0.1060  0.2859 -0.2415
 4012SOL     OW23671   4.527   4.709   3.235 -0.3819  0.2670 -0.0713
 4012SOL    HW123672   4.487   4.635   3.280  1.6728  0.3213  1.7825
 4012SOL    HW223673   4.549   0.037   3.302 -0.7101 -0.6004  0.8551
 4013SOL     OW23674   0.266   4.607   8.040 -0.1308 -0.8090 -0.1315
 4013SOL    HW123675   0.353   4.571   8.028 -0.0692 -0.2769 -1.3503
 4013SOL    HW223676   0.274   4.644   8.128 -0.5414 -1.0307  0.0016
 4014SOL     OW23677   2.473   3.362   3.817  0.1239  0.3879  0.0731
 4014SOL    HW123678   2.439   3.285   3.772 -0.3776  1.2779 -1.0523
 4014SOL    HW223679   2.481   3.425   3.745 -1.9859  1.2654  0.5860
 4015SOL     OW23680   0.581   3.014   4.378 -0.3132 -0.4818  0.3333
 4015SOL    HW123681   0.497   3.012   4.332  0.6482 -2.1880 -1.3738
 4015SOL    HW223682   0.547   3.015   4.467 -1.4668  1.8283 -0.1251
 4016SOL     OW23683   4.065   0.462   4.463  0.3386  0.2869 -0.0340
 4016SOL    HW123684   3.995   0.517   4.498 -0.4265 -1.2598  0.8525
 4016SOL    HW223685   4.090   0.407   4.537  2.0767 -0.0175 -0.8503
 4017SOL     OW23686   2.564   3.560   4.031 -0.6264 -0.1982  0.1647
 4017SOL    HW123687   2.659   3.570   4.034 -0.6757  0.4498 -0.5434
 4017SOL    HW223688   2.549   3.507   3.953  1.6169  0.3509 -0.6311
 4018SOL     OW23689   2.129   1.637  14.035 -0.2239 -0.1554  0.3808
 4018SOL    HW123690   2.213   1.636  14.082 -2.4906  0.7872  4.4226
 4018SOL    HW223691   2.158   1.618  13.946 -1.2551  0.8914 -0.1790
 4019SOL     OW23692   0.071   3.538   5.985  0.2500  0.0317 -0.3664
 4019SOL    HW123693   0.007   3.520   5.916 -1.0291  0.8787  0.6157
 4019SOL    HW223694   0.106   3.449   5.994  0.6031  0.5127  3.0662
 4020SOL     OW23695   4.481   2.309   7.799 -0.3948  0.2833  0.3322
 4020SOL    HW123696   4.537   2.236   7.825 -1.2403 -0.8312 -0.9716
 4020SOL    HW223697   4.548   2.374   7.779  0.0468 -0.4098 -0.3789
 4021SOL     OW23698   3.979   2.614   2.959  0.6706 -0.1601 -0.4735
 4021SOL    HW123699   4.017   2.701   2.966 -0.8837  0.4230  0.7160
 4021SOL    HW223700   4.055   2.558   2.945 -0.5630 -1.8108 -0.5778
 4022SOL     OW23701   4.694   0.261   4.710  0.1143 -0.4023  0.1274
 4022SOL    HW123702   4.612   0.230   4.672 -1.2505  1.5775  1.4128
 4022SOL    HW223703   4.669   0.261   4.802 -0.2690  0.4467  0.0273
 4023SOL     OW23704   2.313   3.512   1.776  0.2141 -0.1133  0.1279
 4023SOL    HW123705   2.263   3.514   1.695  0.6711  1.2521 -0.1250
 4023SOL    HW223706   2.285   3.433   1.822 -2.3684  1.4850  1.3105
 4024SOL     OW23707   1.393   2.358  17.729 -0.0847 -0.0173  0.6996
 4024SOL    HW123708   1.444   2.289   0.027 -1.5887 -1.2019  0.5526
 4024SOL    HW223709   1.337   2.311  17.668 -2.9095  1.6510  2.0140
 4025SOL     OW23710   1.354   0.136   8.739  0.0073  0.4694  0.0884
 4025SOL    HW123711   1.393   0.223   8.734 -0.2218  0.4852 -1.3698
 4025SOL    HW223712   1.313   0.128   8.653  1.4814 -1.5551 -0.4385
 4026SOL     OW23713   1.261   2.734   2.500  0.7344  0.1285 -0.2276
 4026SOL    HW123714   1.298   2.791   2.567 -1.3237 -1.6103  2.3725
 4026SOL    HW223715   1.258   2.794   2.426  1.5946 -0.8095 -1.0287
 4027SOL     OW23716   4.532   1.650   3.404  0.1943 -0.9868 -0.2207
 4027SOL    HW123717   4.451   1.635   3.453 -0.3303  0.9169 -0.4736
 4027SOL    HW223718   4.504   1.621   3.318 -2.2781  2.4376 -0.5694
 4028SOL     OW23719   1.938   4.398   9.430 -0.4123 -0.2706 -0.4321
 4028SOL    HW123720   1.887   4.384   9.510  2.3061 -3.8627  0.6750
 4028SOL    HW223721   1.966   4.320   9.383 -0.8006  1.0657 -2.8823
 4029SOL     OW23722   4.140   0.162   3.752  0.3991  0.1335 -0.2634
 4029SOL    HW123723   4.213   0.105   3.727 -0.9531 -0.4240 -2.9213
 4029SOL    HW223724   4.124   0.143   3.845 -0.6868 -2.1583 -0.9252
 4030SOL     OW23725   4.593   3.456  17.025 -0.8240 -1.0005  0.0440
 4030SOL    HW123726   4.519   3.399  17.003 -0.6851 -0.8393 -0.8379
 4030SOL    HW223727   4.584   3.523  16.957 -0.0671 -0.2258  0.7096
 4031SOL     OW23728   0.464   0.517   5.928 -0.7432 -0.0646  0.3306
 4031SOL    HW123729   0.467   0.443   5.867  3.0377 -0.6948  1.2468
 4031SOL    HW223730   0.556   0.527   5.955  0.6292 -5.0692 -2.5087
 4032SOL     OW23731   0.894   1.678   1.522 -0.6113 -0.4920 -0.2722
 4032SOL    HW123732   0.920   1.736   1.451 -1.5349  0.6908  0.3510
 4032SOL    HW223733   0.799   1.681   1.516 -0.6181  1.3249  0.6999
 4033SOL     OW23734   4.532   2.294   8.131  0.0666  0.0356 -0.0618
 4033SOL    HW123735   4.550   2.360   8.064  0.3962  1.4418  1.3825
 4033SOL    HW223736   4.594   2.226   8.105 -0.3661 -0.7772  1.0380
 4034SOL     OW23737   3.625   0.422  15.894  0.7591 -0.3934  0.3487
 4034SOL    HW123738   3.564   0.426  15.968 -1.5906  1.6698 -1.6912
 4034SOL    HW223739   3.609   0.341  15.847 -1.2892  0.9050 -1.1727
 4035SOL     OW23740   0.291   1.994   1.508 -0.1683  0.1579  0.1356
 4035SOL    HW123741   0.285   2.070   1.566  1.3228 -0.5284  1.2089
 4035SOL    HW223742   0.383   2.002   1.483  0.0231 -0.9838  0.4963
 4036SOL     OW23743   0.386   1.635   0.744  0.3903  0.4842 -0.1374
 4036SOL    HW123744   0.465   1.598   0.786  0.1347  0.7282  0.5670
 4036SOL    HW223745   0.414   1.659   0.656  1.2446  1.3821  0.3835
 4037SOL     OW23746   0.909   3.151   9.790  0.4985 -0.1848 -0.1902
 4037SOL    HW123747   0.896   3.101   9.709 -0.9491 -1.3784  0.7682
 4037SOL    HW223748   0.951   3.081   9.840 -0.8336  0.1196  1.3837
 4038SOL     OW23749   2.201   1.429  13.010  0.2280  0.0288  0.0560
 4038SOL    HW123750   2.124   1.382  12.977  0.6611  0.0446 -0.9562
 4038SOL    HW223751   2.209   1.488  12.935 -0.0522  0.0519  0.0418
 4039SOL     OW23752   1.183   3.537  14.587 -0.1100 -0.3170  0.0232
 4039SOL    HW123753   1.093   3.503  14.584 -0.5436  0.7667  0.6184
 4039SOL    HW223754   1.172   3.576  14.500 -0.0158 -1.1347 -0.3541
 4040SOL     OW23755   1.550   2.139   2.442  0.1047  0.0160 -0.2784
 4040SOL    HW123756   1.481   2.168   2.501 -0.9456 -1.0056 -0.9993
 4040SOL    HW223757   1.517   2.175   2.360 -0.0287  0.7267  0.0941
 4041SOL     OW23758   0.350   2.270   1.526  0.3982 -0.2445 -0.3972
 4041SOL    HW123759   0.430   2.274   1.579  0.8176 -2.3112 -0.8840
 4041SOL    HW223760   0.373   2.301   1.439  2.8433  2.6299  1.2660
 4042SOL     OW23761   1.072   3.484   3.528  0.2264 -0.0374 -0.2326
 4042SOL    HW123762   1.040   3.484   3.438  0.2626 -0.0734 -0.2452
 4042SOL    HW223763   0.995   3.476   3.584 -0.2925  0.5461 -0.8697
 4043SOL     OW23764   0.760   4.500  11.837 -0.2219 -0.1598  0.4516
 4043SOL    HW123765   0.832   4.561  11.853  0.2381 -0.6079  0.0988
 4043SOL    HW223766   0.790   4.462  11.754 -1.0274  1.9459 -0.7883
 4044SOL     OW23767   4.506   3.078   2.648 -0.4082  0.0703 -0.0517
 4044SOL    HW123768   4.476   3.157   2.693  0.0292  0.0105  0.3338
 4044SOL    HW223769   4.596   3.065   2.678 -0.0061 -0.0697 -1.2958
 4045SOL     OW23770   4.588   1.248   1.891  0.8506  0.2683 -0.0528
 4045SOL    HW123771   4.547   1.328   1.922 -2.0613 -2.5778  3.3381
 4045SOL    HW223772   4.680   1.273   1.895  0.0806  3.1300  0.0011
 4046SOL     OW23773   0.766   1.835   7.167  0.1831 -0.2303  0.2412
 4046SOL    HW123774   0.734   1.889   7.094  0.2279  0.4968  0.7658
 4046SOL    HW223775   0.745   1.899   7.235  0.2176  0.7150 -0.6372
 4047SOL     OW23776   2.813   2.209   1.999  0.1899 -0.0898 -0.1589
 4047SOL    HW123777   2.806   2.114   1.991  2.6430 -0.4528  2.2622
 4047SOL    HW223778   2.719   2.217   2.015  0.5419  2.3565  0.6390
 4048SOL     OW23779   3.485   2.039   5.295 -0.3659 -0.2554  0.4611
 4048SOL    HW123780   3.449   1.953   5.272  1.4143  0.2497 -4.2190
 4048SOL    HW223781   3.470   2.076   5.208  3.4824 -1.0820 -0.5729
 4049SOL     OW23782   0.941   1.050   3.212  0.0767  0.9323  0.0862
 4049SOL    HW123783   0.994   1.077   3.288  0.2645  0.9701 -0.0587
 4049SOL    HW223784   0.874   1.118   3.210  0.8577  1.6511 -1.7870
 4050SOL     OW23785   3.355   4.224   6.476 -0.2003  0.2655  0.1555
 4050SOL    HW123786   3.335   4.177   6.557 -1.6967  0.3168 -0.1911
 4050SOL    HW223787   3.272   4.245   6.434 -1.5028 -1.6409  1.7849
 4051SOL     OW23788   2.565   4.408   2.359 -0.3015  0.1700 -0.3226
 4051SOL    HW123789   2.490   4.349   2.357  1.1086 -1.7472  3.2035
 4051SOL    HW223790   2.631   4.354   2.314  0.4134  1.0207 -0.2966
 4052SOL     OW23791   1.864   4.345   1.795  0.1273  0.3579 -0.2926
 4052SOL    HW123792   1.814   4.306   1.723 -1.3637  1.3190  0.2272
 4052SOL    HW223793   1.847   4.279   1.862  0.4550  0.5517 -0.0177
 4053SOL     OW23794   0.760   2.477   8.386 -0.0777 -0.7478  0.2174
 4053SOL    HW123795   0.797   2.562   8.361  1.2093 -1.5865 -0.6913
 4053SOL    HW223796   0.698   2.496   8.457 -0.1522  1.5903 -0.4624
 4054SOL     OW23797   2.968   3.055   8.375  0.4922  0.0225 -0.2092
 4054SOL    HW123798   2.983   2.963   8.357  0.2058  0.0705 -0.6842
 4054SOL    HW223799   3.033   3.068   8.445  0.6978 -1.5430 -0.1087
 4055SOL     OW23800   2.699   2.473   9.629  0.2050  0.2719 -0.0794
 4055SOL    HW123801   2.622   2.481   9.573  0.1078  0.7318  0.1200
 4055SOL    HW223802   2.701   2.378   9.640 -0.6349 -0.0050 -2.4374
 4056SOL     OW23803   3.046   3.314   7.668 -0.0386  0.5557  0.3464
 4056SOL    HW123804   2.974   3.344   7.723 -1.3573 -0.2487 -0.9295
 4056SOL    HW223805   3.009   3.232   7.635  2.3588  0.0559 -1.1538
 4057SOL     OW23806   0.371   4.522  11.595  0.3280 -0.0159  0.1856
 4057SOL    HW123807   0.309   4.594  11.585 -0.9230 -1.2954 -1.1592
 4057SOL    HW223808   0.412   4.547  11.678  2.8709 -2.1620 -0.4053
 4058SOL     OW23809   3.891   0.721   9.043 -0.3516 -0.8478  0.5900
 4058SOL    HW123810   3.834   0.646   9.057  1.3095 -1.9929  1.1550
 4058SOL    HW223811   3.837   0.764   8.976  0.6780  0.4333  0.5583
 4059SOL     OW23812   3.207   0.853   8.424  0.1791 -0.1592  0.1612
 4059SOL    HW123813   3.258   0.836   8.503 -0.7039 -1.3027  0.4906
 4059SOL    HW223814   3.227   0.770   8.381 -1.7811 -1.4667  1.8003
 4060SOL     OW23815   3.826   3.645   6.490  0.0849  0.1544 -0.3322
 4060SOL    HW123816   3.857   3.557   6.468  2.2905  0.8408  0.0116
 4060SOL    HW223817   3.814   3.675   6.400  1.4930 -1.7381 -1.1481
 4061SOL     OW23818   2.600   4.550   0.228 -0.5852 -0.2704  0.5353
 4061SOL    HW123819   2.670   4.551   0.163 -0.3713  0.7254  0.7900
 4061SOL    HW223820   2.636   4.473   0.272  1.1747  0.7020  0.8081
 4062SOL     OW23821   1.501   1.968   1.627 -0.3138  0.1080  0.6162
 4062SOL    HW123822   1.413   1.930   1.628 -0.3624  0.2163  0.1184
 4062SOL    HW223823   1.527   1.972   1.719 -0.0263 -3.4761  0.6650
 4063SOL     OW23824   2.660   3.071  13.252 -0.3755  0.5055  0.5870
 4063SOL    HW123825   2.682   2.987  13.294  4.3944  1.7640  0.5811
 4063SOL    HW223826   2.694   3.138  13.310 -0.3224 -0.0738  1.2286
 4064SOL     OW23827   2.968   1.725  13.395 -0.1990 -0.3055 -0.2230
 4064SOL    HW123828   2.884   1.748  13.357 -0.7381 -0.1992  1.0396
 4064SOL    HW223829   3.001   1.813  13.411  0.2648 -0.6410  0.6796
 4065SOL     OW23830   1.749   0.830   1.453 -0.3506 -0.1626  0.0415
 4065SOL    HW123831   1.764   0.924   1.441 -0.4131 -0.3730 -1.6768
 4065SOL    HW223832   1.834   0.791   1.476  0.5753  1.0020 -1.3881
 4066SOL     OW23833   4.424   1.737   9.391 -0.5023  0.1551 -0.0955
 4066SOL    HW123834   4.412   1.737   9.296 -0.4883  0.0290 -0.0972
 4066SOL    HW223835   4.339   1.706   9.424  0.5869 -0.3050  2.2502
 4067SOL     OW23836   4.344   4.214   3.442  0.6149 -0.0048  0.1350
 4067SOL    HW123837   4.416   4.175   3.393  0.0111  1.2430 -1.7549
 4067SOL    HW223838   4.284   4.231   3.369 -1.2983 -1.9609  1.2334
 4068SOL     OW23839   2.095   1.763   7.041  0.4441 -0.0239  0.4648
 4068SOL    HW123840   2.059   1.686   6.996  1.2100  0.3491 -0.7854
 4068SOL    HW223841   2.097   1.826   6.969 -0.6035  0.2969  0.7186
 4069SOL     OW23842   4.485   2.728   9.897  0.2389  0.3913  0.1210
 4069SOL    HW123843   4.514   2.727   9.988 -0.2706  0.3674  0.2846
 4069SOL    HW223844   4.410   2.787   9.906 -1.0108 -1.5342  2.3885
 4070SOL     OW23845   1.578   2.481   6.088 -0.0419 -0.0927 -0.4108
 4070SOL    HW123846   1.516   2.456   6.019 -0.1348  0.3384 -0.4853
 4070SOL    HW223847   1.662   2.441   6.068  0.3951 -0.2365  1.6925
 4071SOL     OW23848   1.284   0.487   1.510  0.4906 -0.5764  0.4501
 4071SOL    HW123849   1.285   0.513   1.418  2.5965  0.8348  0.8791
 4071SOL    HW223850   1.359   0.534   1.548 -0.0068 -1.1614  2.1545
 4072SOL     OW23851   2.529   4.169   9.527 -0.1851 -0.0218 -0.3812
 4072SOL    HW123852   2.590   4.238   9.553 -0.7952  0.1098  0.6843
 4072SOL    HW223853   2.530   4.109   9.601 -1.2804 -0.9687 -1.1352
 4073SOL     OW23854   1.700   2.486   8.258  0.1099 -0.0634 -0.1450
 4073SOL    HW123855   1.644   2.475   8.335  0.3714 -2.1437 -0.2437
 4073SOL    HW223856   1.690   2.579   8.238 -2.0791 -0.4144 -0.6582
 4074SOL     OW23857   1.983   1.286   2.223 -0.0448 -0.3551  0.3741
 4074SOL    HW123858   1.980   1.222   2.293 -1.1463 -0.3248  0.3482
 4074SOL    HW223859   2.036   1.351   2.269  1.4529 -0.5241 -1.0867
 4075SOL     OW23860   0.058   2.680  16.214  0.0594  0.3188 -0.2490
 4075SOL    HW123861   0.114   2.632  16.275 -0.4757 -3.5154 -2.7902
 4075SOL    HW223862   0.131   2.721  16.169  0.4899 -1.7686 -1.4595
 4076SOL     OW23863   2.641   2.246   4.586  0.3252 -0.5476 -0.1476
 4076SOL    HW123864   2.597   2.219   4.666  0.7040 -0.5818  0.0525
 4076SOL    HW223865   2.728   2.267   4.621 -0.5044 -0.7403  1.9966
 4077SOL     OW23866   1.335   2.737  12.607  0.3522 -0.0553 -0.1164
 4077SOL    HW123867   1.418   2.706  12.643  0.9374  0.3018 -1.1725
 4077SOL    HW223868   1.271   2.693  12.663  1.3925  0.9935  1.8927
 4078SOL     OW23869   0.876   0.018   9.326  0.1678 -0.0670 -0.0190
 4078SOL    HW123870   0.956   0.054   9.288  0.2339  0.3059  0.4764
 4078SOL    HW223871   0.825   0.001   9.247 -1.5573 -1.1083  1.3149
 4079SOL     OW23872   0.716   1.708  14.247 -0.5653  0.6015 -0.1009
 4079SOL    HW123873   0.706   1.724  14.153 -0.2137 -0.3865 -0.3046
 4079SOL    HW223874   0.755   1.792  14.271  2.0767 -1.0648  1.4687
 4080SOL     OW23875   2.816   3.256   4.510  0.4549 -0.0424  0.0265
 4080SOL    HW123876   2.857   3.190   4.454  0.1011 -0.7972  0.6557
 4080SOL    HW223877   2.751   3.291   4.449 -0.0604 -0.7923  0.1484
 4081SOL     OW23878   2.183   0.225   4.774 -0.2733 -0.0887  0.5951
 4081SOL    HW123879   2.155   0.173   4.698  0.9860 -0.5279  0.4398
 4081SOL    HW223880   2.210   0.153   4.831  1.8353  1.3275  1.3400
 4082SOL     OW23881   1.486   2.221   8.965 -0.3708  0.3000  0.1688
 4082SOL    HW123882   1.435   2.301   8.975  1.8851  1.7122  0.5381
 4082SOL    HW223883   1.572   2.259   8.984 -0.4943  0.2338  0.8705
 4083SOL     OW23884   2.603   4.516   6.989  0.1681  0.1220 -0.4767
 4083SOL    HW123885   2.598   4.541   7.081 -0.3790 -0.1544 -0.4314
 4083SOL    HW223886   2.577   4.424   6.981  1.1395 -0.3233  1.3884
 4084SOL     OW23887   2.524   1.767  12.395 -0.2773  0.4500 -0.6573
 4084SOL    HW123888   2.552   1.715  12.320 -1.2235  0.8712 -1.2880
 4084SOL    HW223889   2.429   1.758  12.392 -0.4218  1.7117  0.1365
 4085SOL     OW23890   0.954   0.943  12.722 -0.5218  0.0241 -0.0022
 4085SOL    HW123891   0.989   1.032  12.713 -1.3738  0.3044 -0.5840
 4085SOL    HW223892   0.872   0.965  12.767 -0.9875  0.7912 -1.2169
 4086SOL     OW23893   4.434   2.006   0.525 -0.2222 -0.4283  0.0610
 4086SOL    HW123894   4.348   2.043   0.501  0.1274  0.1175 -0.3732
 4086SOL    HW223895   4.430   2.020   0.620  1.9109  1.6250 -0.1471
 4087SOL     OW23896   4.229   1.407   3.003  0.0782 -0.2482  0.1221
 4087SOL    HW123897   4.191   1.365   2.926 -0.1506  1.1456 -0.5384
 4087SOL    HW223898   4.214   1.500   2.985 -0.2013  0.0008  1.6025
 4088SOL     OW23899   3.680   1.437   7.441 -0.2659 -0.5019 -0.1972
 4088SOL    HW123900   3.722   1.517   7.408 -0.9023  0.0924  0.4446
 4088SOL    HW223901   3.754   1.376   7.440 -1.2574 -1.6755 -1.8108
 4089SOL     OW23902   1.399   0.542   9.812  0.1911 -0.2010  0.4228
 4089SOL    HW123903   1.426   0.537   9.721 -3.0141  0.1923 -0.5396
 4089SOL    HW223904   1.488   0.553   9.846 -1.5207  1.1025  4.5061
 4090SOL     OW23905   0.667   4.009  12.233  0.5980  0.6061  0.3011
 4090SOL    HW123906   0.696   4.023  12.323  0.3026  0.3108  0.4425
 4090SOL    HW223907   0.653   3.914  12.233 -2.2896  1.0392 -0.4989
 4091SOL     OW23908   1.668   2.030   5.032  0.0588  0.0782 -0.0397
 4091SOL    HW123909   1.626   2.098   4.979  3.3645  0.1143 -2.6466
 4091SOL    HW223910   1.758   2.062   5.031 -0.1562  0.7134  1.0494
 4092SOL     OW23911   4.527   1.773   8.477 -0.3975 -0.0600  0.1591
 4092SOL    HW123912   4.484   1.796   8.560  0.1869  1.9365 -0.1138
 4092SOL    HW223913   4.613   1.744   8.508 -0.2267  0.4855  0.1904
 4093SOL     OW23914   1.665   2.802   0.753  0.0860 -0.0422 -0.0303
 4093SOL    HW123915   1.582   2.835   0.717  0.8914  1.0374 -0.8821
 4093SOL    HW223916   1.700   2.879   0.798  0.6733 -0.2063 -0.2027
 4094SOL     OW23917   2.760   3.696   5.863  0.2539  0.6211 -0.1828
 4094SOL    HW123918   2.852   3.678   5.844 -0.0907 -0.1320 -1.1562
 4094SOL    HW223919   2.762   3.669   5.955 -0.9996  0.6687 -0.1306
 4095SOL     OW23920   0.829   3.105   4.278 -0.1323 -0.0487  0.0299
 4095SOL    HW123921   0.750   3.054   4.297 -2.4448  2.7484 -2.0324
 4095SOL    HW223922   0.904   3.056   4.310  0.5959  0.4565 -0.8952
 4096SOL     OW23923   1.872   4.017  12.767  0.4376 -0.2013 -0.1338
 4096SOL    HW123924   1.836   3.963  12.837  2.3158 -1.3461 -0.0390
 4096SOL    HW223925   1.945   4.054  12.816  0.7992  0.4969 -1.1790
 4097SOL     OW23926   3.681   3.736   1.211  0.4775 -0.2112 -0.3595
 4097SOL    HW123927   3.643   3.821   1.189  0.0907 -0.7358 -1.7601
 4097SOL    HW223928   3.624   3.676   1.163 -0.3615 -0.4485  0.9361
 4098SOL     OW23929   1.844   1.196   6.765 -0.0097 -0.3018 -0.3714
 4098SOL    HW123930   1.904   1.152   6.705  2.0825  0.6634  1.0178
 4098SOL    HW223931   1.896   1.199   6.845 -1.4328  0.6025  0.5258
 4099SOL     OW23932   2.816   3.707   1.238  0.0502  0.3872  0.1338
 4099SOL    HW123933   2.750   3.763   1.279 -1.6149 -2.9519  2.0415
 4099SOL    HW223934   2.892   3.754   1.274  1.0857  0.4148 -2.1094
 4100SOL     OW23935   0.489   1.286   7.367  0.7142 -0.7605  0.1914
 4100SOL    HW123936   0.520   1.198   7.391  0.5996 -1.2805 -1.5466
 4100SOL    HW223937   0.442   1.316   7.445 -0.6893 -0.8026 -0.6427
 4101SOL     OW23938   4.493   4.000   0.683  0.4079 -0.1709  0.5859
 4101SOL    HW123939   4.549   3.930   0.716 -2.1651 -2.3199  0.3602
 4101SOL    HW223940   4.524   4.073   0.737 -0.5629 -0.4024  1.4542
 4102SOL     OW23941   0.974   2.613   2.984 -0.5403 -0.2399  0.2144
 4102SOL    HW123942   0.960   2.520   2.998  2.1969 -0.9652 -1.7989
 4102SOL    HW223943   0.993   2.649   3.071 -1.3712 -1.8611  1.0554
 4103SOL     OW23944   4.023   0.726   5.751 -0.6361 -0.4005 -0.1336
 4103SOL    HW123945   4.084   0.656   5.727 -1.0691  0.1401 -2.8123
 4103SOL    HW223946   3.983   0.687   5.829  2.1719  2.0946  2.5310
 4104SOL     OW23947   1.214   3.036   3.651 -0.0095 -0.8661  0.0722
 4104SOL    HW123948   1.231   3.020   3.558 -0.9817  2.7640 -0.7479
 4104SOL    HW223949   1.221   3.131   3.640  0.9168 -1.0100 -0.5692
 4105SOL     OW23950   1.168   0.757   8.653 -0.6006  0.0313 -0.9516
 4105SOL    HW123951   1.212   0.749   8.568  0.2620 -1.2058 -0.3852
 4105SOL    HW223952   1.165   0.851   8.673  0.1756 -0.0988 -0.1957
 4106SOL     OW23953   0.998   4.121   1.464  0.4480  0.2522  0.0522
 4106SOL    HW123954   1.068   4.163   1.415  0.9379 -0.6114  0.0279
 4106SOL    HW223955   0.963   4.057   1.401  0.1662  1.1405 -0.6921
 4107SOL     OW23956   0.781   4.253   7.468 -0.0822 -0.5197 -0.7499
 4107SOL    HW123957   0.734   4.336   7.460  2.0400  0.4630 -3.0042
 4107SOL    HW223958   0.710   4.190   7.485 -1.1046  0.9318  0.3370
 4108SOL     OW23959   1.997   3.428   2.920 -0.0212 -0.4782 -0.1947
 4108SOL    HW123960   1.908   3.395   2.934 -0.7398  0.6148 -2.2409
 4108SOL    HW223961   1.971   3.505   2.869  1.9956 -0.1792 -0.7587
 4109SOL     OW23962   2.311   4.586   8.666  0.3856  0.0501  0.5158
 4109SOL    HW123963   2.333   4.526   8.595  0.7503  0.5619  0.2010
 4109SOL    HW223964   2.253   4.649   8.623  0.5479  0.0174  0.2526
 4110SOL     OW23965   3.572   1.814   0.384  0.6920  0.2166  0.1784
 4110SOL    HW123966   3.557   1.807   0.290  3.0957 -1.4629 -0.0829
 4110SOL    HW223967   3.633   1.887   0.394  0.8854 -0.0636  1.0799
 4111SOL     OW23968   1.121   0.358   9.925 -0.0335 -0.4483  0.2145
 4111SOL    HW123969   1.082   0.317  10.002  1.2565 -0.3746  0.8997
 4111SOL    HW223970   1.106   0.450   9.944  0.5741 -0.2664 -0.2028
 4112SOL     OW23971   4.236   3.906   8.203  0.1665  0.3272 -0.1475
 4112SOL    HW123972   4.181   3.949   8.268 -0.2698 -1.0022  0.3765
 4112SOL    HW223973   4.197   3.935   8.121  0.0510 -0.2994 -0.3183
 4113SOL     OW23974   1.739   3.923   4.768 -0.1649 -0.6161  0.9190
 4113SOL    HW123975   1.713   3.994   4.827  3.1048  0.8578  0.5966
 4113SOL    HW223976   1.706   3.945   4.681 -1.3923  0.6226  1.7090
 4114SOL     OW23977   1.549   4.359   7.074  0.0656  0.6766  0.4380
 4114SOL    HW123978   1.551   4.264   7.058 -0.2674  0.3678  2.2772
 4114SOL    HW223979   1.496   4.390   7.000  0.5193 -2.1510 -1.0734
 4115SOL     OW23980   0.015   1.335  10.254 -0.9296 -0.5136 -0.4247
 4115SOL    HW123981   4.731   1.263  10.195 -0.5446 -1.1308  0.2032
 4115SOL    HW223982   4.663   1.372  10.257 -0.4737  0.6089 -0.6655
 4116SOL     OW23983   2.466   3.654  15.118  0.2955  0.4374  0.1306
 4116SOL    HW123984   2.528   3.721  15.148  0.8425 -1.1689  2.5117
 4116SOL    HW223985   2.413   3.702  15.054 -0.8861 -2.0302 -0.7568
 4117SOL     OW23986   4.167   1.239  11.021 -0.7765  0.0275  0.4109
 4117SOL    HW123987   4.199   1.279  10.940 -1.6074  1.5699  0.8387
 4117SOL    HW223988   4.228   1.166  11.034 -1.2020 -0.3927  0.0409
 4118SOL     OW23989   1.969   2.357   5.401 -0.7841 -0.1609  0.7028
 4118SOL    HW123990   1.919   2.283   5.367 -0.6874  0.5442 -1.0101
 4118SOL    HW223991   2.039   2.311   5.448  0.3176 -0.7638 -1.5149
 4119SOL     OW23992   1.543   2.206   8.669 -1.1183  0.6943  0.1211
 4119SOL    HW123993   1.542   2.182   8.761 -2.5736  1.1067  0.2092
 4119SOL    HW223994   1.584   2.293   8.676 -1.3582  0.6681  1.7977
 4120SOL     OW23995   1.974   4.551   6.231 -0.6069 -0.0551 -0.1892
 4120SOL    HW123996   1.904   4.497   6.194 -0.7411  1.2260 -1.8434
 4120SOL    HW223997   1.959   4.627   6.174  0.1740 -0.5390 -1.0531
 4121SOL     OW23998   1.605   1.331   5.713 -0.4193  0.3897  0.7476
 4121SOL    HW123999   1.539   1.399   5.725 -0.3337  0.5649  0.2071
 4121SOL    HW224000   1.600   1.280   5.795  0.0215  0.0392  0.5561
 4122SOL     OW24001   1.924   2.474  12.603 -0.5729 -0.3926 -0.2464
 4122SOL    HW124002   2.004   2.463  12.654 -0.1095 -1.4771 -1.2173
 4122SOL    HW224003   1.883   2.549  12.647  1.7470 -0.3212  1.8086
 4123SOL     OW24004   2.977   1.033  17.147  0.2155 -0.4338  0.5056
 4123SOL    HW124005   2.957   1.066  17.060 -0.0213 -0.7103  0.4554
 4123SOL    HW224006   2.900   0.980  17.169  0.7456 -1.5300 -0.3009
 4124SOL     OW24007   0.853   2.739   8.293  0.0404  0.9847  0.3008
 4124SOL    HW124008   0.777   2.768   8.243  0.0273  0.7830  0.2016
 4124SOL    HW224009   0.841   2.781   8.378  0.9350  2.7224 -0.4390
 4125SOL     OW24010   3.662   3.993   5.357  0.0743 -0.0113 -0.7886
 4125SOL    HW124011   3.694   3.915   5.403 -1.5348 -0.4821 -0.4809
 4125SOL    HW224012   3.735   4.035   5.313  1.2390 -1.8053 -0.5929
 4126SOL     OW24013   0.293   4.544  17.193 -0.1501  0.0250  0.9982
 4126SOL    HW124014   0.373   4.496  17.215  0.5615  0.8939  0.3394
 4126SOL    HW224015   0.329   4.632  17.187  0.1926 -0.0043  2.6715
 4127SOL     OW24016   3.873   2.998  17.186  0.5237 -0.4551 -0.6424
 4127SOL    HW124017   3.792   2.951  17.165  0.1449  0.4167 -1.1547
 4127SOL    HW224018   3.844   3.045  17.264  1.3420  0.4514 -0.8900
 4128SOL     OW24019   4.602   2.808  11.811 -0.2300  0.1325 -0.4661
 4128SOL    HW124020   4.673   2.772  11.757  0.3933  1.6281 -0.6381
 4128SOL    HW224021   4.524   2.758  11.789 -0.0337  0.2992 -1.5566
 4129SOL     OW24022   3.330   3.660   5.521  0.2700  0.8194 -0.1627
 4129SOL    HW124023   3.267   3.665   5.449  0.5515 -1.0773 -0.5365
 4129SOL    HW224024   3.379   3.740   5.504  1.8166 -0.0932  0.0356
 4130SOL     OW24025   4.676   3.461  11.391  0.0581  0.5270  0.0555
 4130SOL    HW124026   4.655   3.471  11.484 -0.9794 -1.4466  0.0488
 4130SOL    HW224027   4.681   3.554  11.368  0.6687  0.8521  1.5191
 4131SOL     OW24028   4.262   4.651   2.269 -0.0635  0.5484  0.2126
 4131SOL    HW124029   4.186   4.630   2.323  0.3577  0.0557  0.6095
 4131SOL    HW224030   4.330   4.682   2.329  1.6874  0.9214 -1.9527
 4132SOL     OW24031   1.167   3.639   2.788 -0.3002 -0.4307  0.1253
 4132SOL    HW124032   1.188   3.583   2.862  0.7022  3.7931  3.0292
 4132SOL    HW224033   1.101   3.582   2.749  0.6034 -2.1165  1.0855
 4133SOL     OW24034   4.256   0.215   1.951 -0.5701  0.4881 -0.4103
 4133SOL    HW124035   4.281   0.284   2.013 -0.6911  1.5755 -1.5865
 4133SOL    HW224036   4.185   0.175   2.001 -0.6448 -0.2317 -1.0957
 4134SOL     OW24037   4.421   1.284  17.489  0.0052 -0.5354 -0.4617
 4134SOL    HW124038   4.489   1.291  17.422  1.6189  1.7529  1.3830
 4134SOL    HW224039   4.387   1.199  17.460  2.2784 -1.1945 -1.2165
 4135SOL     OW24040   3.064   1.066   8.315 -1.2010 -0.0861 -0.1210
 4135SOL    HW124041   3.130   1.105   8.259  0.2627  0.1337  1.7731
 4135SOL    HW224042   3.109   0.987   8.344  1.0986  1.1562 -0.3824
 4136SOL     OW24043   0.493   4.166   5.055 -0.1613 -0.2390  0.4519
 4136SOL    HW124044   0.567   4.220   5.082  0.1202 -1.0843  1.3578
 4136SOL    HW224045   0.452   4.213   4.982  1.2881 -0.5016 -0.5288
 4137SOL     OW24046   1.100   0.036   1.737  0.3905  0.1560 -0.5093
 4137SOL    HW124047   1.180   4.736   1.774 -0.2300 -0.4907  0.2002
 4137SOL    HW224048   1.033   4.704   1.746 -0.0122  0.4896 -0.9782
 4138SOL     OW24049   0.395   3.835   8.465  0.0625  0.0797  0.2678
 4138SOL    HW124050   0.416   3.851   8.373  0.8626  0.9891  0.5985
 4138SOL    HW224051   0.300   3.823   8.457  0.3859 -2.0954 -0.0129
 4139SOL     OW24052   0.059   2.995   3.936 -0.4315  0.2478 -0.2620
 4139SOL    HW124053   0.072   2.954   4.022 -1.1667 -0.6473 -0.5733
 4139SOL    HW224054   0.144   2.975   3.897 -0.6625 -3.0223  0.8924
 4140SOL     OW24055   2.741   4.273   1.388 -0.2587  0.2887 -0.2506
 4140SOL    HW124056   2.682   4.216   1.438 -0.6862  2.0015  1.1994
 4140SOL    HW224057   2.772   4.326   1.462  0.6885 -1.5492  0.6684
 4141SOL     OW24058   3.291   0.525   4.404 -0.4594  0.0151  0.2598
 4141SOL    HW124059   3.369   0.539   4.350  0.0584  0.5999  1.1652
 4141SOL    HW224060   3.293   0.430   4.396 -2.9618  0.0037 -0.4189
 4142SOL     OW24061   2.939   1.152   3.613 -0.3132  0.0893  0.1212
 4142SOL    HW124062   3.009   1.214   3.635 -1.2666  0.4282  2.2083
 4142SOL    HW224063   2.960   1.134   3.521  2.0796 -0.5115  0.8024
 4143SOL     OW24064   3.804   3.924  10.122  0.1847 -0.6024  0.1437
 4143SOL    HW124065   3.736   3.868  10.086 -1.6427  1.7223  0.0190
 4143SOL    HW224066   3.875   3.870  10.157  1.0774 -0.6043 -1.6705
 4144SOL     OW24067   1.437   4.111   9.308 -0.2562  0.0332  0.4872
 4144SOL    HW124068   1.490   4.069   9.376 -2.8535  0.8204  3.0122
 4144SOL    HW224069   1.469   4.201   9.319  3.5905 -1.3077  0.0583
 4145SOL     OW24070   3.116   4.279   7.007  0.5546  0.6211  0.1100
 4145SOL    HW124071   3.111   4.192   7.048  1.1391  1.1031  1.2050
 4145SOL    HW224072   3.116   4.255   6.915 -0.5135 -2.6528  0.9394
 4146SOL     OW24073   2.734   1.493   6.054 -0.7594 -0.4568 -0.3994
 4146SOL    HW124074   2.815   1.533   6.024 -0.0482  0.5126  2.7786
 4146SOL    HW224075   2.692   1.561   6.107 -0.9975  0.0058 -1.1798
 4147SOL     OW24076   1.533   2.686   3.544  0.0703 -0.0167 -0.2748
 4147SOL    HW124077   1.468   2.723   3.602 -1.5690 -1.2888 -1.3045
 4147SOL    HW224078   1.535   2.604   3.594  3.2257  0.9741  1.2324
 4148SOL     OW24079   1.214   0.644   7.237  0.3683 -0.2749 -0.4824
 4148SOL    HW124080   1.236   0.736   7.257  0.8998 -0.8349  1.5304
 4148SOL    HW224081   1.219   0.595   7.319  3.0703  0.1790 -0.3694
 4149SOL     OW24082   0.332   3.686   5.136 -0.3357  0.2512  0.3405
 4149SOL    HW124083   0.348   3.780   5.128  1.9917 -0.1165  0.5714
 4149SOL    HW224084   0.372   3.665   5.221 -0.0715 -1.9275 -0.3191
 4150SOL     OW24085   4.125   1.230   9.047  0.0712  0.0748 -0.0254
 4150SOL    HW124086   4.096   1.317   9.019 -2.0700 -1.1041 -1.4350
 4150SOL    HW224087   4.210   1.250   9.087 -0.1392 -0.0781  0.4871
 4151SOL     OW24088   2.389   0.524  10.040 -0.4813 -0.0923 -0.1301
 4151SOL    HW124089   2.434   0.603  10.010  1.9629 -1.6208 -0.4816
 4151SOL    HW224090   2.420   0.461   9.976 -0.0731 -1.3870  1.3551
 4152SOL     OW24091   3.016   3.091   8.769 -0.4808  0.4674 -0.1174
 4152SOL    HW124092   2.932   3.121   8.803 -1.1443 -2.3442  0.7018
 4152SOL    HW224093   3.055   3.178   8.755  2.1411 -0.2238  3.0370
 4153SOL     OW24094   2.105   0.019   8.591 -0.3593  0.2024  0.0792
 4153SOL    HW124095   2.030   4.725   8.539 -0.9419 -0.6374  1.4067
 4153SOL    HW224096   2.059   0.018   8.675 -0.1575  0.3552  0.1896
 4154SOL     OW24097   0.522   2.848  12.475 -0.0170  0.5887  0.8789
 4154SOL    HW124098   0.577   2.894  12.539  0.3149 -1.4280  2.0255
 4154SOL    HW224099   0.549   2.902  12.401  1.1140 -2.9970 -1.3262
 4155SOL     OW24100   2.735   4.166  15.511  0.5092 -0.2581 -0.5351
 4155SOL    HW124101   2.809   4.141  15.567  1.5236 -1.0486 -2.2398
 4155SOL    HW224102   2.764   4.128  15.428  1.2990 -0.4431 -0.1747
 4156SOL     OW24103   3.054   3.626   2.518 -0.3647  0.4173  0.5128
 4156SOL    HW124104   3.145   3.603   2.539 -0.2195  1.4215  0.9880
 4156SOL    HW224105   3.005   3.569   2.577  0.0921 -0.1269  0.3788
 4157SOL     OW24106   0.790   1.297   1.768 -0.9096  0.2590  0.4675
 4157SOL    HW124107   0.860   1.238   1.742 -1.8481 -0.1510 -1.1516
 4157SOL    HW224108   0.844   1.375   1.770  0.0108 -0.3314 -1.6578
 4158SOL     OW24109   4.189   1.546  11.876  0.8139  0.1539  0.6525
 4158SOL    HW124110   4.190   1.457  11.840 -2.2187  0.3131  0.1858
 4158SOL    HW224111   4.155   1.590  11.798  0.9136  1.3269  1.2667
 4159SOL     OW24112   4.583   3.431   2.404  0.1002  0.1105 -0.4076
 4159SOL    HW124113   4.535   3.448   2.485  1.4825 -0.1137  0.4657
 4159SOL    HW224114   4.520   3.402   2.339  1.1713  0.5045 -1.6129
 4160SOL     OW24115   2.233   3.092   7.631  0.3436 -0.0695  0.5233
 4160SOL    HW124116   2.167   3.143   7.677 -0.5986 -1.1167  0.3034
 4160SOL    HW224117   2.221   3.004   7.667 -0.7689 -0.8777 -1.8326
 4161SOL     OW24118   1.917   3.791  13.981  0.7176  0.1592  0.0106
 4161SOL    HW124119   1.869   3.845  13.918 -1.3393 -1.4652  0.1965
 4161SOL    HW224120   2.002   3.776  13.938  1.0262 -0.8656  0.9859
 4162SOL     OW24121   4.319   3.716   6.710  0.2590  0.3343 -0.2789
 4162SOL    HW124122   4.311   3.633   6.758 -2.7198  0.7865  0.0032
 4162SOL    HW224123   4.398   3.751   6.752  0.5951 -0.8266  0.0534
 4163SOL     OW24124   4.735   1.916   1.740 -0.1062  0.3523  1.2339
 4163SOL    HW124125   4.645   1.902   1.770 -0.0244 -0.1707  1.2454
 4163SOL    HW224126   4.735   2.008   1.716  2.5626 -0.5900 -2.4549
 4164SOL     OW24127   2.748   3.104   7.927  0.0747 -0.4219  0.5933
 4164SOL    HW124128   2.760   3.104   7.832 -1.5601  0.4673  0.3973
 4164SOL    HW224129   2.814   3.043   7.960 -0.0159 -0.4395  0.7437
 4165SOL     OW24130   2.805   4.153  17.324  0.0122 -0.3199  0.2508
 4165SOL    HW124131   2.748   4.110  17.261  0.6820 -1.7547  0.6151
 4165SOL    HW224132   2.797   4.245  17.300  0.0698 -0.3298  0.1937
 4166SOL     OW24133   3.939   3.390   6.433 -0.1787  0.5841  0.1403
 4166SOL    HW124134   3.995   3.338   6.490 -0.6360  0.5727  0.5766
 4166SOL    HW224135   3.855   3.345   6.433 -0.9105  1.9293  1.2292
 4167SOL     OW24136   3.711   2.599   2.640 -0.2927 -0.2519 -0.0586
 4167SOL    HW124137   3.622   2.608   2.606  0.2423 -1.0701 -1.6941
 4167SOL    HW224138   3.693   2.554   2.722  0.2663  0.2488  0.3416
 4168SOL     OW24139   2.649   1.813   2.807  0.2953  0.1509  0.1981
 4168SOL    HW124140   2.651   1.717   2.813 -1.4520  0.0883 -0.0104
 4168SOL    HW224141   2.612   1.825   2.894  2.9315  0.7611  1.1989
 4169SOL     OW24142   1.682   4.440   2.288  0.2465 -0.0233 -0.7471
 4169SOL    HW124143   1.632   4.521   2.286 -0.6222 -0.5503 -0.4948
 4169SOL    HW224144   1.676   4.415   2.380 -0.6932  0.9481 -0.5486
 4170SOL     OW24145   1.053   3.347   4.643  0.1347  0.3239  0.3815
 4170SOL    HW124146   1.023   3.339   4.734 -0.7342 -2.9149 -0.1920
 4170SOL    HW224147   0.979   3.392   4.602  1.1873 -0.1865 -2.0980
 4171SOL     OW24148   1.035   2.955  13.082 -0.2085  0.0020  0.2856
 4171SOL    HW124149   1.109   2.930  13.137 -0.8277 -1.3650  0.5144
 4171SOL    HW224150   0.997   2.867  13.070 -1.5110  0.7879 -1.5020
 4172SOL     OW24151   3.887   2.789   7.014 -0.3032  0.5490 -0.1384
 4172SOL    HW124152   3.797   2.790   7.046 -0.0507  1.3703  0.5683
 4172SOL    HW224153   3.879   2.710   6.961 -0.4740  0.1768  0.4439
 4173SOL     OW24154   2.177   1.648   3.024  0.4332 -0.3190  0.7903
 4173SOL    HW124155   2.089   1.643   2.987  0.3503 -1.6041  1.1594
 4173SOL    HW224156   2.200   1.736   2.994 -1.1341 -0.1367  0.1255
 4174SOL     OW24157   4.334   2.782  11.293 -0.3475  0.2815 -0.0419
 4174SOL    HW124158   4.372   2.738  11.217  0.9915  0.8700  0.2842
 4174SOL    HW224159   4.248   2.805  11.259  0.4749  1.9218 -0.9851
 4175SOL     OW24160   2.144   4.237   2.989 -0.5332  0.0648  0.0017
 4175SOL    HW124161   2.116   4.256   2.899 -2.6514  2.0119  1.0700
 4175SOL    HW224162   2.230   4.206   2.962 -1.4091 -0.6896 -1.9721
 4176SOL     OW24163   1.914   3.284   4.962 -0.0273 -0.6666 -0.3447
 4176SOL    HW124164   1.905   3.331   5.045  0.6740 -1.1983  0.0453
 4176SOL    HW224165   1.971   3.214   4.995  0.3303  0.5234  1.5928
 4177SOL     OW24166   2.278   2.380   2.338 -0.4454  0.5045 -0.7206
 4177SOL    HW124167   2.185   2.391   2.359 -0.3565 -2.3643  1.1763
 4177SOL    HW224168   2.314   2.424   2.415  0.1727  2.1705 -1.9674
 4178SOL     OW24169   1.580   2.117   8.367  0.0847  0.2984 -0.2217
 4178SOL    HW124170   1.509   2.181   8.367  0.1677  0.3857  0.6617
 4178SOL    HW224171   1.555   2.051   8.303  0.9300  1.0976 -1.3914
 4179SOL     OW24172   4.586   1.360   5.567 -0.3869  0.0640  0.4647
 4179SOL    HW124173   4.602   1.437   5.622  1.4164 -0.9518  1.3639
 4179SOL    HW224174   4.677   1.330   5.556 -0.9207 -0.6277 -1.9576
 4180SOL     OW24175   0.677   2.116  12.055  0.1005  0.0990  0.3041
 4180SOL    HW124176   0.644   2.028  12.037  1.2851 -0.3277  0.2270
 4180SOL    HW224177   0.734   2.110  12.132  0.5094 -2.9801 -0.2696
 4181SOL     OW24178   2.467   4.286  16.369 -0.3434  0.5183 -0.0512
 4181SOL    HW124179   2.533   4.244  16.424 -1.8940 -2.6683 -0.6406
 4181SOL    HW224180   2.509   4.371  16.354  1.1662 -0.1035  0.6366
 4182SOL     OW24181   2.925   1.528   5.681 -0.7685  0.0063  0.0046
 4182SOL    HW124182   2.965   1.519   5.768 -0.1668 -1.4533 -0.4275
 4182SOL    HW224183   2.999   1.545   5.623 -2.8270  3.2684 -1.6747
 4183SOL     OW24184   2.118   2.431   6.342 -0.7016  0.3891 -0.4813
 4183SOL    HW124185   2.174   2.494   6.387 -1.5721 -1.0785  2.6416
 4183SOL    HW224186   2.163   2.356   6.381 -1.4575  1.0988  1.7861
 4184SOL     OW24187   4.120   1.409  15.131  0.6461 -0.0868  0.4983
 4184SOL    HW124188   4.189   1.448  15.184  0.6093  1.7189 -0.7754
 4184SOL    HW224189   4.101   1.330  15.182  3.5273 -0.0076  1.6603
 4185SOL     OW24190   2.466   4.360   6.701  0.8830 -0.1258  0.1395
 4185SOL    HW124191   2.432   4.344   6.789 -1.0045 -0.5265 -0.6439
 4185SOL    HW224192   2.389   4.324   6.655  0.6240  1.8875 -1.0271
 4186SOL     OW24193   0.347   2.544  14.642  0.4577 -0.0775 -0.4989
 4186SOL    HW124194   0.411   2.589  14.697 -1.3403 -1.0317  2.3858
 4186SOL    HW224195   0.309   2.618  14.595 -2.0618  0.2116  2.0076
 4187SOL     OW24196   4.418   3.812  13.565 -0.3870 -0.1705  0.8918
 4187SOL    HW124197   4.360   3.783  13.495  1.2405 -0.4106 -0.3494
 4187SOL    HW224198   4.503   3.778  13.536  0.5533  3.0315 -0.1909
 4188SOL     OW24199   3.304   1.856   7.243 -1.1363 -0.3908  0.0952
 4188SOL    HW124200   3.220   1.894   7.215 -1.3675 -0.5497  0.5672
 4188SOL    HW224201   3.376   1.912   7.213 -1.0905 -1.0217 -0.9240
 4189SOL     OW24202   2.723   2.684   8.307 -0.4686 -0.5921  0.1172
 4189SOL    HW124203   2.655   2.698   8.373 -0.7938  0.3369 -0.4204
 4189SOL    HW224204   2.678   2.619   8.253 -1.5772  1.7650 -1.7925
 4190SOL     OW24205   2.027   0.315   6.577  0.2566  0.0731 -0.0297
 4190SOL    HW124206   1.991   0.400   6.554  0.7773  0.5080  0.7978
 4190SOL    HW224207   1.969   0.262   6.521  0.3110 -1.8293  1.7135
 4191SOL     OW24208   3.691   1.742   4.242 -0.0696  0.1209 -0.1213
 4191SOL    HW124209   3.627   1.811   4.222  0.6632  1.3659  1.6910
 4191SOL    HW224210   3.763   1.765   4.184  0.6972 -4.4461 -0.9611
 4192SOL     OW24211   1.891   1.898   2.906  0.3354  0.3548  0.2148
 4192SOL    HW124212   1.818   1.844   2.937  0.9326 -0.5902 -0.0300
 4192SOL    HW224213   1.875   1.966   2.972 -0.4361 -0.2135  0.6065
 4193SOL     OW24214   1.162   1.047  14.072 -0.4538  0.4414  0.2023
 4193SOL    HW124215   1.085   1.090  14.108 -0.7877  0.5566 -0.6425
 4193SOL    HW224216   1.191   0.997  14.148  0.7243  0.9178  0.0645
 4194SOL     OW24217   1.272   1.303   7.997  0.5435 -0.2556  0.3326
 4194SOL    HW124218   1.178   1.290   7.981  0.6013 -1.0274  0.5806
 4194SOL    HW224219   1.280   1.239   8.068 -0.6145 -0.4383  0.2959
 4195SOL     OW24220   0.564   3.515   2.307 -0.1050 -0.3105 -0.3436
 4195SOL    HW124221   0.566   3.483   2.216 -1.3985 -0.6755 -0.2486
 4195SOL    HW224222   0.478   3.481   2.330 -0.2668  0.1704 -0.2423
 4196SOL     OW24223   1.046   1.739  17.638  0.2959 -0.1386  0.5516
 4196SOL    HW124224   1.017   1.800  17.706 -1.2479 -1.5151  1.1107
 4196SOL    HW224225   0.975   1.675  17.634 -0.6101  0.7631  2.1178
 4197SOL     OW24226   4.563   2.638   5.776 -0.3976  0.3934  0.3341
 4197SOL    HW124227   4.521   2.694   5.841 -1.0040 -0.3595  0.5836
 4197SOL    HW224228   4.657   2.647   5.796 -0.3832 -0.5017  0.6943
 4198SOL     OW24229   3.920   3.861   2.796  0.0073  0.1420 -0.4064
 4198SOL    HW124230   3.920   3.774   2.757  0.8691 -0.1102  0.1387
 4198SOL    HW224231   3.992   3.900   2.746  1.0506  0.0639  1.0311
 4199SOL     OW24232   0.500   0.304   8.778 -0.1073  0.0659 -0.2396
 4199SOL    HW124233   0.404   0.299   8.774 -0.0762 -0.4221 -0.4597
 4199SOL    HW224234   0.500   0.357   8.857 -0.1637  2.9010 -2.1451
 4200SOL     OW24235   4.056   2.859   0.986 -0.3056  0.0361  0.0886
 4200SOL    HW124236   4.101   2.855   1.071  0.5223 -1.1353 -0.4211
 4200SOL    HW224237   4.101   2.789   0.940 -0.8084  0.2821 -0.7781
 4201SOL     OW24238   3.576   2.911   2.566  0.1217 -0.1686 -0.5808
 4201SOL    HW124239   3.488   2.928   2.599  0.2264  0.2072 -0.4937
 4201SOL    HW224240   3.602   2.994   2.524 -0.4480  0.5694  0.5344
 4202SOL     OW24241   3.379   1.723   7.666 -0.1777 -0.0473 -0.1948
 4202SOL    HW124242   3.308   1.733   7.601 -1.7235 -0.2197  1.4685
 4202SOL    HW224243   3.421   1.644   7.633 -0.5491 -0.0271 -0.7249
 4203SOL     OW24244   0.028   2.508  12.615  0.1550  0.2767  0.1475
 4203SOL    HW124245   0.120   2.503  12.589 -0.0430  2.5725 -1.0055
 4203SOL    HW224246   0.025   2.476  12.705 -1.3238  0.4433  0.1534
 4204SOL     OW24247   0.522   2.882   9.417  0.6068 -0.2098 -0.8008
 4204SOL    HW124248   0.536   2.916   9.505 -1.1999 -1.1888 -0.1556
 4204SOL    HW224249   0.571   2.800   9.413  0.6134 -0.2196 -0.4964
 4205SOL     OW24250   3.479   1.099   3.815  0.0072  0.9254  0.2505
 4205SOL    HW124251   3.526   1.024   3.853 -0.7592  0.5319  0.4253
 4205SOL    HW224252   3.409   1.055   3.767  0.8421  0.4729 -0.5502
 4206SOL     OW24253   3.574   0.877   8.541  0.0339  0.4833 -0.8962
 4206SOL    HW124254   3.669   0.872   8.538 -0.0184 -2.4262  1.6201
 4206SOL    HW224255   3.573   0.967   8.575  0.1722  0.0499  0.2539
 4207SOL     OW24256   3.514   3.810   6.325  0.0258  0.2271  0.1463
 4207SOL    HW124257   3.519   3.730   6.377  0.9197 -1.1172 -2.0019
 4207SOL    HW224258   3.586   3.860   6.364 -0.4061  0.2873  0.8787
 4208SOL     OW24259   4.331   4.256   6.665  0.1301 -0.7954 -0.1839
 4208SOL    HW124260   4.316   4.217   6.579 -1.2924 -0.3933 -0.1026
 4208SOL    HW224261   4.244   4.277   6.697 -0.3408 -0.9218 -1.3947
 4209SOL     OW24262   4.148   0.523  17.479 -0.4093  0.5205 -0.0131
 4209SOL    HW124263   4.185   0.451  17.429 -4.3914 -1.3606 -0.3042
 4209SOL    HW224264   4.209   0.588  17.445  0.5058 -0.0002  0.6494
 4210SOL     OW24265   1.493   0.853  15.319 -0.3771 -0.4326 -0.2271
 4210SOL    HW124266   1.502   0.794  15.244 -0.7969  0.7729 -1.2027
 4210SOL    HW224267   1.518   0.788  15.385 -0.7381 -0.2219  0.1155
 4211SOL     OW24268   0.437   3.040  15.157  0.1468  0.7046 -0.3650
 4211SOL    HW124269   0.476   3.001  15.235  3.2911  3.7248 -0.4526
 4211SOL    HW224270   0.455   3.134  15.166  0.8280  0.4844  0.5596
 4212SOL     OW24271   1.868   3.704  13.151  0.2476 -0.0069 -0.0958
 4212SOL    HW124272   1.822   3.674  13.230 -0.1373  1.9358  0.4062
 4212SOL    HW224273   1.944   3.747  13.189  0.8681 -0.8637 -0.3671
 4213SOL     OW24274   3.487   1.320   4.037  0.0810  0.7180 -0.4786
 4213SOL    HW124275   3.488   1.265   3.959  1.6282 -1.2040  0.8881
 4213SOL    HW224276   3.486   1.255   4.107 -2.1744  0.3666 -0.8454
 4214SOL     OW24277   4.083   1.552   1.399  0.2546  0.1835 -0.6213
 4214SOL    HW124278   4.024   1.488   1.359  0.5803  0.6960 -1.9056
 4214SOL    HW224279   4.161   1.499   1.418  0.0017  0.5814  1.5149
 4215SOL     OW24280   1.809   3.761   7.366  0.7312  0.0708 -0.0218
 4215SOL    HW124281   1.713   3.763   7.369  0.7183  0.3823 -0.7549
 4215SOL    HW224282   1.824   3.832   7.304  0.8643 -0.8221 -1.0060
 4216SOL     OW24283   2.858   0.714   2.807 -0.6058 -0.3582  0.0119
 4216SOL    HW124284   2.836   0.754   2.723  2.2913  0.6913 -0.2472
 4216SOL    HW224285   2.918   0.772   2.854  1.7971 -0.3332 -3.1431
 4217SOL     OW24286   2.819   0.039  11.128  0.4468  0.1942  0.2571
 4217SOL    HW124287   2.753   4.718  11.167 -0.1742  1.7933  1.5187
 4217SOL    HW224288   2.777   0.063  11.045 -0.2956  0.1618  0.6242
 4218SOL     OW24289   1.361   2.017   7.833  0.5616 -0.2969  0.2886
 4218SOL    HW124290   1.318   1.986   7.913 -1.7963 -0.5295 -1.0667
 4218SOL    HW224291   1.450   2.030   7.865  0.4202  3.0122 -0.6963
 4219SOL     OW24292   3.830   3.982   8.315 -0.5359 -0.4833  0.4744
 4219SOL    HW124293   3.830   3.955   8.223 -2.1678 -0.1447  0.3622
 4219SOL    HW224294   3.735   3.995   8.323 -0.6720 -0.6599 -0.9061
 4220SOL     OW24295   3.298   2.292  16.105 -0.1496  0.2410  0.1271
 4220SOL    HW124296   3.290   2.337  16.189  0.1183  0.8484 -0.1738
 4220SOL    HW224297   3.278   2.362  16.044 -0.4082  2.4918  2.7823
 4221SOL     OW24298   1.258   0.826   0.916 -0.3827  0.4172 -0.1251
 4221SOL    HW124299   1.299   0.825   1.002  0.6219 -0.1024 -0.6101
 4221SOL    HW224300   1.293   0.742   0.886 -1.1230  0.4740 -1.1294
 4222SOL     OW24301   4.729   4.368   3.745 -0.3407 -0.6360  0.3134
 4222SOL    HW124302   4.713   4.285   3.699  2.1359 -0.7026 -0.4139
 4222SOL    HW224303   0.088   4.373   3.738 -0.4178  2.3121  1.6990
 4223SOL     OW24304   1.041   1.631   2.285 -0.7283 -0.4155 -0.2198
 4223SOL    HW124305   1.056   1.682   2.365  0.9302 -1.1469 -0.0662
 4223SOL    HW224306   0.992   1.556   2.320 -0.5340 -0.2132  0.4844
 4224SOL     OW24307   0.940   3.964   4.597  0.0528 -0.4536  0.6165
 4224SOL    HW124308   1.019   3.978   4.649  1.3762 -1.5724 -1.1173
 4224SOL    HW224309   0.875   4.008   4.653  2.1495 -0.3546  2.9470
 4225SOL     OW24310   0.330   2.502  12.026 -0.4295  0.0394 -0.3326
 4225SOL    HW124311   0.366   2.462  11.947  1.6492  1.0751  0.0753
 4225SOL    HW224312   0.247   2.538  11.997 -0.7019 -0.4679 -0.1733
 4226SOL     OW24313   0.051   4.688   4.077  0.3816  0.4494  0.2654
 4226SOL    HW124314   0.117   4.689   4.008  0.5813  0.8844  0.4593
 4226SOL    HW224315   4.705   4.695   4.028 -0.6613 -2.6411  1.5523
 4227SOL     OW24316   4.543   3.803   6.128  0.3323  0.3873 -0.0997
 4227SOL    HW124317   4.539   3.886   6.080  0.2892 -0.5171 -1.6632
 4227SOL    HW224318   4.633   3.805   6.161  0.5469 -0.5123 -0.6313
 4228SOL     OW24319   0.249   2.334   4.318  0.1628 -0.2293 -0.2509
 4228SOL    HW124320   0.303   2.363   4.392 -0.9818  0.3260  0.3539
 4228SOL    HW224321   0.294   2.253   4.293 -2.1258 -0.8984 -2.1775
 4229SOL     OW24322   0.802   1.953  14.382 -0.3919  0.3680  0.0813
 4229SOL    HW124323   0.748   2.030  14.398  0.4740  0.4294  2.6290
 4229SOL    HW224324   0.862   1.961  14.456  0.3289 -1.7955 -0.2632
 4230SOL     OW24325   1.597   3.503   8.845 -0.4566 -0.2926 -0.3267
 4230SOL    HW124326   1.670   3.532   8.900 -0.1439  0.6142 -1.2260
 4230SOL    HW224327   1.554   3.588   8.834  1.8018  1.1666  2.1550
 4231SOL     OW24328   1.280   2.230   1.849 -0.2524 -0.3237 -0.4097
 4231SOL    HW124329   1.300   2.144   1.888  0.0515 -0.2268 -0.3504
 4231SOL    HW224330   1.358   2.280   1.873 -0.4155 -0.3601  0.1996
 4232SOL     OW24331   4.591   0.047  16.434 -0.0606 -0.2913 -0.1434
 4232SOL    HW124332   4.639   0.029  16.353 -1.4357  2.0924 -1.5074
 4232SOL    HW224333   4.590   4.697  16.474  1.7769  0.0260  0.5790
 4233SOL     OW24334   4.122   2.462   8.139  0.9570 -0.0196  0.2101
 4233SOL    HW124335   4.200   2.490   8.188  1.3684 -0.2932 -0.2893
 4233SOL    HW224336   4.163   2.409   8.071  0.7520  0.2029 -0.0863
 4234SOL     OW24337   1.345   2.452   9.030 -0.1414 -0.6248  0.3674
 4234SOL    HW124338   1.323   2.510   9.103  1.7064 -1.4244  1.5646
 4234SOL    HW224339   1.420   2.501   8.995 -0.0770 -0.5459  0.6122
 4235SOL     OW24340   3.251   0.460   9.631 -0.3364 -0.2168  0.3396
 4235SOL    HW124341   3.190   0.481   9.561  0.5059 -3.0963 -1.2672
 4235SOL    HW224342   3.308   0.537   9.631 -0.9876  0.2733  2.5074
 4236SOL     OW24343   0.097   2.515  17.023  1.1732 -0.3118  0.3039
 4236SOL    HW124344   0.090   2.581  17.092 -1.1959 -0.4337  0.1782
 4236SOL    HW224345   0.009   2.490  16.998  1.3708 -0.4461 -0.2563
 4237SOL     OW24346   0.648   3.303   7.368  0.1337  0.0496 -0.3948
 4237SOL    HW124347   0.625   3.268   7.454 -0.5589 -0.5004 -0.8057
 4237SOL    HW224348   0.568   3.347   7.342  1.2793  1.6655 -1.2134
 4238SOL     OW24349   4.122   0.616   6.155  0.5679  0.1819  0.2863
 4238SOL    HW124350   4.087   0.705   6.147 -0.0804 -0.1517 -0.4959
 4238SOL    HW224351   4.036   0.583   6.179  0.3355 -0.3378 -1.2700
 4239SOL     OW24352   2.598   2.939   8.093  0.6077 -0.3434  0.3126
 4239SOL    HW124353   2.603   2.979   8.180 -0.0330  1.3125 -0.4061
 4239SOL    HW224354   2.609   3.015   8.035 -2.5065 -0.0698  0.1067
 4240SOL     OW24355   0.713   2.064   5.408  0.0530 -0.0671  0.4823
 4240SOL    HW124356   0.736   2.128   5.475 -0.2885 -0.6210  1.1261
 4240SOL    HW224357   0.663   2.004   5.463 -0.8466  0.2974  0.0689
 4241SOL     OW24358   1.346   0.947   1.893 -0.2167  0.4739 -0.0732
 4241SOL    HW124359   1.420   0.977   1.840 -0.9846  2.3967 -0.0675
 4241SOL    HW224360   1.309   1.026   1.932 -2.6107 -0.7465  0.0724
 4242SOL     OW24361   1.644   1.142   5.487  0.4108  0.1864  0.3117
 4242SOL    HW124362   1.569   1.198   5.467  0.0721  0.1184  1.4019
 4242SOL    HW224363   1.637   1.140   5.582 -0.2579  3.5324  0.2995
 4243SOL     OW24364   0.461   1.314   3.254  0.2782 -0.0934 -0.7193
 4243SOL    HW124365   0.369   1.287   3.258 -0.0973  1.2481 -0.3191
 4243SOL    HW224366   0.450   1.407   3.270 -1.7225 -0.0580 -2.2278
 4244SOL     OW24367   3.859   1.923   8.788  0.7592  0.0680 -0.6615
 4244SOL    HW124368   3.827   1.845   8.742 -1.4655 -0.3857  1.6815
 4244SOL    HW224369   3.779   1.962   8.824  3.4606  4.1821  0.8565
 4245SOL     OW24370   4.086   1.354   3.752  0.6061 -0.7471  0.1426
 4245SOL    HW124371   4.034   1.433   3.741  0.4065 -0.5256  2.6724
 4245SOL    HW224372   4.037   1.320   3.826  1.4120  1.9177  1.9010
 4246SOL     OW24373   3.615   3.003   6.244 -0.3371 -0.0988 -0.1005
 4246SOL    HW124374   3.591   2.923   6.291 -0.3996 -1.9414 -3.3254
 4246SOL    HW224375   3.553   3.066   6.281 -1.1866 -1.1991  0.3656
 4247SOL     OW24376   0.787   3.061  13.603 -0.1584  0.5484 -0.3811
 4247SOL    HW124377   0.818   3.151  13.594  1.4188 -0.0870 -1.1773
 4247SOL    HW224378   0.844   3.034  13.675 -0.3450  0.1626 -0.3752
 4248SOL     OW24379   2.719   2.183   7.226 -0.2219 -0.0187  0.6013
 4248SOL    HW124380   2.723   2.153   7.316 -1.6927  0.7302  0.9100
 4248SOL    HW224381   2.651   2.126   7.192 -0.1480 -1.2819  2.5722
 4249SOL     OW24382   3.060   2.130   2.079 -0.0551 -0.5096  0.3135
 4249SOL    HW124383   3.044   2.071   2.152  0.8088  1.2241  1.9108
 4249SOL    HW224384   2.973   2.158   2.052 -0.5075 -0.6185  1.6710
 4250SOL     OW24385   3.060   0.500  17.617  0.3427 -0.2214  0.1163
 4250SOL    HW124386   3.022   0.412  17.609 -1.2846  0.7329 -2.3700
 4250SOL    HW224387   3.128   0.478  17.682  0.9221  3.7076  0.8443
 4251SOL     OW24388   1.981   1.640   7.914 -0.0238  0.0435 -0.3177
 4251SOL    HW124389   2.003   1.560   7.962 -0.5661 -0.7396 -1.3904
 4251SOL    HW224390   1.944   1.601   7.835  0.1326 -2.1015  0.6689
 4252SOL     OW24391   1.585   1.858  11.203 -0.9262  0.2920 -0.2674
 4252SOL    HW124392   1.506   1.910  11.217 -0.3885  0.8251  0.7113
 4252SOL    HW224393   1.542   1.779  11.236  0.5360 -0.6757 -0.6989
 4253SOL     OW24394   0.858   2.129   9.398  0.3242  0.1685  0.0787
 4253SOL    HW124395   0.801   2.053   9.409  1.1058 -0.3451  0.5975
 4253SOL    HW224396   0.890   2.129   9.488  0.7956 -0.5079 -0.0949
 4254SOL     OW24397   0.065   2.661   0.576  0.1799 -0.4027  0.2344
 4254SOL    HW124398   4.728   2.716   0.605  1.0188  0.5020  0.6185
 4254SOL    HW224399   0.015   2.587   0.541 -0.2213 -0.2578  0.4927
 4255SOL     OW24400   2.843   3.464  13.888 -0.3491 -0.2981 -0.5832
 4255SOL    HW124401   2.796   3.383  13.910 -2.5101  0.9041 -0.8395
 4255SOL    HW224402   2.899   3.430  13.817 -0.7496  1.1890 -1.6189
 4256SOL     OW24403   2.813   3.290   4.097  0.0384  0.1483 -0.3632
 4256SOL    HW124404   2.808   3.266   4.004 -1.2283 -2.6279  0.4246
 4256SOL    HW224405   2.871   3.365   4.086 -1.3186  1.3223  0.4349
 4257SOL     OW24406   0.422   0.188   2.032 -0.0614 -0.5204 -0.1700
 4257SOL    HW124407   0.476   0.201   1.954 -2.6598  2.5321 -1.4474
 4257SOL    HW224408   0.408   0.277   2.063  2.2025  0.5749 -2.2622
 4258SOL     OW24409   2.143   1.496   2.339 -0.4031  0.1011 -0.2836
 4258SOL    HW124410   2.193   1.566   2.299  1.2514 -2.5207 -2.8047
 4258SOL    HW224411   2.210   1.454   2.394 -1.3154 -1.2449 -0.1845
 4259SOL     OW24412   3.749   2.675   4.833 -0.2933  0.2624 -0.4219
 4259SOL    HW124413   3.711   2.758   4.802 -0.9828 -0.6399 -1.9733
 4259SOL    HW224414   3.696   2.609   4.790 -2.1770  1.6196 -0.2215
 4260SOL     OW24415   1.532   2.004  11.559  1.0530 -0.1365  0.1085
 4260SOL    HW124416   1.624   1.993  11.584  1.1605  1.5349  0.4520
 4260SOL    HW224417   1.502   2.064  11.628 -0.1100 -0.3127 -0.2542
 4261SOL     OW24418   3.842   0.261   9.256  0.0458  0.4177 -0.1540
 4261SOL    HW124419   3.747   0.274   9.264 -0.1133 -0.1675 -1.1064
 4261SOL    HW224420   3.862   0.201   9.327 -3.2764 -1.2677 -0.6324
 4262SOL     OW24421   0.472   1.750   5.223 -0.2175  0.0991 -0.6321
 4262SOL    HW124422   0.450   1.839   5.196 -2.8060 -1.0295 -2.3154
 4262SOL    HW224423   0.567   1.743   5.213 -0.0935 -0.6391  0.8977
 4263SOL     OW24424   2.736   0.842   3.051 -0.7752 -0.2507 -0.2981
 4263SOL    HW124425   2.747   0.886   3.136 -2.4763 -0.7066  0.1619
 4263SOL    HW224426   2.765   0.910   2.991  0.4617 -1.9195 -1.5728
 4264SOL     OW24427   2.151   1.824   5.728 -0.0969  0.1245 -0.1074
 4264SOL    HW124428   2.098   1.863   5.659 -1.1239 -1.4564 -0.2012
 4264SOL    HW224429   2.118   1.735   5.741 -3.0033  1.0586 -1.0554
 4265SOL     OW24430   2.904   0.802   9.532  0.3566 -0.7480 -0.1083
 4265SOL    HW124431   2.903   0.896   9.552 -0.5212 -1.3445  2.6654
 4265SOL    HW224432   2.865   0.767   9.612  1.9711 -0.6291  0.7252
 4266SOL     OW24433   2.294   1.613  10.213 -0.4751  0.0921 -0.9729
 4266SOL    HW124434   2.253   1.699  10.227  1.3173  0.2684  2.9717
 4266SOL    HW224435   2.337   1.629  10.129  2.4626  2.3714  0.9723
 4267SOL     OW24436   0.420   2.671   8.406  0.1727  0.1657 -0.0094
 4267SOL    HW124437   0.484   2.637   8.468 -1.0414 -1.3792  0.4122
 4267SOL    HW224438   0.458   2.746   8.362 -0.5604 -0.8262 -2.3227
 4268SOL     OW24439   2.241   3.379   0.416  0.7198 -0.2781  0.3111
 4268SOL    HW124440   2.269   3.417   0.499  0.0675 -0.4091  0.5960
 4268SOL    HW224441   2.194   3.449   0.370  2.2627 -0.7931 -2.0010
 4269SOL     OW24442   0.729   3.585   4.447 -0.2567  0.2648 -0.0211
 4269SOL    HW124443   0.705   3.493   4.455  2.5095 -0.5775 -1.4593
 4269SOL    HW224444   0.651   3.632   4.416 -0.8655 -0.7030  0.0518
 4270SOL     OW24445   3.011   2.190   4.936 -0.2736 -0.0500  0.0060
 4270SOL    HW124446   3.036   2.140   4.858 -2.5801 -1.6442  0.2977
 4270SOL    HW224447   3.073   2.262   4.943  0.8554 -0.7391 -2.7391
 4271SOL     OW24448   1.346   1.007   5.531 -0.1027  0.5124 -0.0505
 4271SOL    HW124449   1.391   0.954   5.597 -0.8364 -1.1872 -0.9232
 4271SOL    HW224450   1.255   0.978   5.544  0.2290 -2.3077 -4.0510
 4272SOL     OW24451   0.931   2.022   0.575 -0.3350  0.1106  0.0017
 4272SOL    HW124452   1.017   2.063   0.569 -0.8867  1.2467 -0.0282
 4272SOL    HW224453   0.888   2.104   0.553  0.5639  0.4526 -0.4634
 4273SOL     OW24454   4.142   2.325   0.045 -0.1344  0.3612 -0.3129
 4273SOL    HW124455   4.173   2.324  17.698 -2.1060 -0.0028 -0.9886
 4273SOL    HW224456   4.230   2.324   0.083 -0.6210  1.0489  0.8481
 4274SOL     OW24457   1.952   3.869  14.381  0.1291  0.5227 -0.0687
 4274SOL    HW124458   1.964   3.870  14.476 -0.2998  2.4993 -0.0325
 4274SOL    HW224459   1.963   3.774  14.372 -0.8697  0.3898  0.0144
 4275SOL     OW24460   3.971   4.468   6.695 -0.1170  0.1641  0.0720
 4275SOL    HW124461   3.893   4.484   6.748 -0.3010 -2.0087  0.4342
 4275SOL    HW224462   3.992   4.388   6.743 -1.4253  1.3772  2.6532
 4276SOL     OW24463   4.188   3.638   7.786  0.0986  0.5967 -0.3654
 4276SOL    HW124464   4.234   3.638   7.870  1.4696  2.0119 -1.1126
 4276SOL    HW224465   4.125   3.704   7.813 -1.9752 -1.3993 -0.3735
 4277SOL     OW24466   3.685   4.697   3.833 -0.0814  0.3586 -0.1448
 4277SOL    HW124467   3.764   4.714   3.781 -1.6210 -0.2402 -2.6702
 4277SOL    HW224468   3.680   0.035   3.893 -1.2633  0.4860 -0.3932
 4278SOL     OW24469   1.932   1.921   8.767  0.0764 -0.4107 -0.0720
 4278SOL    HW124470   1.995   1.961   8.827 -0.2520 -0.4645  0.3118
 4278SOL    HW224471   1.925   1.837   8.813  3.5028 -0.0657  1.0678
 4279SOL     OW24472   1.436   0.995   9.262 -0.4287  0.0913 -0.4797
 4279SOL    HW124473   1.370   1.055   9.228 -1.1289 -1.2858 -1.5242
 4279SOL    HW224474   1.487   1.068   9.298  2.7855 -2.9747  1.2672
 4280SOL     OW24475   2.828   0.328  10.949 -0.3473  0.4236 -0.0494
 4280SOL    HW124476   2.748   0.279  10.967  0.0348  0.0842  0.7374
 4280SOL    HW224477   2.801   0.381  10.874 -1.9149  0.0092  0.2141
 4281SOL     OW24478   1.815   2.265  16.994 -0.1894  0.2145  0.5442
 4281SOL    HW124479   1.798   2.232  17.082 -2.0950 -2.1319 -0.7072
 4281SOL    HW224480   1.807   2.183  16.944 -2.2784  1.5633 -1.3258
 4282SOL     OW24481   1.209   0.015   2.439 -0.6587  0.0485  0.4011
 4282SOL    HW124482   1.168   0.101   2.437  2.5774  1.6195  2.2446
 4282SOL    HW224483   1.216   4.727   2.531  1.2689  1.7240  0.6718
 4283SOL     OW24484   1.982   0.353   8.387  0.1935  0.3029 -0.3798
 4283SOL    HW124485   2.010   0.266   8.356 -0.6047 -0.0442 -0.1277
 4283SOL    HW224486   2.047   0.369   8.456 -0.0104  0.3302 -0.1923
 4284SOL     OW24487   1.996   0.130  12.397  0.8619  0.4824  0.2131
 4284SOL    HW124488   2.069   0.081  12.435 -0.6755 -0.8674  1.4414
 4284SOL    HW224489   2.043   0.187  12.336 -2.6133  0.0685 -2.8521
 4285SOL     OW24490   0.143   1.277   2.548 -0.1870  0.0338  0.2194
 4285SOL    HW124491   0.224   1.310   2.509 -0.2558 -1.1135 -0.8896
 4285SOL    HW224492   0.120   1.343   2.612 -0.5480 -1.0094  1.1684
 4286SOL     OW24493   2.739   1.449  15.938  0.0986 -0.3734 -0.3059
 4286SOL    HW124494   2.778   1.364  15.920 -0.7496 -0.0477 -3.7083
 4286SOL    HW224495   2.747   1.495  15.854  1.3848 -3.0775 -1.6846
 4287SOL     OW24496   0.060   1.567   5.162 -0.6872 -0.0679  0.1745
 4287SOL    HW124497   0.151   1.540   5.174 -0.7299 -0.1596  0.2886
 4287SOL    HW224498   0.033   1.596   5.249  0.1770  2.2877 -0.3542
 4288SOL     OW24499   1.483   1.239  10.739  0.1222 -0.5924 -0.4881
 4288SOL    HW124500   1.475   1.332  10.715 -0.6540 -0.4942  0.1783
 4288SOL    HW224501   1.398   1.207  10.710 -0.6994  1.0463  0.0779
 4289SOL     OW24502   2.767   1.147  14.319 -0.7339  0.3940 -0.1694
 4289SOL    HW124503   2.856   1.175  14.342 -0.5375 -1.8455  1.7953
 4289SOL    HW224504   2.782   1.118  14.230 -2.0335 -1.3126  0.1829
 4290SOL     OW24505   2.164   2.547   4.318 -0.1832  0.5268 -0.7787
 4290SOL    HW124506   2.176   2.550   4.223  0.0912 -0.3082 -0.7668
 4290SOL    HW224507   2.255   2.548   4.348  0.2160  2.2257 -2.0737
 4291SOL     OW24508   2.957   0.233   3.220  0.0226  0.0545 -0.1408
 4291SOL    HW124509   3.047   0.261   3.201  0.3684 -1.0731 -0.1702
 4291SOL    HW224510   2.942   0.273   3.306  1.1111  1.6957 -0.7112
 4292SOL     OW24511   2.832   4.129  13.770  0.5465 -0.2740  0.5144
 4292SOL    HW124512   2.892   4.066  13.732  1.2261  1.3986 -1.1875
 4292SOL    HW224513   2.792   4.069  13.833  0.7369 -0.8402  0.0952
 4293SOL     OW24514   0.426   2.111   4.593  0.0862 -0.1920  0.1577
 4293SOL    HW124515   0.415   2.047   4.664  0.3393 -0.3967  0.0153
 4293SOL    HW224516   0.355   2.071   4.542  1.1628 -2.2949  0.2740
 4294SOL     OW24517   0.526   0.319   6.524 -0.0019 -0.1801  0.5568
 4294SOL    HW124518   0.449   0.371   6.545  0.3166  1.0132 -1.2512
 4294SOL    HW224519   0.507   0.242   6.576  0.7582 -1.5280 -1.1435
 4295SOL     OW24520   0.355   1.406   7.584  0.2966  0.0640  0.1273
 4295SOL    HW124521   0.382   1.485   7.631 -3.5639  2.4803 -1.7187
 4295SOL    HW224522   0.331   1.356   7.662 -0.4017 -1.8175 -1.2903
 4296SOL     OW24523   0.301   4.472   3.383  0.3348 -1.3242  0.0766
 4296SOL    HW124524   0.208   4.476   3.364  0.4099  2.0746  0.4461
 4296SOL    HW224525   0.323   4.550   3.433 -0.7695 -0.7784 -0.3031
 4297SOL     OW24526   0.154   3.637   3.018  0.0547 -0.7557  0.3179
 4297SOL    HW124527   0.203   3.678   2.946 -0.1431  1.0785  1.2335
 4297SOL    HW224528   0.075   3.614   2.970 -0.9003 -1.7385  2.3898
 4298SOL     OW24529   2.617   3.440   5.277  0.1753 -0.1260 -0.0306
 4298SOL    HW124530   2.545   3.385   5.246  0.9588 -1.4861  0.5987
 4298SOL    HW224531   2.683   3.375   5.298  0.4825 -0.8117 -3.0882
 4299SOL     OW24532   1.896   3.849   7.006 -0.3579 -0.0916 -0.3551
 4299SOL    HW124533   1.957   3.918   6.981 -0.5561  0.5343  0.8398
 4299SOL    HW224534   1.847   3.906   7.066  0.4229  1.4031 -1.1370
 4300SOL     OW24535   0.244   0.280   7.126 -0.2020  0.2014 -0.2952
 4300SOL    HW124536   0.295   0.306   7.049 -0.7833 -1.1088 -1.1057
 4300SOL    HW224537   0.282   0.194   7.138  0.6167  0.4231 -1.2873
 4301SOL     OW24538   3.564   2.712  10.334  0.4007 -0.1981  0.1657
 4301SOL    HW124539   3.634   2.774  10.313 -1.4498  1.8918  0.2216
 4301SOL    HW224540   3.518   2.747  10.410  1.4573 -2.6549  1.9434
 4302SOL     OW24541   1.707   3.699   5.774 -0.0964 -0.5265 -0.2468
 4302SOL    HW124542   1.649   3.706   5.849  0.9614 -0.0682  0.5215
 4302SOL    HW224543   1.666   3.749   5.703  0.7474  0.7788  0.1835
 4303SOL     OW24544   4.349   3.531  14.090  0.4288  0.1237  0.5272
 4303SOL    HW124545   4.430   3.493  14.055 -0.1631  0.3357 -1.0677
 4303SOL    HW224546   4.358   3.621  14.060  0.0855  0.3638  1.1472
 4304SOL     OW24547   3.895   3.133   6.156 -0.1105 -0.3194  0.8872
 4304SOL    HW124548   3.826   3.102   6.214  0.7378 -0.7185  1.6990
 4304SOL    HW224549   3.939   3.182   6.225 -2.9077  0.9462  1.7342
 4305SOL     OW24550   1.067   2.587   8.174 -0.2448 -0.4107  0.4577
 4305SOL    HW124551   1.103   2.663   8.129 -1.1123 -0.7747 -0.8560
 4305SOL    HW224552   0.994   2.630   8.218  0.4442 -0.4216  1.6197
 4306SOL     OW24553   0.703   4.396   2.357  0.2363  0.4626 -0.6849
 4306SOL    HW124554   0.786   4.430   2.390 -0.1447  0.6625  0.0709
 4306SOL    HW224555   0.677   4.476   2.310 -3.0736 -0.5290 -0.5595
 4307SOL     OW24556   0.459   3.434   7.251  0.8385  0.1913 -0.3028
 4307SOL    HW124557   0.478   3.492   7.177 -1.4736  0.1352 -0.9281
 4307SOL    HW224558   0.421   3.365   7.197 -0.9571  1.7589 -1.0071
 4308SOL     OW24559   3.971   3.672   5.816  0.0301 -0.3451  0.6094
 4308SOL    HW124560   3.917   3.728   5.872 -0.7215 -1.0133  0.5567
 4308SOL    HW224561   3.918   3.593   5.809  0.7888 -0.8221  0.2102
 4309SOL     OW24562   0.997   3.396   9.893  0.0488  0.1943 -0.4272
 4309SOL    HW124563   0.956   3.320   9.851 -0.4214  0.9536 -1.3296
 4309SOL    HW224564   1.062   3.430   9.832  3.8630 -3.1934  1.7435
 4310SOL     OW24565   3.272   1.387   5.649  0.1090  0.5635 -0.5140
 4310SOL    HW124566   3.291   1.411   5.740 -1.7348  0.0123  0.0226
 4310SOL    HW224567   3.186   1.346   5.659  0.6484 -0.5154 -0.3278
 4311SOL     OW24568   1.735   1.092  10.469 -0.3710  0.0389 -0.2199
 4311SOL    HW124569   1.664   1.083  10.406 -0.5435  0.5973 -0.1053
 4311SOL    HW224570   1.806   1.098  10.404 -0.1467  2.5009  0.2674
 4312SOL     OW24571   4.374   3.017   4.190  0.1022  0.6435  0.0886
 4312SOL    HW124572   4.391   2.944   4.131  1.1146 -0.3572  1.6094
 4312SOL    HW224573   4.323   3.079   4.139 -0.9064 -0.1593  0.1291
 4313SOL     OW24574   4.659   0.025  12.083 -0.2581  0.5579 -0.3224
 4313SOL    HW124575   4.618   0.013  12.169 -3.5745 -0.0148 -1.9770
 4313SOL    HW224576   4.604   4.709  12.025 -1.3070  2.1954 -0.8052
 4314SOL     OW24577   1.623   0.620   8.685 -0.2888 -0.3143 -0.3100
 4314SOL    HW124578   1.555   0.680   8.717 -0.1667  0.0764 -0.7933
 4314SOL    HW224579   1.694   0.681   8.666 -0.1608 -0.0069  1.1627
 4315SOL     OW24580   3.846   1.736   1.100 -0.2960  0.0000  0.6436
 4315SOL    HW124581   3.792   1.793   1.156 -0.5095  1.6523 -1.2734
 4315SOL    HW224582   3.930   1.780   1.112 -2.1159  2.3176  5.0345
 4316SOL     OW24583   1.544   0.645   7.287  0.2112 -0.0051 -0.3600
 4316SOL    HW124584   1.486   0.617   7.357  0.1776 -0.5984 -0.6299
 4316SOL    HW224585   1.600   0.569   7.270  0.4727 -0.2925  1.8905
 4317SOL     OW24586   2.323   2.611   7.929  0.5046 -0.4228 -0.1188
 4317SOL    HW124587   2.326   2.635   7.836  2.5834  0.6596  0.2181
 4317SOL    HW224588   2.253   2.545   7.925  1.7462 -1.9067  2.7030
 4318SOL     OW24589   3.664   1.289   3.081 -0.2396  0.3020 -0.4288
 4318SOL    HW124590   3.670   1.296   3.176 -2.8981  0.3717 -0.2604
 4318SOL    HW224591   3.714   1.366   3.054 -0.6486  0.3209 -1.1155
 4319SOL     OW24592   3.862   2.353   5.882  0.0692  0.0970  0.3665
 4319SOL    HW124593   3.777   2.390   5.855  0.8707  0.2764 -1.8722
 4319SOL    HW224594   3.876   2.386   5.971 -1.2832  1.9565 -0.0963
 4320SOL     OW24595   2.536   2.343   6.890  0.2752 -0.4043 -0.4355
 4320SOL    HW124596   2.444   2.345   6.916  0.3793  0.2686 -0.1210
 4320SOL    HW224597   2.571   2.368   6.976 -3.1046  1.6139  0.3330
 4321SOL     OW24598   0.987   3.533   7.659  0.2617  0.4661 -0.4577
 4321SOL    HW124599   1.015   3.617   7.622  0.9608  0.4897  0.1203
 4321SOL    HW224600   1.027   3.471   7.598  0.5436  0.4381 -0.2471
 4322SOL     OW24601   3.586   1.769   1.863 -0.3632  0.1517  0.3646
 4322SOL    HW124602   3.532   1.727   1.930 -1.0481 -2.0217 -1.5662
 4322SOL    HW224603   3.610   1.705   1.796 -2.6374 -0.4893  0.1664
 4323SOL     OW24604   2.530   1.661   5.914  0.3830  0.2814 -0.0883
 4323SOL    HW124605   2.515   1.592   5.979  0.7634  0.4670  0.1990
 4323SOL    HW224606   2.486   1.731   5.964 -1.9023  0.6869 -2.6767
 4324SOL     OW24607   2.931   0.540   6.257 -0.4862 -0.1134 -0.3640
 4324SOL    HW124608   2.995   0.541   6.327 -3.6706 -0.2802  2.5466
 4324SOL    HW224609   2.975   0.495   6.185 -0.4791 -0.4260 -0.1651
 4325SOL     OW24610   2.397   3.458   1.284 -0.5316 -0.1198 -0.1750
 4325SOL    HW124611   2.485   3.454   1.246 -0.6016 -1.2892 -0.2145
 4325SOL    HW224612   2.392   3.550   1.308 -2.4212  0.0347 -1.1906
 4326SOL     OW24613   4.433   1.219   5.114  0.0621  0.3498  0.6111
 4326SOL    HW124614   4.370   1.257   5.053  0.0650 -0.3580  0.1615
 4326SOL    HW224615   4.397   1.242   5.200 -1.4714 -2.4710  0.7162
 4327SOL     OW24616   2.996   0.461   2.726 -0.3790 -0.1051  0.1287
 4327SOL    HW124617   2.932   0.533   2.731  0.1533  0.4533 -1.1705
 4327SOL    HW224618   2.987   0.424   2.814  0.1064 -1.6313 -0.4684
 4328SOL     OW24619   1.778   3.552   2.789  0.2668 -0.2718  0.0867
 4328SOL    HW124620   1.744   3.633   2.752  0.4860 -0.0665  0.3385
 4328SOL    HW224621   1.701   3.502   2.815  0.7454  0.0208  2.0071
 4329SOL     OW24622   1.522   4.346   3.242  0.0578  0.5883 -0.5599
 4329SOL    HW124623   1.601   4.378   3.200  1.1180  1.4374  2.0778
 4329SOL    HW224624   1.547   4.359   3.333 -0.2169  2.3447 -0.7420
 4330SOL     OW24625   0.478   0.815   9.913 -0.1178  0.0901 -0.0097
 4330SOL    HW124626   0.429   0.745   9.956  2.1836 -1.9103 -0.6864
 4330SOL    HW224627   0.470   0.792   9.820 -1.9601 -0.7496  0.3481
 4331SOL     OW24628   0.784   4.489   6.478  0.1232  0.6908 -0.2702
 4331SOL    HW124629   0.732   4.488   6.397 -0.3517 -0.2313  0.0429
 4331SOL    HW224630   0.755   4.571   6.517 -0.1870  0.5537 -0.2103
 4332SOL     OW24631   3.759   0.239   8.690 -0.4150 -0.4669 -0.2381
 4332SOL    HW124632   3.761   0.189   8.771 -0.6237 -0.0984 -0.0102
 4332SOL    HW224633   3.764   0.165   8.629  0.3831  0.3936 -1.2264
 4333SOL     OW24634   1.254   2.255   6.395 -0.1559 -0.2220 -0.5466
 4333SOL    HW124635   1.318   2.301   6.340 -0.7912  1.1512 -0.1476
 4333SOL    HW224636   1.313   2.219   6.462  0.2751  0.3432 -0.6168
 4334SOL     OW24637   0.108   1.548   2.726  0.4332 -0.1979  0.1664
 4334SOL    HW124638   0.164   1.537   2.803  3.2148 -0.0191 -1.8051
 4334SOL    HW224639   0.033   1.597   2.759 -0.3089 -0.7925 -0.6484
 4335SOL     OW24640   1.122   2.965   1.682  0.5655 -1.0279 -0.4094
 4335SOL    HW124641   1.121   2.878   1.642  3.0196 -1.0783 -0.3683
 4335SOL    HW224642   1.060   2.956   1.755 -0.1346 -0.2003 -0.9048
 4336SOL     OW24643   1.825   1.883   9.625  0.3525 -0.6359 -0.2101
 4336SOL    HW124644   1.744   1.868   9.575  0.2404  0.7992 -0.4612
 4336SOL    HW224645   1.794   1.900   9.714  1.3493 -1.1815  0.2408
 4337SOL     OW24646   0.857   2.399  11.796 -0.4119 -0.6378 -0.1070
 4337SOL    HW124647   0.776   2.416  11.844  0.1898  2.0144 -0.0177
 4337SOL    HW224648   0.881   2.315  11.835 -0.5414 -0.5842  0.0923
 4338SOL     OW24649   0.703   2.200   5.020  0.1277  0.2660  0.5283
 4338SOL    HW124650   0.697   2.147   4.940 -0.4535  2.2534 -0.7242
 4338SOL    HW224651   0.790   2.175   5.050  0.7269  2.6259  0.7337
 4339SOL     OW24652   2.876   1.623   2.181  0.1150 -0.8660  0.3696
 4339SOL    HW124653   2.849   1.533   2.196 -0.4984 -0.8751 -0.7914
 4339SOL    HW224654   2.821   1.656   2.110 -0.8817  0.9422  2.0107
 4340SOL     OW24655   4.281   0.764   7.826  0.4310  0.2069  0.2165
 4340SOL    HW124656   4.199   0.723   7.854 -0.1270 -0.3210 -2.1391
 4340SOL    HW224657   4.297   0.717   7.744  1.1268 -1.2314  1.1724
 4341SOL     OW24658   3.167   4.033   9.704  0.3735 -0.1570  0.2626
 4341SOL    HW124659   3.255   4.044   9.667 -0.1139  1.0066 -0.5461
 4341SOL    HW224660   3.117   4.075   9.634 -0.0108 -2.8144 -1.0845
 4342SOL     OW24661   4.496   2.799   4.499 -0.1053 -0.1127  0.6061
 4342SOL    HW124662   4.535   2.881   4.467 -0.8419 -0.1117 -0.2950
 4342SOL    HW224663   4.410   2.830   4.528  0.3516 -0.0738  1.9186
 4343SOL     OW24664   2.129   3.633  10.762  0.3617 -0.1125 -0.3831
 4343SOL    HW124665   2.103   3.542  10.746  0.1961 -0.5507  2.3286
 4343SOL    HW224666   2.099   3.680  10.684  0.8472  1.7099  0.5287
 4344SOL     OW24667   1.913   3.748   5.373 -0.2340 -0.3862 -0.2763
 4344SOL    HW124668   1.861   3.672   5.398 -0.4549  0.1756  0.9238
 4344SOL    HW224669   1.947   3.771   5.459 -1.3702  0.0283  0.0552
 4345SOL     OW24670   3.077   0.945  10.288  0.0390  0.4558 -0.6238
 4345SOL    HW124671   3.157   0.982  10.326 -0.0404  0.2749 -0.2806
 4345SOL    HW224672   3.011   0.984  10.344 -0.5562 -3.2747  1.2298
 4346SOL     OW24673   0.987   1.283   6.081 -0.2853  0.3019  0.3551
 4346SOL    HW124674   0.944   1.269   6.165 -1.1257  1.6588  0.1476
 4346SOL    HW224675   0.922   1.347   6.053  0.3991  0.4034 -0.9645
 4347SOL     OW24676   0.971   1.164   8.981  0.2015 -0.3479 -0.1064
 4347SOL    HW124677   0.968   1.255   9.010 -0.9739 -0.1705 -0.7672
 4347SOL    HW224678   1.048   1.159   8.923 -0.2865  0.7090 -0.8484
 4348SOL     OW24679   3.469   2.395  15.812  0.3652  0.2339 -0.2623
 4348SOL    HW124680   3.392   2.401  15.756 -0.0662  0.1891  0.3214
 4348SOL    HW224681   3.467   2.481  15.856  2.1157 -0.5923  1.4457
 4349SOL     OW24682   2.310   0.444   8.051  0.0001  0.2361 -0.1868
 4349SOL    HW124683   2.338   0.367   8.003 -1.4346  0.5791 -1.5832
 4349SOL    HW224684   2.339   0.520   8.001 -0.0858 -0.2843 -1.0153
 4350SOL     OW24685   4.336   2.610  12.059  0.0913 -0.9011 -0.4145
 4350SOL    HW124686   4.336   2.624  12.154 -1.9114  0.8968 -0.6645
 4350SOL    HW224687   4.402   2.674  12.032  1.8480 -1.7878  1.7985
 4351SOL     OW24688   2.568   2.785   4.677  0.2234  0.3560  0.1715
 4351SOL    HW124689   2.548   2.827   4.593  2.8159  0.5176 -0.3737
 4351SOL    HW224690   2.587   2.698   4.643  1.1000  1.0611 -1.1579
 4352SOL     OW24691   4.730   0.224  11.231  0.0066  0.0647 -0.4510
 4352SOL    HW124692   0.062   0.226  11.298 -2.2221 -1.6915  1.8783
 4352SOL    HW224693   0.007   0.317  11.211  0.7289 -0.0856 -0.6599
 4353SOL     OW24694   0.237   1.740   2.576  0.5225  0.0618 -0.2819
 4353SOL    HW124695   0.200   1.722   2.489 -3.9704 -2.0314  2.0776
 4353SOL    HW224696   0.189   1.675   2.626  0.2225 -0.3294 -1.0716
 4354SOL     OW24697   4.114   1.706   0.689 -0.2999 -0.3727 -0.0347
 4354SOL    HW124698   4.119   1.793   0.728  2.1967  0.1679 -1.5258
 4354SOL    HW224699   4.061   1.713   0.609  0.5932  1.4902 -0.4620
 4355SOL     OW24700   0.480   3.594  14.548 -0.0187 -0.1533 -0.2474
 4355SOL    HW124701   0.546   3.527  14.535  1.9818  1.9327 -0.8909
 4355SOL    HW224702   0.530   3.672  14.524 -2.8070  1.8878  0.4828
 4356SOL     OW24703   3.119   4.206   8.544 -0.6760  0.5164  0.8511
 4356SOL    HW124704   3.177   4.151   8.491  1.0419  0.1587  3.1106
 4356SOL    HW224705   3.171   4.282   8.566 -0.5342  0.6984 -0.0876
 4357SOL     OW24706   1.102   0.969   4.999 -0.0235  0.5760 -0.1021
 4357SOL    HW124707   1.112   1.060   5.026 -0.1047  0.5158  0.1296
 4357SOL    HW224708   1.192   0.938   5.004 -1.2212 -2.8631  0.6188
 4358SOL     OW24709   2.904   3.851   5.309 -0.2099 -0.2239  0.0492
 4358SOL    HW124710   2.829   3.824   5.256 -0.2959 -0.6680  0.4020
 4358SOL    HW224711   2.903   3.947   5.316  0.7263 -0.2126  0.0414
 4359SOL     OW24712   0.577   0.954   5.787 -0.1010  0.0682 -0.7180
 4359SOL    HW124713   0.580   0.952   5.691 -0.0248 -1.5538 -0.6795
 4359SOL    HW224714   0.607   1.043   5.806 -2.2665  0.6463 -0.0542
 4360SOL     OW24715   1.046   3.839  14.233  0.4878 -0.6102  0.3624
 4360SOL    HW124716   1.056   3.752  14.269 -0.1499 -0.0466  1.9070
 4360SOL    HW224717   1.078   3.828  14.143 -0.7952 -1.4833  0.0179
 4361SOL     OW24718   2.265   2.159   7.065 -0.3068 -0.0819  0.5274
 4361SOL    HW124719   2.211   2.212   7.007 -1.8260 -1.7269  0.4467
 4361SOL    HW224720   2.223   2.073   7.054  1.0500 -0.8870  1.5109
 4362SOL     OW24721   0.214   3.359   7.541 -0.2063  0.4790  0.1711
 4362SOL    HW124722   0.178   3.320   7.461  0.8688 -0.5788  0.1984
 4362SOL    HW224723   0.130   3.389   7.575 -0.6789 -1.8389  1.0678
 4363SOL     OW24724   0.860   2.109  11.866 -0.2075 -0.1953 -0.5897
 4363SOL    HW124725   0.788   2.096  11.927  1.1235 -1.4242  0.7261
 4363SOL    HW224726   0.933   2.080  11.920  0.6893 -0.0106 -1.7018
 4364SOL     OW24727   2.731   0.437   6.747 -0.3116  0.0888 -0.2889
 4364SOL    HW124728   2.657   0.377   6.734 -0.0700 -0.5502  1.2726
 4364SOL    HW224729   2.703   0.510   6.693 -2.0240 -1.2525 -1.2352
 4365SOL     OW24730   4.133   1.897  11.346 -0.0756  0.3770  0.0210
 4365SOL    HW124731   4.073   1.958  11.390 -1.6116 -1.1700  0.0739
 4365SOL    HW224732   4.072   1.827  11.326 -1.2698  1.5703 -0.5260
 4366SOL     OW24733   2.789   3.470   2.203 -0.5623  0.6393 -0.1861
 4366SOL    HW124734   2.739   3.541   2.242 -2.2361 -0.3129 -0.5701
 4366SOL    HW224735   2.815   3.427   2.285  0.5453  3.8445  1.1325
 4367SOL     OW24736   2.156   1.485   3.684  0.1894 -0.3003 -0.3851
 4367SOL    HW124737   2.232   1.538   3.659  0.0094 -1.4424 -3.3798
 4367SOL    HW224738   2.176   1.464   3.775  1.1424  1.4416 -0.1953
 4368SOL     OW24739   0.588   2.325   4.096 -0.1767  0.3398  0.4235
 4368SOL    HW124740   0.539   2.364   4.024  0.8706  1.7783  0.5008
 4368SOL    HW224741   0.628   2.252   4.049  1.3659  1.7625 -0.4524
 4369SOL     OW24742   4.530   0.587   7.789 -0.1544  0.3272 -0.0846
 4369SOL    HW124743   4.472   0.512   7.780  1.1541 -0.7205  0.2199
 4369SOL    HW224744   4.515   0.636   7.708 -3.2827  0.9951  0.9048
 4370SOL     OW24745   1.296   2.358   5.405 -0.5246  0.3696  0.1737
 4370SOL    HW124746   1.201   2.369   5.404 -0.7217 -1.2582  1.7667
 4370SOL    HW224747   1.323   2.442   5.442 -1.3150  0.7709 -0.1562
 4371SOL     OW24748   2.814   2.737   6.736  0.4891  0.7657 -0.1960
 4371SOL    HW124749   2.759   2.658   6.738 -0.2224  1.2912  0.5514
 4371SOL    HW224750   2.878   2.697   6.677 -0.9606  0.1005 -1.3250
 4372SOL     OW24751   1.647   2.320   6.638  0.2454  0.2975 -0.1233
 4372SOL    HW124752   1.614   2.294   6.552 -0.8443 -1.0870  0.7106
 4372SOL    HW224753   1.599   2.401   6.655  0.0510  0.4802 -1.5911
 4373SOL     OW24754   4.151   0.907  13.141  0.1254  0.2060  0.1208
 4373SOL    HW124755   4.156   0.860  13.057 -2.0290 -0.3930  0.3406
 4373SOL    HW224756   4.241   0.935  13.161  0.3482 -0.9391  0.7130
 4374SOL     OW24757   3.199   2.638   5.823  0.0375  0.5672  0.7364
 4374SOL    HW124758   3.191   2.549   5.855  2.3868 -0.0069 -0.2839
 4374SOL    HW224759   3.266   2.628   5.755  0.4259  4.0969  0.5643
 4375SOL     OW24760   4.417   3.221   5.690 -0.1287  0.0944  0.1354
 4375SOL    HW124761   4.446   3.140   5.647  1.0124  0.7101 -0.2599
 4375SOL    HW224762   4.395   3.185   5.776 -1.4997  0.9715  0.1467
 4376SOL     OW24763   4.114   1.145  10.336 -0.3785 -0.6525  0.4810
 4376SOL    HW124764   4.146   1.223  10.292 -1.7575  0.0325  0.6735
 4376SOL    HW224765   4.183   1.122  10.398 -0.6057 -0.7881  0.6881
 4377SOL     OW24766   3.804   0.576  14.794 -0.0478  0.5855  0.2646
 4377SOL    HW124767   3.868   0.621  14.739  1.5578 -0.3562  1.3587
 4377SOL    HW224768   3.810   0.487  14.757 -1.0963  1.9060 -3.0639
 4378SOL     OW24769   3.188   1.745   7.469  0.0414  0.0256 -0.0073
 4378SOL    HW124770   3.093   1.755   7.473 -0.1909 -1.1610 -2.9378
 4378SOL    HW224771   3.203   1.789   7.385  1.1814  1.3104  0.8625
 4379SOL     OW24772   2.163   1.366   1.524  0.1172  0.0860  0.3318
 4379SOL    HW124773   2.238   1.390   1.578 -0.9987 -0.0872  1.9467
 4379SOL    HW224774   2.123   1.451   1.503 -1.3328  0.1108  3.1560
 4380SOL     OW24775   0.144   1.114  17.509  0.4350  0.6718 -0.4594
 4380SOL    HW124776   0.050   1.097  17.503  0.7799 -1.5982  0.4090
 4380SOL    HW224777   0.147   1.208  17.528 -0.2997  0.4117  0.9753
 4381SOL     OW24778   3.619   1.421   5.115 -0.0868  0.1833 -0.3814
 4381SOL    HW124779   3.593   1.330   5.124 -2.0540  0.7192 -0.7653
 4381SOL    HW224780   3.621   1.430   5.020 -0.6543 -1.5162 -0.5419
 4382SOL     OW24781   0.894   3.236   5.968  0.4218 -0.0185  0.1219
 4382SOL    HW124782   0.842   3.196   5.899  0.3454  1.8145 -0.8754
 4382SOL    HW224783   0.984   3.210   5.946  0.7599  2.2251 -1.1852
 4383SOL     OW24784   2.345   1.887  13.408  0.4475 -0.0165 -0.5831
 4383SOL    HW124785   2.282   1.827  13.368 -0.2311 -0.5383  1.2702
 4383SOL    HW224786   2.374   1.842  13.488 -1.9822 -0.9667 -0.2329
 4384SOL     OW24787   4.149   0.042   5.751 -0.3530 -0.0201  0.3917
 4384SOL    HW124788   4.168   0.080   5.837 -1.7173  2.6881 -0.5056
 4384SOL    HW224789   4.058   0.070   5.752 -0.0668  0.8699  0.8766
 4385SOL     OW24790   1.045   1.441   3.835  0.1339  0.3303  0.5243
 4385SOL    HW124791   1.040   1.507   3.904  0.8809 -1.9248  2.7040
 4385SOL    HW224792   0.952   1.435   3.816  0.4875 -1.7713 -0.5345
 4386SOL     OW24793   1.473   1.652   7.418 -0.4931 -0.2060  0.1207
 4386SOL    HW124794   1.398   1.649   7.477  0.5407 -2.0152  1.3225
 4386SOL    HW224795   1.539   1.638   7.485  1.5978  1.2798 -1.6153
 4387SOL     OW24796   2.364   2.241   1.425 -0.4148  0.4897  0.8333
 4387SOL    HW124797   2.398   2.197   1.503 -0.9985 -0.9772  0.2676
 4387SOL    HW224798   2.284   2.287   1.451 -0.0402  1.5834  0.0242
 4388SOL     OW24799   1.038   1.817   1.785  0.3118  0.1754 -0.2932
 4388SOL    HW124800   1.097   1.743   1.772  1.2162  1.1688 -1.8470
 4388SOL    HW224801   1.043   1.860   1.699 -0.8184 -2.5585 -1.7199
 4389SOL     OW24802   2.176   0.259   6.815 -0.3176 -0.0703 -0.1269
 4389SOL    HW124803   2.151   0.347   6.843 -1.2537 -0.2245 -0.4676
 4389SOL    HW224804   2.171   0.264   6.719  2.0523  1.4392 -0.1801
 4390SOL     OW24805   1.713   4.376   6.631  0.1875 -0.4659  0.1299
 4390SOL    HW124806   1.664   4.298   6.606  1.2198 -0.2099 -2.7465
 4390SOL    HW224807   1.803   4.358   6.605  1.3376  3.4450  1.3811
 4391SOL     OW24808   2.444   0.730  11.999 -0.1867  0.0289  0.1721
 4391SOL    HW124809   2.499   0.652  11.995 -2.2258 -1.3536 -0.6288
 4391SOL    HW224810   2.508   0.784  12.046  2.0184 -0.6728 -2.0548
 4392SOL     OW24811   0.397   4.308   6.715  0.3402  0.3131 -0.1422
 4392SOL    HW124812   0.478   4.300   6.664 -0.3497  0.0859 -1.2136
 4392SOL    HW224813   0.416   4.235   6.773 -3.9923 -1.2875 -0.7242
 4393SOL     OW24814   1.053   1.863  11.705 -0.2846  0.2278 -0.3219
 4393SOL    HW124815   1.056   1.908  11.789  0.1002 -0.0155 -0.2049
 4393SOL    HW224816   1.127   1.901  11.658  0.5414  1.0480  1.6281
 4394SOL     OW24817   1.904   0.896   2.116 -0.4353 -0.3053 -0.4043
 4394SOL    HW124818   1.985   0.944   2.102 -0.7950  0.3963 -0.1195
 4394SOL    HW224819   1.909   0.870   2.208 -1.2176  0.2391 -0.2014
 4395SOL     OW24820   2.594   3.439  16.128  0.0608 -0.2362  0.4109
 4395SOL    HW124821   2.688   3.423  16.135 -0.5261 -2.7197  2.6701
 4395SOL    HW224822   2.592   3.518  16.073  0.3103 -0.1776  0.4837
 4396SOL     OW24823   4.667   3.427   1.604  0.1466 -0.4468  0.3272
 4396SOL    HW124824   4.648   3.482   1.680  0.5985 -1.2696  1.0245
 4396SOL    HW224825   4.577   3.394   1.596 -0.0826  0.6012 -1.6243
 4397SOL     OW24826   2.976   3.635   3.549 -0.5365  0.3405 -0.1742
 4397SOL    HW124827   3.028   3.713   3.528 -0.4041 -0.2587 -2.1018
 4397SOL    HW224828   2.936   3.621   3.463 -0.5595  0.2524 -0.1487
 4398SOL     OW24829   2.568   3.575   8.779 -0.0333  0.5976 -0.1949
 4398SOL    HW124830   2.643   3.595   8.835 -1.0201  1.5893  0.7717
 4398SOL    HW224831   2.616   3.523   8.714 -0.6873 -0.9903  0.6000
 4399SOL     OW24832   3.846   0.951   1.982  0.1012  0.2516 -0.1665
 4399SOL    HW124833   3.861   0.968   1.889  1.6142 -0.2379 -0.0124
 4399SOL    HW224834   3.752   0.940   1.973  0.1071  0.3927 -0.3991
 4400SOL     OW24835   0.584   0.073   4.114 -0.1912 -0.1439  0.1863
 4400SOL    HW124836   0.569   4.719   4.139  0.1480 -0.9084 -2.3700
 4400SOL    HW224837   0.674   0.092   4.143 -0.2404  2.0296 -1.0667
 4401SOL     OW24838   0.899   3.777   9.072  0.3301  0.8172  0.0062
 4401SOL    HW124839   0.848   3.770   8.991 -0.3494  0.5117  0.4591
 4401SOL    HW224840   0.992   3.775   9.052  0.5818  1.9733  1.0377
 4402SOL     OW24841   2.174   0.614   6.809  0.2719  0.0952  0.0755
 4402SOL    HW124842   2.104   0.641   6.868 -0.0123  2.6631 -1.4415
 4402SOL    HW224843   2.236   0.575   6.872  2.9203  0.3728 -2.3899
 4403SOL     OW24844   3.429   1.925   5.881  0.6242  0.2880 -0.9046
 4403SOL    HW124845   3.511   1.916   5.834 -0.1851  0.6701 -2.3908
 4403SOL    HW224846   3.388   1.994   5.828  2.3748  0.7210 -1.7071
 4404SOL     OW24847   4.342   4.664   8.692  0.1298 -0.2336 -0.0277
 4404SOL    HW124848   4.304   4.623   8.769  0.5342  1.9862  1.3634
 4404SOL    HW224849   4.375   4.598   8.631  0.1981 -0.8126  0.6336
 4405SOL     OW24850   0.548   3.955   4.903  0.3948  0.0566  0.0488
 4405SOL    HW124851   0.549   4.015   4.978 -2.5874  0.4861 -0.2533
 4405SOL    HW224852   0.606   3.887   4.937  0.6516  0.9485  1.3851
 4406SOL     OW24853   1.009   3.449   6.826 -0.3182 -0.7359 -0.0227
 4406SOL    HW124854   0.989   3.360   6.798 -1.6344 -0.1538 -0.9281
 4406SOL    HW224855   0.999   3.492   6.741 -0.9460 -1.7319 -0.4602
 4407SOL     OW24856   4.294   4.375   4.707  0.4960 -0.1157  0.3494
 4407SOL    HW124857   4.377   4.330   4.720  0.8890  1.0444  1.8219
 4407SOL    HW224858   4.258   4.322   4.636  1.6601  3.6264 -3.0534
 4408SOL     OW24859   1.575   4.524   4.401 -0.6641 -0.2094 -0.2071
 4408SOL    HW124860   1.602   4.540   4.311  0.4126  0.8646  0.3147
 4408SOL    HW224861   1.569   4.428   4.409  1.4120 -0.5587 -2.6899
 4409SOL     OW24862   2.075   2.334   3.635  0.2839  0.0494  0.0818
 4409SOL    HW124863   1.984   2.364   3.639 -0.1267 -1.2891  0.4779
 4409SOL    HW224864   2.079   2.283   3.715  1.5167  0.6885  0.4350
 4410SOL     OW24865   1.378   0.552  16.404  0.0315 -0.4696  0.6103
 4410SOL    HW124866   1.347   0.555  16.494 -1.2722 -0.3981  0.1695
 4410SOL    HW224867   1.304   0.589  16.355  2.5360  1.5039 -1.7080
 4411SOL     OW24868   3.086   2.799  10.306 -0.1928 -0.4220  0.1530
 4411SOL    HW124869   3.005   2.849  10.299 -0.1292 -0.6178 -2.0334
 4411SOL    HW224870   3.045   2.713  10.313 -2.1349  0.6792  2.6616
 4412SOL     OW24871   1.278   1.585   5.355  0.3188 -0.6053 -0.1141
 4412SOL    HW124872   1.303   1.672   5.387 -1.5219  0.7295 -2.3003
 4412SOL    HW224873   1.286   1.533   5.435 -0.3801  1.6800  1.4422
 4413SOL     OW24874   3.934   1.305  17.676  0.5983  0.7415  0.0665
 4413SOL    HW124875   4.026   1.331  17.681  0.9795 -0.6825  0.3237
 4413SOL    HW224876   3.943   1.220  17.634  0.8890  0.2472  1.1505
 4414SOL     OW24877   2.705   0.914   8.567  0.1509  0.3938 -0.2934
 4414SOL    HW124878   2.739   0.826   8.551  0.9902  0.2896  1.9953
 4414SOL    HW224879   2.783   0.969   8.575  0.4725 -0.2540  1.2637
 4415SOL     OW24880   4.200   2.252   8.469 -0.0462  0.1378  0.0028
 4415SOL    HW124881   4.136   2.297   8.524 -1.3686  0.9117 -2.1530
 4415SOL    HW224882   4.267   2.318   8.486 -0.4806  0.5059  0.2862
 4416SOL     OW24883   2.897   3.239   7.035 -0.2041  0.6030 -0.7663
 4416SOL    HW124884   2.901   3.330   7.004 -2.0392  1.2479  0.8634
 4416SOL    HW224885   2.817   3.235   7.087 -0.3333 -2.0862 -1.1787
 4417SOL     OW24886   0.489   0.610   2.008 -0.1498  0.3214  0.4970
 4417SOL    HW124887   0.555   0.559   1.961  1.8382  3.1761  0.2090
 4417SOL    HW224888   0.505   0.697   1.972 -1.0080  0.2620 -0.0293
 4418SOL     OW24889   3.345   0.087   0.457 -0.2806  0.6948  0.1586
 4418SOL    HW124890   3.269   0.030   0.459  0.4446 -0.3219 -0.9259
 4418SOL    HW224891   3.421   0.028   0.455 -0.5191  0.4308 -0.8322
 4419SOL     OW24892   0.384   3.580  17.510  0.2547  0.0605 -0.6830
 4419SOL    HW124893   0.349   3.492  17.521 -2.1655  1.1210  0.1071
 4419SOL    HW224894   0.314   3.635  17.473  0.4987  0.5029 -0.4941
 4420SOL     OW24895   2.634   1.001   0.560 -0.5299  0.0864  0.1153
 4420SOL    HW124896   2.678   0.916   0.567 -0.8742 -0.1507 -0.6570
 4420SOL    HW224897   2.700   1.056   0.602  0.8801 -0.8745 -0.8158
 4421SOL     OW24898   2.509   1.350  11.238 -0.3969 -0.1264 -0.1285
 4421SOL    HW124899   2.447   1.331  11.309 -0.6093 -1.6518 -0.7269
 4421SOL    HW224900   2.583   1.372  11.294 -1.6862  1.6721  0.8896
 4422SOL     OW24901   2.030   1.700   2.748  0.2719  0.5266  0.5747
 4422SOL    HW124902   1.958   1.692   2.685  0.7394  0.3129  0.0696
 4422SOL    HW224903   1.968   1.762   2.788 -1.2987  0.8167 -2.2898
 4423SOL     OW24904   4.306   0.687  16.341  0.2591 -0.4392 -0.4747
 4423SOL    HW124905   4.243   0.731  16.398 -0.6453 -2.1077 -0.1595
 4423SOL    HW224906   4.372   0.660  16.404  1.5480  1.4345 -1.0306
 4424SOL     OW24907   1.685   4.645   5.798  0.7217 -0.5520  0.1122
 4424SOL    HW124908   1.709   4.712   5.735  0.8355 -3.1697 -2.5964
 4424SOL    HW224909   1.767   4.635   5.847  1.6022  0.7589 -1.1189
 4425SOL     OW24910   3.262   0.808   1.723  0.5887 -0.0806 -0.2897
 4425SOL    HW124911   3.308   0.832   1.803  1.5996 -2.2667 -0.1994
 4425SOL    HW224912   3.295   0.871   1.660 -0.3917  2.7550  2.0486
 4426SOL     OW24913   1.792   0.983   7.739 -0.2568 -0.6164  0.0363
 4426SOL    HW124914   1.869   1.040   7.732  0.8152 -2.2710 -1.3539
 4426SOL    HW224915   1.775   0.986   7.833  0.2594  0.0565  0.1131
 4427SOL     OW24916   2.144   2.429  15.953  0.2449 -0.3152  0.7251
 4427SOL    HW124917   2.112   2.518  15.939 -0.8297 -0.7567  0.3762
 4427SOL    HW224918   2.088   2.406  16.027 -1.3210 -1.1453 -0.7112
 4428SOL     OW24919   0.938   0.551   2.366  0.5020 -0.0406  0.2849
 4428SOL    HW124920   0.949   0.645   2.381 -1.0872  0.3199 -0.7685
 4428SOL    HW224921   0.874   0.526   2.432 -0.1849 -1.5564 -0.9473
 4429SOL     OW24922   0.149   1.065  16.235  0.5871  0.1137 -0.5054
 4429SOL    HW124923   0.152   0.970  16.247  1.1911  0.0488 -1.2209
 4429SOL    HW224924   0.067   1.085  16.280  0.2076 -2.8449  0.1374
 4430SOL     OW24925   3.173   1.650   0.695 -0.0739 -0.6028 -0.0731
 4430SOL    HW124926   3.252   1.654   0.749  0.0566  0.4489 -0.3441
 4430SOL    HW224927   3.191   1.696   0.613  0.4006 -2.4509 -1.0088
 4431SOL     OW24928   0.163   0.931  10.148  0.1030 -0.2839 -0.1912
 4431SOL    HW124929   0.087   0.958  10.200  0.5634  0.4918  0.0771
 4431SOL    HW224930   0.127   0.875  10.080  0.4267 -1.8675  0.9299
 4432SOL     OW24931   4.571   2.198   4.859  0.3817  0.2089  0.5808
 4432SOL    HW124932   4.625   2.170   4.933  1.6573  1.9041  0.3042
 4432SOL    HW224933   4.487   2.216   4.902 -0.5761  0.4508 -1.3862
 4433SOL     OW24934   2.329   3.984   8.064 -0.3510  0.7006  0.0037
 4433SOL    HW124935   2.292   4.019   8.145  1.5830 -0.2770  1.2983
 4433SOL    HW224936   2.284   4.044   8.004  1.1655  0.0405 -1.7758
 4434SOL     OW24937   0.705   2.038  12.684  0.3161 -0.1176  0.2180
 4434SOL    HW124938   0.635   2.001  12.630 -0.1321  1.2512 -0.1400
 4434SOL    HW224939   0.751   1.962  12.719  1.7567  0.2737 -0.8238
 4435SOL     OW24940   0.054   2.446  14.511  0.4967  0.4808 -0.6037
 4435SOL    HW124941   0.136   2.405  14.484 -0.0465 -1.3623  0.6102
 4435SOL    HW224942   0.050   2.513  14.443  1.3584 -0.5569 -1.6722
 4436SOL     OW24943   1.399   1.254   3.600 -0.7623 -0.4148  0.4909
 4436SOL    HW124944   1.461   1.326   3.610 -0.0643 -0.8535 -0.7279
 4436SOL    HW224945   1.443   1.178   3.638 -0.4411  0.8675  2.6461
 4437SOL     OW24946   1.732   3.668   4.897 -0.4794  0.0167 -0.0155
 4437SOL    HW124947   1.710   3.620   4.817 -0.3523 -0.0277 -0.0247
 4437SOL    HW224948   1.751   3.755   4.862  1.9012 -0.3760  0.2935
 4438SOL     OW24949   4.645   1.053  17.680 -0.0992  0.0727  0.5694
 4438SOL    HW124950   4.698   0.975  17.663 -1.1138 -0.5895  0.4087
 4438SOL    HW224951   4.599   1.064  17.596  0.1940 -0.7095  0.3020
 4439SOL     OW24952   2.134   1.947  12.368  0.1229 -0.1320 -0.1445
 4439SOL    HW124953   2.103   2.002  12.297 -0.3168 -0.9716 -0.6060
 4439SOL    HW224954   2.117   2.011  12.437 -1.3915 -0.1842 -0.4571
 4440SOL     OW24955   4.007   4.514   4.463  0.4858  0.3526 -0.1003
 4440SOL    HW124956   4.013   4.428   4.504  0.0408  0.1255 -0.5018
 4440SOL    HW224957   3.914   4.525   4.484  0.7124  0.2682  0.9339
 4441SOL     OW24958   0.690   0.315   8.236 -0.3061  0.0250  0.0761
 4441SOL    HW124959   0.654   0.392   8.280  0.4203  0.1630  0.4345
 4441SOL    HW224960   0.719   0.365   8.160 -0.0839 -0.8322 -0.4068
 4442SOL     OW24961   2.085   4.366   1.618  0.5630  0.0328 -0.3785
 4442SOL    HW124962   2.088   4.414   1.701 -2.0032 -2.1479  0.9937
 4442SOL    HW224963   2.011   4.307   1.636  0.1921  0.6642  0.1899
 4443SOL     OW24964   0.832   0.646   7.182 -0.1870  0.2583  0.0202
 4443SOL    HW124965   0.784   0.563   7.174  0.4944 -0.0697 -0.8017
 4443SOL    HW224966   0.920   0.618   7.155 -0.8116 -2.0223  0.3539
 4444SOL     OW24967   1.019   4.507   1.616  0.1643 -0.3952 -0.1783
 4444SOL    HW124968   0.967   4.427   1.620  0.8836 -0.7591  1.9467
 4444SOL    HW224969   1.083   4.494   1.687 -0.3653 -3.0161 -0.2146
 4445SOL     OW24970   0.404   1.411  14.044 -0.3875 -0.3945  0.0906
 4445SOL    HW124971   0.465   1.437  14.113 -0.5306  0.9355 -0.2992
 4445SOL    HW224972   0.442   1.328  14.016 -0.3164  0.4490 -2.2711
 4446SOL     OW24973   0.222   1.877   9.885 -0.1016 -0.7082  0.3309
 4446SOL    HW124974   0.224   1.834   9.971  0.3266 -1.1666  0.0865
 4446SOL    HW224975   0.132   1.862   9.855  0.3078  0.7244 -1.5821
 4447SOL     OW24976   0.636   4.054  12.814  0.1424 -0.2732 -0.4339
 4447SOL    HW124977   0.567   3.991  12.792  1.0288 -1.1090 -0.8295
 4447SOL    HW224978   0.577   4.118  12.854  0.8852 -0.9841  1.8298
 4448SOL     OW24979   2.548   0.721   9.906  0.0890 -0.5414  0.0499
 4448SOL    HW124980   2.572   0.795   9.851  0.0782 -1.6260 -1.4292
 4448SOL    HW224981   2.614   0.661   9.872 -0.7326 -0.1496 -2.2390
 4449SOL     OW24982   1.172   1.249   4.814 -0.3477  0.3963 -0.4726
 4449SOL    HW124983   1.173   1.326   4.758  1.5756  1.7180  1.3636
 4449SOL    HW224984   1.222   1.185   4.764 -2.0415 -2.4520  1.4565
 4450SOL     OW24985   2.475   1.761  16.528 -0.2542  0.0120  0.8377
 4450SOL    HW124986   2.480   1.827  16.459 -1.0266  0.9368  1.6771
 4450SOL    HW224987   2.440   1.823  16.591 -0.4355  0.1429  0.6073
 4451SOL     OW24988   4.189   0.114   8.211 -0.3583 -0.0490 -0.0129
 4451SOL    HW124989   4.141   0.177   8.265 -2.8418 -1.5399 -0.4894
 4451SOL    HW224990   4.263   0.100   8.269  0.3081  0.2362 -0.7921
 4452SOL     OW24991   0.700   2.198  11.452  0.7209  0.5220  0.2961
 4452SOL    HW124992   0.756   2.136  11.498  1.3658  1.1506  0.3498
 4452SOL    HW224993   0.713   2.183  11.358 -0.7421  0.5923  0.0729
 4453SOL     OW24994   2.865   0.421   7.679  0.0059  0.0261  0.2970
 4453SOL    HW124995   2.788   0.407   7.734  0.1990 -0.3201  0.4832
 4453SOL    HW224996   2.848   0.371   7.599 -1.3041  0.2271  0.4482
 4454SOL     OW24997   0.812   1.086   4.586  0.2165 -0.0825  0.3375
 4454SOL    HW124998   0.869   1.011   4.568 -2.1300 -1.1125 -2.6289
 4454SOL    HW224999   0.727   1.047   4.605 -0.5111  0.7551 -1.2657
 4455SOL     OW25000   1.261   3.277   2.729  0.3564 -0.4678 -0.2106
 4455SOL    HW125001   1.337   3.222   2.750  0.3354  0.0890  1.2961
 4455SOL    HW225002   1.188   3.230   2.768  0.4718 -0.3398  0.1630
 4456SOL     OW25003   3.438   2.419   9.481 -0.1033  0.5449 -0.2409
 4456SOL    HW125004   3.343   2.408   9.489  0.0139  0.7113  1.4282
 4456SOL    HW225005   3.447   2.435   9.387  0.3073 -0.5102 -0.3804
 4457SOL     OW25006   1.038   2.524   3.805 -0.6162 -0.2766 -0.2881
 4457SOL    HW125007   1.102   2.460   3.774  0.7153  0.6897  0.4828
 4457SOL    HW225008   0.991   2.553   3.727  1.6975  2.3522 -0.7018
 4458SOL     OW25009   1.244   0.546  16.657 -0.3996 -0.2553 -0.5283
 4458SOL    HW125010   1.166   0.591  16.626  0.0157  0.8191 -0.0235
 4458SOL    HW225011   1.229   0.457  16.625  0.0125 -0.6773  0.4274
 4459SOL     OW25012   3.236   4.735   3.085 -0.1091  0.0040 -0.4408
 4459SOL    HW125013   3.312   0.016   3.029  1.3969 -1.6767  1.0777
 4459SOL    HW225014   3.184   0.078   3.093  0.0834 -0.1229  2.1506
 4460SOL     OW25015   4.589   0.768   6.906  0.1345 -0.3618  0.1381
 4460SOL    HW125016   4.520   0.704   6.891  0.5348 -0.5825 -0.7594
 4460SOL    HW225017   4.586   0.833   6.835  0.7805 -1.1838 -0.6303
 4461SOL     OW25018   4.390   0.680  11.258 -0.9681 -0.3136 -0.7548
 4461SOL    HW125019   4.312   0.642  11.218 -0.5432 -1.0824 -0.8441
 4461SOL    HW225020   4.434   0.615  11.312  1.4377 -0.2412 -2.5869
 4462SOL     OW25021   2.637   1.498  14.768 -0.4742 -0.2044 -0.3408
 4462SOL    HW125022   2.687   1.500  14.687  1.2159 -0.1100  0.6977
 4462SOL    HW225023   2.679   1.423  14.810 -1.0729 -0.6291 -0.5003
 4463SOL     OW25024   3.528   4.015  17.058  0.0126  0.3092  0.9714
 4463SOL    HW125025   3.495   4.104  17.070  0.0231  0.6044 -1.2840
 4463SOL    HW225026   3.545   4.002  17.152  1.6416  0.1617  0.6698
 4464SOL     OW25027   3.996   4.251   8.468  0.2423  0.1027 -0.2316
 4464SOL    HW125028   3.987   4.296   8.552  0.8969  1.9658 -1.1723
 4464SOL    HW225029   3.924   4.291   8.418 -1.5777 -2.2354  0.4957
 4465SOL     OW25030   1.725   4.009   9.618  0.0180  0.3831  0.0329
 4465SOL    HW125031   1.734   3.982   9.527 -2.0286 -0.2184  0.0155
 4465SOL    HW225032   1.633   4.034   9.610 -0.2318 -0.7063 -0.4702
 4466SOL     OW25033   3.348   3.983   6.619 -0.5304 -0.6806 -0.3596
 4466SOL    HW125034   3.399   3.902   6.617 -0.5333 -0.6627 -1.3330
 4466SOL    HW225035   3.307   3.992   6.533 -2.4067  0.5255  0.6762
 4467SOL     OW25036   2.230   3.260   1.286  0.3468  0.0973 -0.2437
 4467SOL    HW125037   2.241   3.218   1.201 -0.2868  1.8584 -1.1694
 4467SOL    HW225038   2.292   3.333   1.280 -0.1130  0.3902 -1.3128
 4468SOL     OW25039   4.288   2.310   1.901  0.0336  0.3454  0.5632
 4468SOL    HW125040   4.322   2.396   1.880  0.7251 -0.4307 -1.5259
 4468SOL    HW225041   4.273   2.324   1.994  2.6315  1.0780  0.8642
 4469SOL     OW25042   3.406   1.332   7.778 -0.0192  0.2326  0.0895
 4469SOL    HW125043   3.474   1.392   7.809  0.3722 -0.5332  0.7046
 4469SOL    HW225044   3.450   1.247   7.780  1.7301  1.0032 -4.2981
 4470SOL     OW25045   0.713   1.851  15.370  0.5564 -0.0634  0.1060
 4470SOL    HW125046   0.725   1.909  15.446 -0.3616  1.4753 -0.9293
 4470SOL    HW225047   0.714   1.920  15.303 -0.2265  0.0391  0.2020
 4471SOL     OW25048   0.839   2.913  11.994 -0.5902  0.4843 -0.4402
 4471SOL    HW125049   0.856   2.829  12.037  1.7915  0.7460 -0.8699
 4471SOL    HW225050   0.851   2.885  11.903 -1.4474 -3.5232  0.6625
 4472SOL     OW25051   1.982   4.609   3.821 -0.3871 -0.4147  0.3011
 4472SOL    HW125052   2.034   4.553   3.763 -0.1630 -1.0476  1.0902
 4472SOL    HW225053   1.962   4.551   3.895  1.4336 -0.9728  0.3603
 4473SOL     OW25054   3.338   1.033   1.536 -0.2203 -0.1980  0.3288
 4473SOL    HW125055   3.379   1.079   1.610  0.1896 -0.5944  0.3430
 4473SOL    HW225056   3.384   1.081   1.467  0.0027  0.3822  0.8742
 4474SOL     OW25057   1.946   2.662   7.456 -0.4425 -0.0062 -0.2339
 4474SOL    HW125058   2.035   2.697   7.451 -0.2606 -0.6610 -1.5885
 4474SOL    HW225059   1.924   2.668   7.363 -0.6729 -2.2786 -0.3084
 4475SOL     OW25060   2.454   3.005   5.836 -0.2744 -0.6414 -0.1907
 4475SOL    HW125061   2.503   2.935   5.793 -0.0221 -0.4569 -0.1983
 4475SOL    HW225062   2.454   3.081   5.778 -0.6298 -0.6170 -0.1606
 4476SOL     OW25063   2.522   3.378   8.296  0.1151  0.2802 -1.2330
 4476SOL    HW125064   2.571   3.393   8.215  2.2088  0.7636  0.1038
 4476SOL    HW225065   2.439   3.346   8.261 -0.4143 -0.7147  0.9220
 4477SOL     OW25066   2.477   0.681   1.527 -0.1732 -0.3059 -0.0131
 4477SOL    HW125067   2.507   0.745   1.462  0.2389  1.3838  1.8335
 4477SOL    HW225068   2.383   0.684   1.511 -0.1246 -1.3852 -0.4822
 4478SOL     OW25069   4.491   1.408  11.093 -0.7065  0.1039  0.1910
 4478SOL    HW125070   4.397   1.402  11.109 -1.2723  0.5292 -2.9686
 4478SOL    HW225071   4.528   1.344  11.153 -1.5547 -1.0914 -0.5778
 4479SOL     OW25072   0.170   1.867   4.791 -0.4193  0.0396 -0.3609
 4479SOL    HW125073   0.263   1.892   4.797 -0.5508  0.1089  1.5150
 4479SOL    HW225074   0.134   1.946   4.831  1.7351  2.9550 -4.1882
 4480SOL     OW25075   0.628   4.264   1.340 -0.2664 -0.2915 -0.1436
 4480SOL    HW125076   0.555   4.321   1.320  1.5850  1.8557 -0.8189
 4480SOL    HW225077   0.649   4.232   1.252 -3.2043  0.6286 -1.1754
 4481SOL     OW25078   3.797   1.954  10.973 -0.2434  0.6455  0.7037
 4481SOL    HW125079   3.800   1.868  11.014  3.5929  1.6803  2.6441
 4481SOL    HW225080   3.871   1.942  10.913 -1.7523  0.4687 -1.1295
 4482SOL     OW25081   1.505   0.284  13.063 -0.1555 -0.5334  0.2428
 4482SOL    HW125082   1.561   0.342  13.011 -1.2952  0.6363  0.3482
 4482SOL    HW225083   1.540   0.295  13.152 -0.2724 -1.0610  0.3529
 4483SOL     OW25084   0.381   1.338   6.983 -0.4964  0.5012 -0.2440
 4483SOL    HW125085   0.354   1.402   7.048 -0.0747  1.2865 -0.8382
 4483SOL    HW225086   0.325   1.264   7.006 -1.4922  0.9727 -1.1372
 4484SOL     OW25087   3.336   2.486   0.446  0.3153 -0.6201 -0.0505
 4484SOL    HW125088   3.428   2.462   0.434  1.1448  2.0896  0.7266
 4484SOL    HW225089   3.353   2.516   0.535  1.8851  2.8552 -1.4992
 4485SOL     OW25090   0.557   4.490   4.783 -0.3436  0.0959  0.1924
 4485SOL    HW125091   0.579   4.399   4.764  1.6259  1.1813 -2.8049
 4485SOL    HW225092   0.587   4.539   4.706 -1.6562 -0.5688 -0.7476
 4486SOL     OW25093   4.686   0.185   5.512  0.2372 -0.4136  0.3814
 4486SOL    HW125094   4.718   0.275   5.504 -2.0295  0.3408 -0.4107
 4486SOL    HW225095   0.026   0.130   5.529  0.0717 -0.2037  1.8175
 4487SOL     OW25096   1.827   2.707  15.331 -0.8431  0.4131  0.2596
 4487SOL    HW125097   1.797   2.642  15.395  2.1389 -0.7866  0.4401
 4487SOL    HW225098   1.876   2.769  15.385  2.1947 -1.5688 -0.1895
 4488SOL     OW25099   0.788   0.366   1.520 -0.7199  0.2853  0.2358
 4488SOL    HW125100   0.860   0.302   1.523 -1.2035 -0.1797  1.7324
 4488SOL    HW225101   0.788   0.389   1.427  0.3146 -2.8239 -0.5414
 4489SOL     OW25102   3.101   3.557  10.651 -0.6011 -0.8210  0.2770
 4489SOL    HW125103   3.086   3.636  10.600  1.8500  0.0670  0.9419
 4489SOL    HW225104   3.104   3.490  10.582 -2.8823 -1.2809  0.6071
 4490SOL     OW25105   3.681   4.141  10.231  0.5151 -0.2174  0.2068
 4490SOL    HW125106   3.748   4.082  10.196 -0.4443 -1.5926  0.7123
 4490SOL    HW225107   3.650   4.082  10.299 -0.4030 -1.4522 -1.2753
 4491SOL     OW25108   2.491   2.978   5.369  0.2636  0.1548  0.0785
 4491SOL    HW125109   2.456   2.895   5.400  0.7417 -0.3454 -0.6936
 4491SOL    HW225110   2.584   2.976   5.393 -0.0508  1.3491  1.3788
 4492SOL     OW25111   2.012   4.730   8.851 -0.0874 -0.2635 -0.2697
 4492SOL    HW125112   2.070   4.684   8.912  1.2135  1.4414 -0.2507
 4492SOL    HW225113   1.928   4.703   8.888  0.8827 -0.2292  2.0022
 4493SOL     OW25114   1.767   0.578   0.818 -0.3088  0.1348  0.1853
 4493SOL    HW125115   1.692   0.626   0.782  0.8335  2.4629  0.9493
 4493SOL    HW225116   1.846   0.611   0.777 -1.8550  1.2874 -1.8547
 4494SOL     OW25117   4.256   2.877   4.545  0.5031  0.6360 -0.3787
 4494SOL    HW125118   4.193   2.828   4.596  1.2412 -1.4058 -1.4249
 4494SOL    HW225119   4.200   2.928   4.487 -0.8473  0.4722  0.8069
 4495SOL     OW25120   2.674   0.682   8.796  0.3234  0.5130  0.6087
 4495SOL    HW125121   2.611   0.754   8.788  0.7331  0.8819  0.6883
 4495SOL    HW225122   2.682   0.659   8.703  0.1732 -0.9015  0.9573
 4496SOL     OW25123   0.228   1.075  15.454  0.0543  0.0930 -0.0556
 4496SOL    HW125124   0.226   1.003  15.390  1.7903 -1.3162  1.4619
 4496SOL    HW225125   0.319   1.102  15.462  0.0196 -0.5357  2.4019
 4497SOL     OW25126   0.548   3.162   7.131 -1.1361 -0.2990  0.5073
 4497SOL    HW125127   0.624   3.199   7.176  0.6123 -5.0819  1.5729
 4497SOL    HW225128   0.483   3.165   7.201 -0.3690 -0.0715  1.2114
 4498SOL     OW25129   0.297   3.624   9.455 -0.2915 -0.3931 -0.0805
 4498SOL    HW125130   0.262   3.679   9.385 -0.3989 -3.0545 -2.1089
 4498SOL    HW225131   0.386   3.658   9.464 -1.0756  1.8248 -0.7203
 4499SOL     OW25132   3.982   2.197   3.121  0.0858 -0.2958 -0.2942
 4499SOL    HW125133   3.962   2.280   3.165  1.7486  1.0715 -2.1287
 4499SOL    HW225134   4.023   2.223   3.038 -0.1979 -1.5087 -0.8193
 4500SOL     OW25135   4.116   0.818   6.968  0.6524 -0.0345  0.4477
 4500SOL    HW125136   4.094   0.894   6.915 -2.7514 -0.4067  1.3246
 4500SOL    HW225137   4.064   0.743   6.941  0.6326  0.9654 -2.2389
 4501SOL     OW25138   4.524   0.551   3.234 -0.0901 -0.3518  0.0815
 4501SOL    HW125139   4.590   0.533   3.167  0.4896  1.8582  0.0714
 4501SOL    HW225140   4.464   0.612   3.190  0.3528  0.6319  0.8391
 4502SOL     OW25141   3.711   2.666   7.918 -0.0419  0.3583  0.1691
 4502SOL    HW125142   3.647   2.635   7.982  1.6258 -1.4095  0.9745
 4502SOL    HW225143   3.780   2.607   7.949  0.5184  0.8209 -0.2042
 4503SOL     OW25144   2.843   3.640   9.219 -0.4914  0.4208 -0.1657
 4503SOL    HW125145   2.862   3.558   9.263  0.1215  0.6586  0.0093
 4503SOL    HW225146   2.748   3.630   9.218 -0.4355 -0.1831  0.4849
 4504SOL     OW25147   3.609   3.753   7.482 -0.1538  0.0008  0.0134
 4504SOL    HW125148   3.568   3.669   7.461 -2.3917  1.0805  0.0007
 4504SOL    HW225149   3.701   3.737   7.462  0.1812  1.6130  0.2757
 4505SOL     OW25150   1.168   2.360   4.576 -0.2445  0.6090  0.2037
 4505SOL    HW125151   1.141   2.330   4.663 -1.3350 -0.0198 -0.3566
 4505SOL    HW225152   1.083   2.360   4.533 -0.1770  0.7762  0.0716
 4506SOL     OW25153   3.577   1.970  12.949 -0.4447 -0.1642  0.0363
 4506SOL    HW125154   3.591   2.061  12.921 -0.8642  0.1890  0.9912
 4506SOL    HW225155   3.541   1.996  13.034  1.3303  3.3820 -0.2772
 4507SOL     OW25156   3.525   0.349   4.882  0.0347  0.0442  0.2954
 4507SOL    HW125157   3.445   0.399   4.896  0.6261  0.6541  1.5534
 4507SOL    HW225158   3.581   0.414   4.841  1.5355  0.1882  2.5715
 4508SOL     OW25159   1.779   1.708   9.185  0.2302  0.0325 -0.2389
 4508SOL    HW125160   1.731   1.786   9.214 -2.0692 -0.1795 -3.4271
 4508SOL    HW225161   1.710   1.658   9.141 -0.2826 -0.4043  1.0769
 4509SOL     OW25162   2.597   1.653  11.962  0.3873 -0.2261  0.2915
 4509SOL    HW125163   2.517   1.703  11.953 -0.5802 -2.3733 -3.1652
 4509SOL    HW225164   2.617   1.654  12.055 -2.2535  3.3600  0.8034
 4510SOL     OW25165   1.014   2.371   9.003  0.6219 -0.1272 -0.3377
 4510SOL    HW125166   1.096   2.323   8.990 -0.0463 -1.2843 -0.2661
 4510SOL    HW225167   0.991   2.346   9.092 -3.2108  0.2906 -1.2159
 4511SOL     OW25168   2.313   1.755   1.892  0.7441  0.2015 -0.1309
 4511SOL    HW125169   2.310   1.661   1.876 -0.2040  0.6026 -2.3550
 4511SOL    HW225170   2.296   1.798   1.808  0.6860  0.6262  0.0957
 4512SOL     OW25171   3.557   1.085   7.778  0.3391 -0.2029  0.0882
 4512SOL    HW125172   3.538   1.029   7.703  0.8426  0.4600 -0.5386
 4512SOL    HW225173   3.627   1.140   7.743  0.6453 -1.2917 -1.0196
 4513SOL     OW25174   2.849   4.010   4.461 -0.1135  0.1540 -0.5101
 4513SOL    HW125175   2.870   4.002   4.368 -1.2218  2.5357 -0.9731
 4513SOL    HW225176   2.838   4.105   4.467 -1.0062 -0.0434  1.0787
 4514SOL     OW25177   3.329   1.559   6.388  0.3883  0.1734 -0.1619
 4514SOL    HW125178   3.305   1.615   6.462  1.2299  1.7392 -1.0660
 4514SOL    HW225179   3.420   1.579   6.366 -0.0950  3.5957  0.8473
 4515SOL     OW25180   2.926   1.855   0.283  0.0708  0.1178 -0.6476
 4515SOL    HW125181   3.005   1.905   0.305  0.1976 -2.9652  5.8663
 4515SOL    HW225182   2.891   1.850   0.372  1.4300 -4.4009 -0.3720
 4516SOL     OW25183   1.304   1.515   4.930 -0.0826  0.1655  0.7320
 4516SOL    HW125184   1.244   1.449   4.965 -0.6650 -0.1058 -0.8076
 4516SOL    HW225185   1.383   1.461   4.919 -0.3941  0.6310 -3.5775
 4517SOL     OW25186   3.668   3.420   0.127 -0.2411  0.5925 -0.0415
 4517SOL    HW125187   3.596   3.362   0.151 -0.9936  1.0284 -1.2678
 4517SOL    HW225188   3.683   3.393   0.036  0.9352  2.0463 -0.2825
 4518SOL     OW25189   3.160   1.612   5.594  0.0443  0.2374  0.0952
 4518SOL    HW125190   3.218   1.538   5.612 -2.2188 -1.4133  0.6709
 4518SOL    HW225191   3.169   1.663   5.675 -0.3003  0.9369 -0.3089
 4519SOL     OW25192   1.689   2.256   2.834 -0.4708  0.0105  0.0981
 4519SOL    HW125193   1.719   2.283   2.921 -1.1488  2.2171 -0.3592
 4519SOL    HW225194   1.615   2.315   2.820  0.4146  0.7101 -1.6281
 4520SOL     OW25195   3.289   3.441   6.290 -0.1555 -0.1659 -0.1642
 4520SOL    HW125196   3.309   3.414   6.200  2.0316 -1.1747  0.6505
 4520SOL    HW225197   3.199   3.409   6.300 -0.2488  0.4823  1.0649
 4521SOL     OW25198   1.533   4.345  12.649  0.0966  0.0914 -0.3334
 4521SOL    HW125199   1.622   4.360  12.617  0.6959 -3.3814 -0.3166
 4521SOL    HW225200   1.542   4.250  12.659 -3.5887 -0.3577 -1.0486
 4522SOL     OW25201   4.482   2.493   8.727  1.1442 -0.0497 -0.2176
 4522SOL    HW125202   4.425   2.539   8.788 -0.0350  0.2712 -1.5666
 4522SOL    HW225203   4.545   2.449   8.784  3.2525  0.7185 -1.9412
 4523SOL     OW25204   4.445   1.112   1.262  0.3107  0.5792  0.5127
 4523SOL    HW125205   4.476   1.023   1.249  1.4005  1.2681 -1.6324
 4523SOL    HW225206   4.379   1.124   1.194 -0.1313 -2.7767  0.3774
 4524SOL     OW25207   2.756   3.131   2.266 -0.5282  0.4885 -0.2858
 4524SOL    HW125208   2.695   3.181   2.211 -1.4065 -0.7756 -0.4514
 4524SOL    HW225209   2.800   3.204   2.310 -0.8008  1.4010 -1.5036
 4525SOL     OW25210   4.480   1.691   6.883 -0.2006  0.5461  0.0679
 4525SOL    HW125211   4.454   1.622   6.944  0.6045  0.3705  0.2079
 4525SOL    HW225212   4.535   1.647   6.819 -2.4255 -0.0769 -1.4476
 4526SOL     OW25213   3.692   0.445   5.417 -0.6672  0.1820 -0.2506
 4526SOL    HW125214   3.734   0.359   5.419 -1.7515 -0.3449 -0.3129
 4526SOL    HW225215   3.619   0.439   5.478 -1.5209  2.8035 -1.0244
 4527SOL     OW25216   4.128   3.854   6.871 -0.5531  0.1589  0.0446
 4527SOL    HW125217   4.047   3.828   6.828  0.7004 -1.8378 -1.1314
 4527SOL    HW225218   4.192   3.837   6.801 -0.5669  1.8796 -0.3971
 4528SOL     OW25219   4.610   3.132  15.304  0.5849 -0.4833  0.1254
 4528SOL    HW125220   4.575   3.193  15.239  2.4033  0.3595 -0.0505
 4528SOL    HW225221   4.617   3.051  15.254  0.6748 -0.2542 -0.2362
 4529SOL     OW25222   3.119   1.395  11.765  0.3518 -0.7327 -0.2398
 4529SOL    HW125223   3.190   1.330  11.770  0.2419 -0.8336  0.0642
 4529SOL    HW225224   3.070   1.378  11.846 -1.9397 -0.8666 -1.6431
 4530SOL     OW25225   2.419   2.253   3.520 -0.0070 -0.1364 -0.1001
 4530SOL    HW125226   2.500   2.258   3.469  1.7403 -0.6069  2.6525
 4530SOL    HW225227   2.405   2.158   3.524 -3.6266  0.4624  0.9379
 4531SOL     OW25228   0.823   0.856  11.828  0.3170  0.8429  0.4065
 4531SOL    HW125229   0.886   0.818  11.767  1.1188  1.9303  0.5508
 4531SOL    HW225230   0.839   0.802  11.906  0.9467  1.5570  0.7718
 4532SOL     OW25231   3.507   1.595   6.978 -0.1422  0.1248  0.4550
 4532SOL    HW125232   3.581   1.583   6.918 -1.0930  1.1188 -0.9080
 4532SOL    HW225233   3.473   1.506   6.985  1.7568 -0.8705 -3.1904
 4533SOL     OW25234   4.356   2.919  16.603  0.1724  0.2348 -0.2802
 4533SOL    HW125235   4.435   2.968  16.578  1.1350 -1.5331 -0.7087
 4533SOL    HW225236   4.398   2.840  16.636  2.8911  1.3605 -0.9732
 4534SOL     OW25237   1.419   2.289   4.051 -0.1938 -0.1641  0.3843
 4534SOL    HW125238   1.483   2.255   4.113 -0.3670 -0.9773  0.1254
 4534SOL    HW225239   1.348   2.316   4.109 -0.2180 -0.6828  0.5957
 4535SOL     OW25240   0.269   1.657  12.408  0.1642  0.0963 -0.0761
 4535SOL    HW125241   0.217   1.613  12.341  0.7277 -1.6427  0.6084
 4535SOL    HW225242   0.331   1.585  12.420  0.1880  0.1958  0.4020
 4536SOL     OW25243   1.500   0.111   3.481  0.5118 -0.6083 -0.2637
 4536SOL    HW125244   1.441   0.083   3.411 -0.0967  2.2553 -0.9014
 4536SOL    HW225245   1.457   0.081   3.561 -0.1436  1.1402  0.0315
 4537SOL     OW25246   3.707   2.100  11.539 -0.6553  0.1269  0.6380
 4537SOL    HW125247   3.798   2.071  11.536 -0.7438 -0.2060  1.1377
 4537SOL    HW225248   3.718   2.194  11.550 -2.0970  0.3747 -0.0177
 4538SOL     OW25249   1.093   3.916  12.731 -0.2883 -0.2466 -0.2132
 4538SOL    HW125250   1.014   3.944  12.777  0.3054 -0.9295  1.1928
 4538SOL    HW225251   1.141   3.999  12.736 -0.2953 -0.2850  0.3958
 4539SOL     OW25252   2.897   0.388   1.270 -0.1707 -0.1840  0.2842
 4539SOL    HW125253   2.980   0.392   1.222  0.1999 -2.0275  0.7724
 4539SOL    HW225254   2.881   0.294   1.273  0.5696 -0.3586 -0.9861
 4540SOL     OW25255   2.178   0.268  17.353  0.2467  0.2343 -0.5079
 4540SOL    HW125256   2.087   0.253  17.377 -0.0268  1.5601 -0.6909
 4540SOL    HW225257   2.170   0.352  17.307  2.0606  1.1415  0.8012
 4541SOL     OW25258   0.721   3.746   8.428 -0.2586  0.0870  0.2055
 4541SOL    HW125259   0.660   3.758   8.501  0.0604 -2.5789  0.9418
 4541SOL    HW225260   0.775   3.674   8.461  2.4939  1.0177 -2.2202
 4542SOL     OW25261   4.085   3.853  17.040  0.3786  0.2679  0.7015
 4542SOL    HW125262   4.095   3.893  17.127  3.4833  0.2357  0.3570
 4542SOL    HW225263   3.991   3.860  17.052 -0.0142  2.0556 -3.5580
 4543SOL     OW25264   0.031   1.242   9.815  0.3776  0.4788  0.2637
 4543SOL    HW125265   0.083   1.203   9.886 -0.8271  1.0573  1.4642
 4543SOL    HW225266   0.058   1.333   9.827  1.9202 -0.1025  1.1704
 4544SOL     OW25267   3.791   3.052   3.108 -0.2017  0.2084 -0.2791
 4544SOL    HW125268   3.717   3.093   3.151  0.7408  1.6104  0.0086
 4544SOL    HW225269   3.845   3.126   3.081 -0.9833  1.1766  0.8234
 4545SOL     OW25270   2.362   2.640   5.420  0.1083  0.6817 -0.1076
 4545SOL    HW125271   2.317   2.688   5.350 -2.0775 -2.1338 -0.6642
 4545SOL    HW225272   2.333   2.549   5.411  0.7839  0.5213 -0.6902
 4546SOL     OW25273   3.828   1.138  11.468  0.2753 -0.1499  0.5894
 4546SOL    HW125274   3.817   1.152  11.374 -0.0916 -1.6961  0.3945
 4546SOL    HW225275   3.842   1.231  11.485 -1.1480  0.4558 -1.5609
 4547SOL     OW25276   3.299   4.021  12.656 -0.5761  0.2567  0.2790
 4547SOL    HW125277   3.317   4.046  12.565  1.5601  0.5955  0.7810
 4547SOL    HW225278   3.208   4.048  12.667 -0.7182  0.7631 -2.0270
 4548SOL     OW25279   2.911   1.022   4.644  0.1915 -0.2366 -0.2279
 4548SOL    HW125280   2.958   0.990   4.720  0.6181 -1.0204 -0.8260
 4548SOL    HW225281   2.984   1.021   4.582 -0.1706 -4.0638 -0.5587
 4549SOL     OW25282   0.008   3.252   4.720  0.0367 -0.3982  0.3584
 4549SOL    HW125283   0.073   3.186   4.697 -1.5377 -2.0977  0.7568
 4549SOL    HW225284   4.699   3.262   4.636 -1.1270 -0.5574  0.9590
 4550SOL     OW25285   4.296   3.516   4.261 -0.1339  0.8596  0.5304
 4550SOL    HW125286   4.383   3.527   4.223 -0.8186 -1.9170 -1.8244
 4550SOL    HW225287   4.294   3.597   4.312 -0.5168  0.2814  1.4194
 4551SOL     OW25288   3.825   2.123   8.199 -0.1284 -0.5406 -0.0490
 4551SOL    HW125289   3.852   2.095   8.112  0.2204  2.3972 -0.8729
 4551SOL    HW225290   3.912   2.115   8.239 -1.4439 -1.5246  2.6179
 4552SOL     OW25291   1.224   0.373   6.871  0.1830  0.1238 -0.0686
 4552SOL    HW125292   1.278   0.365   6.949 -0.7366 -3.2523  0.2500
 4552SOL    HW225293   1.294   0.398   6.810 -0.5537 -1.3240 -1.5248
 4553SOL     OW25294   0.718   2.449   1.341  0.5619 -0.2948 -0.0955
 4553SOL    HW125295   0.682   2.433   1.429  2.1721  1.8380  0.9374
 4553SOL    HW225296   0.776   2.373   1.348 -0.9739 -1.6860 -2.5366
 4554SOL     OW25297   2.500   0.602  13.525 -0.0816 -0.7533 -0.4899
 4554SOL    HW125298   2.550   0.606  13.606  1.2351 -2.8637 -1.2187
 4554SOL    HW225299   2.462   0.514  13.533  0.2429 -0.7352  1.4109
 4555SOL     OW25300   2.979   1.270   9.141  0.1121  0.1721  0.2092
 4555SOL    HW125301   3.033   1.349   9.132  0.4081 -0.2592 -1.8280
 4555SOL    HW225302   2.917   1.294   9.071  1.7304  2.2409 -0.5284
 4556SOL     OW25303   1.130   4.443   4.501  0.0916  0.3653 -0.4918
 4556SOL    HW125304   1.036   4.457   4.492  0.3028  2.6691  0.8915
 4556SOL    HW225305   1.148   4.501   4.575 -1.1567  0.2804 -0.1228
 4557SOL     OW25306   0.510   3.165   2.929 -0.2841  0.5583 -0.6445
 4557SOL    HW125307   0.541   3.214   2.852  1.3514 -0.2458 -0.4960
 4557SOL    HW225308   0.423   3.198   2.951 -1.0624 -1.5067 -0.5556
 4558SOL     OW25309   3.192   0.213   4.778  0.3940  0.4624  0.6504
 4558SOL    HW125310   3.126   0.269   4.820 -1.7853 -1.5450 -0.1143
 4558SOL    HW225311   3.174   0.245   4.689 -0.5257  1.3554  1.1614
 4559SOL     OW25312   3.733   2.623   2.049 -0.4081 -0.1455  0.3962
 4559SOL    HW125313   3.769   2.657   2.130  3.1566 -2.9329 -0.0187
 4559SOL    HW225314   3.638   2.628   2.060 -0.1455  1.6019  1.8339
 4560SOL     OW25315   0.773   0.598   8.758 -0.3887  0.5359 -0.2695
 4560SOL    HW125316   0.866   0.588   8.738 -0.0326 -0.3231  1.7390
 4560SOL    HW225317   0.736   0.513   8.735 -0.4213  0.2381  0.8508
 4561SOL     OW25318   1.213   1.065   2.785  0.4325 -0.2969 -0.3797
 4561SOL    HW125319   1.166   1.145   2.810  1.5337 -0.4542  2.3053
 4561SOL    HW225320   1.236   1.041   2.875  1.7334  1.8175 -0.1244
 4562SOL     OW25321   4.155   3.670   4.995 -0.0493  0.2318  0.7603
 4562SOL    HW125322   4.095   3.738   5.024  0.7361  1.5847 -0.7937
 4562SOL    HW225323   4.246   3.698   5.006 -0.5195  1.9023  0.3168
 4563SOL     OW25324   2.394   3.231   2.783 -0.0090  0.2075  0.0896
 4563SOL    HW125325   2.343   3.286   2.841  1.0015  1.5868 -0.3410
 4563SOL    HW225326   2.375   3.138   2.795 -1.4486  0.8147  2.3935
 4564SOL     OW25327   0.145   2.722   5.541 -0.1158 -0.3113 -0.6070
 4564SOL    HW125328   0.113   2.739   5.452  1.2879  1.6350 -0.7431
 4564SOL    HW225329   0.086   2.772   5.598  0.2000 -0.5478 -0.0714
 4565SOL     OW25330   0.962   3.109  10.947  0.0361  0.0554 -0.6694
 4565SOL    HW125331   1.047   3.091  10.988 -1.3332 -0.0483  2.1051
 4565SOL    HW225332   0.935   3.175  11.011 -0.9146 -1.5589  0.5953
 4566SOL     OW25333   2.119   4.016  13.856 -0.0589 -0.3174  0.0648
 4566SOL    HW125334   2.130   4.024  13.951  1.0981 -2.5137  0.1094
 4566SOL    HW225335   2.153   3.928  13.843  0.7589 -0.0127  0.1643
 4567SOL     OW25336   4.191   1.226   0.792 -0.2400  0.0234  0.3899
 4567SOL    HW125337   4.231   1.300   0.746 -0.3115 -0.2061 -0.0466
 4567SOL    HW225338   4.130   1.204   0.722  1.1756 -1.6943 -0.3065
 4568SOL     OW25339   3.192   0.271   0.618 -0.0781  0.0306 -0.1076
 4568SOL    HW125340   3.183   0.366   0.618 -3.8293 -0.3090 -0.4240
 4568SOL    HW225341   3.249   0.246   0.544 -0.2863  0.9768 -0.5845
 4569SOL     OW25342   1.889   3.442   4.476 -0.2377  0.2130  0.0596
 4569SOL    HW125343   1.959   3.455   4.540  0.5980 -0.3316 -0.7476
 4569SOL    HW225344   1.842   3.525   4.474 -1.9059 -0.7843 -2.2427
 4570SOL     OW25345   0.200   0.236  17.322 -0.4950  0.2091  0.1312
 4570SOL    HW125346   0.166   0.223  17.411  1.2350  4.9415  1.4771
 4570SOL    HW225347   0.207   0.145  17.293 -0.3916  0.3990 -0.4279
 4571SOL     OW25348   3.457   0.845   6.263 -0.1009  0.0213 -0.0911
 4571SOL    HW125349   3.443   0.864   6.171 -3.3614  0.7871  0.5561
 4571SOL    HW225350   3.509   0.766   6.248  0.1545  0.1859 -0.0703
 4572SOL     OW25351   1.442   0.314   5.298 -0.0844  0.3256 -0.0074
 4572SOL    HW125352   1.515   0.290   5.241 -0.6259 -0.7452 -0.2518
 4572SOL    HW225353   1.377   0.275   5.240 -0.0462 -0.2262  0.3187
 4573SOL     OW25354   2.938   4.505  10.774 -0.5097 -0.1160  0.0507
 4573SOL    HW125355   2.969   4.561  10.845  1.9226  0.7565 -1.7192
 4573SOL    HW225356   3.013   4.449  10.754  0.2257  0.9932 -0.2603
 4574SOL     OW25357   0.905   4.343   1.817 -0.1935  0.0602 -0.0919
 4574SOL    HW125358   0.852   4.296   1.752 -0.5286 -1.0048  0.9532
 4574SOL    HW225359   0.973   4.283   1.849 -1.8494 -0.6896  1.9779
 4575SOL     OW25360   2.387   0.501  14.614 -0.1390  0.4051  0.2213
 4575SOL    HW125361   2.364   0.564  14.546 -0.1995 -0.2192 -0.3410
 4575SOL    HW225362   2.482   0.504  14.610 -0.1112 -0.7212  0.0842
 4576SOL     OW25363   0.031   4.363  10.416 -0.2533 -0.6549  0.2489
 4576SOL    HW125364   0.059   4.278  10.382 -1.0735 -1.5063  1.7042
 4576SOL    HW225365   0.052   4.357  10.510  0.6016  4.0945  0.3828
 4577SOL     OW25366   3.976   0.721   8.022  1.2709 -0.0900 -0.2177
 4577SOL    HW125367   3.888   0.709   7.985  0.1030 -0.2994  2.6064
 4577SOL    HW225368   3.964   0.807   8.064  0.2075  0.8731 -2.4963
 4578SOL     OW25369   3.370   0.300  10.258 -0.5700 -0.1028 -0.2378
 4578SOL    HW125370   3.431   0.372  10.244  0.1559 -0.9533 -1.3732
 4578SOL    HW225371   3.355   0.295  10.353  1.9613 -0.9933  0.1107
 4579SOL     OW25372   2.086   3.813   6.652 -0.1089  0.1837 -0.4233
 4579SOL    HW125373   2.134   3.791   6.733 -0.4946  2.0620  0.3021
 4579SOL    HW225374   2.115   3.737   6.601 -0.2942  0.5207 -1.0175
 4580SOL     OW25375   4.622   2.983  10.341 -0.5459 -0.2063  0.1370
 4580SOL    HW125376   4.660   3.012  10.425  0.5048 -0.5810 -0.2032
 4580SOL    HW225377   4.532   3.015  10.342 -0.2718  0.5943 -1.1048
 4581SOL     OW25378   3.155   0.493   8.308 -0.3353 -0.3212 -0.4678
 4581SOL    HW125379   3.172   0.488   8.213 -1.4842 -0.5542 -0.6647
 4581SOL    HW225380   3.244   0.514   8.335 -1.1422  1.5976  0.7098
 4582SOL     OW25381   3.634   2.414   6.369  0.2914 -0.0451  0.0730
 4582SOL    HW125382   3.548   2.373   6.367 -0.4367  1.5283 -0.7658
 4582SOL    HW225383   3.613   2.488   6.312 -0.4539  0.8264  1.5050
 4583SOL     OW25384   2.124   4.127   2.677  0.1522 -0.2971 -0.0966
 4583SOL    HW125385   2.119   4.130   2.581  1.4090 -0.6992 -0.1840
 4583SOL    HW225386   2.200   4.076   2.704 -0.3291 -0.5410  0.7694
 4584SOL     OW25387   3.041   0.105  10.558  0.0779  0.2030  0.1119
 4584SOL    HW125388   3.115   0.044  10.552  0.8589  1.2277 -0.5829
 4584SOL    HW225389   3.029   0.093  10.652 -1.5471 -1.2383 -0.2647
 4585SOL     OW25390   0.043   3.622   1.975  0.2246  0.2065  0.4909
 4585SOL    HW125391   0.003   3.597   2.058 -1.3985  1.0374 -0.0293
 4585SOL    HW225392   0.123   3.570   1.971 -0.2223 -0.3721 -1.0588
 4586SOL     OW25393   1.543   0.418  14.482  0.5653  0.1668  0.1276
 4586SOL    HW125394   1.599   0.405  14.404  1.9795  0.4305  1.0919
 4586SOL    HW225395   1.609   0.388  14.545 -0.3155  1.6712  1.7442
 4587SOL     OW25396   1.354   4.602   8.471 -0.3388  0.1474  0.0144
 4587SOL    HW125397   1.394   4.652   8.399  0.0864  0.4898  0.4834
 4587SOL    HW225398   1.400   4.632   8.550  1.2189  0.9829 -1.2098
 4588SOL     OW25399   4.313   1.034   7.434  0.1673  0.3979  0.0667
 4588SOL    HW125400   4.299   0.944   7.403  1.1746 -0.4193  1.9700
 4588SOL    HW225401   4.391   1.055   7.384  0.7195 -0.1853  0.6827
 4589SOL     OW25402   0.385   3.826  17.646 -0.4764 -0.5092  0.3125
 4589SOL    HW125403   0.435   3.754  17.607 -1.2765 -1.4150  0.9877
 4589SOL    HW225404   0.432   3.863  17.721  1.1159  0.4675 -1.1601
 4590SOL     OW25405   3.923   1.899   6.506  0.2641  0.3216 -0.6952
 4590SOL    HW125406   3.858   1.829   6.507  0.2805  0.4159  3.8932
 4590SOL    HW225407   3.895   1.941   6.425 -1.3872  0.0279 -0.2723
 4591SOL     OW25408   0.751   3.175   7.656  0.2967 -0.0929  0.3523
 4591SOL    HW125409   0.839   3.153   7.687 -0.0127 -1.3764  0.3435
 4591SOL    HW225410   0.714   3.099   7.610 -2.0736  0.8233  0.7643
 4592SOL     OW25411   2.593   0.316  13.534  0.2411  0.0474  0.2492
 4592SOL    HW125412   2.671   0.321  13.589 -0.9493 -1.3495  2.0626
 4592SOL    HW225413   2.535   0.260  13.586  1.8915 -0.2407  1.7732
 4593SOL     OW25414   3.459   0.194   1.586 -0.3349  0.2198  0.2486
 4593SOL    HW125415   3.518   0.260   1.550  1.7417 -0.0254  3.2068
 4593SOL    HW225416   3.456   0.131   1.514  0.9963  1.4436 -0.8767
 4594SOL     OW25417   0.203   3.186   3.616  0.0635 -0.4369 -0.0891
 4594SOL    HW125418   0.235   3.177   3.705 -0.0751  0.7023  0.0757
 4594SOL    HW225419   0.117   3.144   3.626 -0.5497  0.5117 -1.2596
 4595SOL     OW25420   1.723   1.798   5.164 -0.2432  0.2735 -0.1410
 4595SOL    HW125421   1.697   1.877   5.116 -0.1857  0.2605 -0.1941
 4595SOL    HW225422   1.637   1.757   5.162  0.4951 -1.2598 -0.4449
 4596SOL     OW25423   0.901   0.519  10.702 -0.2459  0.1332  0.2533
 4596SOL    HW125424   0.820   0.469  10.709  0.4690 -0.9788  0.6859
 4596SOL    HW225425   0.941   0.505  10.788  0.6834  0.3071 -0.1517
 4597SOL     OW25426   4.528   0.408  11.858 -0.4066 -0.1289  0.8740
 4597SOL    HW125427   4.581   0.409  11.937 -0.1707 -0.3807  0.7182
 4597SOL    HW225428   4.563   0.330  11.816 -0.1542  0.6660 -0.3813
 4598SOL     OW25429   4.610   2.525  15.077 -0.1666  0.0439 -0.4274
 4598SOL    HW125430   4.565   2.475  15.009  0.1526 -0.4118 -0.2971
 4598SOL    HW225431   4.576   2.471  15.148 -1.3166 -0.7883 -1.6141
 4599SOL     OW25432   1.253   2.405   8.324  0.2014  0.3084 -0.5228
 4599SOL    HW125433   1.223   2.459   8.251  2.9074  0.7786 -1.3207
 4599SOL    HW225434   1.172   2.357   8.341  0.8475 -0.3681  0.6252
 4600SOL     OW25435   2.093   1.437   8.079  0.6992  0.1471 -0.1924
 4600SOL    HW125436   2.170   1.380   8.078  0.4325 -0.2050 -0.4751
 4600SOL    HW225437   2.102   1.480   8.164  1.7263  0.7903 -0.6274
 4601SOL     OW25438   0.228   1.527   6.700  0.0869  0.1513 -0.8418
 4601SOL    HW125439   0.189   1.591   6.641  1.8023  1.9895  0.0070
 4601SOL    HW225440   0.272   1.590   6.757  1.2892 -0.4437 -1.1018
 4602SOL     OW25441   2.311   1.391   6.506  0.0616  0.4134 -0.7876
 4602SOL    HW125442   2.315   1.415   6.598 -2.5027 -1.5037 -0.1660
 4602SOL    HW225443   2.373   1.318   6.505  1.1861  1.3905 -2.5962
 4603SOL     OW25444   4.698   4.640   3.677  0.4065  0.0603  0.2009
 4603SOL    HW125445   0.046   4.660   3.718  0.3752  0.3771  0.1096
 4603SOL    HW225446   4.701   4.544   3.684  0.1610 -0.0717 -1.6230
 4604SOL     OW25447   3.137   4.448  12.675 -0.1071  0.4885 -0.4717
 4604SOL    HW125448   3.166   4.365  12.714 -2.6825 -0.8427 -1.4105
 4604SOL    HW225449   3.149   4.428  12.582  0.2290  0.3997 -0.4102
 4605SOL     OW25450   0.393   2.035   0.842 -0.4226  0.3325  0.1307
 4605SOL    HW125451   0.364   2.124   0.822  1.2480  1.1456  1.3338
 4605SOL    HW225452   0.466   2.056   0.900 -0.3194 -3.4495  1.3680
 4606SOL     OW25453   3.013   1.981   3.890 -0.0250  0.0059 -0.0324
 4606SOL    HW125454   3.084   1.936   3.844  1.5664  1.4974  0.9576
 4606SOL    HW225455   3.013   2.070   3.854  0.7426 -0.4838 -1.2375
 4607SOL     OW25456   2.954   0.736   5.501  0.1241 -0.3344 -0.0171
 4607SOL    HW125457   2.990   0.760   5.586  1.6471 -0.8195 -0.5235
 4607SOL    HW225458   2.972   0.645   5.481  0.3748 -0.0771 -0.9636
 4608SOL     OW25459   2.337   1.465   1.958 -0.1384 -0.3051  1.1138
 4608SOL    HW125460   2.413   1.481   2.014  1.0385  0.0538 -0.6175
 4608SOL    HW225461   2.284   1.402   2.008  0.9707 -3.9890 -2.4588
 4609SOL     OW25462   1.712   4.526   1.590  0.8305  0.6201 -0.2076
 4609SOL    HW125463   1.714   4.430   1.583 -0.3606  0.7249 -2.0205
 4609SOL    HW225464   1.785   4.546   1.648  0.4444  2.8042 -0.4697
 4610SOL     OW25465   1.254   1.837   4.346 -0.4191  0.1741  0.1760
 4610SOL    HW125466   1.161   1.829   4.328 -0.3990  0.8330 -0.2176
 4610SOL    HW225467   1.262   1.853   4.440  3.2631 -1.4018  0.1498
 4611SOL     OW25468   0.751   2.459   4.302 -0.6792  0.0457  0.3663
 4611SOL    HW125469   0.685   2.434   4.238  0.5394 -0.1772 -0.8173
 4611SOL    HW225470   0.716   2.414   4.379  0.7347 -2.4142 -0.3973
 4612SOL     OW25471   4.164   4.503   7.309  0.1074  0.4739 -0.2189
 4612SOL    HW125472   4.215   4.426   7.332 -0.4599 -0.1190 -0.9543
 4612SOL    HW225473   4.148   4.492   7.216 -0.1078  1.3453 -0.2871
 4613SOL     OW25474   1.599   3.926  10.934 -0.5433  0.2916  0.0840
 4613SOL    HW125475   1.617   3.971  10.852  1.1168  3.1177  1.9850
 4613SOL    HW225476   1.673   3.958  10.987 -0.2267  0.0587 -0.2181
 4614SOL     OW25477   0.233   2.470   9.135  0.7668 -0.1620 -0.8356
 4614SOL    HW125478   0.187   2.386   9.130  0.3366  0.1270 -1.7822
 4614SOL    HW225479   0.227   2.475   9.230  0.4295  0.3233 -0.8792
 4615SOL     OW25480   4.298   1.511   0.779  0.3631 -0.4700 -0.0971
 4615SOL    HW125481   4.210   1.537   0.754 -0.0066 -1.3650  0.3115
 4615SOL    HW225482   4.347   1.543   0.702  1.3382 -1.8940 -0.0709
 4616SOL     OW25483   3.853   2.888   2.509  0.5917  0.1007 -0.0997
 4616SOL    HW125484   3.774   2.895   2.561  0.5594 -3.0686  0.3211
 4616SOL    HW225485   3.902   2.831   2.569  1.4954 -1.4930 -2.3311
 4617SOL     OW25486   2.694   4.148   4.232  0.2763  0.1417  0.0658
 4617SOL    HW125487   2.674   4.149   4.326 -0.1602  1.3123 -0.0450
 4617SOL    HW225488   2.650   4.228   4.203 -3.4835 -2.1688 -0.6511
 4618SOL     OW25489   2.063   4.676   6.953  0.0720  0.0495  0.0359
 4618SOL    HW125490   2.101   4.725   7.026 -0.3036  1.4450 -0.6866
 4618SOL    HW225491   1.977   4.653   6.990 -0.0367  1.2258  0.5257
 4619SOL     OW25492   1.580   4.183  15.026 -0.1244  0.1656  0.4739
 4619SOL    HW125493   1.578   4.095  15.063 -1.1684  0.1865  0.4897
 4619SOL    HW225494   1.596   4.171  14.932 -2.5298  3.2437 -0.3504
 4620SOL     OW25495   3.929   1.145   8.389  0.2979  0.6115  0.3918
 4620SOL    HW125496   3.883   1.125   8.471 -0.9268 -0.1429 -0.4938
 4620SOL    HW225497   3.941   1.240   8.395  2.0445  0.3697  0.7238
 4621SOL     OW25498   2.895   4.177   7.564  0.0860  0.3670 -0.3029
 4621SOL    HW125499   2.871   4.265   7.537 -2.7552  0.4440  2.3553
 4621SOL    HW225500   2.988   4.178   7.541  0.5248  2.0334  1.5831
 4622SOL     OW25501   2.545   2.345   8.918 -0.1746 -0.4081  0.3367
 4622SOL    HW125502   2.510   2.285   8.852 -0.0404 -1.4037  1.1643
 4622SOL    HW225503   2.592   2.412   8.868  2.8126 -1.8093  1.2621
 4623SOL     OW25504   0.443   0.008   4.440  0.2651 -0.0668  0.2074
 4623SOL    HW125505   0.391   4.706   4.370  1.5428 -1.4046 -0.0188
 4623SOL    HW225506   0.376   0.044   4.498 -1.4604  0.2288 -1.9768
 4624SOL     OW25507   1.358   3.491   7.088  0.2049 -0.0679 -0.2434
 4624SOL    HW125508   1.382   3.550   7.159  0.9888  0.0453 -0.6029
 4624SOL    HW225509   1.283   3.538   7.050 -0.4337 -0.1643  0.8940
 4625SOL     OW25510   1.086   4.199  13.577 -0.2530  0.2866  0.1072
 4625SOL    HW125511   1.053   4.289  13.570 -2.1874 -0.4484 -0.1065
 4625SOL    HW225512   1.062   4.167  13.490  1.5866  1.1046 -0.7121
 4626SOL     OW25513   2.628   2.102   0.379 -0.1822  0.3352  0.1457
 4626SOL    HW125514   2.701   2.131   0.434 -0.8314 -2.8347  2.6736
 4626SOL    HW225515   2.586   2.187   0.361 -0.3675  0.2436  0.1445
 4627SOL     OW25516   0.069   1.168   1.528 -0.8625  0.2096 -0.0572
 4627SOL    HW125517   0.133   1.205   1.468  0.2982  1.0448  1.6910
 4627SOL    HW225518   0.034   1.099   1.472  1.6672 -1.7436  0.7539
 4628SOL     OW25519   1.771   4.168   8.596  0.2410  1.0596  0.0942
 4628SOL    HW125520   1.744   4.260   8.596  2.4741  1.7031 -0.5064
 4628SOL    HW225521   1.754   4.158   8.690  0.6586  0.1877  0.0734
 4629SOL     OW25522   4.116   0.221   9.261  0.0550  0.0592  0.3112
 4629SOL    HW125523   4.121   0.288   9.193 -0.3163  0.1306  0.3566
 4629SOL    HW225524   4.021   0.228   9.270  0.0972  1.8545 -0.6334
 4630SOL     OW25525   1.585   2.097   6.796  0.0908 -0.2699  0.0131
 4630SOL    HW125526   1.579   2.121   6.888  2.6779 -0.9393  0.3577
 4630SOL    HW225527   1.601   2.187   6.767  0.3781 -0.2514  0.2331
 4631SOL     OW25528   1.923   3.399  17.281  0.4485  0.0053  0.3072
 4631SOL    HW125529   1.910   3.312  17.318 -1.3060 -0.3156 -1.0727
 4631SOL    HW225530   1.833   3.422  17.258  0.4791 -1.0680 -0.8393
 4632SOL     OW25531   4.589   2.030   7.549 -0.2314 -0.5652 -0.5380
 4632SOL    HW125532   4.499   2.062   7.560  0.4550  0.7040  1.3693
 4632SOL    HW225533   4.592   1.967   7.620  1.3709 -1.7339 -1.6369
 4633SOL     OW25534   2.966   3.275   3.432  0.2836  0.2040  0.6605
 4633SOL    HW125535   2.883   3.231   3.452  0.8299 -0.5218  1.3343
 4633SOL    HW225536   2.997   3.218   3.361 -1.0954  1.2551 -0.7872
 4634SOL     OW25537   4.257   2.068   7.068 -0.0487 -1.4560  0.4534
 4634SOL    HW125538   4.275   2.147   7.119 -1.9261 -0.5016 -0.3811
 4634SOL    HW225539   4.335   2.032   7.026 -0.1666 -1.4992  0.2729
 4635SOL     OW25540   0.060   1.268   8.308 -0.1538  0.6493  0.4465
 4635SOL    HW125541   0.116   1.288   8.233 -0.7682  1.8012  0.2878
 4635SOL    HW225542   4.725   1.221   8.264 -2.0623  1.0634  3.1336
 4636SOL     OW25543   0.299   2.320   7.278  0.1316  0.4605 -0.2236
 4636SOL    HW125544   0.262   2.393   7.327 -0.1562  1.4775 -1.9577
 4636SOL    HW225545   0.354   2.285   7.347  2.0831  1.3786 -1.3063
 4637SOL     OW25546   2.548   3.894  15.214  0.3393  0.4191 -0.3394
 4637SOL    HW125547   2.576   3.923  15.127 -0.0284  1.7232 -0.0262
 4637SOL    HW225548   2.508   3.974  15.249 -2.8968 -0.9378 -0.8714
 4638SOL     OW25549   4.388   0.362   7.735 -0.3424 -0.4157 -0.0278
 4638SOL    HW125550   4.322   0.313   7.686  1.4034 -3.1960  0.4084
 4638SOL    HW225551   4.368   0.348   7.827 -3.2658  0.5219 -0.5282
 4639SOL     OW25552   0.468   4.499  12.592 -0.2272 -0.0841 -0.2024
 4639SOL    HW125553   0.423   4.448  12.526 -0.9391 -0.4388  0.5592
 4639SOL    HW225554   0.524   4.431  12.629 -1.7076 -1.3671 -0.3503
 4640SOL     OW25555   2.683   4.406   4.714  0.3816 -0.4891  0.1924
 4640SOL    HW125556   2.635   4.342   4.767 -1.3305  2.1459  1.8329
 4640SOL    HW225557   2.616   4.472   4.730  0.0815 -1.1288  1.6074
 4641SOL     OW25558   2.847   0.423   4.114  0.2885 -0.3893  0.5988
 4641SOL    HW125559   2.915   0.480   4.077  1.2593 -0.7909  1.7640
 4641SOL    HW225560   2.838   0.365   4.039 -2.4216  0.2877  0.4034
 4642SOL     OW25561   2.533   3.542   6.822  0.1836 -0.2996 -0.3077
 4642SOL    HW125562   2.446   3.511   6.798  1.1568 -2.1629 -1.4560
 4642SOL    HW225563   2.509   3.583   6.905 -2.2485 -1.5079 -0.4176
 4643SOL     OW25564   4.272   1.043  17.405  0.0149 -0.3259 -0.4473
 4643SOL    HW125565   4.250   1.041  17.312 -3.1766  1.6235  0.2840
 4643SOL    HW225566   4.188   1.055  17.450  0.4406  0.1693  0.2249
 4644SOL     OW25567   0.477   3.581   5.631  0.1002  0.0457 -0.3617
 4644SOL    HW125568   0.535   3.557   5.703 -0.2394 -1.2423 -0.4995
 4644SOL    HW225569   0.503   3.510   5.572  2.5074  0.1204  0.6406
 4645SOL     OW25570   0.411   0.162   8.173  0.6701  0.3459  0.0732
 4645SOL    HW125571   0.478   0.195   8.114  0.2003  1.3789  0.1201
 4645SOL    HW225572   0.424   0.221   8.247  2.0634 -2.8111  2.3721
 4646SOL     OW25573   3.038   0.661   4.817 -0.4477  0.7657  0.2848
 4646SOL    HW125574   3.110   0.706   4.774  0.8693 -0.6034  1.0835
 4646SOL    HW225575   2.986   0.645   4.738  2.5767 -4.3006 -0.6494
 4647SOL     OW25576   1.156   4.408   1.005 -0.5902 -0.6893 -0.1758
 4647SOL    HW125577   1.136   4.501   0.996 -0.6322 -0.4881  1.9860
 4647SOL    HW225578   1.213   4.402   1.082  0.7258 -1.8578 -1.2473
 4648SOL     OW25579   1.018   2.566  11.950  0.3674 -0.2292  0.0856
 4648SOL    HW125580   0.992   2.498  12.012  0.3468  0.8956  1.3110
 4648SOL    HW225581   0.992   2.526  11.867  0.1291 -1.2230  0.6469
 4649SOL     OW25582   3.097   4.016  16.938  0.2750  0.1169 -0.2112
 4649SOL    HW125583   3.185   4.036  16.971 -0.1891  2.3994 -0.3028
 4649SOL    HW225584   3.070   3.951  17.002  1.1806  0.9635  1.0400
 4650SOL     OW25585   1.971   2.078   7.860 -0.8272 -0.0029  0.0607
 4650SOL    HW125586   1.990   2.102   7.950 -1.9579 -2.2041  0.8864
 4650SOL    HW225587   1.908   2.008   7.878 -0.4523 -0.1170  0.9180
 4651SOL     OW25588   2.432   2.619  13.950  0.1635  0.7242  0.0176
 4651SOL    HW125589   2.524   2.607  13.972  0.2681 -1.4119 -1.5783
 4651SOL    HW225590   2.444   2.668  13.869  0.4181  1.1812  0.3341
 4652SOL     OW25591   3.973   4.591   4.045  0.8322 -0.0389  0.1378
 4652SOL    HW125592   3.912   4.540   3.993 -0.4504  0.7378  0.8959
 4652SOL    HW225593   3.997   4.526   4.111  1.7832 -0.5258 -0.6921
 4653SOL     OW25594   1.887   0.594  10.616 -0.1018 -0.2169 -0.3562
 4653SOL    HW125595   1.814   0.622  10.670  0.5646 -1.0137  0.9508
 4653SOL    HW225596   1.922   0.679  10.589  1.0294 -0.0121  1.7638
 4654SOL     OW25597   1.590   1.105   5.069  0.2106 -0.0208  0.1247
 4654SOL    HW125598   1.558   1.037   5.127  1.2548 -0.4361  0.2187
 4654SOL    HW225599   1.589   1.179   5.129  0.7376 -0.8876  1.1899
 4655SOL     OW25600   4.445   0.928   3.195  0.6452  0.0742  0.6512
 4655SOL    HW125601   4.374   0.882   3.240  0.0121  2.0854  1.7629
 4655SOL    HW225602   4.413   1.019   3.198 -0.5720 -0.3557  0.7628
 4656SOL     OW25603   1.365   2.289  14.500 -0.2623  0.0226  0.6798
 4656SOL    HW125604   1.423   2.250  14.565  1.6541  1.0126 -0.4418
 4656SOL    HW225605   1.326   2.364  14.545 -0.2039  0.9402 -0.7829
 4657SOL     OW25606   3.570   3.616  13.208 -0.3149  0.4841  1.0641
 4657SOL    HW125607   3.500   3.609  13.273 -2.7612 -1.1879 -1.7355
 4657SOL    HW225608   3.634   3.555  13.245  0.7774  1.1416  0.2364
 4658SOL     OW25609   0.045   1.765   6.909 -0.2217  0.1572  0.3218
 4658SOL    HW125610   4.699   1.738   6.949 -1.5324  1.3103 -1.6117
 4658SOL    HW225611   0.108   1.760   6.982  0.4288  2.2541 -0.1034
 4659SOL     OW25612   0.117   4.102   8.234  0.0158 -0.8071 -0.3751
 4659SOL    HW125613   0.193   4.149   8.200  0.5520 -0.9877  0.5742
 4659SOL    HW225614   0.140   4.010   8.222  0.3624 -0.8469  0.5941
 4660SOL     OW25615   0.114   3.942  13.325  0.4421 -0.0729 -0.3956
 4660SOL    HW125616   0.204   3.971  13.312  0.9167 -1.5737 -0.3548
 4660SOL    HW225617   0.071   4.020  13.288  2.4372  0.8423 -0.8037
 4661SOL     OW25618   2.630   0.349   5.743  0.7299  0.7667 -0.2909
 4661SOL    HW125619   2.629   0.320   5.652 -0.8477  1.3006 -0.4590
 4661SOL    HW225620   2.566   0.421   5.748  2.0994  1.8581  1.6536
 4662SOL     OW25621   1.013   0.268  13.156  0.0898 -0.5561  0.1563
 4662SOL    HW125622   1.043   0.358  13.141 -1.1535 -0.3358 -1.0180
 4662SOL    HW225623   1.073   0.213  13.106  0.5057  0.9258 -0.9879
 4663SOL     OW25624   2.241   2.177  16.395  0.0542 -0.3983 -0.5268
 4663SOL    HW125625   2.173   2.196  16.329 -1.0338  0.4293  0.8439
 4663SOL    HW225626   2.208   2.226  16.470  0.1577  1.4785 -1.7161
 4664SOL     OW25627   0.916   1.249  16.778  0.0570 -0.0285  0.1497
 4664SOL    HW125628   0.848   1.299  16.733  0.1885  0.4654  0.4995
 4664SOL    HW225629   0.900   1.229  16.870 -2.0321  0.2119 -0.1813
 4665SOL     OW25630   2.567   3.454   7.169  0.2728  0.6210  0.1100
 4665SOL    HW125631   2.549   3.477   7.260 -3.0607 -1.5151 -0.0218
 4665SOL    HW225632   2.510   3.519   7.128 -0.0735  1.4362  1.8686
 4666SOL     OW25633   3.141   0.696   3.732  0.1718  0.0334 -0.2776
 4666SOL    HW125634   3.184   0.741   3.804  2.7419 -2.2798 -0.3502
 4666SOL    HW225635   3.214   0.639   3.707 -0.5230 -1.3993  0.9652
 4667SOL     OW25636   2.885   1.332   5.012  0.0419 -0.1159 -0.2331
 4667SOL    HW125637   2.908   1.245   5.045 -0.9388 -0.0549  0.6377
 4667SOL    HW225638   2.850   1.371   5.092  1.2934  0.0107  0.2530
 4668SOL     OW25639   1.460   2.439   2.833  0.0648  0.5329  0.1866
 4668SOL    HW125640   1.497   2.508   2.777  0.1945  0.4193  0.1327
 4668SOL    HW225641   1.380   2.413   2.789 -1.6326  0.5227  3.2495
 4669SOL     OW25642   0.967   0.175   5.070 -0.2246  0.0594  0.1265
 4669SOL    HW125643   1.004   0.201   4.986 -1.8399  0.5554 -0.4425
 4669SOL    HW225644   1.038   0.193   5.131  0.6623 -0.3292 -0.7953
 4670SOL     OW25645   2.999   0.137   4.125  0.4546  0.4907 -0.3497
 4670SOL    HW125646   2.980   0.184   4.044 -0.2573  1.2824  0.2813
 4670SOL    HW225647   2.917   0.094   4.147  0.3308  1.2909  0.7681
 4671SOL     OW25648   0.724   4.144  14.535  0.2348 -0.3150  0.5520
 4671SOL    HW125649   0.769   4.213  14.487 -2.9929  2.2757  1.2510
 4671SOL    HW225650   0.769   4.065  14.504  1.2698  0.0447  1.1298
 4672SOL     OW25651   3.108   1.782   8.787  0.8239  0.1634 -0.1850
 4672SOL    HW125652   3.099   1.696   8.828 -1.6877  0.4700 -0.0969
 4672SOL    HW225653   3.116   1.761   8.694 -1.0119 -0.3245 -0.2307
 4673SOL     OW25654   2.158   3.002   5.998 -0.5748 -0.4004 -0.3903
 4673SOL    HW125655   2.232   3.003   6.058 -1.0146  3.1159  0.1099
 4673SOL    HW225656   2.086   3.007   6.061 -0.1452 -4.1391  0.3977
 4674SOL     OW25657   0.851   1.900   7.568  0.0940  0.3879 -0.1477
 4674SOL    HW125658   0.933   1.939   7.599  0.6131 -1.3800  0.6661
 4674SOL    HW225659   0.878   1.867   7.482  0.9810  0.2568  0.1747
 4675SOL     OW25660   0.452   3.498   4.065  0.2896 -0.0556  0.1398
 4675SOL    HW125661   0.479   3.411   4.094 -0.5406 -0.1038  0.7579
 4675SOL    HW225662   0.479   3.495   3.973  0.6861 -0.2497  0.2612
 4676SOL     OW25663   3.547   1.062   2.945  0.6281 -0.0199  0.8076
 4676SOL    HW125664   3.590   1.124   3.002 -2.8997  0.9592  2.3983
 4676SOL    HW225665   3.573   1.089   2.857 -1.5461  0.5519  0.3436
 4677SOL     OW25666   0.961   1.810   6.835 -0.3592  0.3503  0.3174
 4677SOL    HW125667   0.971   1.730   6.888 -0.9033  0.9963  1.3955
 4677SOL    HW225668   0.960   1.763   6.752 -2.5517  1.2374 -0.1613
 4678SOL     OW25669   3.719   2.693  11.210 -0.1303  0.3589 -0.2236
 4678SOL    HW125670   3.778   2.664  11.141  2.1097  2.7029  0.7020
 4678SOL    HW225671   3.668   2.750  11.152 -1.7802 -2.8209 -1.9361
 4679SOL     OW25672   1.969   1.768  11.341  0.1021  0.2627  0.0434
 4679SOL    HW125673   1.984   1.786  11.434  2.6439 -0.3835 -0.2525
 4679SOL    HW225674   1.904   1.698  11.343 -1.5599  1.7233 -2.0988
 4680SOL     OW25675   4.468   0.361  13.111  0.5779  0.5342  0.4338
 4680SOL    HW125676   4.377   0.389  13.104  0.9975  0.8561 -3.8348
 4680SOL    HW225677   4.512   0.444  13.095 -0.6168  0.8079 -1.4188
 4681SOL     OW25678   3.430   1.380   1.957  0.0058  0.2219  0.0450
 4681SOL    HW125679   3.427   1.309   1.893 -2.9837 -0.9931  1.5747
 4681SOL    HW225680   3.446   1.337   2.041 -2.1708 -0.2008  0.2326
 4682SOL     OW25681   4.141   2.000   7.657 -0.0601 -0.1096  0.1851
 4682SOL    HW125682   4.096   1.917   7.644  1.3579 -0.8097 -0.2453
 4682SOL    HW225683   4.210   1.977   7.719  2.2693  2.2107 -1.5128
 4683SOL     OW25684   0.778   2.785   8.539 -0.3197 -0.1630 -0.2362
 4683SOL    HW125685   0.822   2.807   8.621  2.1598 -1.5082 -1.2009
 4683SOL    HW225686   0.688   2.794   8.572 -0.1086 -2.5906  1.0310
 4684SOL     OW25687   1.909   1.176   4.845  0.3029  0.2401  0.7431
 4684SOL    HW125688   1.870   1.099   4.804  2.3302 -0.9399  1.0362
 4684SOL    HW225689   1.999   1.149   4.829  0.1566  1.5587 -2.3568
 4685SOL     OW25690   1.084   4.011  10.531  0.1161  0.1235  0.1134
 4685SOL    HW125691   1.137   3.943  10.573 -0.6116  1.0102  2.4655
 4685SOL    HW225692   1.051   3.973  10.450  0.6079  0.3468 -0.1960
 4686SOL     OW25693   0.455   0.835   5.026 -0.2956 -0.0198 -0.1545
 4686SOL    HW125694   0.509   0.889   4.968  0.0916  0.4884  0.6765
 4686SOL    HW225695   0.380   0.841   4.967  0.6330 -0.2412 -1.3345
 4687SOL     OW25696   0.605   3.249  10.777 -0.5621 -0.0251  0.2999
 4687SOL    HW125697   0.530   3.262  10.719  0.6025  0.9513 -0.9625
 4687SOL    HW225698   0.560   3.239  10.861  0.7791 -1.6180  0.8284
 4688SOL     OW25699   2.742   0.478  10.707 -0.2781  0.1888 -0.0485
 4688SOL    HW125700   2.688   0.418  10.656  1.7652 -0.5034 -1.3646
 4688SOL    HW225701   2.720   0.553  10.651 -1.6658 -0.7363 -0.7297
 4689SOL     OW25702   4.411   2.236   1.454  0.8429 -0.6263 -0.1104
 4689SOL    HW125703   4.446   2.243   1.543 -0.2214  1.3239  0.1375
 4689SOL    HW225704   4.404   2.140   1.453 -0.6810 -0.5349  1.7086
 4690SOL     OW25705   0.333   3.517  15.238  0.2111 -0.4440  0.4002
 4690SOL    HW125706   0.261   3.578  15.256  0.0561  0.0591 -1.9259
 4690SOL    HW225707   0.328   3.463  15.317  0.6987  0.5280  1.0984
 4691SOL     OW25708   2.184   0.508   4.063  0.0949 -0.3291  0.3359
 4691SOL    HW125709   2.217   0.426   4.026  0.4447 -0.0438  0.0177
 4691SOL    HW225710   2.239   0.579   4.031  1.7693 -2.6085 -1.8212
 4692SOL     OW25711   3.199   4.141   4.611 -0.7051 -0.2725  0.4606
 4692SOL    HW125712   3.121   4.102   4.650 -2.0597  1.5527 -0.4542
 4692SOL    HW225713   3.167   4.227   4.585  0.6320 -0.5566 -2.0976
 4693SOL     OW25714   1.942   2.433  16.120 -0.7019  0.4414 -0.6740
 4693SOL    HW125715   1.943   2.499  16.188 -1.7772 -0.2767  0.0418
 4693SOL    HW225716   1.859   2.392  16.145 -2.0398  2.8959 -1.1477
 4694SOL     OW25717   3.556   1.383  11.423 -0.0805 -0.0636  0.0598
 4694SOL    HW125718   3.621   1.314  11.407 -0.6508 -0.9642  1.6465
 4694SOL    HW225719   3.472   1.337  11.418 -0.3392  0.5188 -0.9739
 4695SOL     OW25720   4.669   1.203   4.999  0.0968 -0.4974 -0.6192
 4695SOL    HW125721   4.595   1.236   5.050  0.0831 -1.0906 -0.2632
 4695SOL    HW225722   4.719   1.284   4.993  1.1862 -0.9890  1.6762
 4696SOL     OW25723   1.384   1.292   3.317 -0.9090 -0.4728 -0.1778
 4696SOL    HW125724   1.473   1.317   3.293 -1.6171  0.2057 -2.1076
 4696SOL    HW225725   1.382   1.282   3.412 -3.2284  0.8509 -0.0893
 4697SOL     OW25726   2.551   4.249   6.994 -0.2596 -0.0265  0.5108
 4697SOL    HW125727   2.613   4.213   7.058  2.2465  1.1188 -1.2329
 4697SOL    HW225728   2.470   4.213   7.028  1.1943 -1.1547  2.7657
 4698SOL     OW25729   0.802   1.620   7.863  0.0157  0.2310 -0.0670
 4698SOL    HW125730   0.760   1.539   7.834 -1.0576  0.9579 -0.5161
 4698SOL    HW225731   0.896   1.599   7.860  0.5056  2.6931 -1.4436
 4699SOL     OW25732   2.192   1.401   7.669  0.3580  0.0417  0.6212
 4699SOL    HW125733   2.188   1.489   7.707  3.3807  0.2785  0.3798
 4699SOL    HW225734   2.286   1.395   7.682  0.4811 -0.3317 -0.4572
 4700SOL     OW25735   2.819   4.462   1.588 -0.4934  0.2692  0.3761
 4700SOL    HW125736   2.764   4.516   1.645 -4.3734 -2.5977 -0.6416
 4700SOL    HW225737   2.891   4.521   1.565  0.0622 -0.4329  0.2824
 4701SOL     OW25738   4.312   1.513  15.583  0.2951  0.2626 -0.1597
 4701SOL    HW125739   4.290   1.514  15.489 -0.1429 -1.9779 -0.0629
 4701SOL    HW225740   4.355   1.429  15.598  0.2129  0.4193  0.8904
 4702SOL     OW25741   4.279   1.028   3.716  0.4139 -0.2352  0.1678
 4702SOL    HW125742   4.194   1.025   3.672  1.6240  0.3579 -2.2453
 4702SOL    HW225743   4.309   1.110   3.676 -1.6793  0.4997  0.0909
 4703SOL     OW25744   2.915   0.586  11.947 -0.3699 -0.5835  0.1270
 4703SOL    HW125745   2.852   0.552  12.010 -0.3850 -0.0175  0.4121
 4703SOL    HW225746   2.860   0.598  11.870  1.7911 -0.3064 -1.3864
 4704SOL     OW25747   3.520   2.440   3.529  0.1526 -0.0659  0.3107
 4704SOL    HW125748   3.561   2.484   3.455 -1.2658  0.4471 -0.1724
 4704SOL    HW225749   3.455   2.384   3.486  0.0206  2.7127 -3.0712
 4705SOL     OW25750   3.068   2.820  10.983 -0.9312 -0.2452  0.0931
 4705SOL    HW125751   3.083   2.751  11.048  0.9597 -0.5691 -0.6885
 4705SOL    HW225752   3.157   2.835  10.950 -1.0982  1.1738  0.2893
 4706SOL     OW25753   3.207   2.661   7.980  0.3195 -0.0452  0.0664
 4706SOL    HW125754   3.197   2.743   8.028 -1.2105  0.4568 -1.1026
 4706SOL    HW225755   3.131   2.658   7.921  1.0495 -1.4054 -0.8058
 4707SOL     OW25756   0.898   3.956  14.433  0.1790 -1.1618 -0.1410
 4707SOL    HW125757   0.944   3.935  14.352  0.0669  0.7548 -0.6938
 4707SOL    HW225758   0.949   3.900  14.492  1.1033  0.8013  0.9079
 4708SOL     OW25759   1.471   0.495   7.771  0.4704 -0.0937  0.2125
 4708SOL    HW125760   1.537   0.436   7.806 -0.2783 -2.2422 -1.9611
 4708SOL    HW225761   1.392   0.483   7.824  0.5045 -0.3237  0.2072
 4709SOL     OW25762   2.896   4.087  14.765  0.3042  0.1985  0.1984
 4709SOL    HW125763   2.986   4.111  14.789  1.0088 -0.5263 -1.6955
 4709SOL    HW225764   2.843   4.158  14.800  2.1125  0.8014  1.6966
 4710SOL     OW25765   0.068   1.715  14.457  0.1668  0.6250 -0.2770
 4710SOL    HW125766   4.716   1.680  14.444  0.8719 -1.0716 -0.5148
 4710SOL    HW225767   0.059   1.787  14.394 -1.8959 -0.0351 -0.7533
 4711SOL     OW25768   3.099   1.340   9.889 -0.3859  0.6594  0.2688
 4711SOL    HW125769   3.135   1.283   9.958  1.1912 -0.3195 -1.3716
 4711SOL    HW225770   3.122   1.429   9.916  0.5297  1.1628 -2.1846
 4712SOL     OW25771   4.492   0.812  11.632  0.3210  0.0506 -0.0458
 4712SOL    HW125772   4.523   0.870  11.702  2.2399  0.3083 -1.1130
 4712SOL    HW225773   4.402   0.792  11.657  0.8778  0.0972  1.9821
 4713SOL     OW25774   0.800   2.103   1.687  0.2338 -0.1330 -0.1029
 4713SOL    HW125775   0.788   2.033   1.750 -0.6889 -1.4438 -1.7375
 4713SOL    HW225776   0.875   2.145   1.729  1.6071 -2.9835  0.2535
 4714SOL     OW25777   2.348   0.804  10.573 -0.2339 -0.4243  0.1570
 4714SOL    HW125778   2.324   0.739  10.508 -1.9145  0.1245  0.2292
 4714SOL    HW225779   2.355   0.881  10.516 -3.0823 -0.9008 -0.8011
 4715SOL     OW25780   0.497   4.262  12.455  0.2282 -0.0588  0.1486
 4715SOL    HW125781   0.423   4.218  12.494 -1.3915  1.2840 -1.3833
 4715SOL    HW225782   0.566   4.253  12.520 -0.8297 -0.6206  1.1755
 4716SOL     OW25783   0.976   0.346   0.027  0.2899 -0.2338  0.4244
 4716SOL    HW125784   1.037   0.399  17.719 -2.9574  1.9999 -1.0928
 4716SOL    HW225785   0.928   0.409   0.081 -0.6678 -0.4826 -0.1335
 4717SOL     OW25786   4.463   2.147   8.351 -0.4595  0.0287  0.1855
 4717SOL    HW125787   4.483   2.222   8.296 -1.8512 -0.0531 -0.4355
 4717SOL    HW225788   4.369   2.157   8.365 -0.7485 -1.3753 -0.7179
 4718SOL     OW25789   2.583   0.559   3.468  0.1245  0.0764  0.0303
 4718SOL    HW125790   2.632   0.488   3.426 -1.5631 -2.9292  3.0604
 4718SOL    HW225791   2.638   0.636   3.464  0.5684 -0.2648 -0.3551
 4719SOL     OW25792   1.768   2.287   1.883  1.0612  0.1359 -0.1446
 4719SOL    HW125793   1.804   2.226   1.819 -0.8902 -2.2225  1.0087
 4719SOL    HW225794   1.837   2.290   1.950  1.5518 -0.8839 -0.6172
 4720SOL     OW25795   3.346   2.108   3.664 -0.1191 -0.5659 -0.2598
 4720SOL    HW125796   3.405   2.097   3.590  0.2271 -0.0137 -0.0686
 4720SOL    HW225797   3.403   2.159   3.720 -1.1427  0.3401 -0.0313
 4721SOL     OW25798   0.868   0.602   2.088  0.3365 -0.1919 -0.0050
 4721SOL    HW125799   0.842   0.616   2.179  0.8176  2.8565 -0.3550
 4721SOL    HW225800   0.946   0.656   2.076  0.3331 -0.4893 -1.4225
 4722SOL     OW25801   2.611   3.946   6.172  0.0229  0.1671 -0.2591
 4722SOL    HW125802   2.534   3.948   6.116 -1.2388 -1.2018  1.4421
 4722SOL    HW225803   2.582   4.009   6.237  1.5148  2.1807 -1.5446
 4723SOL     OW25804   1.192   4.238   6.917 -0.3043 -0.4682  0.0338
 4723SOL    HW125805   1.253   4.311   6.908 -0.1100 -0.7274 -0.7613
 4723SOL    HW225806   1.243   4.190   6.982 -1.0144 -0.8374  0.3123
 4724SOL     OW25807   0.296   3.669  15.548 -0.3486 -0.3478 -0.3532
 4724SOL    HW125808   0.231   3.643  15.483 -0.0090 -2.2944  0.0718
 4724SOL    HW225809   0.347   3.730  15.496  0.6825 -0.7934  0.1333
 4725SOL     OW25810   0.714   0.089   8.370  0.1725  0.6347  0.0139
 4725SOL    HW125811   0.701   0.169   8.320 -0.9465  0.4246 -0.0223
 4725SOL    HW225812   0.631   0.048   8.346  0.3784  0.1640  0.1020
 4726SOL     OW25813   2.662   4.183   2.268 -0.4394  0.4825  0.4260
 4726SOL    HW125814   2.717   4.173   2.190 -0.1626 -0.4288  0.7392
 4726SOL    HW225815   2.648   4.091   2.290 -0.7032 -0.0830 -2.0629
 4727SOL     OW25816   4.014   2.987   1.682  0.4916 -0.2465  0.0729
 4727SOL    HW125817   3.934   3.011   1.729 -0.2267  0.9885 -1.8040
 4727SOL    HW225818   4.071   2.996   1.759 -0.4800 -1.0403  0.8891
 4728SOL     OW25819   4.672   3.527   2.854 -0.1640 -0.3102 -0.2573
 4728SOL    HW125820   4.733   3.476   2.800 -0.6470  0.0838 -1.1805
 4728SOL    HW225821   4.623   3.575   2.787  0.6259 -0.1112 -0.6949
 4729SOL     OW25822   0.101   2.340   3.270  0.2597 -0.0219 -0.4470
 4729SOL    HW125823   0.022   2.332   3.218 -0.8904  2.2921  0.9293
 4729SOL    HW225824   0.117   2.249   3.295  0.0995 -0.4152 -1.7942
 4730SOL     OW25825   2.827   2.235   6.901  0.0144  0.0310 -0.4232
 4730SOL    HW125826   2.855   2.326   6.887 -0.2451 -0.0045 -1.1467
 4730SOL    HW225827   2.735   2.253   6.924  0.6895  1.3633  1.2540
 4731SOL     OW25828   1.201   1.632   4.126 -0.3522 -0.5241 -0.1135
 4731SOL    HW125829   1.283   1.676   4.146 -0.8715  0.5179 -0.3165
 4731SOL    HW225830   1.235   1.542   4.133  2.0831  0.4470  0.3156
 4732SOL     OW25831   0.090   0.239   4.251 -0.3888  0.0122  0.0591
 4732SOL    HW125832   0.108   0.328   4.282  1.6742 -0.5930  0.6224
 4732SOL    HW225833   4.731   0.245   4.257 -0.2104  1.1059  1.7874
 4733SOL     OW25834   0.887   2.605   6.238  0.9350 -0.1518 -0.4410
 4733SOL    HW125835   0.852   2.548   6.306  0.4527  0.3222 -0.2978
 4733SOL    HW225836   0.976   2.602   6.273  0.4238 -0.0622  0.8703
 4734SOL     OW25837   1.217   3.715   5.501 -0.3655  0.1294 -0.7459
 4734SOL    HW125838   1.154   3.643   5.490  0.2639 -0.4495 -0.5702
 4734SOL    HW225839   1.290   3.695   5.442 -2.1650 -0.0600 -2.9277
 4735SOL     OW25840   2.866   3.484  10.814 -0.2835 -0.0223 -0.4465
 4735SOL    HW125841   2.868   3.393  10.784 -1.8562 -0.1948 -0.0313
 4735SOL    HW225842   2.951   3.517  10.785  0.8240 -1.5799  0.9805
 4736SOL     OW25843   0.566   3.094   4.903  0.1382 -0.1512  0.6923
 4736SOL    HW125844   0.651   3.082   4.860 -1.0959 -0.7162 -1.5600
 4736SOL    HW225845   0.569   3.180   4.944  2.1667 -0.5875  1.4833
 4737SOL     OW25846   3.960   2.986   4.126  0.0534 -0.4685  0.4524
 4737SOL    HW125847   3.894   2.918   4.112  0.5199 -0.6847 -0.6569
 4737SOL    HW225848   3.934   3.054   4.064  4.4666  0.7066 -0.1077
 4738SOL     OW25849   1.223   0.570  12.889 -0.2755 -0.0793 -0.1740
 4738SOL    HW125850   1.285   0.615  12.831  0.4121 -0.3867  0.3271
 4738SOL    HW225851   1.148   0.597  12.837  0.1793  2.3410  0.4185
 4739SOL     OW25852   2.105   4.407   3.680  0.1212 -0.4735 -0.9381
 4739SOL    HW125853   2.133   4.319   3.704  2.4379  0.5190  0.0438
 4739SOL    HW225854   2.152   4.419   3.597  2.6600 -0.4919  0.4767
 4740SOL     OW25855   1.945   4.115  15.639 -0.7583  0.4773 -0.6851
 4740SOL    HW125856   2.004   4.044  15.614 -1.2559 -0.4646  0.8583
 4740SOL    HW225857   1.862   4.068  15.634  0.5257 -1.7824 -0.7250
 4741SOL     OW25858   0.455   2.901  16.314 -0.7867 -0.4006  0.5049
 4741SOL    HW125859   0.409   2.829  16.269  1.6563 -0.1307 -2.4368
 4741SOL    HW225860   0.386   2.966  16.299 -0.3195 -0.4594 -2.0056
 4742SOL     OW25861   2.590   3.947   0.144 -0.1371 -1.0799 -0.0099
 4742SOL    HW125862   2.668   3.914   0.101  0.5297  0.2046  0.2117
 4742SOL    HW225863   2.537   3.958   0.065 -1.0330  1.8218  0.9770
 4743SOL     OW25864   2.988   0.131  10.150 -0.7009 -0.5238 -0.0087
 4743SOL    HW125865   3.082   0.141  10.132 -0.4871  0.4926  1.6585
 4743SOL    HW225866   2.987   0.042  10.185 -0.2682 -0.8151 -0.7300
 4744SOL     OW25867   0.125   4.322   7.409 -0.4640 -0.4076  0.0880
 4744SOL    HW125868   0.098   4.411   7.387 -0.6324 -0.7924 -1.3155
 4744SOL    HW225869   0.199   4.317   7.347 -0.3274 -0.2711  0.2396
 4745SOL     OW25870   0.262   4.441  10.247  0.0371 -0.3389 -0.0432
 4745SOL    HW125871   0.329   4.377  10.272 -2.3631 -2.0009  1.9931
 4745SOL    HW225872   0.192   4.442  10.311 -0.5529  1.2490 -0.7178
 4746SOL     OW25873   3.217   1.832   0.065 -0.2318  0.3822  0.1694
 4746SOL    HW125874   3.290   1.885   0.031 -2.8612  2.3879 -2.3214
 4746SOL    HW225875   3.216   1.868   0.153 -2.2257  0.8314 -0.0445
 4747SOL     OW25876   0.229   0.061  13.987 -0.1481  0.0516  0.6123
 4747SOL    HW125877   0.222   0.156  13.982  1.3444  0.0708 -0.8090
 4747SOL    HW225878   0.148   0.039  14.033  0.2196  1.0051  1.7048
 4748SOL     OW25879   0.264   0.185   3.456 -0.2516  0.8784 -0.5232
 4748SOL    HW125880   0.200   0.200   3.386  0.2110 -1.4555 -1.4158
 4748SOL    HW225881   0.228   0.225   3.535 -0.0746  0.1534 -0.0780
 4749SOL     OW25882   2.614   2.912  17.660 -0.3785 -0.0565  0.0992
 4749SOL    HW125883   2.521   2.909  17.635 -0.4256  1.8824  0.0772
 4749SOL    HW225884   2.643   2.856  17.589 -1.6817 -2.3763  1.3876
 4750SOL     OW25885   3.175   1.733   7.968 -0.5537 -0.0609 -0.3334
 4750SOL    HW125886   3.166   1.650   7.920  2.7249 -0.2259 -0.7019
 4750SOL    HW225887   3.158   1.803   7.905 -0.8250 -0.0386 -0.2317
 4751SOL     OW25888   2.122   4.699   5.620  0.1131  0.0352 -0.2879
 4751SOL    HW125889   2.213   4.679   5.601  0.0369 -0.5393 -0.0538
 4751SOL    HW225890   2.132   0.046   5.666 -0.5144  1.0282 -1.9695
 4752SOL     OW25891   1.075   2.553   6.511  0.2567 -0.6487  0.0387
 4752SOL    HW125892   1.140   2.494   6.550  2.5281  1.6115 -0.2743
 4752SOL    HW225893   0.996   2.513   6.548  0.3822 -1.9257 -1.0827
 4753SOL     OW25894   4.543   0.284   2.850  0.4733 -0.1823  0.0268
 4753SOL    HW125895   4.542   0.359   2.910 -0.8383  0.4067 -0.7413
 4753SOL    HW225896   4.615   0.232   2.885 -0.0169 -0.5579  0.4514
 4754SOL     OW25897   1.043   2.406   5.523 -0.4372 -0.4954 -0.1972
 4754SOL    HW125898   1.073   2.484   5.568  1.1720 -0.6259 -1.0152
 4754SOL    HW225899   0.971   2.438   5.470  0.1008  0.2352 -0.4851
 4755SOL     OW25900   2.235   1.850   0.647 -0.6722  0.1961  0.2208
 4755SOL    HW125901   2.142   1.827   0.651 -0.3449 -1.1683 -0.0067
 4755SOL    HW225902   2.250   1.870   0.739 -2.6327 -1.0172  0.8132
 4756SOL     OW25903   3.108   0.837   2.935 -0.3319 -0.3407 -0.3282
 4756SOL    HW125904   3.165   0.824   2.859  0.1187  0.8396 -0.1858
 4756SOL    HW225905   3.155   0.916   2.961 -0.5969 -0.2140 -0.2451
 4757SOL     OW25906   2.112   3.626   4.514  0.9399  0.7527 -0.0040
 4757SOL    HW125907   2.050   3.684   4.558  0.5800  0.8252 -0.6132
 4757SOL    HW225908   2.183   3.642   4.577  0.8281  1.0800  0.0377
 4758SOL     OW25909   0.197   0.494   6.028 -0.3476 -0.2574  0.2433
 4758SOL    HW125910   0.288   0.497   5.999  0.6007 -0.7975  3.1617
 4758SOL    HW225911   0.162   0.438   5.960 -0.3805  1.5460 -1.2300
 4759SOL     OW25912   2.684   1.946  14.306 -0.4197  0.4771  0.6172
 4759SOL    HW125913   2.595   1.975  14.286 -0.7774 -0.7716  0.4260
 4759SOL    HW225914   2.735   2.022  14.277  1.1489 -1.0455 -0.6556
 4760SOL     OW25915   1.631   2.522  10.256 -0.2802  0.3379  0.3474
 4760SOL    HW125916   1.716   2.486  10.231 -1.0684 -0.6064 -0.9583
 4760SOL    HW225917   1.649   2.540  10.349  0.6512 -0.6920  0.3616
 4761SOL     OW25918   2.156   0.282   3.407 -0.1828  0.3159 -0.1979
 4761SOL    HW125919   2.074   0.317   3.443 -0.2943  0.3872 -0.5160
 4761SOL    HW225920   2.135   0.198   3.366  0.8179 -0.8751  1.7618
 4762SOL     OW25921   0.083   3.193   1.810 -0.4733 -0.2045 -0.3315
 4762SOL    HW125922   0.172   3.228   1.798 -0.5044  0.5722  1.7606
 4762SOL    HW225923   0.071   3.146   1.727  0.4003  1.8270 -1.6136
 4763SOL     OW25924   4.383   4.445  15.533  0.0830  0.5492 -0.1742
 4763SOL    HW125925   4.410   4.366  15.581 -0.4258  0.3551 -0.2066
 4763SOL    HW225926   4.371   4.405  15.447  0.3517  0.1619 -0.0329
 4764SOL     OW25927   3.019   4.506  12.954  0.0208  0.2289 -0.1660
 4764SOL    HW125928   3.024   4.411  12.942  0.0889  0.3902 -1.3993
 4764SOL    HW225929   3.050   4.550  12.875 -2.2455  0.4890 -0.9190
 4765SOL     OW25930   4.281   1.411   7.444 -0.2013  0.4175 -0.6391
 4765SOL    HW125931   4.367   1.412   7.401 -0.4848  0.4243 -1.2077
 4765SOL    HW225932   4.228   1.348   7.394 -2.2134 -0.7077  2.8957
 4766SOL     OW25933   4.597   0.021   6.683 -0.2934 -0.0118 -0.1012
 4766SOL    HW125934   4.570   4.665   6.681 -1.2901  0.2778  0.0709
 4766SOL    HW225935   4.596   0.052   6.592  2.5144 -0.7810 -0.3960
 4767SOL     OW25936   4.373   0.036   3.645  0.1629  1.2193  0.3273
 4767SOL    HW125937   4.413   0.121   3.663  1.2067  1.3059 -2.3845
 4767SOL    HW225938   4.443   4.714   3.615  0.6161  1.5674  0.7346
 4768SOL     OW25939   3.017   0.488  10.039 -0.6354  0.1265 -0.5945
 4768SOL    HW125940   3.094   0.450   9.996 -0.9536  0.5810 -1.5662
 4768SOL    HW225941   3.042   0.485  10.131  0.5983  0.3590 -0.9183
 4769SOL     OW25942   1.734   3.639   0.013  0.2448  0.1029  0.2734
 4769SOL    HW125943   1.701   3.561   0.057 -0.1448  1.0814  1.6916
 4769SOL    HW225944   1.655   3.689  17.737 -0.7982 -1.0800  1.5677
 4770SOL     OW25945   0.308   3.423   1.155 -0.1257 -0.4831  0.1018
 4770SOL    HW125946   0.232   3.368   1.137 -1.6931  1.2101  1.6129
 4770SOL    HW225947   0.270   3.483   1.219 -2.2402 -2.2254  0.4884
 4771SOL     OW25948   4.656   2.531   0.027 -0.1530  0.1663 -0.0819
 4771SOL    HW125949   4.727   2.595   0.026  0.1459 -0.1878 -1.2875
 4771SOL    HW225950   4.685   2.469  17.704  0.4520 -0.9917  1.2523
 4772SOL     OW25951   2.631   0.358   7.325  0.4764  0.3819  0.3956
 4772SOL    HW125952   2.612   0.274   7.366  1.4033 -0.4038 -0.7730
 4772SOL    HW225953   2.687   0.345   7.248  1.0721  0.6022  0.7939
 4773SOL     OW25954   2.484   2.894   2.269 -0.2729 -0.5149  0.0149
 4773SOL    HW125955   2.501   2.826   2.203  2.9782 -0.1440  0.4449
 4773SOL    HW225956   2.544   2.965   2.245 -0.2116 -1.7342 -3.4956
 4774SOL     OW25957   4.192   4.125   7.633 -0.1696  0.2548  0.1078
 4774SOL    HW125958   4.104   4.142   7.598 -0.6405  1.1373  1.7412
 4774SOL    HW225959   4.206   4.037   7.598 -0.4561  0.6822 -1.1003
 4775SOL     OW25960   2.580   0.518   4.010 -0.1555  0.0278  0.1850
 4775SOL    HW125961   2.603   0.497   3.919  3.1847 -0.1415  1.0445
 4775SOL    HW225962   2.656   0.487   4.060  0.7991 -1.1125 -1.9154
 4776SOL     OW25963   0.112   3.300   4.976  0.0510 -0.4853 -0.0789
 4776SOL    HW125964   0.058   3.276   4.902 -0.1868  0.7299 -0.3059
 4776SOL    HW225965   0.198   3.302   4.934 -0.6232 -2.7350 -1.5702
 4777SOL     OW25966   0.081   0.976   3.917 -0.4819  0.7354  0.1599
 4777SOL    HW125967   0.054   0.900   3.969  0.5231  0.1044 -0.2478
 4777SOL    HW225968   0.124   0.931   3.844 -3.7055  1.1132 -2.0036
 4778SOL     OW25969   4.414   4.486   8.507 -0.1760  0.1777  0.0718
 4778SOL    HW125970   4.508   4.497   8.502 -0.4028  1.2065 -1.8801
 4778SOL    HW225971   4.394   4.495   8.414  0.9198  0.7678 -0.0915
 4779SOL     OW25972   0.272   3.518   9.694  0.3538  0.0727 -0.2002
 4779SOL    HW125973   0.273   3.573   9.615 -0.7902  0.5584  0.1229
 4779SOL    HW225974   0.188   3.546   9.730 -0.3826  0.4616 -2.2111
 4780SOL     OW25975   3.296   4.327   2.834  0.6142 -0.4139 -0.5065
 4780SOL    HW125976   3.388   4.300   2.838  1.3720  2.4663  1.6351
 4780SOL    HW225977   3.265   4.310   2.745 -1.2811 -1.2409  0.2952
 4781SOL     OW25978   0.349   3.692   5.409 -0.2898 -0.3439  0.1862
 4781SOL    HW125979   0.260   3.727   5.413  0.3368  1.2525  0.2485
 4781SOL    HW225980   0.355   3.652   5.496  3.2610 -0.4519 -0.1237
 4782SOL     OW25981   3.298   2.494  16.311  0.1151  0.5345  0.3224
 4782SOL    HW125982   3.244   2.554  16.259 -1.6907 -0.6110  0.9033
 4782SOL    HW225983   3.380   2.544  16.304 -0.0613  0.5417 -1.9671
 4783SOL     OW25984   1.992   2.909   2.220 -0.0038 -0.3101 -0.2807
 4783SOL    HW125985   2.019   2.983   2.274  2.4264 -0.9185 -0.6588
 4783SOL    HW225986   2.073   2.860   2.201  0.6361  0.4845  0.4009
 4784SOL     OW25987   3.111   4.545   5.387 -0.1443  0.2356  0.7017
 4784SOL    HW125988   3.070   4.481   5.329 -0.8539  0.9435  0.4150
 4784SOL    HW225989   3.187   4.495   5.417  0.4871 -1.3205 -3.5379
 4785SOL     OW25990   4.615   2.880   2.230 -0.3535  0.2679  0.2389
 4785SOL    HW125991   4.614   2.788   2.255  0.3881  0.6972  1.8672
 4785SOL    HW225992   4.695   2.906   2.277  1.8589 -2.2684 -2.1565
 4786SOL     OW25993   4.184   2.873   8.343  0.3650 -0.1034 -0.4822
 4786SOL    HW125994   4.247   2.848   8.411  1.0461  0.4244 -0.9187
 4786SOL    HW225995   4.230   2.915   8.270 -1.7685  0.3465 -1.5687
 4787SOL     OW25996   0.098   4.364   8.315  0.3312 -0.4036  0.0808
 4787SOL    HW125997   0.094   4.269   8.306 -0.5221 -0.4090  0.4983
 4787SOL    HW225998   0.037   4.387   8.246  0.0267  0.7865  0.7549
 4788SOL     OW25999   3.360   3.257   8.355 -0.0499  0.2960  0.0245
 4788SOL    HW126000   3.276   3.215   8.335  1.1573 -1.9059 -0.4190
 4788SOL    HW226001   3.403   3.180   8.392 -0.9153 -1.6513 -3.0409
 4789SOL     OW26002   1.926   1.648   9.726  0.2827 -0.1999  0.1634
 4789SOL    HW126003   1.848   1.604   9.690  0.1563  1.4047 -1.4884
 4789SOL    HW226004   1.903   1.739   9.710 -0.5927 -0.2959  0.8608
 4790SOL     OW26005   4.557   3.864   2.653 -0.0884 -0.8325 -0.5760
 4790SOL    HW126006   4.621   3.918   2.608 -0.1245  0.0339  0.3953
 4790SOL    HW226007   4.581   3.889   2.742  1.5456  0.5093 -1.4151
 4791SOL     OW26008   1.009   3.946   5.700 -0.0788 -0.1307  0.2248
 4791SOL    HW126009   0.923   3.909   5.686 -1.1495  2.0004  1.1242
 4791SOL    HW226010   1.055   3.917   5.622  0.5906 -0.4866  0.7498
 4792SOL     OW26011   3.011   1.157   3.318  0.5277 -0.0913  0.6275
 4792SOL    HW126012   2.993   1.167   3.224  1.9363  0.3304  0.4031
 4792SOL    HW226013   3.060   1.238   3.333  0.1139  0.1054  0.9305
 4793SOL     OW26014   1.096   4.325  12.981  0.1052 -0.2433  0.3043
 4793SOL    HW126015   1.030   4.391  12.959  2.2279  1.7695  0.0499
 4793SOL    HW226016   1.065   4.290  13.065 -2.2504 -0.9283 -0.8317
 4794SOL     OW26017   0.196   2.525   2.562  0.3027  0.2547  0.5112
 4794SOL    HW126018   0.142   2.535   2.484  1.0230  0.5314  0.0410
 4794SOL    HW226019   0.182   2.434   2.586  1.0328  0.6251  2.3616
 4795SOL     OW26020   0.885   4.637   7.065 -0.2515 -0.1417 -0.1485
 4795SOL    HW126021   0.936   4.582   7.124 -0.7134  1.0228  1.3519
 4795SOL    HW226022   0.818   4.670   7.125 -2.0308 -1.5289 -1.3821
 4796SOL     OW26023   2.833   1.543  11.608 -0.1922  0.2257  0.4841
 4796SOL    HW126024   2.840   1.553  11.703  2.3716 -0.5442  0.3927
 4796SOL    HW226025   2.807   1.633  11.588 -2.4811 -0.4401  0.3938
 4797SOL     OW26026   1.034   3.572  12.703 -0.6978  0.0347  0.3779
 4797SOL    HW126027   1.040   3.549  12.610  0.5874  0.8681  0.2585
 4797SOL    HW226028   1.025   3.667  12.692  1.2622  0.0312 -1.2511
 4798SOL     OW26029   0.890   3.389   2.978 -0.3602  0.7871 -0.0442
 4798SOL    HW126030   0.857   3.474   2.950  0.5377  1.0351 -0.3520
 4798SOL    HW226031   0.926   3.340   2.905  1.1398  0.8803  0.6152
 4799SOL     OW26032   3.832   1.071   7.038 -0.1236  0.1763 -0.5874
 4799SOL    HW126033   3.804   1.018   7.112  2.3860 -1.7646 -1.0582
 4799SOL    HW226034   3.924   1.082   7.060 -0.6378  1.6215  0.8690
 4800SOL     OW26035   0.436   2.675   6.281 -0.6122  0.4294  0.2795
 4800SOL    HW126036   0.342   2.690   6.269 -0.3235 -0.4838 -3.3454
 4800SOL    HW226037   0.437   2.645   6.372 -0.8473  0.1207  0.1829
 4801SOL     OW26038   0.091   3.705   4.636  0.7103  0.0247 -0.1356
 4801SOL    HW126039   0.138   3.753   4.704  2.2070 -0.1334 -1.0608
 4801SOL    HW226040   0.150   3.630   4.630  0.4013 -0.3197  1.2598
 4802SOL     OW26041   3.172   3.303   2.247 -0.3595 -0.2576 -0.1330
 4802SOL    HW126042   3.215   3.388   2.241  0.4217 -0.5874  0.8647
 4802SOL    HW226043   3.167   3.269   2.157  1.4248 -1.2053  0.1359
 4803SOL     OW26044   4.257   2.841  11.532  0.0540 -0.0542  0.0960
 4803SOL    HW126045   4.282   2.818  11.443  1.7479 -2.4286  1.1892
 4803SOL    HW226046   4.191   2.778  11.560 -1.4541  1.7222  0.5630
 4804SOL     OW26047   1.052   3.413  12.487  0.4533 -0.1077 -0.1540
 4804SOL    HW126048   1.085   3.338  12.537  0.1563 -0.5972 -0.6984
 4804SOL    HW226049   1.078   3.385  12.399 -1.1621 -1.5274 -0.1749
 4805SOL     OW26050   2.296   0.779   7.642  0.1986 -0.1384  0.1168
 4805SOL    HW126051   2.367   0.715   7.646  1.0163  1.0218  4.2572
 4805SOL    HW226052   2.346   0.842   7.590 -0.3405  1.3712  1.4016
 4806SOL     OW26053   1.992   1.638   4.502  0.1403 -0.5270 -0.3293
 4806SOL    HW126054   1.990   1.545   4.525  2.4890 -0.5097 -0.0222
 4806SOL    HW226055   2.082   1.648   4.472  0.9923 -2.1525  1.6542
 4807SOL     OW26056   2.544   1.985   7.737  0.2700 -0.0637 -0.0986
 4807SOL    HW126057   2.593   2.067   7.738  0.4921 -0.2099  1.6030
 4807SOL    HW226058   2.466   2.019   7.781  0.7544  2.1894 -0.9648
 4808SOL     OW26059   4.347   2.140   7.541 -0.3871  0.6871  0.2783
 4808SOL    HW126060   4.281   2.070   7.541 -2.7641  2.9228 -0.2906
 4808SOL    HW226061   4.332   2.176   7.628 -1.2942  2.2465 -0.5220
 4809SOL     OW26062   4.520   2.231   6.462  0.3344 -0.0442 -0.4490
 4809SOL    HW126063   4.459   2.280   6.406  0.0115  1.8223  1.5467
 4809SOL    HW226064   4.601   2.249   6.413  1.3458  2.0352  1.9890
 4810SOL     OW26065   2.889   4.088  15.282  0.3175 -0.8359  0.0928
 4810SOL    HW126066   2.976   4.124  15.299 -0.3218  0.3910  0.7466
 4810SOL    HW226067   2.906   4.000  15.316  1.8014 -1.2056 -1.5627
 4811SOL     OW26068   1.950   0.955  17.719  0.0745  0.4168  0.3983
 4811SOL    HW126069   1.893   0.927   0.048 -0.8444  0.3472 -0.3557
 4811SOL    HW226070   1.900   1.010  17.659 -0.5961  0.5579  1.0857
 4812SOL     OW26071   3.486   4.251   6.981  0.2645  0.5430 -0.4617
 4812SOL    HW126072   3.416   4.198   6.943  1.1620  0.2093 -1.6300
 4812SOL    HW226073   3.545   4.184   7.015 -0.6371 -0.4319 -0.8201
 4813SOL     OW26074   1.247   3.614   4.488  0.4454  0.1219  0.3555
 4813SOL    HW126075   1.165   3.663   4.485 -0.6549 -1.8219 -1.0888
 4813SOL    HW226076   1.235   3.545   4.423 -0.3856  0.1091  0.5302
 4814SOL     OW26077   3.108   1.760   9.116  0.3659  0.1266 -0.5664
 4814SOL    HW126078   3.173   1.780   9.184 -0.3767 -0.3184  0.2794
 4814SOL    HW226079   3.069   1.843   9.091 -0.0023 -0.3013 -1.4148
 4815SOL     OW26080   1.105   3.908   2.753 -0.1590 -0.0839 -0.3606
 4815SOL    HW126081   1.119   3.816   2.777  1.9560 -0.1232 -1.7376
 4815SOL    HW226082   1.151   3.944   2.829  1.0361 -2.4666  0.0685
 4816SOL     OW26083   1.655   2.346  12.019  0.0630  0.4257  0.0598
 4816SOL    HW126084   1.586   2.412  12.024  0.1921  0.5330  0.4324
 4816SOL    HW226085   1.735   2.384  12.057  0.2744  0.1998 -0.1631
 4817SOL     OW26086   1.906   3.293   4.129 -0.4232  0.2584  0.1119
 4817SOL    HW126087   1.905   3.250   4.214  0.2775  0.5814  0.2870
 4817SOL    HW226088   1.959   3.224   4.089  0.8996  0.8215  0.8833
 4818SOL     OW26089   4.003   2.560   7.549 -0.3861 -0.8591 -0.2025
 4818SOL    HW126090   3.945   2.484   7.561 -0.8839 -0.4586 -0.0843
 4818SOL    HW226091   3.936   2.628   7.546 -1.6661 -2.0034  1.9320
 4819SOL     OW26092   4.411   3.507   6.358 -0.2972  1.0183  0.1059
 4819SOL    HW126093   4.399   3.481   6.450 -1.0012  1.1385  0.0488
 4819SOL    HW226094   4.320   3.496   6.331  0.3170 -0.4295 -1.3541
 4820SOL     OW26095   3.158   4.160   3.553 -0.1840  0.5363  0.2806
 4820SOL    HW126096   3.088   4.224   3.568 -0.2198  1.0504 -2.0554
 4820SOL    HW226097   3.185   4.181   3.463 -0.8870 -4.8522 -1.1550
 4821SOL     OW26098   2.845   2.474  14.335  0.3690 -0.1511 -0.5160
 4821SOL    HW126099   2.794   2.552  14.313  0.2264 -0.4642 -1.2718
 4821SOL    HW226100   2.825   2.468  14.429  0.8285  2.5630 -0.2468
 4822SOL     OW26101   3.046   1.808   4.572 -0.0354  0.1281 -0.6376
 4822SOL    HW126102   3.062   1.886   4.626 -0.8404 -0.7286  0.8310
 4822SOL    HW226103   3.014   1.758   4.647 -1.3879 -0.6974 -1.7938
 4823SOL     OW26104   4.643   1.593   4.113  0.3415 -0.3507 -0.2056
 4823SOL    HW126105   4.596   1.597   4.029 -0.7706 -1.6813  0.3604
 4823SOL    HW226106   4.686   1.679   4.113 -0.6606  0.1546 -0.1762
 4824SOL     OW26107   3.247   2.701   0.027  0.0937  0.0479  0.1100
 4824SOL    HW126108   3.226   2.619   0.072 -0.9066  1.1046  1.5670
 4824SOL    HW226109   3.340   2.709   0.048  0.8778  0.0114 -3.2709
 4825SOL     OW26110   0.363   1.393  13.715  0.0380  0.6287 -0.0402
 4825SOL    HW126111   0.353   1.304  13.750  1.0323  1.5161  2.4804
 4825SOL    HW226112   0.318   1.384  13.631  1.0975 -0.3847 -0.4986
 4826SOL     OW26113   2.059   2.825   4.721  0.1335  0.3833 -0.5027
 4826SOL    HW126114   2.137   2.838   4.667  1.0824 -1.8512  0.3562
 4826SOL    HW226115   2.056   2.731   4.735 -0.1017  0.6445  1.2192
 4827SOL     OW26116   2.431   4.399   8.455 -0.5102 -0.2346  0.3962
 4827SOL    HW126117   2.412   4.306   8.469 -2.1883 -0.0985 -0.9575
 4827SOL    HW226118   2.526   4.408   8.463 -0.3030 -0.6292 -1.6013
 4828SOL     OW26119   4.719   3.510  11.831  0.0629  0.5428  0.1203
 4828SOL    HW126120   4.705   3.601  11.857 -1.3605  0.7841 -1.5336
 4828SOL    HW226121   0.031   3.480  11.908 -0.4641  1.4676  0.8157
 4829SOL     OW26122   3.947   1.714   4.885 -0.2696 -0.1817  0.7599
 4829SOL    HW126123   3.985   1.673   4.962  0.9260  1.7334  1.1792
 4829SOL    HW226124   3.881   1.774   4.919  1.2541  1.6308  0.5403
 4830SOL     OW26125   4.141   1.823   4.735 -0.8491  0.0550 -0.8679
 4830SOL    HW126126   4.066   1.791   4.783 -1.1259  1.7963 -0.1394
 4830SOL    HW226127   4.205   1.754   4.749 -1.4269 -0.0348  1.2474
 4831SOL     OW26128   3.555   0.992   5.435 -0.1307 -1.0970  0.7175
 4831SOL    HW126129   3.573   0.914   5.384 -3.5739 -0.3293 -1.6868
 4831SOL    HW226130   3.635   1.028   5.474 -0.6854  1.7940 -0.7907
 4832SOL     OW26131   2.651   1.956   1.173  0.4588 -0.1797  0.0968
 4832SOL    HW126132   2.604   2.025   1.127 -3.3144 -1.5151  1.8923
 4832SOL    HW226133   2.664   1.998   1.258 -1.3143  0.8131 -0.1090
 4833SOL     OW26134   4.125   0.162   7.549  0.4718  0.1615 -0.1283
 4833SOL    HW126135   4.203   0.107   7.541 -0.0237 -0.2465 -2.0783
 4833SOL    HW226136   4.073   0.103   7.602  2.3474 -1.4600 -0.0997
 4834SOL     OW26137   0.131   3.577   3.265 -0.3728 -0.6692  0.6576
 4834SOL    HW126138   0.150   3.607   3.176 -2.3626 -0.3642  0.3531
 4834SOL    HW226139   0.154   3.653   3.318  1.1316 -0.5642 -0.1477
 4835SOL     OW26140   1.842   0.773   7.287  0.0456 -0.0870  0.4580
 4835SOL    HW126141   1.923   0.776   7.338 -0.1090 -1.2051  0.7572
 4835SOL    HW226142   1.843   0.690   7.238  1.3837  0.1672  0.0595
 4836SOL     OW26143   4.453   2.000   2.167 -0.7013 -0.5569  0.8293
 4836SOL    HW126144   4.436   2.001   2.262 -1.9199 -1.0804  0.6073
 4836SOL    HW226145   4.364   2.008   2.133  1.0894  0.2331 -3.6256
 4837SOL     OW26146   1.528   4.675   2.286 -0.1714 -0.0756 -0.7093
 4837SOL    HW126147   1.544   0.033   2.279  0.7660 -0.0700  1.4880
 4837SOL    HW226148   1.444   4.677   2.241 -0.7898 -0.9971  0.4017
 4838SOL     OW26149   4.187   0.266   4.634 -0.3709 -0.4202 -0.0193
 4838SOL    HW126150   4.221   0.230   4.715  1.6160  0.7930 -0.3065
 4838SOL    HW226151   4.204   0.197   4.570 -0.5451  1.2175 -1.8588
 4839SOL     OW26152   1.280   2.484   4.953 -1.2592  0.2394  0.3427
 4839SOL    HW126153   1.293   2.526   4.868  1.4306 -0.4470  0.4312
 4839SOL    HW226154   1.227   2.552   4.994  0.3890  2.4667 -1.2225
 4840SOL     OW26155   2.833   3.413   7.789 -0.6207  0.1611  0.0280
 4840SOL    HW126156   2.767   3.421   7.720  1.5665  0.9959 -1.9613
 4840SOL    HW226157   2.777   3.426   7.866 -1.2314  1.6453 -0.6821
 4841SOL     OW26158   1.322   4.580   0.788  0.3952  0.0344  0.1299
 4841SOL    HW126159   1.231   4.603   0.809  0.6082  3.5089 -2.7469
 4841SOL    HW226160   1.305   4.519   0.716 -2.0536 -1.5706  2.0599
 4842SOL     OW26161   0.922   2.006   4.933 -0.0620 -0.1854  0.2051
 4842SOL    HW126162   0.918   2.005   5.029 -4.1815 -1.4864  0.0379
 4842SOL    HW226163   1.011   2.039   4.925 -0.7314  1.5316 -0.3023
 4843SOL     OW26164   3.273   0.811   4.250 -0.3628 -0.0759 -0.1730
 4843SOL    HW126165   3.368   0.819   4.260 -0.2670 -1.1606 -0.2117
 4843SOL    HW226166   3.242   0.759   4.324  0.3962  0.7287  0.7108
 4844SOL     OW26167   1.231   0.174  13.031  0.4519  0.2478  0.6585
 4844SOL    HW126168   1.310   0.203  13.077  1.3891  1.4077 -1.6836
 4844SOL    HW226169   1.266   0.201  12.946 -3.3571  0.3638 -0.8780
 4845SOL     OW26170   4.328   2.029  16.964  0.7282 -0.1237  0.2707
 4845SOL    HW126171   4.252   1.990  16.921  1.4244 -1.4832  0.2856
 4845SOL    HW226172   4.336   1.969  17.038 -1.4399  0.4356  0.9339
 4846SOL     OW26173   1.999   0.784   2.893 -0.1961 -0.5121  0.0230
 4846SOL    HW126174   2.053   0.794   2.971 -0.2995 -2.1926  0.3017
 4846SOL    HW226175   1.986   0.689   2.892  0.1163 -0.5679  2.1376
 4847SOL     OW26176   2.818   0.110   1.281 -0.5385 -0.1220  0.2959
 4847SOL    HW126177   2.761   0.122   1.205 -1.6341  2.1404  1.4813
 4847SOL    HW226178   2.846   0.023   1.253 -1.1642 -0.1919 -0.1022
 4848SOL     OW26179   1.530   0.172   5.532  0.3370 -0.5720 -0.1744
 4848SOL    HW126180   1.508   0.245   5.473  0.4876  1.0616  1.8165
 4848SOL    HW226181   1.444   0.155   5.569 -0.2440  0.3249 -1.0872
 4849SOL     OW26182   1.208   0.667   2.443 -0.1827  0.2083  0.3264
 4849SOL    HW126183   1.144   0.620   2.497 -1.1280 -0.1182 -1.0788
 4849SOL    HW226184   1.254   0.721   2.506 -2.6887  1.1736  1.3515
 4850SOL     OW26185   3.680   2.338   0.658 -0.0974  0.2921  0.7234
 4850SOL    HW126186   3.664   2.266   0.598  0.3884 -0.7322  1.8277
 4850SOL    HW226187   3.701   2.289   0.738  0.6500 -0.0773  0.2967
 4851SOL     OW26188   0.147   0.019   5.885  0.2098 -0.1192 -0.5953
 4851SOL    HW126189   0.218   4.701   5.920 -1.5394 -0.1645  2.8287
 4851SOL    HW226190   0.189   0.033   5.800  0.5161  0.6406 -0.3163
 4852SOL     OW26191   0.027   3.339   3.148 -0.5294 -0.3651  0.2820
 4852SOL    HW126192   0.087   3.400   3.191 -2.3303  0.4033  1.7303
 4852SOL    HW226193   4.694   3.397   3.116  0.1116  0.2659  0.0517
 4853SOL     OW26194   1.667   0.919   7.168 -0.0889  0.0861 -0.3050
 4853SOL    HW126195   1.612   0.862   7.114 -0.5372 -2.1565  2.4921
 4853SOL    HW226196   1.735   0.863   7.205  1.4551  2.4083  0.3677
 4854SOL     OW26197   0.484   2.641   8.871  0.5468  0.1439 -0.1129
 4854SOL    HW126198   0.390   2.629   8.866  0.7437 -0.2254 -2.9312
 4854SOL    HW226199   0.500   2.712   8.809 -0.5489 -1.7015 -2.4837
 4855SOL     OW26200   0.699   2.636   3.263 -0.0524 -0.4254  0.4239
 4855SOL    HW126201   0.771   2.695   3.242 -0.4025  0.0109  0.4484
 4855SOL    HW226202   0.646   2.684   3.327  0.3860  0.2997  0.2418
 4856SOL     OW26203   2.509   4.214   8.947 -0.4385 -0.0305  0.1108
 4856SOL    HW126204   2.574   4.239   8.881 -0.0039 -2.1599 -0.2457
 4856SOL    HW226205   2.548   4.241   9.030 -0.2901 -1.9369  0.6511
 4857SOL     OW26206   2.777   3.684  14.225 -0.5484  0.0111 -0.1090
 4857SOL    HW126207   2.836   3.733  14.282 -0.7604  0.9106 -0.6645
 4857SOL    HW226208   2.834   3.687  14.148  1.0252 -0.7582  1.0312
 4858SOL     OW26209   0.282   4.475   4.082 -0.2552  0.1855 -0.2921
 4858SOL    HW126210   0.186   4.472   4.080 -0.2722  0.0569  0.6607
 4858SOL    HW226211   0.306   4.440   3.996 -1.7239  1.3963 -1.1781
 4859SOL     OW26212   3.463   0.016   6.680 -0.0376 -0.8724  0.0437
 4859SOL    HW126213   3.489   0.044   6.767  0.3861  0.1640 -0.4113
 4859SOL    HW226214   3.387   4.699   6.703  0.6513 -1.7397  0.3362
 4860SOL     OW26215   1.119   3.965   4.785 -0.5656  0.2123 -0.0800
 4860SOL    HW126216   1.208   3.992   4.806 -0.5508  0.8235 -0.9147
 4860SOL    HW226217   1.100   3.905   4.857  1.9521 -1.0711 -0.5011
 4861SOL     OW26218   0.745   0.808   8.942 -0.1439  0.4548 -0.2263
 4861SOL    HW126219   0.657   0.839   8.922 -0.5996 -0.8014 -0.1599
 4861SOL    HW226220   0.745   0.726   8.892  1.8970  0.9143 -0.9755
 4862SOL     OW26221   2.910   2.607   4.495 -0.2655  0.4980  0.2460
 4862SOL    HW126222   2.934   2.700   4.498 -0.8542  0.6234  0.9956
 4862SOL    HW226223   2.815   2.605   4.504 -0.3362 -3.5685 -1.4060
 4863SOL     OW26224   0.148   2.164   3.719  0.2284  0.2177  0.0471
 4863SOL    HW126225   0.243   2.179   3.715 -0.3604  2.9945 -2.8347
 4863SOL    HW226226   0.139   2.091   3.781  0.3188 -2.5905 -3.2372
 4864SOL     OW26227   4.135   1.780   8.408 -0.2048  0.1692 -0.2849
 4864SOL    HW126228   4.129   1.811   8.499 -1.1398  1.1602 -0.6838
 4864SOL    HW226229   4.051   1.816   8.380  0.9698  3.3248  0.1835
 4865SOL     OW26230   4.284   3.657   3.622 -0.1311 -0.1724 -0.2862
 4865SOL    HW126231   4.276   3.700   3.707 -3.6580  1.6890 -1.5455
 4865SOL    HW226232   4.361   3.601   3.621  1.2973  1.7935 -0.2645
 4866SOL     OW26233   2.111   3.518   0.186 -0.6558 -0.1666 -0.3405
 4866SOL    HW126234   2.077   3.512   0.097  0.1117 -1.8958 -0.5132
 4866SOL    HW226235   2.151   3.605   0.181 -2.1351  0.4028 -2.0513
 4867SOL     OW26236   0.938   0.786  17.264  0.2849 -0.6691  0.1927
 4867SOL    HW126237   0.854   0.830  17.247  0.9377  0.8282  0.9035
 4867SOL    HW226238   0.999   0.849  17.301 -0.7237 -0.9290  2.2924
 4868SOL     OW26239   3.573   3.050   5.935 -0.7713 -0.8599 -0.1512
 4868SOL    HW126240   3.560   3.080   6.025 -1.9018 -1.1074 -0.2302
 4868SOL    HW226241   3.565   3.131   5.885  0.1921  0.6066  2.0477
 4869SOL     OW26242   2.034   2.542  11.282 -0.2851 -0.5112  0.1830
 4869SOL    HW126243   2.061   2.616  11.335  2.0806 -0.7734 -0.6789
 4869SOL    HW226244   2.115   2.496  11.261  1.0437  1.7101  0.5483
 4870SOL     OW26245   0.560   4.720   2.745 -0.6459 -0.4510 -0.1936
 4870SOL    HW126246   0.514   0.036   2.680 -0.5958  0.7788  0.7639
 4870SOL    HW226247   0.507   4.641   2.738  0.2354 -1.1886  1.4779
 4871SOL     OW26248   0.126   0.830  14.987  0.0860 -0.0121 -0.1537
 4871SOL    HW126249   0.034   0.821  14.961  0.5012 -1.3660 -1.1806
 4871SOL    HW226250   0.171   0.834  14.903  1.2393  0.0878  0.4660
 4872SOL     OW26251   1.973   3.875   9.029  0.4185 -0.0576 -0.2345
 4872SOL    HW126252   2.046   3.926   9.065 -1.1501  1.7336  0.4351
 4872SOL    HW226253   1.960   3.926   8.949 -2.9268 -2.2597 -1.0796
 4873SOL     OW26254   1.509   0.286   7.443 -0.2548 -0.1410  0.6870
 4873SOL    HW126255   1.519   0.191   7.442  0.4995 -0.0629  0.9041
 4873SOL    HW226256   1.533   0.308   7.353 -0.0789  1.2486  1.0758
 4874SOL     OW26257   1.376   4.557   7.302  0.0154 -0.0950 -0.0820
 4874SOL    HW126258   1.364   4.462   7.297 -3.6632  0.3432  0.9033
 4874SOL    HW226259   1.472   4.560   7.305  0.0093 -0.8046  0.6852
 4875SOL     OW26260   0.730   1.502   5.190 -0.0168 -0.3143  0.3786
 4875SOL    HW126261   0.794   1.537   5.251 -0.8653 -2.6587  2.5940
 4875SOL    HW226262   0.731   1.564   5.117 -4.4394  0.1850  0.7578
 4876SOL     OW26263   2.319   2.154  13.305  0.2716  0.6182  0.3019
 4876SOL    HW126264   2.329   2.060  13.322 -0.7391  0.1393 -1.8092
 4876SOL    HW226265   2.360   2.194  13.382 -0.4639  2.2316 -0.1458
 4877SOL     OW26266   1.599   4.566   4.802 -0.3079 -0.1199 -0.1868
 4877SOL    HW126267   1.672   4.578   4.863 -0.3774 -1.6579  0.2018
 4877SOL    HW226268   1.627   4.483   4.763 -1.1977 -1.0880  1.2107
 4878SOL     OW26269   1.431   4.357  14.563 -0.0078 -0.7101  0.6976
 4878SOL    HW126270   1.458   4.377  14.473 -1.9257 -0.9976  0.0455
 4878SOL    HW226271   1.503   4.314  14.607  0.8193  0.5069  0.5331
 4879SOL     OW26272   2.553   0.842  11.145 -0.8084 -0.0481 -0.0618
 4879SOL    HW126273   2.633   0.789  11.143 -1.1695 -0.6023  0.1221
 4879SOL    HW226274   2.487   0.772  11.140 -1.9303  0.7727  3.3224
 4880SOL     OW26275   1.714   4.318   4.144 -0.7883 -0.0543  0.0288
 4880SOL    HW126276   1.749   4.266   4.217  0.2155  1.0200  0.2996
 4880SOL    HW226277   1.731   4.260   4.069  0.7717  0.0483  0.2916
 4881SOL     OW26278   2.182   1.026  11.431  0.2616 -0.1787  0.4339
 4881SOL    HW126279   2.243   1.058  11.498  0.4793 -0.0351  0.1720
 4881SOL    HW226280   2.234   1.033  11.351 -0.5519  1.2138  0.0371
 4882SOL     OW26281   2.056   0.791   3.167 -0.2701 -0.0442 -0.4679
 4882SOL    HW126282   2.137   0.843   3.173  0.0453 -0.4974 -0.7711
 4882SOL    HW226283   2.071   0.735   3.243  1.4375  1.1875  0.1110
 4883SOL     OW26284   3.779   1.242   9.521  0.3362 -0.5243  0.4828
 4883SOL    HW126285   3.741   1.329   9.530  0.0385 -0.7099  1.0044
 4883SOL    HW226286   3.853   1.251   9.581  1.2431 -0.8412 -0.5771
 4884SOL     OW26287   4.081   4.169  13.072  0.1171  0.7262 -0.2384
 4884SOL    HW126288   4.160   4.219  13.054  0.4122  0.9309  1.6176
 4884SOL    HW226289   4.080   4.177  13.167 -1.0243 -2.2603  0.0028
 4885SOL     OW26290   1.424   3.002   1.720 -0.5692 -0.5376  0.0579
 4885SOL    HW126291   1.343   2.955   1.741 -0.5300 -0.4218  0.4758
 4885SOL    HW226292   1.474   2.976   1.798  1.7799 -1.2865 -1.6613
 4886SOL     OW26293   2.235   4.117   4.824  0.0879  0.2618  0.2006
 4886SOL    HW126294   2.323   4.081   4.836  0.0978 -0.5972 -2.3329
 4886SOL    HW226295   2.199   4.109   4.912  1.4808  0.7532  0.8101
 4887SOL     OW26296   3.111   0.458   7.792  0.7361  0.1925 -0.4252
 4887SOL    HW126297   3.122   0.541   7.746 -0.3350  0.8017  0.4034
 4887SOL    HW226298   3.023   0.436   7.763  0.2086  0.7042  0.7954
 4888SOL     OW26299   4.690   4.470   8.513 -0.4961  0.6103  0.8930
 4888SOL    HW126300   4.729   4.503   8.594  1.0843  0.7867  0.0597
 4888SOL    HW226301   0.026   4.456   8.452 -0.5075 -1.3550  1.3332
 4889SOL     OW26302   3.481   1.274   2.726  0.8023  0.1706  0.1036
 4889SOL    HW126303   3.459   1.276   2.632  0.0904 -2.1398  0.2258
 4889SOL    HW226304   3.570   1.240   2.725  1.2727  1.3953  0.4448
 4890SOL     OW26305   3.468   0.369   5.535  0.0744  1.0621 -0.3237
 4890SOL    HW126306   3.531   0.297   5.549 -0.1959  1.0998  1.1535
 4890SOL    HW226307   3.385   0.323   5.526  0.9491 -0.5846 -0.1605
 4891SOL     OW26308   1.766   0.481   5.752  0.0140  0.2358 -0.5041
 4891SOL    HW126309   1.749   0.557   5.808 -1.7950  0.6760 -1.6770
 4891SOL    HW226310   1.678   0.465   5.718 -0.3339  1.3594 -0.1381
 4892SOL     OW26311   2.421   2.275  14.939 -0.1343 -0.2522  0.0518
 4892SOL    HW126312   2.445   2.239  14.853 -0.6245  1.2109 -0.6940
 4892SOL    HW226313   2.326   2.261  14.933 -0.3137 -0.3019  3.1567
 4893SOL     OW26314   0.316   3.056  16.007  0.0871  0.4364  0.4826
 4893SOL    HW126315   0.266   3.119  15.954  1.6552  0.0945 -1.4069
 4893SOL    HW226316   0.305   3.091  16.095 -0.8730 -1.1733  1.0047
 4894SOL     OW26317   1.437   4.034  12.447 -0.5509  0.1996 -0.0919
 4894SOL    HW126318   1.480   4.048  12.532  1.1271 -1.6135 -0.6505
 4894SOL    HW226319   1.510   4.066  12.395 -0.7654  0.8494  0.0052
 4895SOL     OW26320   3.209   3.754   8.689  0.3310  0.1634  0.3426
 4895SOL    HW126321   3.140   3.744   8.624  0.8879 -2.6546  0.1845
 4895SOL    HW226322   3.167   3.708   8.761  0.3985 -1.1223 -0.4327
 4896SOL     OW26323   1.600   0.636   6.094 -0.5330  0.1669 -0.1901
 4896SOL    HW126324   1.663   0.676   6.034 -0.6728  0.1382 -0.3578
 4896SOL    HW226325   1.538   0.599   6.031 -0.0699 -0.5892 -0.1961
 4897SOL     OW26326   0.199   1.283  10.577  0.0767 -0.3344 -0.4916
 4897SOL    HW126327   0.223   1.364  10.531  0.4816  1.2167  2.4959
 4897SOL    HW226328   0.140   1.243  10.513 -1.7217  2.2364 -0.4078
 4898SOL     OW26329   2.361   1.480   1.688  0.5781  0.2259 -0.3136
 4898SOL    HW126330   2.452   1.509   1.698  1.2341 -1.8614 -0.3559
 4898SOL    HW226331   2.333   1.468   1.779  1.9235  0.9231  0.2082
 4899SOL     OW26332   0.929   0.165   9.561  0.6601 -0.0301 -0.8723
 4899SOL    HW126333   0.950   0.249   9.519 -2.3711  2.1931  2.0518
 4899SOL    HW226334   0.932   0.102   9.489  1.3099  0.8031 -1.5657
 4900SOL     OW26335   3.942   3.126   8.301 -0.2273  0.0936 -0.0278
 4900SOL    HW126336   4.010   3.146   8.238 -1.3092  1.0918 -0.8714
 4900SOL    HW226337   3.986   3.050   8.340 -1.4328 -0.3742  0.4275
 4901SOL     OW26338   3.869   4.575   7.916 -0.8727  0.3080 -0.1163
 4901SOL    HW126339   3.800   4.600   7.978  1.4057 -0.2926  2.6925
 4901SOL    HW226340   3.949   4.601   7.963 -2.3231 -0.0963  2.6119
 4902SOL     OW26341   1.559   1.058   3.677  0.0089  0.7536  0.0278
 4902SOL    HW126342   1.597   1.044   3.764 -0.5994 -1.2373 -0.0363
 4902SOL    HW226343   1.564   0.965   3.656 -0.1236  0.3633  1.7547
 4903SOL     OW26344   0.112   1.131   1.789 -0.5537 -0.1514 -0.2064
 4903SOL    HW126345   0.130   1.215   1.831  0.2233 -0.3398 -0.1716
 4903SOL    HW226346   0.109   1.160   1.698  0.6240 -0.4430 -0.3386
 4904SOL     OW26347   4.414   3.501   4.778 -0.3070 -0.0729  0.4598
 4904SOL    HW126348   4.350   3.556   4.732  0.9352  1.1716  0.2411
 4904SOL    HW226349   4.490   3.511   4.722  0.3969 -0.3623  1.3617
 4905SOL     OW26350   3.659   1.748  12.843  0.4434  0.4707  0.6962
 4905SOL    HW126351   3.641   1.837  12.874 -2.8300  0.1723 -0.3941
 4905SOL    HW226352   3.751   1.770  12.828  0.8083 -0.5980  1.3678
 4906SOL     OW26353   0.992   1.104   3.520 -0.1923 -0.4284  0.1939
 4906SOL    HW126354   1.027   1.016   3.512  1.9114  0.4370 -0.0180
 4906SOL    HW226355   1.008   1.128   3.611 -1.6851  3.3646 -0.5215
 4907SOL     OW26356   0.513   2.681   3.939  0.4920 -0.3657 -0.6888
 4907SOL    HW126357   0.474   2.595   3.925 -0.4491 -0.2956  1.4093
 4907SOL    HW226358   0.504   2.691   4.034  0.9271 -0.3174 -0.6543
 4908SOL     OW26359   2.393   2.746   6.631 -0.4115 -0.5098  0.2813
 4908SOL    HW126360   2.463   2.805   6.659 -0.2554  0.4977 -2.2400
 4908SOL    HW226361   2.320   2.806   6.646 -0.7260 -1.4446  2.4947
 4909SOL     OW26362   3.761   2.853   3.827  0.0417 -0.5136  0.1483
 4909SOL    HW126363   3.734   2.788   3.762 -1.3097 -0.2838  0.4774
 4909SOL    HW226364   3.796   2.796   3.895 -0.8739  1.4779  2.2527
 4910SOL     OW26365   2.140   3.332   5.284 -0.4802 -0.2566  0.1131
 4910SOL    HW126366   2.159   3.292   5.369 -0.6924 -2.8444 -1.0708
 4910SOL    HW226367   2.226   3.323   5.242 -1.4845 -3.5231 -1.2211
 4911SOL     OW26368   3.699   1.739   2.489  0.1433 -0.1132 -0.2356
 4911SOL    HW126369   3.626   1.791   2.522  1.7299  1.7917  0.2608
 4911SOL    HW226370   3.749   1.802   2.438 -2.3315  1.9184 -0.1112
 4912SOL     OW26371   3.091   2.892   8.555  0.8669 -0.1169  0.8396
 4912SOL    HW126372   3.176   2.848   8.555 -0.5074 -2.7650  2.0260
 4912SOL    HW226373   3.103   2.949   8.631 -1.6024  4.7010 -2.3757
 4913SOL     OW26374   3.120   0.415   4.605 -0.2264  0.8632  0.4738
 4913SOL    HW126375   3.166   0.456   4.531 -0.2066 -1.3511 -0.7275
 4913SOL    HW226376   3.043   0.380   4.560  1.1070 -1.6905  0.1523
 4914SOL     OW26377   1.394   1.931   2.292 -0.0499  0.4952  0.2767
 4914SOL    HW126378   1.368   2.023   2.288  0.4915  0.6006 -0.6626
 4914SOL    HW226379   1.320   1.903   2.238 -0.1960  0.0279  0.7078
 4915SOL     OW26380   2.065   1.921   6.368  0.2220  0.3062  0.5846
 4915SOL    HW126381   2.159   1.931   6.351 -0.0539  0.9509 -0.5558
 4915SOL    HW226382   2.066   1.832   6.401 -0.4829 -0.0654 -0.4123
 4916SOL     OW26383   0.925   2.012   6.421 -0.1834 -0.6902 -0.3185
 4916SOL    HW126384   1.009   1.966   6.429  0.3467  0.2359 -0.4829
 4916SOL    HW226385   0.944   2.093   6.374  0.1242 -1.1063 -0.9092
 4917SOL     OW26386   3.539   0.711   3.133  0.0126  0.0630  0.2791
 4917SOL    HW126387   3.551   0.763   3.213  0.2997 -1.9029  1.5359
 4917SOL    HW226388   3.628   0.677   3.118 -0.6218 -0.2431 -2.6974
 4918SOL     OW26389   3.528   0.724   2.272  1.2448 -0.3937 -0.1736
 4918SOL    HW126390   3.497   0.649   2.323 -0.2633  1.4694  1.6062
 4918SOL    HW226391   3.519   0.694   2.182 -2.8235 -1.2674  0.5301
 4919SOL     OW26392   4.396   4.301   0.940 -0.1439  0.0320  0.5448
 4919SOL    HW126393   4.451   4.260   0.874  0.1896  1.2715  0.0477
 4919SOL    HW226394   4.433   4.284   1.027 -0.1783 -0.0327  0.5462
 4920SOL     OW26395   2.016   1.058   7.211  0.0811 -0.9958  0.5978
 4920SOL    HW126396   2.084   1.079   7.274  1.3485 -2.0430 -0.4189
 4920SOL    HW226397   1.955   1.013   7.270 -1.5656  0.4838  0.0240
 4921SOL     OW26398   0.799   1.113   6.536  0.2328 -0.5383 -0.1589
 4921SOL    HW126399   0.728   1.048   6.527 -0.9327  0.5785  0.8734
 4921SOL    HW226400   0.813   1.109   6.631 -0.4237 -1.6393 -0.1058
 4922SOL     OW26401   0.335   0.384  17.542 -0.8054  0.1599  0.1776
 4922SOL    HW126402   0.353   0.302  17.496 -2.4303 -0.6239  0.9266
 4922SOL    HW226403   0.405   0.443  17.514  0.9613 -1.7950  0.4461
 4923SOL     OW26404   3.020   2.467   7.342 -0.1778  0.2233  0.0457
 4923SOL    HW126405   3.029   2.527   7.416 -0.2511  1.5154 -1.0027
 4923SOL    HW226406   3.109   2.432   7.342 -0.6081 -0.8826  1.1673
 4924SOL     OW26407   2.833   1.614   3.216  0.5628  0.3528 -0.0771
 4924SOL    HW126408   2.743   1.632   3.244  0.6416 -1.9468  1.6172
 4924SOL    HW226409   2.858   1.693   3.167  2.1306  0.8057  1.4560
 4925SOL     OW26410   0.465   4.150  14.445 -0.3427 -0.8727  0.0947
 4925SOL    HW126411   0.543   4.152  14.500 -0.7490  2.4586  0.5530
 4925SOL    HW226412   0.496   4.174  14.358 -1.0820 -0.2127  0.0149
 4926SOL     OW26413   2.700   4.275  16.551  0.2012  0.1396  0.2857
 4926SOL    HW126414   2.725   4.337  16.619  1.1955  0.1150 -0.0627
 4926SOL    HW226415   2.777   4.287  16.496 -0.1202 -1.3027 -0.4815
 4927SOL     OW26416   4.495   1.525   5.039  0.3995  0.6901  1.0354
 4927SOL    HW126417   4.519   1.508   5.130  3.0530  0.5975  0.3021
 4927SOL    HW226418   4.523   1.616   5.031 -2.8785  1.7215  1.2503
 4928SOL     OW26419   3.980   3.794   4.710 -0.1936  0.2136 -0.8546
 4928SOL    HW126420   3.887   3.784   4.731  0.5362 -0.8593  1.9717
 4928SOL    HW226421   3.989   3.881   4.671 -0.3784 -0.3446 -2.1430
 4929SOL     OW26422   1.850   2.228   7.407 -0.5572 -0.2736 -0.2976
 4929SOL    HW126423   1.767   2.184   7.421 -1.8134  1.6205 -1.7171
 4929SOL    HW226424   1.868   2.225   7.313  0.1667  1.7144 -0.2381
 4930SOL     OW26425   2.473   3.117   0.537  0.3003 -0.5728 -0.0016
 4930SOL    HW126426   2.489   3.209   0.515  0.4260 -0.8637 -1.1318
 4930SOL    HW226427   2.413   3.114   0.611  2.0844 -4.6444  1.3080
 4931SOL     OW26428   0.964   3.199   5.477  0.0078  0.1326 -0.0991
 4931SOL    HW126429   0.934   3.108   5.478  1.4735 -0.3513  0.7232
 4931SOL    HW226430   1.049   3.187   5.519 -0.4061 -0.0030  0.7060
 4932SOL     OW26431   4.056   2.668  11.591  0.0551  0.2632 -0.3014
 4932SOL    HW126432   3.986   2.630  11.538  0.8567 -1.6056 -0.0046
 4932SOL    HW226433   4.040   2.610  11.665 -1.7956  1.3279  0.1432
 4933SOL     OW26434   1.755   4.288   9.652 -0.3834 -0.1717  0.2285
 4933SOL    HW126435   1.768   4.198   9.623  1.8254  0.5349 -0.9529
 4933SOL    HW226436   1.767   4.283   9.747  3.1738 -0.8116 -0.2394
 4934SOL     OW26437   1.001   0.924   7.727 -0.5838  0.5753 -0.5048
 4934SOL    HW126438   0.928   0.913   7.788 -0.5538 -1.3677 -0.8236
 4934SOL    HW226439   1.052   0.847   7.751 -1.1452  0.4171  0.1916
 4935SOL     OW26440   2.304   3.902   4.579 -0.0759  0.5144 -0.3121
 4935SOL    HW126441   2.245   3.978   4.572  1.9254  2.2017  1.0124
 4935SOL    HW226442   2.271   3.859   4.658 -1.0780  0.8712 -0.5261
 4936SOL     OW26443   2.434   0.386   8.295 -0.0504 -0.1587  0.0803
 4936SOL    HW126444   2.368   0.322   8.320 -1.9308  1.8545  0.2434
 4936SOL    HW226445   2.401   0.411   8.208 -2.4516 -1.5774  0.5958
 4937SOL     OW26446   3.527   1.676  15.648 -0.2611 -0.3743  0.5327
 4937SOL    HW126447   3.478   1.644  15.724 -1.4485  1.3690  0.5134
 4937SOL    HW226448   3.464   1.645  15.583  1.3397 -1.7371 -0.3573
 4938SOL     OW26449   3.927   3.299   7.518 -0.8464 -0.6520 -0.3959
 4938SOL    HW126450   3.922   3.207   7.491 -0.8348 -0.2151 -1.8893
 4938SOL    HW226451   3.967   3.295   7.606  1.2094 -1.6516 -1.3653
 4939SOL     OW26452   4.489   3.686   2.049 -0.2393 -0.3622 -0.0659
 4939SOL    HW126453   4.471   3.726   2.134  0.4081 -1.8960  0.7876
 4939SOL    HW226454   4.509   3.763   1.995 -1.8186 -0.5647 -0.9767
 4940SOL     OW26455   1.023   0.435   6.554  0.5436 -0.0614  0.8451
 4940SOL    HW126456   1.065   0.509   6.600  0.2631  0.2189  0.6518
 4940SOL    HW226457   0.931   0.428   6.580 -0.6882 -2.9531 -4.3664
 4941SOL     OW26458   4.610   4.248  12.341  0.3441 -0.6215  0.1288
 4941SOL    HW126459   4.526   4.208  12.319 -1.0146  1.4695  1.5696
 4941SOL    HW226460   4.653   4.222  12.260 -0.9668 -0.1607 -0.7117
 4942SOL     OW26461   3.873   2.576  16.391 -0.4253 -0.2933  0.1660
 4942SOL    HW126462   3.862   2.667  16.420 -0.6311 -1.5506  4.0932
 4942SOL    HW226463   3.924   2.590  16.312  1.3059  1.9621  1.6748
 4943SOL     OW26464   1.110   2.094   2.118 -0.4473 -0.3640  0.4657
 4943SOL    HW126465   1.162   2.016   2.099  0.1358  0.6579 -2.1381
 4943SOL    HW226466   1.083   2.073   2.208 -0.4064 -3.0849 -0.1300
 4944SOL     OW26467   0.006   2.948   7.900  0.2734  0.8404 -0.1805
 4944SOL    HW126468   0.087   2.897   7.900  0.0930  0.5496 -0.1766
 4944SOL    HW226469   4.718   2.964   7.809  1.1068 -2.2827 -0.9619
 4945SOL     OW26470   0.318   3.753   9.184  0.0524 -0.5903  0.0841
 4945SOL    HW126471   0.408   3.786   9.176 -0.5442  0.7289 -1.1023
 4945SOL    HW226472   0.323   3.674   9.129 -2.4827 -0.2341 -0.6675
 4946SOL     OW26473   2.834   3.008   3.679  0.4381  0.7575 -0.8382
 4946SOL    HW126474   2.836   2.979   3.770 -0.2381  0.4937 -0.9128
 4946SOL    HW226475   2.925   3.037   3.670  0.6742  0.9416  2.0387
 4947SOL     OW26476   0.476   2.256  12.629  0.1792  0.3658  0.0399
 4947SOL    HW126477   0.431   2.176  12.658  1.1659  0.8775  3.0169
 4947SOL    HW226478   0.533   2.236  12.555  0.3485  1.3063 -0.0787
 4948SOL     OW26479   1.119   1.395   8.935 -0.4005  0.2492  0.6452
 4948SOL    HW126480   1.142   1.465   8.996 -1.1630 -0.9529  2.2976
 4948SOL    HW226481   1.207   1.359   8.925  0.3415  1.3204  3.1812
 4949SOL     OW26482   3.508   3.663   7.916 -0.3317  0.0111  0.0068
 4949SOL    HW126483   3.473   3.712   7.842 -1.1346 -1.1155 -0.3660
 4949SOL    HW226484   3.441   3.675   7.983 -1.3518  0.5402 -1.1125
 4950SOL     OW26485   3.950   1.537   4.144 -0.1057  0.2846  0.2464
 4950SOL    HW126486   3.927   1.581   4.062 -0.2147  1.2099  0.7768
 4950SOL    HW226487   3.875   1.479   4.153  1.3901 -1.9715 -1.7221
 4951SOL     OW26488   1.742   1.830   4.789  0.3587 -0.4370 -0.0183
 4951SOL    HW126489   1.739   1.767   4.717  0.4163 -1.6791  1.0793
 4951SOL    HW226490   1.653   1.865   4.801  1.0730  2.6106 -3.4917
 4952SOL     OW26491   1.042   0.371   3.500 -0.1130 -0.3666  0.0351
 4952SOL    HW126492   1.051   0.355   3.406  0.2136 -0.1504  0.0301
 4952SOL    HW226493   1.046   0.466   3.506 -1.9150 -0.2893  0.0159
 4953SOL     OW26494   1.152   2.840   8.076  0.0798 -0.4555 -0.5660
 4953SOL    HW126495   1.230   2.879   8.037  0.1449 -2.0103 -1.9483
 4953SOL    HW226496   1.148   2.895   8.155 -0.3828 -1.1388 -0.1156
 4954SOL     OW26497   3.317   2.269   3.094 -0.0005 -0.2797 -0.0175
 4954SOL    HW126498   3.250   2.317   3.046 -1.8587 -1.1500  1.6703
 4954SOL    HW226499   3.284   2.179   3.088 -1.7767  0.5313 -2.3799
 4955SOL     OW26500   0.781   1.226  17.280  0.0048 -0.4106  0.0425
 4955SOL    HW126501   0.761   1.290  17.349  0.7919  1.4820 -1.4943
 4955SOL    HW226502   0.804   1.287  17.211  2.2198 -0.0771  1.0853
 4956SOL     OW26503   1.025   4.397   8.495 -0.7341  0.0724 -0.2814
 4956SOL    HW126504   0.937   4.360   8.501 -0.3405 -1.1119 -1.7784
 4956SOL    HW226505   1.021   4.488   8.523  1.8129  0.1925 -0.2754
 4957SOL     OW26506   2.314   3.762   6.405  0.0553 -0.4837 -0.0570
 4957SOL    HW126507   2.269   3.678   6.400 -0.6661 -0.0339 -1.1243
 4957SOL    HW226508   2.405   3.741   6.384 -0.0091 -0.5925 -0.2301
 4958SOL     OW26509   2.960   1.226   3.013  0.2345  0.0702 -0.1679
 4958SOL    HW126510   2.886   1.253   3.068 -1.0686  0.4848 -2.1113
 4958SOL    HW226511   3.017   1.302   3.025  0.6981 -0.3449  0.2681
 4959SOL     OW26512   1.715   3.592   3.579  0.1488 -0.0450  0.3914
 4959SOL    HW126513   1.768   3.663   3.615  1.5721 -0.8387 -0.1323
 4959SOL    HW226514   1.698   3.638   3.497 -0.4421 -1.2800 -0.1759
 4960SOL     OW26515   1.086   3.375   7.462 -0.1264  0.0506  0.3922
 4960SOL    HW126516   1.025   3.386   7.388 -1.7514 -2.7228  1.3103
 4960SOL    HW226517   1.138   3.306   7.421 -0.2189  0.2667 -0.0915
 4961SOL     OW26518   4.167   3.221   3.017  0.4277  0.0835  0.4464
 4961SOL    HW126519   4.181   3.138   2.973  0.9762 -0.5224  1.7630
 4961SOL    HW226520   4.090   3.205   3.073 -0.9577  3.1006 -0.5748
 4962SOL     OW26521   1.699   1.016   3.926 -0.3322 -0.0421 -0.1523
 4962SOL    HW126522   1.710   1.066   4.006 -2.3523 -0.5937  0.4596
 4962SOL    HW226523   1.794   1.003   3.916 -0.5814 -0.9863 -1.3164
 4963SOL     OW26524   3.912   1.460   1.191 -0.1875 -0.1266  0.4274
 4963SOL    HW126525   4.000   1.428   1.170  0.2511  0.0997  1.9514
 4963SOL    HW226526   3.898   1.536   1.134 -0.1876  0.7460  1.5930
 4964SOL     OW26527   3.428   1.448   4.423 -0.1632  0.2668 -0.4525
 4964SOL    HW126528   3.407   1.537   4.451 -2.0448 -0.2671 -0.1619
 4964SOL    HW226529   3.522   1.460   4.417 -0.1133  0.0046 -0.1910
 4965SOL     OW26530   0.275   2.741   9.111  0.3828 -0.1973 -0.2872
 4965SOL    HW126531   0.265   2.646   9.121  0.2787 -0.3111 -1.4691
 4965SOL    HW226532   0.182   2.764   9.099  0.1435 -1.4882 -0.9310
 4966SOL     OW26533   0.755   0.683   4.864 -0.2334  0.3483 -0.1833
 4966SOL    HW126534   0.737   0.762   4.813 -0.5556  0.8246  0.6543
 4966SOL    HW226535   0.675   0.632   4.848 -1.1665  1.1218  1.8995
 4967SOL     OW26536   2.387   4.535   0.057 -0.0504 -0.1245 -0.4328
 4967SOL    HW126537   2.481   4.526   0.072 -0.0338  1.2724  0.3004
 4967SOL    HW226538   2.365   4.486   0.136  0.9097  0.7222  0.3638
 4968SOL     OW26539   3.268   0.334  10.824 -0.2713  0.0758  0.5252
 4968SOL    HW126540   3.215   0.389  10.766 -0.8766 -2.0109 -0.9181
 4968SOL    HW226541   3.337   0.400  10.831  0.1333 -0.2959  0.0859
 4969SOL     OW26542   2.558   4.101   1.533  0.0309 -0.2349  0.0260
 4969SOL    HW126543   2.547   4.096   1.628 -0.6484 -1.5194 -0.1241
 4969SOL    HW226544   2.509   4.181   1.513 -0.2417 -0.4991 -0.3644
 4970SOL     OW26545   4.630   3.267   1.996  0.3532 -0.3796 -0.1687
 4970SOL    HW126546   4.700   3.251   1.933  2.5514 -2.3282  2.7442
 4970SOL    HW226547   4.659   3.348   2.038 -0.7134  0.4349 -0.9901
 4971SOL     OW26548   3.651   4.514   6.234  0.2255  0.2703  0.1411
 4971SOL    HW126549   3.579   4.451   6.228  1.5948 -1.5230  2.3730
 4971SOL    HW226550   3.696   4.468   6.305  0.3478  0.9591  0.5083
 4972SOL     OW26551   2.492   2.196  16.583 -0.0648  0.0585  0.0005
 4972SOL    HW126552   2.465   2.276  16.628  2.7061 -0.0145  1.7466
 4972SOL    HW226553   2.435   2.183  16.507  0.2876 -0.3240 -0.1951
 4973SOL     OW26554   1.954   0.525   2.176 -0.3588  0.0959 -0.4682
 4973SOL    HW126555   1.961   0.593   2.243  2.8929 -0.2656 -0.4383
 4973SOL    HW226556   1.858   0.519   2.182 -0.3481 -1.3568 -1.9271
 4974SOL     OW26557   1.488   2.360   7.765  0.1691  0.0908  0.4058
 4974SOL    HW126558   1.498   2.314   7.682 -0.7179 -2.4600  1.7054
 4974SOL    HW226559   1.572   2.340   7.805  0.0810  1.3500  1.2251
 4975SOL     OW26560   1.878   4.155  10.256 -0.4517  0.0403 -0.5976
 4975SOL    HW126561   1.891   4.114  10.171 -2.0755 -1.2464 -0.2105
 4975SOL    HW226562   1.837   4.086  10.308 -1.4028  1.2245  0.2370
 4976SOL     OW26563   1.421   4.691   4.607  0.5620 -0.4483  0.0199
 4976SOL    HW126564   1.432   4.618   4.546 -0.2925 -1.0946  0.6332
 4976SOL    HW226565   1.506   4.677   4.650  0.8823  3.3114  0.6196
 4977SOL     OW26566   3.859   2.467   7.999 -0.0174  0.1997 -0.7301
 4977SOL    HW126567   3.799   2.450   8.072 -0.5545  2.1955 -0.6994
 4977SOL    HW226568   3.942   2.431   8.032 -1.5724 -2.3977  0.3304
 4978SOL     OW26569   3.891   3.442   7.294  0.3211  0.1395 -0.1665
 4978SOL    HW126570   3.955   3.412   7.229  1.4575 -2.9402  2.3707
 4978SOL    HW226571   3.909   3.383   7.367  1.5661  0.2169 -0.4153
 4979SOL     OW26572   3.029   0.153  10.868  0.2147  0.1072  0.0546
 4979SOL    HW126573   2.988   0.217  10.926 -0.9054  1.7555 -2.5477
 4979SOL    HW226574   3.097   0.207  10.828 -0.8101  1.8701  0.6880
 4980SOL     OW26575   1.747   4.165   7.422 -0.4046 -0.3295 -0.4806
 4980SOL    HW126576   1.741   4.179   7.517  2.3782 -0.6099 -0.2605
 4980SOL    HW226577   1.652   4.159   7.408 -0.3692  0.9090 -1.2434
 4981SOL     OW26578   1.418   1.449   4.455  0.1259 -0.2456 -0.2716
 4981SOL    HW126579   1.452   1.510   4.390 -0.4129  1.2735  0.8844
 4981SOL    HW226580   1.403   1.366   4.408  1.5491 -1.0840  0.7678
 4982SOL     OW26581   0.986   0.840   4.193  0.1033 -0.0569  0.2661
 4982SOL    HW126582   0.920   0.783   4.232 -0.8312  0.5272 -0.4698
 4982SOL    HW226583   0.931   0.901   4.144  2.6065  0.5709 -1.7937
 4983SOL     OW26584   4.302   3.089   0.916  0.1412 -0.1571  0.2462
 4983SOL    HW126585   4.316   3.108   1.009  1.2186  1.6531 -0.2768
 4983SOL    HW226586   4.207   3.077   0.915 -0.0139  0.8274  2.6512
 4984SOL     OW26587   2.850   1.705   6.647  0.3919  0.0665 -0.0355
 4984SOL    HW126588   2.879   1.618   6.675  1.2938 -0.2033 -1.7627
 4984SOL    HW226589   2.934   1.749   6.633  1.3608 -2.1222 -1.1371
 4985SOL     OW26590   2.557   0.855  14.188 -0.1201  1.0132 -0.6848
 4985SOL    HW126591   2.592   0.911  14.258 -2.6276  0.5430  0.9541
 4985SOL    HW226592   2.488   0.911  14.152  0.2330  0.1150 -2.7642
 4986SOL     OW26593   3.789   2.812   6.074 -0.1851  0.3753 -0.1208
 4986SOL    HW126594   3.714   2.753   6.081  0.6813 -0.6610  0.4550
 4986SOL    HW226595   3.792   2.854   6.159  0.8363 -0.2141  0.1405
 4987SOL     OW26596   2.625   3.324   4.298 -0.4349 -0.3880  0.6721
 4987SOL    HW126597   2.578   3.399   4.261  1.2768  0.0614 -0.6308
 4987SOL    HW226598   2.679   3.311   4.220 -2.0180  1.4774 -0.7590
 4988SOL     OW26599   1.867   4.247   1.305  0.5461  0.0097  0.1871
 4988SOL    HW126600   1.923   4.295   1.244  1.3269 -2.7107 -1.2146
 4988SOL    HW226601   1.796   4.311   1.293  0.3655 -0.1473  0.4254
 4989SOL     OW26602   0.997   0.679   5.987  0.3251 -0.5320 -1.0626
 4989SOL    HW126603   1.003   0.680   6.082 -2.0374  0.5871 -0.9160
 4989SOL    HW226604   1.084   0.713   5.968 -0.6020  2.4753  0.1004
 4990SOL     OW26605   1.040   4.317   5.371 -0.5790 -0.2759  0.4702
 4990SOL    HW126606   0.995   4.398   5.394 -2.4050 -1.9117  2.6640
 4990SOL    HW226607   1.045   4.270   5.454 -1.3334 -1.5606 -0.2229
 4991SOL     OW26608   0.371   0.276   2.801 -0.2799  0.1254  0.0412
 4991SOL    HW126609   0.434   0.337   2.765  0.6382  0.7002  2.6628
 4991SOL    HW226610   0.359   0.228   2.718 -0.0951 -1.3593  0.8623
 4992SOL     OW26611   3.511   2.085   2.438 -0.0715  0.7344  0.1183
 4992SOL    HW126612   3.489   2.178   2.439 -1.9353  0.2861  2.8271
 4992SOL    HW226613   3.467   2.056   2.358 -1.2935  0.8246  0.7482
 4993SOL     OW26614   0.767   3.150  10.023  0.5282 -0.2925 -0.1732
 4993SOL    HW126615   0.694   3.211  10.015  1.3171  0.5954 -0.6201
 4993SOL    HW226616   0.818   3.165   9.943  1.7720  1.6397  0.9853
 4994SOL     OW26617   2.550   3.983  12.768  0.3270 -0.1176 -0.5388
 4994SOL    HW126618   2.487   4.042  12.810 -0.8215 -1.9555  0.3494
 4994SOL    HW226619   2.611   4.048  12.734  1.7631 -0.8225  0.7257
 4995SOL     OW26620   0.574   2.898   2.740  0.0774 -0.6361  0.2098
 4995SOL    HW126621   0.616   2.919   2.823 -2.3156 -0.7977  1.4557
 4995SOL    HW226622   0.504   2.848   2.780  0.4005 -0.4383  1.0084
 4996SOL     OW26623   0.048   4.455  12.201  0.3595 -0.5203 -0.1323
 4996SOL    HW126624   0.020   4.372  12.162 -0.8732 -1.2599  2.2826
 4996SOL    HW226625   0.133   4.468  12.160  1.0216  2.4510  2.1643
 4997SOL     OW26626   3.115   0.585   1.709  0.3148 -0.5656 -0.1113
 4997SOL    HW126627   3.185   0.647   1.727 -0.9919  1.4674 -2.0421
 4997SOL    HW226628   3.104   0.546   1.796 -0.6817 -0.1225 -0.0354
 4998SOL     OW26629   4.699   2.382   6.833  0.1804  0.5815  0.2063
 4998SOL    HW126630   4.711   2.322   6.906  0.1123  0.6243  0.2522
 4998SOL    HW226631   4.656   2.318   6.776  1.2982 -0.6995  0.8065
 4999SOL     OW26632   1.407   3.976   3.002 -0.2854  0.3123 -0.2241
 4999SOL    HW126633   1.332   3.925   3.032 -0.9572 -0.0557 -2.4914
 4999SOL    HW226634   1.472   3.910   2.978  2.4548  2.2830  1.7302
 5000SOL     OW26635   1.676   1.593   9.922  0.4967  0.6764 -0.9950
 5000SOL    HW126636   1.719   1.673   9.892 -1.1016  2.3770  1.2602
 5000SOL    HW226637   1.745   1.551   9.973 -1.0907 -0.6533  0.0439
 5001SOL     OW26638   3.442   3.190   6.353 -0.1689  0.0155  0.6177
 5001SOL    HW126639   3.355   3.183   6.393 -2.6564  0.2287 -4.7562
 5001SOL    HW226640   3.420   3.259   6.291  0.6802  1.3234  1.7758
 5002SOL     OW26641   4.640   2.934   7.651  0.1093  0.6643 -0.2090
 5002SOL    HW126642   4.585   2.858   7.668 -2.7394  3.0083  0.8806
 5002SOL    HW226643   4.695   2.888   7.587  0.8883  1.7716 -0.3471
 5003SOL     OW26644   1.969   2.788   0.691  0.2577 -0.0750  0.0111
 5003SOL    HW126645   2.010   2.875   0.686 -0.5255  0.4184  2.2968
 5003SOL    HW226646   1.877   2.809   0.707  0.6392  0.9163  0.9099
 5004SOL     OW26647   0.879   4.176   3.908 -0.3243 -0.1763  0.3932
 5004SOL    HW126648   0.894   4.250   3.967  1.6152  1.6732 -2.4139
 5004SOL    HW226649   0.789   4.188   3.877  0.8264  1.7328 -2.2508
 5005SOL     OW26650   2.359   2.924  17.596 -0.1576  0.1081 -0.5605
 5005SOL    HW126651   2.340   3.016  17.615 -0.9198 -0.3542  0.9526
 5005SOL    HW226652   2.266   2.901  17.602  0.1106 -0.2455  2.3013
 5006SOL     OW26653   0.729   0.828  16.540 -0.0207 -0.4426 -0.0151
 5006SOL    HW126654   0.724   0.756  16.603  0.6213 -2.0178 -1.7427
 5006SOL    HW226655   0.657   0.806  16.479  1.6678 -0.7971 -1.8773
 5007SOL     OW26656   1.047   3.798  13.955  0.4644  0.0750 -0.1531
 5007SOL    HW126657   1.065   3.862  13.886 -0.9354  2.3858  1.6296
 5007SOL    HW226658   0.983   3.741  13.911  0.9773 -1.5902  1.2514
 5008SOL     OW26659   3.253   2.354   6.966  0.8485 -0.0561 -0.7162
 5008SOL    HW126660   3.313   2.426   6.949 -0.1008  0.8781 -0.1897
 5008SOL    HW226661   3.243   2.339   7.060  3.3044  0.7991 -0.3199
 5009SOL     OW26662   4.311   0.750   4.711  0.2146  0.1264  0.2551
 5009SOL    HW126663   4.403   0.777   4.708  0.1710  0.3065  0.5796
 5009SOL    HW226664   4.318   0.656   4.726  1.7703 -0.0378 -1.4024
 5010SOL     OW26665   2.126   0.295   0.313 -0.4016  0.7941 -0.1659
 5010SOL    HW126666   2.047   0.255   0.279  0.4041 -0.0429 -1.0461
 5010SOL    HW226667   2.191   0.228   0.294 -0.5204  0.5247  0.3738
 5011SOL     OW26668   1.663   4.609  10.310 -0.5698 -0.3173 -0.3228
 5011SOL    HW126669   1.716   4.576  10.382  0.0920 -0.5453 -0.9116
 5011SOL    HW226670   1.710   4.575  10.234  0.2416  0.9430 -0.3894
 5012SOL     OW26671   1.397   1.570   2.931  0.4972 -0.7613  1.1710
 5012SOL    HW126672   1.357   1.485   2.947  0.2928 -0.9162 -0.1365
 5012SOL    HW226673   1.338   1.611   2.867  2.1322 -0.5276 -0.1834
 5013SOL     OW26674   2.047   3.332   4.751  0.0731  0.9104 -0.5113
 5013SOL    HW126675   1.978   3.313   4.815  0.3802  1.8652  0.0896
 5013SOL    HW226676   2.129   3.344   4.798  0.1507 -0.8765 -0.2004
 5014SOL     OW26677   2.816   4.192  10.843  0.7205  0.2032 -0.2254
 5014SOL    HW126678   2.783   4.269  10.889 -0.4352  0.2364 -1.1056
 5014SOL    HW226679   2.795   4.201  10.750 -2.2180 -1.6882  0.2909
 5015SOL     OW26680   2.742   1.048   1.603  0.8988 -0.2996  0.0199
 5015SOL    HW126681   2.822   1.017   1.645  0.8434  1.6879  1.6169
 5015SOL    HW226682   2.763   1.046   1.510  1.3196  0.4401  0.1007
 5016SOL     OW26683   0.530   3.239   4.118 -0.0506 -0.0644 -0.5431
 5016SOL    HW126684   0.475   3.166   4.146 -0.9187  0.8023  0.0184
 5016SOL    HW226685   0.605   3.240   4.177  1.6788  0.1614 -2.7567
 5017SOL     OW26686   4.536   1.692   1.254 -0.0215  0.3290  0.0462
 5017SOL    HW126687   4.502   1.779   1.232  1.9118  0.8392 -0.8892
 5017SOL    HW226688   4.624   1.691   1.217  0.2781 -1.7531  0.8549
 5018SOL     OW26689   3.078   3.809  16.030 -0.0788 -0.1787  0.4958
 5018SOL    HW126690   3.011   3.762  15.980 -0.5976  1.6256 -0.5108
 5018SOL    HW226691   3.092   3.880  15.967 -1.3501 -0.6351 -0.3107
 5019SOL     OW26692   0.786   1.845   1.859 -0.0665  0.3054 -0.2970
 5019SOL    HW126693   0.776   1.833   1.953 -1.0897 -1.5519 -0.6467
 5019SOL    HW226694   0.875   1.814   1.846  0.1121 -0.3029  2.5566
 5020SOL     OW26695   3.330   2.821   5.460  0.7181  0.0128  0.1556
 5020SOL    HW126696   3.413   2.815   5.506 -0.8060 -3.2300  2.4898
 5020SOL    HW226697   3.303   2.913   5.458 -0.0105 -0.2541 -1.8413
 5021SOL     OW26698   0.314   3.546   4.591 -0.0151  0.3336 -0.5643
 5021SOL    HW126699   0.367   3.587   4.660 -1.3673 -1.6239  1.6322
 5021SOL    HW226700   0.353   3.590   4.515 -1.1842  1.6371 -0.3910
 5022SOL     OW26701   1.634   1.834   8.802  0.1753  0.0123  0.1317
 5022SOL    HW126702   1.694   1.768   8.837 -0.5751 -0.6572  0.1550
 5022SOL    HW226703   1.688   1.856   8.726 -0.4473 -0.5020 -0.4545
 5023SOL     OW26704   2.099   2.842   3.602  0.5030  0.3094 -0.0994
 5023SOL    HW126705   2.047   2.904   3.550 -0.7605 -0.2275  0.5304
 5023SOL    HW226706   2.181   2.891   3.613  0.7989  0.2327 -2.1384
 5024SOL     OW26707   2.358   0.865   5.468  0.1703  0.0460  0.1681
 5024SOL    HW126708   2.312   0.914   5.536 -0.8478  0.0327 -0.5069
 5024SOL    HW226709   2.401   0.800   5.523 -0.1161 -1.4500 -1.3837
 5025SOL     OW26710   1.788   2.796   3.245  0.5968 -0.1098  0.3243
 5025SOL    HW126711   1.839   2.836   3.316  3.8958 -1.7980 -1.0839
 5025SOL    HW226712   1.741   2.871   3.207  2.2313  0.2532 -0.9838
 5026SOL     OW26713   2.779   0.768   3.423  0.8309  0.3824 -0.0018
 5026SOL    HW126714   2.790   0.836   3.357  2.1160  0.2230  0.0550
 5026SOL    HW226715   2.817   0.810   3.500 -0.3269  1.8784 -0.2395
 5027SOL     OW26716   2.808   2.365   6.462 -0.0369 -0.6876 -0.3838
 5027SOL    HW126717   2.888   2.329   6.501  0.7767 -0.8974 -2.2664
 5027SOL    HW226718   2.746   2.300   6.498 -1.3341  0.6146 -0.2634
 5028SOL     OW26719   1.323   0.960   3.368 -0.0787 -0.2757  0.0700
 5028SOL    HW126720   1.354   1.040   3.326 -1.1988  0.8557  1.4173
 5028SOL    HW226721   1.375   0.897   3.318  1.1364  0.2661  0.6776
 5029SOL     OW26722   1.189   0.255  14.209  0.1995 -0.0800 -0.0139
 5029SOL    HW126723   1.232   0.170  14.207  0.2173 -0.0870  0.8822
 5029SOL    HW226724   1.231   0.304  14.138 -2.4334 -0.5432 -1.8874
 5030SOL     OW26725   2.442   1.859   8.172  0.4318 -0.0324  0.0989
 5030SOL    HW126726   2.443   1.951   8.199 -3.9697  0.4808 -1.4248
 5030SOL    HW226727   2.513   1.857   8.108  0.0704 -3.4852 -0.2106
 5031SOL     OW26728   2.577   3.431   2.577 -0.8079  0.1055  0.5943
 5031SOL    HW126729   2.595   3.391   2.662  2.2536 -1.7296 -0.9536
 5031SOL    HW226730   2.547   3.351   2.533 -0.6749  0.0374  0.6300
 5032SOL     OW26731   3.873   1.020  13.645  0.4183 -0.6618 -0.2707
 5032SOL    HW126732   3.821   1.092  13.611 -0.0100 -0.4753  0.7757
 5032SOL    HW226733   3.961   1.033  13.610 -0.1561  1.5198 -0.8809
 5033SOL     OW26734   3.421   2.849  15.800  0.4950 -0.1097 -0.1101
 5033SOL    HW126735   3.433   2.877  15.710 -1.2330 -2.5383 -1.1200
 5033SOL    HW226736   3.469   2.915  15.850  2.3232 -0.8578 -0.8651
 5034SOL     OW26737   4.074   1.475   8.939  0.2614 -0.0454  0.4977
 5034SOL    HW126738   4.009   1.488   8.869 -1.0333 -2.3705  1.2923
 5034SOL    HW226739   4.111   1.563   8.946 -1.5719  0.9822 -2.4817
 5035SOL     OW26740   3.432   1.946   1.773 -0.6558  0.0122  0.4558
 5035SOL    HW126741   3.489   2.018   1.748 -1.7335  0.4471 -0.7962
 5035SOL    HW226742   3.492   1.891   1.823  1.1847  1.6050 -0.0449
 5036SOL     OW26743   4.380   2.938   3.622  0.0590  0.0429 -0.0729
 5036SOL    HW126744   4.347   2.912   3.708 -1.6903 -2.2977 -1.4478
 5036SOL    HW226745   4.470   2.907   3.623 -0.3483 -1.1519 -0.7599
 5037SOL     OW26746   0.579   0.223   6.934 -0.2342 -0.4288 -0.5855
 5037SOL    HW126747   0.519   0.235   6.861  1.9446 -2.3353 -2.7044
 5037SOL    HW226748   0.633   0.149   6.905  3.1308  1.1960  1.4731
 5038SOL     OW26749   2.964   1.797  10.061 -0.1507 -0.0269  0.6183
 5038SOL    HW126750   3.028   1.726  10.061 -0.1796 -0.0547  0.1150
 5038SOL    HW226751   2.878   1.758  10.078 -0.3112  0.1389  0.1917
 5039SOL     OW26752   3.590   4.613   8.873 -0.2013 -0.0818 -0.3604
 5039SOL    HW126753   3.511   4.621   8.926  1.2056  1.8852  1.4769
 5039SOL    HW226754   3.597   4.518   8.861  2.4845  0.0556  0.0282
 5040SOL     OW26755   0.978   1.608   8.166  0.2708  0.0072 -0.3247
 5040SOL    HW126756   1.000   1.526   8.209  1.1970  0.6792  0.4715
 5040SOL    HW226757   1.041   1.600   8.095 -0.8151 -2.0511 -1.0646
 5041SOL     OW26758   2.108   4.689  15.231  0.2680 -0.2803  0.0779
 5041SOL    HW126759   2.047   4.642  15.174  0.8158  1.2453 -1.7792
 5041SOL    HW226760   2.054   4.665  15.306  0.7726  1.4686  1.0013
 5042SOL     OW26761   1.564   0.802   8.446 -0.0376 -0.4283  0.1749
 5042SOL    HW126762   1.645   0.822   8.493 -0.4692  0.4859  0.5355
 5042SOL    HW226763   1.596   0.748   8.374 -0.2153  0.8370 -0.8474
 5043SOL     OW26764   2.478   1.230   3.895 -0.1049  0.2977 -0.0947
 5043SOL    HW126765   2.562   1.185   3.906  1.1775  2.1184 -2.4835
 5043SOL    HW226766   2.490   1.274   3.811 -0.4121  1.8785  0.6799
 5044SOL     OW26767   1.691   0.343   2.817 -0.3015 -0.0111 -0.8756
 5044SOL    HW126768   1.642   0.285   2.875  0.3109 -1.1968 -1.5530
 5044SOL    HW226769   1.625   0.399   2.776 -0.7371  0.0481 -0.0935
 5045SOL     OW26770   3.488   4.024   4.911  0.5771 -0.4746 -0.0178
 5045SOL    HW126771   3.393   4.029   4.914  0.6401  0.3040  0.6619
 5045SOL    HW226772   3.488   3.934   4.942 -1.2342 -0.4556  0.0126
 5046SOL     OW26773   3.672   1.840   6.799 -0.1942  0.2273  0.0093
 5046SOL    HW126774   3.749   1.854   6.854  0.5095 -1.9268 -0.4032
 5046SOL    HW226775   3.700   1.779   6.731 -3.3195  0.4307 -1.4731
 5047SOL     OW26776   2.160   2.164  13.811  0.8996 -0.0544 -0.3483
 5047SOL    HW126777   2.147   2.095  13.876 -0.5901 -2.5269 -3.3062
 5047SOL    HW226778   2.154   2.104  13.737 -6.2026 -0.3011  0.4576
 5048SOL     OW26779   4.566   0.147   3.452 -0.5415 -0.6717 -0.1241
 5048SOL    HW126780   4.515   0.211   3.502  2.1044  0.4794  1.1091
 5048SOL    HW226781   4.652   0.159   3.492 -0.8909 -1.1635  0.7726
 5049SOL     OW26782   2.405   2.561   9.599  0.2077  0.2190 -0.5491
 5049SOL    HW126783   2.348   2.492   9.566 -1.8596  0.1039  3.2830
 5049SOL    HW226784   2.449   2.523   9.674 -0.6928  1.3558  0.5464
 5050SOL     OW26785   0.962   2.307   4.379  1.0634  0.8386 -0.2681
 5050SOL    HW126786   0.898   2.370   4.347 -0.5159  0.0584  1.3246
 5050SOL    HW226787   0.903   2.237   4.408  1.7849 -0.0025 -0.8314
 5051SOL     OW26788   3.491   2.696  16.304  0.4560  0.0944 -0.3174
 5051SOL    HW126789   3.479   2.767  16.242 -0.8344  0.4475  0.3329
 5051SOL    HW226790   3.489   2.743  16.388 -3.3057  0.5951 -0.7201
 5052SOL     OW26791   3.628   0.837  10.009  0.3897 -0.2772 -0.3168
 5052SOL    HW126792   3.648   0.866  10.098 -1.8731 -0.3056  0.2128
 5052SOL    HW226793   3.715   0.802   9.990  0.5875  0.3174 -0.5201
 5053SOL     OW26794   3.301   2.731   3.395 -0.0283 -0.0298  0.4201
 5053SOL    HW126795   3.313   2.810   3.449 -0.1669  0.4719 -0.2867
 5053SOL    HW226796   3.239   2.683   3.451  1.1826 -0.4331  1.4198
 5054SOL     OW26797   1.011   4.235   7.333 -0.3625 -0.0215 -0.2171
 5054SOL    HW126798   0.936   4.232   7.392 -0.5463  1.5009 -0.3703
 5054SOL    HW226799   1.001   4.159   7.275 -2.1451 -0.5137  0.7410
 5055SOL     OW26800   1.893   2.632   8.585  0.2161 -0.5785 -0.0439
 5055SOL    HW126801   1.850   2.716   8.569 -0.9076 -1.5187 -2.0011
 5055SOL    HW226802   1.947   2.624   8.506  1.8718 -0.4703  1.0803
 5056SOL     OW26803   1.414   4.473   8.148  0.7345  0.0723 -0.5751
 5056SOL    HW126804   1.334   4.462   8.097  0.0770 -0.3526  0.5494
 5056SOL    HW226805   1.393   4.560   8.182 -1.7886  0.0048 -1.9446
 5057SOL     OW26806   3.836   2.387  10.713 -0.2161  0.2702 -0.9224
 5057SOL    HW126807   3.798   2.308  10.752  1.7015 -0.8081 -1.2572
 5057SOL    HW226808   3.919   2.362  10.674  0.0555 -0.6219  0.2116
 5058SOL     OW26809   0.049   1.456   6.084  0.3617  0.3046  0.1086
 5058SOL    HW126810   4.711   1.493   6.132  0.5867 -1.5730  1.8960
 5058SOL    HW226811   0.096   1.401   6.146 -0.5751 -0.4057  0.1865
 5059SOL     OW26812   3.794   3.451  13.293 -0.1734 -0.2706  0.3944
 5059SOL    HW126813   3.885   3.424  13.279  0.4205  1.8829  0.1328
 5059SOL    HW226814   3.756   3.378  13.244  2.3879 -1.3894  0.0795
 5060SOL     OW26815   2.545   1.026   7.221 -0.0225  0.5247  0.0809
 5060SOL    HW126816   2.611   1.082   7.262 -0.8668  2.1959 -0.8491
 5060SOL    HW226817   2.492   1.094   7.178 -1.5926 -0.1441  0.9763
 5061SOL     OW26818   3.894   1.751   3.968  0.4010 -0.0206 -0.1367
 5061SOL    HW126819   3.965   1.802   3.930  0.8544 -1.1252 -0.7782
 5061SOL    HW226820   3.839   1.822   4.001 -2.8054 -2.5311 -0.0628
 5062SOL     OW26821   3.711   0.518   9.017 -0.0119 -0.0275  0.0639
 5062SOL    HW126822   3.683   0.507   8.926 -0.8859 -0.0989  0.3404
 5062SOL    HW226823   3.666   0.449   9.066  2.3818 -2.7281 -1.5072
 5063SOL     OW26824   0.649   1.729   1.652 -0.3950 -0.4966  0.2693
 5063SOL    HW126825   0.710   1.745   1.724  1.7639  3.8750 -2.5719
 5063SOL    HW226826   0.565   1.710   1.695 -0.2218 -2.7484 -0.3638
 5064SOL     OW26827   0.088   1.268  14.368  0.2015 -0.0926 -0.0560
 5064SOL    HW126828   0.121   1.241  14.454 -0.8965  1.4087  0.8191
 5064SOL    HW226829   0.125   1.355  14.355  1.3272 -0.3141  1.6131
 5065SOL     OW26830   2.294   3.415   8.736 -0.2246 -0.8052  0.2776
 5065SOL    HW126831   2.376   3.438   8.779  0.2373  0.2074 -1.1688
 5065SOL    HW226832   2.262   3.366   8.812 -0.3143  2.5958  2.4349
 5066SOL     OW26833   3.469   0.051   5.604 -0.2016  0.4872  0.6686
 5066SOL    HW126834   3.450   4.706   5.651  1.1173  0.6647  1.5307
 5066SOL    HW226835   3.528   0.026   5.533 -0.0921  1.9677  0.2352
 5067SOL     OW26836   1.384   1.809   3.182 -0.5659  0.1338 -0.1511
 5067SOL    HW126837   1.442   1.766   3.120  1.9163  2.3450  0.6096
 5067SOL    HW226838   1.331   1.734   3.209  1.4968 -1.6209 -1.0209
 5068SOL     OW26839   4.412   0.814   9.645 -0.1535 -0.2617  0.2613
 5068SOL    HW126840   4.492   0.827   9.595  0.0419 -2.8656 -0.0964
 5068SOL    HW226841   4.418   0.720   9.663 -1.8290 -0.6495 -1.1579
 5069SOL     OW26842   1.881   1.968  12.773  0.5341  0.0904  0.4889
 5069SOL    HW126843   1.865   1.983  12.866 -4.0535  1.8255 -0.5567
 5069SOL    HW226844   1.787   1.962  12.755  0.9590 -2.3243 -0.9708
 5070SOL     OW26845   4.316   3.483   1.741  0.1232  0.4176 -0.0490
 5070SOL    HW126846   4.366   3.442   1.670 -1.1273 -0.3386 -0.4896
 5070SOL    HW226847   4.302   3.573   1.711 -0.4894  1.5001  3.4344
 5071SOL     OW26848   1.849   4.688   6.581  0.5003 -0.5775  0.0102
 5071SOL    HW126849   1.871   4.598   6.556 -0.0823 -1.0114  1.0357
 5071SOL    HW226850   1.777   4.692   6.519  0.9533  2.5036 -0.2955
 5072SOL     OW26851   0.646   4.380   3.794 -0.1956  0.7314 -0.2882
 5072SOL    HW126852   0.564   4.427   3.781 -0.4421 -0.1050 -1.8902
 5072SOL    HW226853   0.659   4.392   3.888  2.4784  4.0033 -1.0638
 5073SOL     OW26854   1.176   2.975   0.359  0.1297 -0.2852  0.3129
 5073SOL    HW126855   1.270   2.987   0.375  0.0058  0.0358  0.8015
 5073SOL    HW226856   1.139   2.977   0.447 -2.4536 -2.2502 -0.7156
 5074SOL     OW26857   0.625   0.731  17.187 -0.3090 -0.1333  0.4459
 5074SOL    HW126858   0.621   0.826  17.195 -0.2598 -0.2379  1.7594
 5074SOL    HW226859   0.598   0.725  17.095 -1.1900 -0.5750  0.7382
 5075SOL     OW26860   4.036   1.663   8.034 -0.8330 -0.8726  0.1549
 5075SOL    HW126861   4.030   1.690   7.943 -0.6696  0.0977  0.4312
 5075SOL    HW226862   4.045   1.746   8.081  0.3227 -1.8378  1.6383
 5076SOL     OW26863   1.257   3.941   7.678 -0.0076  0.6232 -0.1869
 5076SOL    HW126864   1.329   3.938   7.742 -1.7732  2.3511  1.8755
 5076SOL    HW226865   1.220   4.029   7.682  0.8632  0.9233  1.4909
 5077SOL     OW26866   2.615   3.664   5.423  0.2636 -0.3888 -0.3008
 5077SOL    HW126867   2.530   3.654   5.466  0.2992 -0.5053 -0.2590
 5077SOL    HW226868   2.616   3.597   5.355  2.0795 -0.5371 -0.1133
 5078SOL     OW26869   2.140   0.074   3.948 -0.0920 -0.5683  0.4616
 5078SOL    HW126870   2.175   0.162   3.938  1.2162 -1.2502 -0.9163
 5078SOL    HW226871   2.117   0.053   3.857 -1.0689 -1.9882  1.0281
 5079SOL     OW26872   4.552   2.179   6.745 -0.2749  0.1399  0.6244
 5079SOL    HW126873   4.531   2.166   6.652 -0.3080  0.8888  0.5258
 5079SOL    HW226874   4.506   2.104   6.783 -0.9556  0.6458  0.8165
 5080SOL     OW26875   2.036   0.740   4.466  0.3045  0.1113 -0.3477
 5080SOL    HW126876   2.099   0.759   4.535  0.6743 -1.2872 -0.3123
 5080SOL    HW226877   2.095   0.698   4.404  1.5421 -0.0915  0.9819
 5081SOL     OW26878   4.449   4.485   2.777 -0.5240  0.6599 -0.6748
 5081SOL    HW126879   4.471   4.518   2.864  2.9227 -1.6375 -0.7007
 5081SOL    HW226880   4.413   4.565   2.739  1.4079  1.4261 -0.8545
 5082SOL     OW26881   2.972   2.623   7.832  0.2972 -0.1043 -1.0692
 5082SOL    HW126882   2.946   2.573   7.754 -2.8015 -2.2042  1.3315
 5082SOL    HW226883   2.904   2.595   7.893  1.1026 -2.9910 -1.4502
 5083SOL     OW26884   0.277   3.924   1.064  0.2024  0.3187  0.4905
 5083SOL    HW126885   0.344   3.860   1.085  1.2058  1.5486  1.0633
 5083SOL    HW226886   0.251   3.900   0.975 -0.2816 -0.5951  0.8766
 5084SOL     OW26887   2.222   1.081   8.186  0.7243  0.2101  0.4940
 5084SOL    HW126888   2.287   1.150   8.175 -0.8741  1.4704 -0.8671
 5084SOL    HW226889   2.149   1.140   8.203  0.6959  0.5154 -0.6892
 5085SOL     OW26890   4.403   2.251   7.290  0.2920  0.4078 -0.1015
 5085SOL    HW126891   4.439   2.329   7.331  1.9982 -0.1984 -0.4650
 5085SOL    HW226892   4.386   2.197   7.367  1.5583  0.2728  0.0808
 5086SOL     OW26893   4.276   3.744   4.433  0.5683 -0.5395 -1.4461
 5086SOL    HW126894   4.342   3.796   4.480  0.1104 -0.4567 -0.9015
 5086SOL    HW226895   4.241   3.803   4.366 -1.9115 -0.9748 -0.5442
 5087SOL     OW26896   0.464   0.840   7.590  0.1095 -0.3968 -0.0042
 5087SOL    HW126897   0.429   0.755   7.616  1.1319 -0.4327  1.2599
 5087SOL    HW226898   0.539   0.815   7.536  0.8386  1.7793 -0.0026
 5088SOL     OW26899   2.047   0.441   7.806 -0.1062  0.0425  0.0131
 5088SOL    HW126900   2.023   0.418   7.896  1.6583 -2.9776 -0.2513
 5088SOL    HW226901   2.039   0.536   7.806 -1.2365 -0.0537  2.3375
 5089SOL     OW26902   3.362   3.648  10.731 -0.6157 -0.2288 -0.1265
 5089SOL    HW126903   3.389   3.640  10.823  1.3020  0.6728 -0.5981
 5089SOL    HW226904   3.274   3.613  10.723 -1.2524  1.2232  0.4986
 5090SOL     OW26905   1.170   0.075   5.753 -0.4015  0.1716 -0.0096
 5090SOL    HW126906   1.134   0.018   5.821 -0.1967 -0.4804 -0.4529
 5090SOL    HW226907   1.248   0.100   5.804 -0.1781  2.2071 -1.3464
 5091SOL     OW26908   1.283   0.728   8.405 -0.1025 -0.0415  0.3559
 5091SOL    HW126909   1.308   0.637   8.421 -1.8687 -0.3951  1.0172
 5091SOL    HW226910   1.366   0.766   8.374 -1.2323  1.6810 -0.6045
 5092SOL     OW26911   2.362   2.987   2.916  0.3275 -0.4006  0.2746
 5092SOL    HW126912   2.318   2.969   2.999  1.7658  1.4181  1.4307
 5092SOL    HW226913   2.407   2.904   2.901  0.7901  0.0112 -0.5965
 5093SOL     OW26914   0.071   1.000   6.446 -0.3694  0.3750  0.5225
 5093SOL    HW126915   0.078   0.972   6.355 -0.3356  0.2523  0.5618
 5093SOL    HW226916   0.161   1.025   6.468 -0.6305  0.7520  1.1928
 5094SOL     OW26917   1.374   0.277   9.911 -0.4151 -0.0178  0.2927
 5094SOL    HW126918   1.280   0.264   9.919 -0.2992 -0.5177  0.8164
 5094SOL    HW226919   1.370   0.368   9.880 -0.2020 -0.7902 -1.9600
 5095SOL     OW26920   4.382   0.295  14.733  0.5272  0.3382 -0.0981
 5095SOL    HW126921   4.320   0.354  14.691  0.9417  1.2488  0.5693
 5095SOL    HW226922   4.402   0.235  14.662  1.0072  1.1875 -0.6707
 5096SOL     OW26923   0.673   2.119   1.252  0.1365 -0.3448 -0.4812
 5096SOL    HW126924   0.746   2.153   1.304 -0.8897  3.4132 -1.5110
 5096SOL    HW226925   0.622   2.075   1.320 -0.8240  0.4078 -0.7187
 5097SOL     OW26926   2.032   1.996   6.899 -0.4662  0.1574  0.4445
 5097SOL    HW126927   2.035   2.060   6.828  0.9870  0.0252  0.3814
 5097SOL    HW226928   1.950   1.953   6.874  0.7656  0.1182 -3.4363
 5098SOL     OW26929   3.896   3.286   4.727 -0.0692  0.1483  0.3124
 5098SOL    HW126930   3.900   3.274   4.632 -0.6694  1.8458  0.0613
 5098SOL    HW226931   3.925   3.202   4.762  0.6285  1.6333  3.2942
 5099SOL     OW26932   0.665   1.748   9.222 -0.1446  0.1901  0.5006
 5099SOL    HW126933   0.642   1.677   9.281  1.7427  1.4190  2.6898
 5099SOL    HW226934   0.692   1.702   9.142  1.3100 -0.1549  1.1948
 5100SOL     OW26935   0.854   1.487  17.596  0.3425 -0.2963  0.5617
 5100SOL    HW126936   0.781   1.462  17.652 -0.7193 -1.1871 -1.2428
 5100SOL    HW226937   0.904   1.405  17.587  0.4321  0.0714 -2.2719
 5101SOL     OW26938   2.650   2.277   3.371 -0.1808 -0.0050 -0.4096
 5101SOL    HW126939   2.669   2.370   3.360 -1.9913  0.1856 -2.0777
 5101SOL    HW226940   2.735   2.236   3.354 -0.3359 -0.8789  0.9677
 5102SOL     OW26941   3.771   4.485   6.881 -0.1125 -0.4080 -0.0542
 5102SOL    HW126942   3.756   4.482   6.976  1.6120  0.8328  0.2741
 5102SOL    HW226943   3.703   4.549   6.860 -0.0844 -0.9169 -1.6821
 5103SOL     OW26944   1.388   1.949   7.563 -0.3802 -0.7160 -0.4239
 5103SOL    HW126945   1.366   1.992   7.645 -0.2552 -0.7227 -0.3870
 5103SOL    HW226946   1.312   1.891   7.560  0.1633 -1.4617  0.2528
 5104SOL     OW26947   4.240   1.433   4.655 -0.0811 -0.2132 -0.4211
 5104SOL    HW126948   4.151   1.457   4.681  0.7146  1.9888  0.3565
 5104SOL    HW226949   4.279   1.401   4.737 -0.1909 -0.8496 -0.6158
 5105SOL     OW26950   0.592   0.226   7.305 -0.3653 -0.0633 -0.1509
 5105SOL    HW126951   0.654   0.267   7.245  1.0926 -0.5409  1.0247
 5105SOL    HW226952   0.544   0.299   7.344  0.8767 -0.7344  2.5797
 5106SOL     OW26953   3.511   2.944  16.874 -0.6184  0.6572  0.7927
 5106SOL    HW126954   3.475   2.990  16.949 -0.6518  0.7664  0.7101
 5106SOL    HW226955   3.435   2.922  16.820  0.1282  1.7388 -0.7209
 5107SOL     OW26956   3.681   0.296   3.187  0.8569 -0.6726 -0.5213
 5107SOL    HW126957   3.675   0.358   3.115  0.3499  0.2418  0.3122
 5107SOL    HW226958   3.769   0.261   3.179  0.5761 -1.4971 -0.0365
 5108SOL     OW26959   3.254   3.011   8.045  0.1483 -0.1815 -0.1021
 5108SOL    HW126960   3.348   3.022   8.062 -0.4410 -0.0452  3.0290
 5108SOL    HW226961   3.247   3.015   7.950 -0.4938 -1.6388 -0.1151
 5109SOL     OW26962   4.262   1.347  17.706  0.3353 -0.1881 -0.4506
 5109SOL    HW126963   4.325   1.312  17.643 -0.4168  0.7776 -1.7338
 5109SOL    HW226964   4.327   1.347   0.033 -1.4631 -0.2573  1.1955
 5110SOL     OW26965   1.817   2.550  16.335 -0.3778  0.3039  0.5663
 5110SOL    HW126966   1.865   2.568  16.417  1.9999  3.1233 -1.4526
 5110SOL    HW226967   1.756   2.624  16.329 -0.4526  0.3039  1.3026
 5111SOL     OW26968   0.848   2.669  12.159 -0.3969  0.7040  0.4937
 5111SOL    HW126969   0.906   2.712  12.222  0.1936 -0.7362  0.9171
 5111SOL    HW226970   0.865   2.576  12.174  1.8284  1.0384  0.1142
 5112SOL     OW26971   3.782   4.566   2.292 -0.2994 -0.2586  0.3211
 5112SOL    HW126972   3.778   4.645   2.238 -2.4836 -1.7749 -1.6922
 5112SOL    HW226973   3.872   4.560   2.324  0.2692 -0.9326 -1.4053
 5113SOL     OW26974   2.490   1.171   4.189 -0.3481 -0.1551 -0.1798
 5113SOL    HW126975   2.525   1.257   4.213 -0.5333 -0.6607  1.8330
 5113SOL    HW226976   2.573   1.130   4.164  1.0811  1.7317  1.4303
 5114SOL     OW26977   4.727   2.483   5.175 -0.2871 -0.3383  0.6296
 5114SOL    HW126978   4.724   2.571   5.137 -2.7182 -0.6713  0.0226
 5114SOL    HW226979   0.076   2.452   5.144 -0.5048 -0.0645 -0.2348
 5115SOL     OW26980   2.830   4.642   2.171  0.5914 -0.1125  0.3763
 5115SOL    HW126981   2.773   4.716   2.148  1.3051 -0.3470 -2.1957
 5115SOL    HW226982   2.914   4.678   2.199  1.9419 -1.1322 -2.3755
 5116SOL     OW26983   3.782   3.934  14.678  0.3193 -0.3943 -0.0331
 5116SOL    HW126984   3.796   3.846  14.711  0.0314 -0.3042  0.3236
 5116SOL    HW226985   3.689   3.943  14.699  0.5468  0.0847  0.7607
 5117SOL     OW26986   4.095   3.105   8.087 -0.3002  0.3392 -0.0133
 5117SOL    HW126987   4.177   3.056   8.098  0.4412  1.7871  0.9420
 5117SOL    HW226988   4.136   3.186   8.056 -1.1501  0.3292 -1.1744
 5118SOL     OW26989   4.483   3.479  14.744  0.6401  0.2016 -0.3347
 5118SOL    HW126990   4.551   3.506  14.683  0.4115  1.9235  0.1653
 5118SOL    HW226991   4.534   3.482  14.825  2.3706 -3.0978 -1.3061
 5119SOL     OW26992   1.858   0.464   4.112  0.3865 -0.0699 -0.0749
 5119SOL    HW126993   1.933   0.453   4.169  0.4067 -2.0060 -0.4601
 5119SOL    HW226994   1.885   0.419   4.031  0.6791  2.7747 -1.5564
 5120SOL     OW26995   3.018   2.092   7.429 -0.3358 -0.2466 -0.1575
 5120SOL    HW126996   3.026   2.094   7.334  0.0143 -0.6927 -0.1376
 5120SOL    HW226997   3.003   2.000   7.454  0.3866 -0.2469  0.2946
 5121SOL     OW26998   4.014   3.703  13.431 -0.1019  0.4876  0.3179
 5121SOL    HW126999   3.927   3.725  13.464 -1.1072 -1.4209 -1.0314
 5121SOL    HW227000   4.038   3.646  13.504 -1.3666 -0.6006 -0.1018
 5122SOL     OW27001   0.019   1.765   8.972  0.3192  0.0888 -0.3335
 5122SOL    HW127002   0.005   1.713   8.892  1.4660 -1.7475  0.6589
 5122SOL    HW227003   0.023   1.692   9.034 -0.0998  0.0337 -0.3745
 5123SOL     OW27004   2.852   0.159   6.110  0.0826 -0.1750  0.0943
 5123SOL    HW127005   2.874   0.214   6.035 -0.4900  0.4986  0.4231
 5123SOL    HW227006   2.918   0.090   6.114  0.4692  0.1499 -0.6894
 5124SOL     OW27007   2.720   3.168   3.466 -0.2040 -0.4054  0.2524
 5124SOL    HW127008   2.648   3.231   3.470  0.3960  0.3679 -1.1267
 5124SOL    HW227009   2.715   3.103   3.536 -2.4221  2.1191  2.4567
 5125SOL     OW27010   2.020   0.959   6.048  0.0474  0.0696 -0.6285
 5125SOL    HW127011   2.003   0.933   5.958 -2.1695 -3.7734  0.8924
 5125SOL    HW227012   2.088   0.894   6.067 -0.1124 -0.0368 -0.4214
 5126SOL     OW27013   2.261   1.653  15.673 -0.0103  0.3446  0.3189
 5126SOL    HW127014   2.337   1.606  15.640 -2.5994 -2.3044 -1.7460
 5126SOL    HW227015   2.213   1.591  15.727  0.5175  0.0889  0.5009
 5127SOL     OW27016   2.186   2.297   3.404 -0.4210 -0.4273 -0.1064
 5127SOL    HW127017   2.147   2.304   3.491 -0.6653  1.9460 -0.4183
 5127SOL    HW227018   2.276   2.284   3.435 -1.7945 -1.3935  3.4422
 5128SOL     OW27019   0.949   1.634   7.102 -0.4177  0.3978  0.4800
 5128SOL    HW127020   0.898   1.552   7.099  3.1989 -1.8183 -0.2995
 5128SOL    HW227021   0.876   1.696   7.107 -0.8325 -0.1223  0.8919
 5129SOL     OW27022   3.183   4.359  15.807 -0.1338 -0.5711 -0.1198
 5129SOL    HW127023   3.229   4.410  15.874  0.3814  0.6363 -1.4100
 5129SOL    HW227024   3.167   4.427  15.742  0.6432 -0.0150  0.2730
 5130SOL     OW27025   0.313   3.570   8.758 -0.2372 -0.1057 -0.7472
 5130SOL    HW127026   0.408   3.566   8.753 -0.1299  2.2515 -0.6999
 5130SOL    HW227027   0.281   3.538   8.674 -0.3100  1.4227 -1.3050
 5131SOL     OW27028   2.692   0.075   6.281 -0.4667 -0.2500  0.3955
 5131SOL    HW127029   2.739   0.105   6.203  1.4585  1.8985  2.3580
 5131SOL    HW227030   2.770   0.071   6.337 -0.7501 -0.2343  0.7948
 5132SOL     OW27031   0.907   2.829  10.218 -0.4641  0.1457 -0.5107
 5132SOL    HW127032   0.874   2.915  10.244 -0.9783 -0.1332 -0.2359
 5132SOL    HW227033   0.994   2.822  10.256 -0.6152  2.1371  0.1693
 5133SOL     OW27034   3.681   3.956   8.875  0.1135 -0.5122  0.0362
 5133SOL    HW127035   3.688   3.902   8.954 -0.0015 -0.5646  0.0105
 5133SOL    HW227036   3.617   4.022   8.901 -0.2786 -1.2786  1.0106
 5134SOL     OW27037   0.275   1.872   1.974 -0.0708  0.6952 -0.6464
 5134SOL    HW127038   0.213   1.866   2.047 -0.0673 -1.8747 -0.8374
 5134SOL    HW227039   0.235   1.934   1.914  0.5834  0.5331 -1.2538
 5135SOL     OW27040   2.258   1.309  12.712 -0.1884  0.0982 -0.5964
 5135SOL    HW127041   2.337   1.340  12.666 -0.4736 -2.1665 -2.6387
 5135SOL    HW227042   2.302   1.241  12.763  1.1047  0.1642 -1.6036
 5136SOL     OW27043   3.216   3.977   3.751 -0.0031  0.1872 -0.0101
 5136SOL    HW127044   3.208   4.036   3.676 -1.2882  0.0991  0.0508
 5136SOL    HW227045   3.167   4.021   3.821 -1.4712 -0.8678 -0.3701
 5137SOL     OW27046   2.948   0.772   8.102  0.3034 -0.4924 -0.2186
 5137SOL    HW127047   2.911   0.731   8.024  0.0406 -0.2292 -0.2335
 5137SOL    HW227048   3.037   0.785   8.070 -0.6322  2.0903 -1.8037
 5138SOL     OW27049   2.616   2.524   6.717  0.2724 -0.1526 -0.7771
 5138SOL    HW127050   2.522   2.526   6.736  0.1378  0.7324 -1.5489
 5138SOL    HW227051   2.639   2.446   6.767 -1.2755 -0.1348 -0.0365
 5139SOL     OW27052   1.688   2.710   3.921  0.1046  0.1543 -0.6022
 5139SOL    HW127053   1.770   2.681   3.880  0.0427 -0.1684 -0.4987
 5139SOL    HW227054   1.728   2.729   4.006 -1.4456  0.5697  0.0336
 5140SOL     OW27055   3.879   3.798   5.476 -0.0449 -0.8516  0.1526
 5140SOL    HW127056   3.969   3.766   5.478  0.5592  0.7707 -1.9161
 5140SOL    HW227057   3.836   3.715   5.454 -2.2143  1.1214 -2.9728
 5141SOL     OW27058   0.910   2.830   1.142  0.3728 -0.2907  0.2023
 5141SOL    HW127059   0.840   2.765   1.147  0.1484 -0.1078 -0.5446
 5141SOL    HW227060   0.890   2.879   1.222 -0.3987 -0.7077  0.2650
 5142SOL     OW27061   2.227   3.778   1.538 -0.5824 -0.5544  0.3825
 5142SOL    HW127062   2.144   3.732   1.524 -0.7786  0.4059 -1.6588
 5142SOL    HW227063   2.270   3.756   1.455  1.2548  2.0955  0.6264
 5143SOL     OW27064   0.545   2.618  11.729 -0.1950  0.3942  0.6051
 5143SOL    HW127065   0.488   2.541  11.723 -1.0632  1.0705 -0.0390
 5143SOL    HW227066   0.539   2.651  11.639 -0.3804 -0.5738  0.2533
 5144SOL     OW27067   4.220   0.458   1.613 -0.5069 -0.0330  0.6061
 5144SOL    HW127068   4.272   0.414   1.546  0.7764  1.2295  0.7756
 5144SOL    HW227069   4.177   0.379   1.646 -0.1307 -0.3498  0.3396
 5145SOL     OW27070   1.636   2.765   5.050  0.4244  0.0645  0.2993
 5145SOL    HW127071   1.598   2.838   5.001 -0.8251  0.0730  1.2874
 5145SOL    HW227072   1.589   2.700   4.997  3.8637 -3.3692  1.3974
 5146SOL     OW27073   0.602   1.014   4.865 -0.1090 -0.3789  0.0710
 5146SOL    HW127074   0.682   1.061   4.888 -0.9503  2.3789 -2.6695
 5146SOL    HW227075   0.587   1.046   4.776 -0.8714  1.1618  0.7606
 5147SOL     OW27076   1.024   1.362   4.300 -0.1715 -0.1246 -0.1790
 5147SOL    HW127077   1.096   1.311   4.337 -0.5277  0.6526  1.5963
 5147SOL    HW227078   0.984   1.306   4.235  0.1581 -0.4935 -0.0673
 5148SOL     OW27079   2.605   0.646   7.108 -0.8600  0.2551  0.3476
 5148SOL    HW127080   2.616   0.711   7.038  0.1357 -0.7782 -0.4479
 5148SOL    HW227081   2.682   0.592   7.093  0.6644  2.4755  0.1922
 5149SOL     OW27082   3.855   2.784   1.611  0.4627  0.0835 -0.4138
 5149SOL    HW127083   3.918   2.766   1.541 -0.5348 -1.6893 -0.8584
 5149SOL    HW227084   3.888   2.870   1.637  0.3069  0.3990 -1.2214
 5150SOL     OW27085   1.962   0.881   6.964 -0.3377  0.0701  0.3310
 5150SOL    HW127086   1.919   0.873   6.879  0.9732 -0.1273 -0.3262
 5150SOL    HW227087   1.921   0.959   7.000 -1.0672 -0.0029 -0.3539
 5151SOL     OW27088   2.424   0.893   6.999  0.1155  0.1918  0.1546
 5151SOL    HW127089   2.376   0.812   6.984 -0.7730  1.1499 -2.1572
 5151SOL    HW227090   2.433   0.874   7.093 -1.5870 -0.0486  0.2729
 5152SOL     OW27091   2.470   4.648   6.660  0.2451  0.0081 -0.1419
 5152SOL    HW127092   2.517   4.565   6.667  1.9212  0.8203 -1.7437
 5152SOL    HW227093   2.472   4.673   6.567 -0.6761  0.5229 -0.0280
 5153SOL     OW27094   0.870   2.689   7.298  0.6609 -0.3837 -0.4280
 5153SOL    HW127095   0.937   2.659   7.359  1.7030  3.2740  0.2365
 5153SOL    HW227096   0.802   2.622   7.300  0.4843 -0.2383 -1.2450
 5154SOL     OW27097   0.768   3.667  10.538  0.3252 -0.5741  0.2347
 5154SOL    HW127098   0.711   3.656  10.463  0.5689 -2.0074  0.2636
 5154SOL    HW227099   0.765   3.579  10.576  1.3127 -0.6614  0.1306
 5155SOL     OW27100   3.435   3.358   8.037 -0.4157 -0.1155  0.3923
 5155SOL    HW127101   3.359   3.354   7.980 -1.3104 -2.5123  1.7616
 5155SOL    HW227102   3.405   3.398   8.119  0.3878  2.2188 -0.4551
 5156SOL     OW27103   0.525   0.946   5.489 -0.6711 -0.3101 -0.3608
 5156SOL    HW127104   0.527   1.030   5.445 -1.1808 -0.0937  0.0314
 5156SOL    HW227105   0.558   0.897   5.414 -1.0988 -2.0514  0.5760
 5157SOL     OW27106   0.020   2.507  15.600  0.4140 -0.1881  0.0814
 5157SOL    HW127107   4.667   2.471  15.602 -0.0244  0.9149  0.6559
 5157SOL    HW227108   0.016   2.573  15.531 -0.7250  0.1575  0.4744
 5158SOL     OW27109   1.335   3.353   7.874  0.4272  0.0765  0.1466
 5158SOL    HW127110   1.311   3.400   7.794  1.9267 -1.0400 -0.9624
 5158SOL    HW227111   1.412   3.301   7.851 -0.4147 -0.1385 -2.2349
 5159SOL     OW27112   3.855   1.124   2.182  0.2191 -0.0666 -0.0522
 5159SOL    HW127113   3.855   1.056   2.249 -1.3321 -1.9547 -1.9928
 5159SOL    HW227114   3.844   1.064   2.108  0.7916 -0.3781  0.1171
 5160SOL     OW27115   1.444   0.226   9.013 -0.8125  0.5810  0.3032
 5160SOL    HW127116   1.392   0.304   9.032  0.0384  0.9906  0.9430
 5160SOL    HW227117   1.395   0.177   8.947  1.6986 -1.0116 -0.3542
 5161SOL     OW27118   2.304   1.865   7.865 -0.1079  0.2367 -0.1068
 5161SOL    HW127119   2.329   1.776   7.838 -0.7389  0.4377 -1.3298
 5161SOL    HW227120   2.323   1.855   7.958  2.1211 -1.7043 -0.7508
 5162SOL     OW27121   2.741   0.296   7.077 -0.7949  0.4883  0.0442
 5162SOL    HW127122   2.667   0.283   7.017  0.2996 -0.6112 -1.0832
 5162SOL    HW227123   2.784   0.210   7.070  1.5264  1.6638  0.1032
 5163SOL     OW27124   1.076   0.735   6.556  0.1008 -0.0196  0.6733
 5163SOL    HW127125   1.151   0.744   6.615 -1.1438 -0.1112  2.2919
 5163SOL    HW227126   1.063   0.823   6.522 -3.4644 -0.7270  0.2176
 5164SOL     OW27127   4.453   2.552   3.669 -0.4928 -0.4024 -0.3676
 5164SOL    HW127128   4.488   2.630   3.625  1.2364  0.3978  2.4555
 5164SOL    HW227129   4.524   2.520   3.725 -1.7985 -1.1545  0.8499
 5165SOL     OW27130   0.744   3.198  10.406 -0.6153  0.7560  0.4385
 5165SOL    HW127131   0.726   3.282  10.366  1.3192 -0.5855 -3.1961
 5165SOL    HW227132   0.807   3.173  10.338  0.0951  1.8730  0.6908
 5166SOL     OW27133   1.625   4.089   5.187 -0.0106  0.2645 -0.3409
 5166SOL    HW127134   1.574   4.010   5.173  1.0443 -0.3797 -0.5996
 5166SOL    HW227135   1.711   4.045   5.190 -0.9402 -1.3556  3.0090
 5167SOL     OW27136   3.098   4.379   6.651 -0.2075  0.1051  0.0193
 5167SOL    HW127137   3.085   4.348   6.561  0.2481 -0.3964  0.1250
 5167SOL    HW227138   3.077   4.297   6.696 -1.2712 -0.7346 -2.0050
 5168SOL     OW27139   2.396   3.467   5.550 -0.5330  0.0571  0.4811
 5168SOL    HW127140   2.363   3.394   5.497  1.4942 -0.9564  0.6019
 5168SOL    HW227141   2.338   3.537   5.519  0.4685  1.3838  1.6393
 5169SOL     OW27142   0.933   3.026   3.671 -0.0498  0.5401  0.0195
 5169SOL    HW127143   1.028   3.037   3.674  0.1732 -1.4893  0.6530
 5169SOL    HW227144   0.922   2.967   3.747  0.1245  1.2407  0.5838
 5170SOL     OW27145   1.210   1.644  10.563 -0.3282  0.2442  0.4238
 5170SOL    HW127146   1.190   1.727  10.607  0.9011  0.8923 -0.2495
 5170SOL    HW227147   1.162   1.585  10.621 -0.0482 -0.6462 -0.2519
 5171SOL     OW27148   3.369   3.212  10.409 -0.6995 -0.0606 -0.2218
 5171SOL    HW127149   3.463   3.197  10.414 -0.9709 -2.0583 -1.2446
 5171SOL    HW227150   3.359   3.139  10.348 -0.4455 -0.5133  0.2763
 5172SOL     OW27151   3.395   3.488   4.887  0.1441 -0.1646  0.0617
 5172SOL    HW127152   3.310   3.501   4.846  1.0661  1.4716 -1.3994
 5172SOL    HW227153   3.396   3.411   4.943  0.6723 -0.5485 -0.4745
 5173SOL     OW27154   1.099   3.480   2.246 -0.1380  0.2498 -0.1053
 5173SOL    HW127155   1.048   3.561   2.252  0.7993  0.7782  0.6954
 5173SOL    HW227156   1.036   3.418   2.283  0.3070 -1.5052 -2.2955
 5174SOL     OW27157   2.395   2.927  17.084  0.2946  0.0274 -0.7443
 5174SOL    HW127158   2.374   2.877  17.163  0.4201 -0.6857 -1.1696
 5174SOL    HW227159   2.430   3.006  17.126 -0.3159  0.3668 -0.8644
 5175SOL     OW27160   1.531   3.502  12.397  0.1616  0.4800 -0.2152
 5175SOL    HW127161   1.483   3.454  12.328 -1.5888  0.3878  1.0614
 5175SOL    HW227162   1.529   3.592  12.366  1.4329  1.2284  1.9177
 5176SOL     OW27163   3.986   2.678   0.375  0.2044 -0.2936 -0.3866
 5176SOL    HW127164   3.967   2.646   0.287  1.2839  2.4455 -1.6412
 5176SOL    HW227165   3.918   2.632   0.424 -1.1805  1.7861 -0.3587
 5177SOL     OW27166   4.054   3.504  17.605  0.3383 -0.0374  0.4164
 5177SOL    HW127167   4.075   3.533  17.516  1.0648  0.5680  0.7908
 5177SOL    HW227168   4.140   3.517  17.644  0.7322  0.0655 -0.5025
 5178SOL     OW27169   0.781   3.581   3.835 -0.5373  0.1659  0.1045
 5178SOL    HW127170   0.827   3.497   3.832 -0.4212  0.1520  2.2105
 5178SOL    HW227171   0.734   3.572   3.751 -1.0956  1.0613  0.3185
 5179SOL     OW27172   0.386   4.117   2.194 -0.9412 -0.6506 -0.4047
 5179SOL    HW127173   0.413   4.039   2.146 -0.8499 -1.4919  1.0365
 5179SOL    HW227174   0.467   4.127   2.245 -1.1317 -1.1557 -0.0074
 5180SOL     OW27175   4.287   2.397   7.089 -0.2492  0.5351  0.2993
 5180SOL    HW127176   4.338   2.350   7.155  0.5090 -1.4922 -1.7644
 5180SOL    HW227177   4.202   2.391   7.133 -1.1052 -0.5864 -1.5153
 5181SOL     OW27178   0.281   2.427  12.592  0.0857  0.1759 -0.1400
 5181SOL    HW127179   0.310   2.442  12.502  0.5873  2.3243  0.3717
 5181SOL    HW227180   0.341   2.358  12.623  1.2483  1.5324  0.6415
 5182SOL     OW27181   0.501   3.984   3.787 -0.2562 -0.1570  0.2858
 5182SOL    HW127182   0.480   3.931   3.709  4.8579 -1.5843 -0.0828
 5182SOL    HW227183   0.509   4.075   3.758  0.0537 -0.8368 -1.7477
 5183SOL     OW27184   2.834   0.037   7.665 -0.3401 -0.1830  0.4056
 5183SOL    HW127185   2.856   0.102   7.598 -1.0955  0.4421  0.7707
 5183SOL    HW227186   2.739   0.044   7.672 -0.0895  3.6517 -0.2442
 5184SOL     OW27187   3.886   2.460   3.240 -0.0911  0.7134 -0.4819
 5184SOL    HW127188   3.927   2.547   3.241  2.2033 -0.3511 -1.3446
 5184SOL    HW227189   3.949   2.402   3.282 -1.3820 -0.6720 -0.5017
 5185SOL     OW27190   1.367   2.666   5.824  0.4604  0.4460 -0.0883
 5185SOL    HW127191   1.369   2.627   5.737  0.6633 -2.0685  1.0424
 5185SOL    HW227192   1.283   2.643   5.862  0.4297  1.9772  0.8079
 5186SOL     OW27193   1.142   1.239  10.060  1.2882  0.0205 -0.1596
 5186SOL    HW127194   1.112   1.323  10.026  0.1631 -0.2100  0.2562
 5186SOL    HW227195   1.068   1.179  10.072  0.1876  0.6693 -3.8541
 5187SOL     OW27196   3.416   2.856   4.080  0.2525 -0.1167 -0.0176
 5187SOL    HW127197   3.437   2.947   4.060  0.2264  0.4163  2.4300
 5187SOL    HW227198   3.444   2.856   4.171  0.2074  1.0154 -0.0107
 5188SOL     OW27199   0.758   2.790  10.573  0.1335  0.1221 -0.1128
 5188SOL    HW127200   0.777   2.881  10.597 -1.1471  0.9203 -2.1663
 5188SOL    HW227201   0.715   2.799  10.488 -0.3155 -0.0007  0.0994
 5189SOL     OW27202   3.108   2.113  10.189  0.0263 -0.0163  0.3532
 5189SOL    HW127203   3.045   2.082  10.124 -1.4341 -1.1507  2.3341
 5189SOL    HW227204   3.084   2.050  10.257  0.7095 -1.4505 -0.7308
 5190SOL     OW27205   3.240   0.074  16.051 -0.3274 -0.2474  0.4164
 5190SOL    HW127206   3.206   0.164  16.046 -0.0718 -0.2209 -0.7189
 5190SOL    HW227207   3.304   0.083  16.122 -1.8406  0.1333  1.7383
 5191SOL     OW27208   2.721   1.821  17.266 -0.5315 -0.3637 -0.5144
 5191SOL    HW127209   2.793   1.805  17.328 -0.5913 -0.5474 -0.4902
 5191SOL    HW227210   2.673   1.741  17.287 -0.3972  0.0794  1.4962
 5192SOL     OW27211   2.250   3.231   7.068  0.3770  1.0146  0.6400
 5192SOL    HW127212   2.262   3.301   7.132 -0.9653  1.2879  0.6013
 5192SOL    HW227213   2.158   3.210   7.085 -0.4155  2.8288 -1.4460
 5193SOL     OW27214   4.225   3.610   2.096 -0.1476 -0.5141  0.6148
 5193SOL    HW127215   4.315   3.618   2.065 -0.2739 -1.6598 -0.0389
 5193SOL    HW227216   4.221   3.664   2.175 -4.0632  0.2163 -0.1030
 5194SOL     OW27217   4.451   2.786   1.901 -0.1755 -0.1420  0.0685
 5194SOL    HW127218   4.455   2.721   1.971 -0.7565 -2.0496 -1.6718
 5194SOL    HW227219   4.495   2.863   1.936  0.8689 -0.5083 -0.4032
 5195SOL     OW27220   3.722   3.306  17.633 -0.3758  0.0540  0.4417
 5195SOL    HW127221   3.785   3.239  17.611 -0.8313  0.2345 -1.4451
 5195SOL    HW227222   3.702   3.342  17.547 -2.8200 -0.1348  0.9037
 5196SOL     OW27223   0.720   2.071  15.541 -0.0951  0.9018  0.0391
 5196SOL    HW127224   0.647   2.130  15.561 -0.2642  1.4339 -2.1478
 5196SOL    HW227225   0.787   2.102  15.602  0.7378 -3.0812  1.1490
 5197SOL     OW27226   0.415   1.112   2.970 -0.5947 -0.4172  0.2279
 5197SOL    HW127227   0.420   1.057   3.049 -2.4832  1.6057  1.7573
 5197SOL    HW227228   0.336   1.072   2.936 -0.1068 -2.0180  0.9865
 5198SOL     OW27229   2.171   0.465  12.180 -0.1396 -0.1728  0.5130
 5198SOL    HW127230   2.152   0.377  12.146  0.3428 -0.6401  1.4594
 5198SOL    HW227231   2.190   0.431  12.267  0.1526  1.6206  1.1517
 5199SOL     OW27232   3.741   0.726   7.548 -0.4176  0.4609 -0.1290
 5199SOL    HW127233   3.742   0.632   7.527  0.8787  0.1506  1.2918
 5199SOL    HW227234   3.834   0.749   7.548 -0.5302  0.9194 -2.4960
 5200SOL     OW27235   0.417   3.676   4.361 -0.1078 -0.0483  0.0287
 5200SOL    HW127236   0.356   3.666   4.289 -0.5073  0.1701  0.3362
 5200SOL    HW227237   0.451   3.763   4.338  0.7602 -0.6879 -1.0783
 5201SOL     OW27238   1.399   4.450   6.869 -0.0799 -0.3646  0.5127
 5201SOL    HW127239   1.449   4.483   6.795  1.7315 -2.0084  1.0424
 5201SOL    HW227240   1.320   4.505   6.866 -0.2527 -0.5731  1.2210
 5202SOL     OW27241   2.790   3.950  16.881  0.0576  0.5822 -0.1209
 5202SOL    HW127242   2.788   3.998  16.964  1.1787  0.0404  0.2168
 5202SOL    HW227243   2.782   3.859  16.909 -0.6710  0.3660 -1.0257
 5203SOL     OW27244   4.406   4.597   4.517 -0.0333  0.6499  0.3268
 5203SOL    HW127245   4.471   4.529   4.535 -1.8589 -1.5951 -1.6215
 5203SOL    HW227246   4.350   4.583   4.593 -1.2948 -2.0791 -1.1060
 5204SOL     OW27247   2.459   1.495  15.904 -0.3589  0.3438  0.2134
 5204SOL    HW127248   2.513   1.541  15.968  0.9253 -1.4805  0.4526
 5204SOL    HW227249   2.507   1.441  15.841 -4.1973 -2.0381 -0.6990
 5205SOL     OW27250   1.337   1.542   7.658  0.2143  0.2056  0.0727
 5205SOL    HW127251   1.335   1.447   7.641  1.4807  0.0374  0.8542
 5205SOL    HW227252   1.380   1.552   7.743  1.9001 -1.1556 -0.6106
 5206SOL     OW27253   0.656   3.929   9.702 -0.3175  0.0018 -0.8325
 5206SOL    HW127254   0.742   3.951   9.738 -0.4934  0.5157 -0.7148
 5206SOL    HW227255   0.600   3.947   9.777 -0.1093  1.1851 -0.9464
 5207SOL     OW27256   2.483   3.095  14.588 -0.5325  0.1250 -0.0012
 5207SOL    HW127257   2.512   3.159  14.522  1.0204 -0.6794 -0.0960
 5207SOL    HW227258   2.447   3.151  14.657 -0.1426  0.6588 -0.2286
 5208SOL     OW27259   4.487   3.618   7.054 -0.6325 -0.1045  0.1671
 5208SOL    HW127260   4.426   3.576   6.992  0.6230 -1.5347 -0.0836
 5208SOL    HW227261   4.427   3.677   7.100  1.8676  2.5155  0.0391
 5209SOL     OW27262   0.856   3.476  15.625  0.5352 -0.5766 -0.4396
 5209SOL    HW127263   0.774   3.517  15.597 -0.2930 -1.2546  0.9719
 5209SOL    HW227264   0.919   3.541  15.595  0.0548 -0.3035 -0.8592
 5210SOL     OW27265   3.931   3.864   7.569  0.1999  0.3670 -0.4131
 5210SOL    HW127266   3.999   3.824   7.514 -1.9013 -1.2761 -1.8284
 5210SOL    HW227267   3.922   3.814   7.650  1.0128  0.2696 -0.3884
 5211SOL     OW27268   2.405   1.977  14.314  0.1474 -0.1998  0.8300
 5211SOL    HW127269   2.336   1.920  14.280 -0.9691  1.2277  0.6742
 5211SOL    HW227270   2.366   1.993  14.400 -1.3401  0.5073  0.0333
 5212SOL     OW27271   0.307   0.956  12.976 -0.7259  0.2641  0.5956
 5212SOL    HW127272   0.306   0.861  12.969  0.1966  0.2675  0.4423
 5212SOL    HW227273   0.379   0.958  13.040 -0.9325  0.0102  0.8383
 5213SOL     OW27274   0.560   0.903  13.126  0.3031  0.3937  0.3302
 5213SOL    HW127275   0.601   0.827  13.086  0.3444  1.1284 -1.0421
 5213SOL    HW227276   0.597   0.908  13.214  1.1728  1.9161 -0.1093
 5214SOL     OW27277   0.348   3.267  16.879  0.3006 -0.8380  0.4996
 5214SOL    HW127278   0.373   3.179  16.848 -0.6714 -2.0204  3.0905
 5214SOL    HW227279   0.431   3.312  16.861 -0.1103 -1.0006 -1.7435
 5215SOL     OW27280   2.914   4.708  16.819 -0.0036 -0.2034 -0.0963
 5215SOL    HW127281   2.966   4.690  16.897  2.5003 -0.2058 -1.7673
 5215SOL    HW227282   2.950   0.050  16.779 -0.5080  0.2114  0.2625
 5216SOL     OW27283   4.685   0.877   6.664  0.2562 -0.2496  0.1325
 5216SOL    HW127284   4.663   0.792   6.625 -0.4789  0.6999 -1.5682
 5216SOL    HW227285   4.704   0.935   6.589 -1.1261 -3.8122 -2.9718
 5217SOL     OW27286   3.011   0.650  13.509 -0.3564 -0.2227  0.1252
 5217SOL    HW127287   3.106   0.642  13.520 -0.5440 -2.4331  0.0572
 5217SOL    HW227288   2.977   0.643  13.599 -1.2024  1.3097 -0.0795
 5218SOL     OW27289   1.048   2.352   2.337  0.0729  0.4488  0.0726
 5218SOL    HW127290   0.979   2.300   2.377  1.0961 -1.4192 -0.6129
 5218SOL    HW227291   1.056   2.431   2.390  1.0217  0.1912  0.3194
 5219SOL     OW27292   0.364   2.781   6.874 -0.2939 -0.0248 -0.3932
 5219SOL    HW127293   0.338   2.714   6.937  0.8519 -0.5752 -0.5197
 5219SOL    HW227294   0.452   2.759   6.844 -0.8806  0.2440 -2.3663
 5220SOL     OW27295   3.971   1.426   8.429  0.5008  0.3392  0.1451
 5220SOL    HW127296   4.048   1.452   8.479 -0.4969  1.6912  0.9879
 5220SOL    HW227297   3.915   1.501   8.449 -0.1993 -0.6914  2.0042
 5221SOL     OW27298   1.746   0.463   7.515 -0.2001 -0.3876 -0.1139
 5221SOL    HW127299   1.673   0.402   7.502 -0.0913 -0.1745 -1.6615
 5221SOL    HW227300   1.813   0.423   7.460 -0.1709 -0.1763 -0.2298
 5222SOL     OW27301   2.893   3.003  10.894 -0.2241 -0.8000 -0.0704
 5222SOL    HW127302   2.942   3.062  10.837 -0.3469 -0.5345  0.1012
 5222SOL    HW227303   2.963   2.944  10.924  0.7663  0.5332  0.2393
 5223SOL     OW27304   0.610   1.419   1.458 -0.5058 -0.1086 -0.2546
 5223SOL    HW127305   0.578   1.508   1.449  0.2445  0.0618 -1.2995
 5223SOL    HW227306   0.571   1.392   1.541  1.7655 -1.6248  0.3237
 5224SOL     OW27307   4.044   2.090  14.442  0.3537 -0.4779  0.3694
 5224SOL    HW127308   4.102   2.165  14.456  1.1976 -1.5813  2.6757
 5224SOL    HW227309   3.965   2.101  14.495 -0.6773 -0.8577 -1.0702
 5225SOL     OW27310   1.835   3.886   5.134 -0.3485 -0.2958 -0.1841
 5225SOL    HW127311   1.861   3.830   5.207 -1.1807  0.9661  1.0919
 5225SOL    HW227312   1.758   3.842   5.099  1.0384 -2.7020 -0.2368
 5226SOL     OW27313   1.489   3.434   4.489 -0.1753 -0.4144  0.2093
 5226SOL    HW127314   1.422   3.379   4.528 -0.3025 -0.9138 -0.7126
 5226SOL    HW227315   1.443   3.478   4.418 -0.7136 -0.2750  0.6476
 5227SOL     OW27316   0.914   2.990   9.562 -0.0909  0.2919 -0.8756
 5227SOL    HW127317   0.957   3.070   9.531 -0.7281 -0.2295 -3.0532
 5227SOL    HW227318   0.887   2.945   9.483 -1.2121  1.3862 -1.1045
 5228SOL     OW27319   0.140   1.992   5.765  0.2331  0.0108 -0.6951
 5228SOL    HW127320   0.080   2.054   5.723 -0.5611  0.1247  0.6239
 5228SOL    HW227321   0.128   1.911   5.715 -1.1651 -0.2652  0.0952
 5229SOL     OW27322   1.580   0.803   3.591 -0.3503 -0.4721  0.3197
 5229SOL    HW127323   1.613   0.725   3.635  2.5425  0.2866 -0.4709
 5229SOL    HW227324   1.618   0.791   3.503  2.0482 -1.3965  1.4861
 5230SOL     OW27325   3.749   4.536   4.456  1.0974 -0.6349 -0.6395
 5230SOL    HW127326   3.692   4.575   4.389  0.4730  0.3227  0.4309
 5230SOL    HW227327   3.682   4.493   4.509  0.6455 -0.9006 -1.4152
 5231SOL     OW27328   0.492   3.818  15.410  0.7159 -0.0095 -0.3491
 5231SOL    HW127329   0.524   3.905  15.433  0.0074 -0.7781  3.5098
 5231SOL    HW227330   0.429   3.842  15.342  0.9628  0.8371 -0.2826
 5232SOL     OW27331   3.966   3.231  17.542 -0.1012 -0.3348  0.0555
 5232SOL    HW127332   4.024   3.212  17.615 -0.7804  1.4038  1.0411
 5232SOL    HW227333   3.976   3.325  17.530  0.5487 -0.2731  1.0823
 5233SOL     OW27334   3.984   1.718  13.299 -0.3258 -0.0273  0.7760
 5233SOL    HW127335   4.013   1.637  13.341 -0.4310 -0.6186 -0.3071
 5233SOL    HW227336   4.064   1.769  13.313 -0.8855  0.6895  1.3507
 5234SOL     OW27337   0.527   0.867   1.927 -0.1172  0.0736  0.6900
 5234SOL    HW127338   0.570   0.951   1.944  1.3954 -0.5202 -0.1610
 5234SOL    HW227339   0.435   0.889   1.917  0.3694  1.2479 -1.1254
 5235SOL     OW27340   2.184   2.427   7.348  0.2286 -0.1248 -0.1849
 5235SOL    HW127341   2.257   2.455   7.293 -0.6829  1.6898 -0.4730
 5235SOL    HW227342   2.108   2.432   7.289  0.3716  2.5789 -0.1490
 5236SOL     OW27343   3.689   4.670   0.960  0.1486  0.5099 -0.2453
 5236SOL    HW127344   3.672   4.634   1.047 -0.5876 -0.7212 -0.8961
 5236SOL    HW227345   3.604   4.635   0.931 -0.4127  1.8773 -0.2600
 5237SOL     OW27346   0.939   3.554   3.306 -0.4008  0.9045  0.5772
 5237SOL    HW127347   0.896   3.604   3.237 -1.9448 -1.2317 -0.0123
 5237SOL    HW227348   0.992   3.623   3.347 -2.2865  3.0360 -0.5732
 5238SOL     OW27349   3.813   4.372   5.104  0.2671  0.1502  0.2921
 5238SOL    HW127350   3.863   4.449   5.080  1.3856 -0.9901 -1.0408
 5238SOL    HW227351   3.771   4.348   5.021  0.0290 -0.0602  0.4721
 5239SOL     OW27352   2.012   3.745   5.623  0.2779 -0.5724 -0.6042
 5239SOL    HW127353   1.973   3.817   5.672 -3.2363 -2.7123 -0.2104
 5239SOL    HW227354   2.103   3.761   5.646  0.1815 -0.0373 -0.5912
 5240SOL     OW27355   0.123   1.944   6.052 -0.3749 -0.6595 -0.0320
 5240SOL    HW127356   0.054   1.885   6.021 -2.8456  1.6622  0.9683
 5240SOL    HW227357   0.139   1.997   5.974 -1.0460  0.7936  0.8115
 5241SOL     OW27358   4.270   3.305   4.603  0.3462  0.3212 -0.3937
 5241SOL    HW127359   4.252   3.377   4.664 -0.9270  1.3164 -1.9337
 5241SOL    HW227360   4.204   3.321   4.536 -0.7917  0.3863  0.7257
 5242SOL     OW27361   3.352   2.349  17.653 -0.0742 -0.8392  0.8071
 5242SOL    HW127362   3.356   2.423  17.713 -0.2850 -0.1677 -0.0062
 5242SOL    HW227363   3.264   2.355  17.616  0.3709 -1.7068 -0.3900
 5243SOL     OW27364   2.719   2.889  17.272 -0.2656 -0.1277 -0.0824
 5243SOL    HW127365   2.782   2.944  17.318  1.2382  0.4502 -2.8563
 5243SOL    HW227366   2.707   2.825  17.342  1.1885  0.6447  0.8666
 5244SOL     OW27367   2.081   3.918   4.026 -0.4033 -0.0073  0.0296
 5244SOL    HW127368   1.994   3.877   4.024 -1.2464  1.6848  1.9479
 5244SOL    HW227369   2.116   3.889   4.111  1.8392 -0.2139 -0.9657
 5245SOL     OW27370   0.216   1.831   7.738  0.2302  0.5228  0.2820
 5245SOL    HW127371   0.296   1.779   7.739 -0.9063 -1.2884 -2.6089
 5245SOL    HW227372   0.152   1.767   7.768  0.0649 -0.1192 -1.4395
 5246SOL     OW27373   3.944   3.223   4.474  0.3194 -0.1029  0.1414
 5246SOL    HW127374   4.006   3.173   4.422  0.6758  0.3126  0.1692
 5246SOL    HW227375   3.874   3.159   4.463  0.8629 -0.8673  1.0998
 5247SOL     OW27376   1.647   1.020   8.903 -0.0202  0.8043  0.7285
 5247SOL    HW127377   1.689   1.097   8.941  2.2024 -0.1038  0.1480
 5247SOL    HW227378   1.657   1.050   8.813 -2.0515  1.7173  0.8091
 5248SOL     OW27379   1.159   1.212   6.799 -0.0635 -0.5276 -0.4970
 5248SOL    HW127380   1.157   1.155   6.876  0.0344 -0.6016 -0.5506
 5248SOL    HW227381   1.144   1.152   6.726  0.1318 -0.9874 -0.1637
 5249SOL     OW27382   2.350   3.739   4.027 -0.1411 -0.0728 -0.3939
 5249SOL    HW127383   2.413   3.811   4.034 -0.4437  0.1098  0.5676
 5249SOL    HW227384   2.402   3.663   4.003  0.0699 -0.3036  0.7628
 5250SOL     OW27385   3.046   1.734  12.911  0.3211  0.7099  0.8104
 5250SOL    HW127386   3.026   1.656  12.962 -0.0105 -0.6277 -1.3469
 5250SOL    HW227387   3.140   1.728  12.898  0.3019  0.1129  0.9555
 5251SOL     OW27388   1.798   4.669   9.000  0.2181  0.1343  0.0709
 5251SOL    HW127389   1.827   4.641   9.087  1.4558 -0.6077 -0.5766
 5251SOL    HW227390   1.704   4.658   9.015  0.3961  0.1891  1.2019
 5252SOL     OW27391   2.486   3.661  11.486  0.0057  0.0049  0.9178
 5252SOL    HW127392   2.463   3.599  11.554 -1.5561  0.6426  0.9734
 5252SOL    HW227393   2.447   3.740  11.523  0.3556  0.0028  1.2862
 5253SOL     OW27394   4.477   0.777   4.389  0.2593 -0.3606  0.0141
 5253SOL    HW127395   4.515   0.693   4.416 -0.0409 -0.5261 -0.0893
 5253SOL    HW227396   4.541   0.832   4.434  0.2207  0.4576 -0.9382
 5254SOL     OW27397   1.826   0.354   4.781 -0.6314 -0.1099  0.1422
 5254SOL    HW127398   1.854   0.262   4.776 -1.6061 -0.2440 -2.9245
 5254SOL    HW227399   1.811   0.364   4.874 -0.0662 -1.6787  0.4079
 5255SOL     OW27400   1.225   0.137  14.989 -0.0130 -0.3021 -0.6256
 5255SOL    HW127401   1.229   0.087  15.070 -1.3273 -1.2694 -1.1560
 5255SOL    HW227402   1.319   0.139  14.969  0.0655 -1.7210 -0.4152
 5256SOL     OW27403   3.333   4.045   5.835 -0.2407 -0.5233 -0.0660
 5256SOL    HW127404   3.288   4.113   5.786  0.1385  1.0596  1.7670
 5256SOL    HW227405   3.270   4.024   5.904 -0.9524  2.2040  0.1172
 5257SOL     OW27406   4.122   2.540   3.850  0.2391 -0.6204 -0.8057
 5257SOL    HW127407   4.160   2.627   3.864  1.8165 -1.4262 -0.1812
 5257SOL    HW227408   4.112   2.531   3.755 -1.9801  2.9182 -0.9114
 5258SOL     OW27409   0.446   0.331  13.869  0.1688 -0.2943  0.4463
 5258SOL    HW127410   0.451   0.420  13.833  1.5873 -0.6947 -0.3425
 5258SOL    HW227411   0.386   0.298  13.802  1.4063 -0.4277 -0.5840
 5259SOL     OW27412   3.964   3.381   5.835  0.1169  0.5231 -0.3133
 5259SOL    HW127413   3.990   3.300   5.878  0.4664  2.4386  3.0964
 5259SOL    HW227414   4.021   3.366   5.759  0.4258 -1.3882  0.3008
 5260SOL     OW27415   3.925   1.739   7.780  0.7934 -0.2405  0.2498
 5260SOL    HW127416   3.874   1.664   7.748 -1.1796  0.5028  1.6360
 5260SOL    HW227417   4.010   1.730   7.737  0.4394  1.9040 -0.9034
 5261SOL     OW27418   3.291   1.329   1.530 -0.7858 -0.4880 -0.3710
 5261SOL    HW127419   3.241   1.302   1.453 -1.3133 -0.5955  0.0180
 5261SOL    HW227420   3.239   1.402   1.563 -0.9022  0.3974 -2.5252
 5262SOL     OW27421   2.708   2.132   8.556  0.3191  0.4496 -0.3291
 5262SOL    HW127422   2.684   2.046   8.521 -1.4273  1.0297 -0.5683
 5262SOL    HW227423   2.726   2.186   8.479  0.1181 -0.7152 -1.1856
 5263SOL     OW27424   2.792   3.818   8.091  0.9116 -0.1095 -0.2908
 5263SOL    HW127425   2.726   3.870   8.138 -1.3631 -1.1357 -2.3797
 5263SOL    HW227426   2.800   3.741   8.147  0.3688  1.0193  1.3738
 5264SOL     OW27427   1.209   4.646   1.482  0.2470 -0.2154 -0.3668
 5264SOL    HW127428   1.135   4.619   1.537 -0.7827  0.9333 -1.1870
 5264SOL    HW227429   1.198   0.004   1.495 -2.4934 -0.6518  0.4284
 5265SOL     OW27430   2.784   1.100   3.811  0.4197 -0.7680  0.2486
 5265SOL    HW127431   2.781   1.013   3.850 -1.0565 -1.0063 -0.4322
 5265SOL    HW227432   2.846   1.098   3.739  0.2883  0.2546  0.0980
 5266SOL     OW27433   0.036   4.629   2.507  0.4295 -0.1865 -0.2527
 5266SOL    HW127434   4.699   4.580   2.470  2.7932 -1.8228 -2.6748
 5266SOL    HW227435   0.088   4.556   2.540 -0.2512 -0.8667 -0.6723
 5267SOL     OW27436   0.504   1.707   2.602 -0.0317  0.2175  0.5415
 5267SOL    HW127437   0.505   1.628   2.656 -0.8634 -1.5070 -1.9584
 5267SOL    HW227438   0.418   1.746   2.616 -1.3939 -3.0586  1.3461
 5268SOL     OW27439   1.278   4.123  11.447  0.6389  0.5836  0.6785
 5268SOL    HW127440   1.253   4.085  11.531  0.3377 -0.1233  0.2684
 5268SOL    HW227441   1.265   4.056  11.380 -1.8782 -0.7328  2.5110
 5269SOL     OW27442   2.621   4.670  15.392  0.6080 -0.4316 -0.9092
 5269SOL    HW127443   2.610   4.734  15.462  0.5651 -0.7964 -0.5862
 5269SOL    HW227444   2.532   4.661  15.358 -1.3497  2.4924  3.4239
 5270SOL     OW27445   1.698   0.333   1.985 -0.2476 -0.0603 -0.7945
 5270SOL    HW127446   1.737   0.258   2.029  0.9939  1.4971  0.7881
 5270SOL    HW227447   1.713   0.402   2.050 -0.6779  0.5656 -1.3597
 5271SOL     OW27448   1.434   3.307   3.458  0.2016  0.0605 -0.4366
 5271SOL    HW127449   1.509   3.253   3.432  1.1295  0.5554  1.2257
 5271SOL    HW227450   1.423   3.368   3.384 -1.7652 -1.4958 -1.4036
 5272SOL     OW27451   2.695   1.353   7.790 -0.9395 -0.5461 -0.0170
 5272SOL    HW127452   2.701   1.413   7.865  1.3610 -1.8819  0.8686
 5272SOL    HW227453   2.784   1.319   7.789 -0.9803 -0.7102  1.3577
 5273SOL     OW27454   2.220   1.622  15.269  0.0900  0.1222  0.4594
 5273SOL    HW127455   2.260   1.689  15.323  0.0438  0.2348  0.3541
 5273SOL    HW227456   2.130   1.652  15.278  0.2162  0.5948  0.1549
 5274SOL     OW27457   1.505   4.176   6.526 -0.4994  0.5558  0.0371
 5274SOL    HW127458   1.433   4.146   6.582  1.0631  1.0930  2.3706
 5274SOL    HW227459   1.561   4.098   6.517  2.7955  2.9148  0.2115
 5275SOL     OW27460   0.971   2.425   0.453 -0.6863 -0.1736  0.2898
 5275SOL    HW127461   1.024   2.427   0.373  3.5170 -0.6640  3.0875
 5275SOL    HW227462   0.904   2.362   0.426 -1.5014  1.0812 -0.6480
 5276SOL     OW27463   0.439   2.379   2.172 -0.5509 -0.2026 -0.0787
 5276SOL    HW127464   0.507   2.335   2.122  0.9187  1.5203  0.3919
 5276SOL    HW227465   0.374   2.310   2.187  0.0440 -1.3691 -2.9349
 5277SOL     OW27466   2.336   1.867   2.948  0.2475  0.2668 -0.0856
 5277SOL    HW127467   2.330   1.832   2.860 -2.3713 -0.9569  0.5880
 5277SOL    HW227468   2.271   1.936   2.953 -1.1300 -1.1410  1.4414
 5278SOL     OW27469   4.514   2.892   3.209 -0.0719  0.2440 -0.2964
 5278SOL    HW127470   4.445   2.905   3.275  1.3605  1.8841  0.8626
 5278SOL    HW227471   4.575   2.957   3.244  0.4018 -0.2485 -0.2085
 5279SOL     OW27472   2.144   3.217   3.229 -0.1274  0.5637 -0.0382
 5279SOL    HW127473   2.160   3.150   3.296  2.0906  1.0629 -0.0792
 5279SOL    HW227474   2.071   3.263   3.271  0.5720  1.6513 -0.0362
 5280SOL     OW27475   3.387   1.876  12.700 -0.3855 -0.3720 -0.1488
 5280SOL    HW127476   3.477   1.895  12.674 -0.1297  0.1050  1.1005
 5280SOL    HW227477   3.404   1.810  12.767  1.9990 -0.7789 -1.1582
 5281SOL     OW27478   0.868   4.301   2.645 -0.2481  0.1111 -0.0955
 5281SOL    HW127479   0.943   4.246   2.622 -1.0496 -1.5549  1.3180
 5281SOL    HW227480   0.874   4.363   2.572  1.2784 -1.0698 -0.9532
 5282SOL     OW27481   2.125   1.595   6.742 -0.2927  0.2911  0.1126
 5282SOL    HW127482   2.184   1.520   6.742 -0.7103 -0.0408  1.3308
 5282SOL    HW227483   2.050   1.576   6.799 -0.3304  2.2766  0.7227
 5283SOL     OW27484   1.386   1.934   5.412  0.2304 -0.1110 -0.5606
 5283SOL    HW127485   1.433   2.016   5.429 -0.5691  0.3377 -0.4588
 5283SOL    HW227486   1.441   1.865   5.449 -0.4705 -1.1947 -1.5723
 5284SOL     OW27487   3.860   0.597   4.610  0.7565  0.0301 -0.1357
 5284SOL    HW127488   3.919   0.668   4.636  0.0059  0.3561  0.6658
 5284SOL    HW227489   3.795   0.590   4.680  0.8529  3.1930  0.2903
 5285SOL     OW27490   4.058   2.362   6.758 -0.4718  0.3082  0.4108
 5285SOL    HW127491   4.066   2.292   6.823 -1.2212  2.7427  3.1091
 5285SOL    HW227492   4.148   2.393   6.767 -0.0258 -0.6116 -0.8425
 5286SOL     OW27493   0.439   3.393   5.262  0.0607 -0.4686  0.1775
 5286SOL    HW127494   0.377   3.333   5.302 -2.0293  2.0284  0.6639
 5286SOL    HW227495   0.480   3.340   5.194 -0.6620 -2.0511  0.9767
 5287SOL     OW27496   0.599   3.515  12.656 -0.0214 -0.9130 -0.1580
 5287SOL    HW127497   0.581   3.433  12.610  1.7757 -1.4229  0.0346
 5287SOL    HW227498   0.694   3.512  12.648 -0.0800 -0.2602 -1.1514
 5288SOL     OW27499   0.628   3.322   5.014  0.3144  0.2016  0.4554
 5288SOL    HW127500   0.655   3.302   5.104  0.5998  2.2546  0.8320
 5288SOL    HW227501   0.688   3.393   4.990 -1.0211 -0.1377 -3.9464
 5289SOL     OW27502   1.848   3.350   2.040  0.3444 -0.9948 -0.2342
 5289SOL    HW127503   1.920   3.408   2.017  1.2532 -1.5904  1.0977
 5289SOL    HW227504   1.890   3.276   1.996 -2.2772 -0.9041 -2.8928
 5290SOL     OW27505   2.201   2.653   2.983  0.0076 -0.7173  0.2081
 5290SOL    HW127506   2.141   2.636   2.910 -1.4179  2.0655  0.6920
 5290SOL    HW227507   2.157   2.623   3.063  0.8435 -2.1370  0.1304
 5291SOL     OW27508   3.713   0.770   8.848 -0.0900  0.1440 -0.0240
 5291SOL    HW127509   3.635   0.822   8.870 -0.2688 -0.4683  0.7598
 5291SOL    HW227510   3.677   0.690   8.809  0.3506  1.0865 -2.3976
 5292SOL     OW27511   3.146   0.075  12.900 -0.0580  0.3392  0.9340
 5292SOL    HW127512   3.170   0.123  12.820  0.8349 -1.2045  0.2808
 5292SOL    HW227513   3.069   0.029  12.867  2.7031 -1.7953 -2.5746
 5293SOL     OW27514   3.409   2.019   2.187 -0.4540  0.3709 -0.6408
 5293SOL    HW127515   3.480   1.965   2.153 -1.5885 -0.0390 -2.3629
 5293SOL    HW227516   3.406   2.095   2.129 -1.6836  0.0795 -0.9494
 5294SOL     OW27517   2.591   3.710   6.367 -0.8706 -0.3658 -0.6649
 5294SOL    HW127518   2.613   3.627   6.326 -0.2223 -1.1547  1.3159
 5294SOL    HW227519   2.632   3.779   6.314 -1.5404 -1.2451 -2.3147
 5295SOL     OW27520   3.051   2.320   2.576 -0.4745 -0.0061 -0.3787
 5295SOL    HW127521   3.094   2.396   2.615 -1.5289  0.4330 -0.0561
 5295SOL    HW227522   3.086   2.323   2.488  0.7049 -1.0356  0.0583
 5296SOL     OW27523   0.973   0.339   9.320 -0.1631  0.0248 -0.3373
 5296SOL    HW127524   0.920   0.394   9.378  0.5675 -0.6770  1.0100
 5296SOL    HW227525   0.913   0.330   9.247  1.7756  0.5715 -1.9802
 5297SOL     OW27526   1.013   4.357   6.571 -0.4599  0.0473  0.1518
 5297SOL    HW127527   0.990   4.410   6.647  1.9671  0.5417  0.5479
 5297SOL    HW227528   0.958   4.398   6.504  1.9777  0.6369 -1.4656
 5298SOL     OW27529   0.350   4.537   5.923 -0.1553 -0.6826  0.1506
 5298SOL    HW127530   0.326   4.468   5.985  2.0137  0.4240  2.2138
 5298SOL    HW227531   0.339   4.485   5.843 -1.3137 -1.0528  0.5504
 5299SOL     OW27532   1.884   0.130   6.781 -0.0570 -0.1241 -0.6584
 5299SOL    HW127533   1.979   0.127   6.781  0.0353  2.8430  0.3359
 5299SOL    HW227534   1.862   0.069   6.710 -0.8710 -0.0113 -0.5046
 5300SOL     OW27535   1.111   1.825  15.193  0.1191  0.4044  0.2858
 5300SOL    HW127536   1.140   1.760  15.257 -0.3253  0.3547  0.4321
 5300SOL    HW227537   1.174   1.813  15.121 -0.5461 -2.1923  0.1466
 5301SOL     OW27538   0.808   0.368   4.545  0.8050  0.3727  0.4673
 5301SOL    HW127539   0.793   0.312   4.469  0.6850  1.2041 -0.1302
 5301SOL    HW227540   0.731   0.342   4.595 -1.2261  0.5273 -2.5477
 5302SOL     OW27541   0.487   1.258   7.908  0.3613 -0.0653 -0.4136
 5302SOL    HW127542   0.514   1.319   7.977  2.0890 -0.5440 -0.6684
 5302SOL    HW227543   0.536   1.179   7.930 -0.8597 -0.6480  0.2569
 5303SOL     OW27544   4.354   2.250   4.508  0.0149 -0.2243 -0.4418
 5303SOL    HW127545   4.427   2.267   4.567 -0.8700 -0.6970  0.7868
 5303SOL    HW227546   4.283   2.287   4.560  1.8394  0.5789  1.4832
 5304SOL     OW27547   0.663   1.922   6.916  0.1317  0.0406 -0.3395
 5304SOL    HW127548   0.685   1.932   6.823  1.7356  0.4702  0.0880
 5304SOL    HW227549   0.615   1.840   6.915 -0.2496  0.2573 -0.0765
 5305SOL     OW27550   0.238   1.310   6.223 -0.5533 -0.5069 -0.2782
 5305SOL    HW127551   0.202   1.274   6.304  0.7551  0.1387  0.6026
 5305SOL    HW227552   0.300   1.244   6.193  0.2080 -0.8256  2.0239
 5306SOL     OW27553   1.479   2.814   4.425  0.3719 -0.1836  0.2927
 5306SOL    HW127554   1.400   2.788   4.377  1.7699 -0.7505 -1.7132
 5306SOL    HW227555   1.529   2.733   4.415 -1.3263 -0.8604 -2.8556
 5307SOL     OW27556   1.559   0.098  11.565 -0.4125 -0.1623  0.4373
 5307SOL    HW127557   1.620   0.050  11.509 -0.5383 -1.2474  1.2409
 5307SOL    HW227558   1.534   0.178  11.518 -1.5785  0.1351  1.5607
 5308SOL     OW27559   2.069   0.535   6.059  1.1942 -0.1541  0.4154
 5308SOL    HW127560   2.157   0.497   6.056  0.1584 -2.4151 -1.1194
 5308SOL    HW227561   2.054   0.526   6.153 -1.9932  0.0977 -0.0833
 5309SOL     OW27562   1.610   1.783   7.662 -0.3968  0.4919 -0.1174
 5309SOL    HW127563   1.684   1.823   7.616  0.4791  0.8322  1.5824
 5309SOL    HW227564   1.547   1.850   7.637  0.5036  1.2646 -0.3065
 5310SOL     OW27565   0.915   3.829   5.245  0.5445  0.4437 -0.1007
 5310SOL    HW127566   0.930   3.757   5.307 -1.0851  0.3692  0.1994
 5310SOL    HW227567   0.940   3.908   5.293 -1.4883  1.0183  0.0084
 5311SOL     OW27568   1.045   2.582   4.758 -0.1500  0.6101  0.1966
 5311SOL    HW127569   1.088   2.628   4.831  2.5923  0.6098 -1.4423
 5311SOL    HW227570   1.095   2.620   4.686  0.7867 -0.2711  0.3920
 5312SOL     OW27571   0.978   0.393   7.385 -0.2127  0.0919 -0.7305
 5312SOL    HW127572   0.995   0.303   7.358  2.1298  0.4205 -0.3396
 5312SOL    HW227573   1.063   0.415   7.424 -0.0236 -0.3778 -0.8740
 5313SOL     OW27574   1.246   3.074  11.804 -0.1167 -0.0868  0.3872
 5313SOL    HW127575   1.225   2.984  11.829  0.0091  0.1425  1.3000
 5313SOL    HW227576   1.341   3.075  11.816  0.1019  1.3430 -1.4607
 5314SOL     OW27577   1.869   3.080   7.533  0.2898 -0.0058  0.4900
 5314SOL    HW127578   1.899   3.028   7.458 -2.7067 -0.6819 -0.2432
 5314SOL    HW227579   1.810   3.143   7.492 -1.6839 -0.7743  2.1659
 5315SOL     OW27580   3.375   2.594  10.961  0.1951  0.1498  0.2941
 5315SOL    HW127581   3.321   2.562  11.033  0.5698 -1.4152 -0.1037
 5315SOL    HW227582   3.331   2.540  10.895  2.3692 -1.1123 -0.1221
 5316SOL     OW27583   2.202   2.446   7.613 -0.2919 -0.2810 -0.0423
 5316SOL    HW127584   2.107   2.440   7.626 -0.0713 -2.2089  0.5707
 5316SOL    HW227585   2.205   2.419   7.522 -1.2660  2.2466 -0.8308
 5317SOL     OW27586   0.947   0.573   3.878 -0.0741 -0.4867  0.4224
 5317SOL    HW127587   0.892   0.578   3.956  0.0271  1.5746  0.3434
 5317SOL    HW227588   0.887   0.595   3.807 -0.8221 -0.7074  0.9870
 5318SOL     OW27589   1.661   1.219   7.609  0.5196  0.1627  0.6237
 5318SOL    HW127590   1.724   1.151   7.634 -0.1253 -0.6686  0.0039
 5318SOL    HW227591   1.603   1.210   7.684  1.5795 -0.1302  1.4127
 5319SOL     OW27592   0.923   1.545   2.536  0.2559 -0.2080 -0.0597
 5319SOL    HW127593   0.877   1.619   2.575  0.1112 -0.3410  0.0227
 5319SOL    HW227594   0.891   1.471   2.588 -0.1631  1.4661  2.0632
 5320SOL     OW27595   2.524   2.039   7.114 -0.4558  0.5183 -0.2192
 5320SOL    HW127596   2.513   1.963   7.172  0.1192  1.0847  0.6378
 5320SOL    HW227597   2.434   2.059   7.089 -0.0179 -0.0173 -2.2313
 5321SOL     OW27598   4.543   3.425  10.424 -0.2259  0.2726  0.4145
 5321SOL    HW127599   4.578   3.498  10.475 -3.9088  1.7048  0.9389
 5321SOL    HW227600   4.468   3.473  10.387 -1.2544  0.3341  2.5637
 5322SOL     OW27601   0.070   4.043   6.269 -0.1181  0.5425  0.1896
 5322SOL    HW127602   0.138   4.025   6.334 -0.1399  0.5268  0.2084
 5322SOL    HW227603   0.069   3.965   6.213  0.2611 -0.3396  1.4077
 5323SOL     OW27604   2.241   3.796   7.622 -0.0009 -0.0126 -0.3343
 5323SOL    HW127605   2.217   3.863   7.558 -0.5166 -1.8514 -2.0334
 5323SOL    HW227606   2.307   3.837   7.678  0.1645  0.5277 -0.9305
 5324SOL     OW27607   1.418   4.024   8.824 -0.4907 -0.0429 -0.0885
 5324SOL    HW127608   1.325   4.032   8.843 -0.6976  0.6156 -1.3714
 5324SOL    HW227609   1.439   4.111   8.790 -0.2921  0.0429  0.2565
 5325SOL     OW27610   3.427   1.121  14.065 -0.1530 -0.3648  0.5593
 5325SOL    HW127611   3.395   1.108  14.154  0.0405  2.9277  1.1141
 5325SOL    HW227612   3.448   1.030  14.042 -0.9515 -0.9762  2.2945
 5326SOL     OW27613   0.216   0.115   5.604  0.2800 -0.0652 -0.0205
 5326SOL    HW127614   0.253   0.197   5.570  0.8757 -1.1743 -2.0459
 5326SOL    HW227615   0.241   0.055   5.533 -0.6890  0.9619 -1.2290
 5327SOL     OW27616   0.411   0.447   1.479 -0.0502  0.4640  0.6551
 5327SOL    HW127617   0.432   0.523   1.424  1.4330 -0.5756 -0.2331
 5327SOL    HW227618   0.448   0.373   1.431  1.6670  0.5896  1.8017
 5328SOL     OW27619   3.647   1.215  10.006  0.3223 -0.1163 -0.0411
 5328SOL    HW127620   3.739   1.238  10.018 -0.1808  0.8849  2.0318
 5328SOL    HW227621   3.658   1.184   9.916  1.7720  2.2613 -0.7027
 5329SOL     OW27622   4.347   0.546   8.424 -0.4869  0.0127  0.1199
 5329SOL    HW127623   4.295   0.615   8.382  1.2716 -0.2459 -2.4559
 5329SOL    HW227624   4.280   0.537   8.492 -0.8356 -0.1521 -0.2488
 5330SOL     OW27625   0.687   0.129  11.867 -0.2099 -0.1193  0.0725
 5330SOL    HW127626   0.746   0.203  11.850  1.2634 -0.7765  2.3070
 5330SOL    HW227627   0.748   0.066  11.831  1.8134  0.6838  2.0795
 5331SOL     OW27628   3.895   3.696  13.159 -0.8922  0.2795 -0.0321
 5331SOL    HW127629   3.939   3.703  13.244  0.6012 -0.4205 -0.7485
 5331SOL    HW227630   3.824   3.632  13.172  0.5494 -1.0424  1.4257
 5332SOL     OW27631   1.346   2.611  15.090 -0.4413  0.0210  0.6856
 5332SOL    HW127632   1.340   2.692  15.039 -0.0978 -0.2946  0.1486
 5332SOL    HW227633   1.369   2.650  15.175  1.3540 -0.2257  0.3030
 5333SOL     OW27634   0.020   3.130   1.359 -0.2225  0.3031  0.6669
 5333SOL    HW127635   0.051   3.161   1.274  0.0876  0.8365  0.9779
 5333SOL    HW227636   4.676   3.084   1.334  0.1303 -0.2358  0.5229
 5334SOL     OW27637   0.407   1.689  12.658  0.0942  0.0199 -0.2792
 5334SOL    HW127638   0.461   1.761  12.691 -1.9095  0.6563  1.6507
 5334SOL    HW227639   0.342   1.726  12.598  0.5714  0.8167 -0.3045
 5335SOL     OW27640   4.196   4.265  17.689  0.0457  0.4090  0.1581
 5335SOL    HW127641   4.184   4.175  17.659 -0.4677  0.9022 -1.1148
 5335SOL    HW227642   4.117   4.281  17.740  1.0358  0.2450  1.7428
 5336SOL     OW27643   1.461   4.484   5.440 -0.8701 -0.0355  0.0544
 5336SOL    HW127644   1.448   4.410   5.500  1.8216  0.5987  1.4694
 5336SOL    HW227645   1.373   4.520   5.436 -1.4508 -1.3044  1.5670
 5337SOL     OW27646   0.557   3.313   2.708  0.3882 -0.0339  0.2116
 5337SOL    HW127647   0.480   3.370   2.703  0.1783 -0.2891  0.4743
 5337SOL    HW227648   0.620   3.372   2.667  0.1103  0.9136  1.1703
 5338SOL     OW27649   4.267   1.527   8.071 -0.0868 -0.9019 -0.2597
 5338SOL    HW127650   4.174   1.534   8.050  0.2855  0.2378 -1.4933
 5338SOL    HW227651   4.276   1.563   8.159 -1.6102  0.8833 -0.8393
 5339SOL     OW27652   1.255   4.678  12.799  0.0357 -0.3083 -0.0566
 5339SOL    HW127653   1.169   4.706  12.767  0.3137  0.6257  0.0205
 5339SOL    HW227654   1.317   4.708  12.733  0.4865 -1.5630 -0.1950
 5340SOL     OW27655   2.886   0.618  16.727  0.7668  0.1683 -0.6215
 5340SOL    HW127656   2.852   0.538  16.768  3.0208 -0.4485  0.0544
 5340SOL    HW227657   2.843   0.683  16.783  0.5875  1.3803 -2.1817
 5341SOL     OW27658   4.673   3.638  13.847 -0.5207  0.3765 -0.3865
 5341SOL    HW127659   4.725   3.593  13.914 -2.1261 -1.3810 -0.3085
 5341SOL    HW227660   4.599   3.674  13.895  0.1291  2.8446 -1.2608
 5342SOL     OW27661   4.548   0.285   5.778 -0.0541 -0.5513  0.5256
 5342SOL    HW127662   4.556   0.246   5.692  1.1248  0.8863 -0.0168
 5342SOL    HW227663   4.639   0.276   5.804  0.5526  2.5853 -0.4788
 5343SOL     OW27664   2.135   2.017  14.044  0.3166  0.0675  0.3750
 5343SOL    HW127665   2.162   1.962  14.117  1.5692 -0.1381 -0.2528
 5343SOL    HW227666   2.050   2.045  14.079  0.5238 -2.9626  3.2746
 5344SOL     OW27667   2.565   2.242  14.455 -0.6657  0.2179 -0.5728
 5344SOL    HW127668   2.504   2.226  14.383 -0.0215  0.5286 -1.1791
 5344SOL    HW227669   2.646   2.209  14.417 -0.9772 -0.7944 -0.3567
 5345SOL     OW27670   2.965   2.974   8.043 -0.0723 -0.2441 -0.5898
 5345SOL    HW127671   3.060   2.978   8.057 -0.0838 -0.8782 -0.3407
 5345SOL    HW227672   2.930   2.914   8.109 -0.3808 -0.1336 -0.6523
 5346SOL     OW27673   1.939   1.527   6.920 -0.1513 -0.1020 -0.1036
 5346SOL    HW127674   1.849   1.545   6.946 -0.3103 -1.3512  0.1963
 5346SOL    HW227675   1.940   1.436   6.948 -2.2571 -0.3086 -0.7455
 5347SOL     OW27676   2.196   1.825  16.151  0.2168  0.7085 -0.1245
 5347SOL    HW127677   2.258   1.796  16.084  0.9607 -0.5213  1.1127
 5347SOL    HW227678   2.119   1.830  16.094 -1.4828 -0.3789  2.0827
 5348SOL     OW27679   0.167   2.529   1.224 -0.0672  0.4423 -0.2070
 5348SOL    HW127680   0.076   2.540   1.198 -0.8593  1.7875  3.1108
 5348SOL    HW227681   0.185   2.473   1.149 -2.2077 -0.0346 -0.3767
 5349SOL     OW27682   3.723   0.314   4.160  0.9203  0.1516  0.3746
 5349SOL    HW127683   3.661   0.248   4.190  0.1874  0.8130  0.3083
 5349SOL    HW227684   3.676   0.345   4.083 -0.4194  1.1738  1.6182
 5350SOL     OW27685   1.806   4.490   7.798 -0.0220 -0.3742  0.0774
 5350SOL    HW127686   1.736   4.426   7.810  0.2369 -0.6135  0.3257
 5350SOL    HW227687   1.803   4.545   7.876 -0.4048  1.8989 -1.5676
 5351SOL     OW27688   3.737   0.163   5.428 -0.0646  0.4615 -0.1196
 5351SOL    HW127689   3.675   0.104   5.385 -2.2488  1.9647  0.9441
 5351SOL    HW227690   3.815   0.109   5.443  0.2240  0.6649 -0.8845
 5352SOL     OW27691   4.043   4.710   8.835 -0.0407  0.5647 -0.1847
 5352SOL    HW127692   4.071   0.065   8.830  1.6854  0.0658  0.2079
 5352SOL    HW227693   4.016   4.696   8.925 -1.4414 -2.3646 -1.0673
 5353SOL     OW27694   4.676   1.000   6.091  0.7496 -0.4761  0.9665
 5353SOL    HW127695   4.657   0.948   6.013  1.8766 -2.3537  1.9478
 5353SOL    HW227696   0.035   0.997   6.100  1.0947 -2.9497 -3.3969
 5354SOL     OW27697   2.220   4.053  10.178  0.0970  0.0036  0.0253
 5354SOL    HW127698   2.246   4.058  10.270  1.2459  0.0132 -0.2926
 5354SOL    HW227699   2.156   3.982  10.181 -1.0585  1.1288  1.8932
 5355SOL     OW27700   0.749   3.051  14.613  0.1550  0.1373  0.2555
 5355SOL    HW127701   0.707   3.077  14.695 -0.3730 -3.3216  1.1003
 5355SOL    HW227702   0.820   3.114  14.605  1.3467 -1.6520 -3.1880
 5356SOL     OW27703   3.242   3.857   4.843 -0.1658  0.1154 -0.2004
 5356SOL    HW127704   3.184   3.827   4.913 -0.6894 -0.5055 -0.8894
 5356SOL    HW227705   3.209   3.947   4.845  2.4862  1.0619  0.2255
 5357SOL     OW27706   0.630   0.775   8.123  0.1603  0.8022 -0.5140
 5357SOL    HW127707   0.612   0.812   8.209 -1.7750 -0.2271 -0.4785
 5357SOL    HW227708   0.617   0.682   8.141  1.6111  0.6935 -0.0509
 5358SOL     OW27709   3.552   3.802  11.630 -0.4887  0.1413  0.2805
 5358SOL    HW127710   3.629   3.778  11.683  0.9452  1.0483 -1.4241
 5358SOL    HW227711   3.521   3.716  11.600 -2.0789  0.3498  1.3285
 5359SOL     OW27712   4.136   2.711   1.742  0.2674 -0.1637 -0.1287
 5359SOL    HW127713   4.044   2.731   1.762  0.6704  3.4530 -1.9804
 5359SOL    HW227714   4.179   2.783   1.788  0.0119 -0.2923  0.3103
 5360SOL     OW27715   0.697   0.401  13.020  0.4578 -0.4653  0.2231
 5360SOL    HW127716   0.719   0.370  13.108 -0.8453 -2.9545 -0.3041
 5360SOL    HW227717   0.623   0.458  13.042 -1.5917 -3.1186  0.3234
 5361SOL     OW27718   0.327   1.957  10.838 -0.2174 -0.2565 -0.1333
 5361SOL    HW127719   0.241   1.983  10.808 -0.0847 -1.2837 -1.3875
 5361SOL    HW227720   0.324   1.862  10.824 -0.7624 -0.2653  0.0396
 5362SOL     OW27721   1.129   1.616   9.111 -0.0181  0.8297  0.2065
 5362SOL    HW127722   1.200   1.680   9.103  0.5415  0.3194  1.1945
 5362SOL    HW227723   1.082   1.669   9.175 -1.2889  0.1413 -0.1563
 5363SOL     OW27724   2.336   1.068  12.823  0.0742  0.0145  0.2165
 5363SOL    HW127725   2.346   1.010  12.898  1.0235 -1.1470 -0.7925
 5363SOL    HW227726   2.392   1.027  12.757 -0.4207 -1.8628  0.9392
 5364SOL     OW27727   0.757   2.652   5.819  0.6395  1.1059 -0.5515
 5364SOL    HW127728   0.798   2.579   5.867 -0.5060 -0.4717 -1.9561
 5364SOL    HW227729   0.793   2.732   5.856  2.5857  0.5160 -1.1588
 5365SOL     OW27730   4.261   0.362  17.302 -0.0706 -0.2247 -0.2217
 5365SOL    HW127731   4.352   0.387  17.317  0.1444 -1.8342  1.2369
 5365SOL    HW227732   4.268   0.267  17.317 -4.2700 -0.3806  0.6462
 5366SOL     OW27733   1.003   2.994   8.593  0.4636 -0.1723  0.0722
 5366SOL    HW127734   0.960   2.963   8.673 -1.8376 -0.3366 -1.2240
 5366SOL    HW227735   1.006   3.090   8.601 -2.2510 -0.1210  0.5606
 5367SOL     OW27736   2.488   0.706   9.240 -0.0785 -0.2176 -0.3756
 5367SOL    HW127737   2.446   0.623   9.218 -0.0877  0.1224 -1.6343
 5367SOL    HW227738   2.471   0.759   9.163 -0.6853 -0.2861 -0.2875
 5368SOL     OW27739   4.061   0.434   5.867 -0.0832 -0.2944 -0.2497
 5368SOL    HW127740   4.071   0.372   5.939 -1.4735 -0.1608  0.0645
 5368SOL    HW227741   4.144   0.481   5.874 -0.7804  0.7831  0.8851
 5369SOL     OW27742   3.060   0.889   8.963  0.3036  0.3564  0.0544
 5369SOL    HW127743   3.101   0.894   9.049  0.8978  0.6931 -0.2505
 5369SOL    HW227744   2.977   0.846   8.984  0.0731 -0.5499 -2.7680
 5370SOL     OW27745   1.128   0.410  12.401  0.0285 -0.2148 -0.4839
 5370SOL    HW127746   1.080   0.342  12.354 -2.9284  0.0914  2.0547
 5370SOL    HW227747   1.108   0.378  12.489 -0.7549 -0.0876 -0.6083
 5371SOL     OW27748   0.132   3.807   7.379 -0.2827 -0.2585  0.1647
 5371SOL    HW127749   0.085   3.780   7.300  0.8661  0.5480 -0.7922
 5371SOL    HW227750   0.093   3.893   7.399 -0.9749 -0.6151  0.3598
 5372SOL     OW27751   4.237   0.417  15.778 -0.3457 -0.1652 -0.0564
 5372SOL    HW127752   4.310   0.464  15.817 -1.1993 -0.3496  1.7292
 5372SOL    HW227753   4.272   0.328  15.774 -0.2405 -0.0465 -1.8258
 5373SOL     OW27754   1.240   1.696   6.757 -0.0620  0.1610 -0.0518
 5373SOL    HW127755   1.229   1.780   6.714  1.9456  0.5339  0.1561
 5373SOL    HW227756   1.335   1.685   6.751  0.1664  4.3161 -3.5535
 5374SOL     OW27757   2.092   0.130   8.245  0.3683 -0.3933  0.0669
 5374SOL    HW127758   2.091   0.155   8.153  1.7297 -0.0246  0.1516
 5374SOL    HW227759   2.184   0.109   8.264 -0.4670 -2.7632  1.4879
 5375SOL     OW27760   2.322   0.526   3.488  0.0912 -0.5863  0.5665
 5375SOL    HW127761   2.408   0.563   3.468  1.5082 -2.5965  2.9998
 5375SOL    HW227762   2.343   0.433   3.478 -0.7247 -0.6885 -0.2786
 5376SOL     OW27763   3.520   2.655   7.387 -0.2748  0.1298  0.6718
 5376SOL    HW127764   3.568   2.718   7.441  0.1920 -0.7695  1.3129
 5376SOL    HW227765   3.508   2.575   7.437 -0.2321 -1.7772 -2.3296
 5377SOL     OW27766   4.428   2.547   2.089  0.5302 -0.1706 -0.4975
 5377SOL    HW127767   4.499   2.486   2.069  1.4271  0.7193 -0.0318
 5377SOL    HW227768   4.360   2.488   2.119 -1.0930  1.2693 -1.3784
 5378SOL     OW27769   0.723   2.960  12.666 -0.0594  0.7871 -0.6067
 5378SOL    HW127770   0.812   2.931  12.644 -0.1108 -0.7662  1.1939
 5378SOL    HW227771   0.711   2.928  12.756 -0.6206 -0.5220 -1.1414
 5379SOL     OW27772   3.088   4.517   2.398 -0.8163 -0.1152  0.0247
 5379SOL    HW127773   3.180   4.518   2.424 -1.2206  0.7068  1.4088
 5379SOL    HW227774   3.090   4.477   2.311  0.1332 -0.6657  0.2906
 5380SOL     OW27775   3.418   3.322   3.868 -0.1328  0.4189  0.4994
 5380SOL    HW127776   3.356   3.307   3.796 -0.1298 -0.4935  0.6877
 5380SOL    HW227777   3.457   3.408   3.853  1.0507 -0.1570  0.3408
 5381SOL     OW27778   1.494   0.855   0.159 -0.3392 -0.2414 -0.7150
 5381SOL    HW127779   1.417   0.905   0.187  1.2339  1.2758  0.8489
 5381SOL    HW227780   1.453   0.786   0.106 -2.1441  0.8761 -0.7758
 5382SOL     OW27781   3.592   4.178  15.570 -0.4905 -0.4981  0.2746
 5382SOL    HW127782   3.590   4.223  15.655 -1.1940  0.1862 -0.1027
 5382SOL    HW227783   3.521   4.114  15.574 -0.6807 -0.2634  0.6914
 5383SOL     OW27784   3.054   0.019  11.548  0.6696  0.2023 -0.0896
 5383SOL    HW127785   3.020   0.099  11.587 -0.8288 -0.2773 -0.4014
 5383SOL    HW227786   3.073   0.048  11.459  0.4624  2.6084  0.6626
 5384SOL     OW27787   2.334   1.174   5.331 -0.6369  0.0183  0.5631
 5384SOL    HW127788   2.347   1.269   5.326  1.5000 -0.3725 -0.9368
 5384SOL    HW227789   2.416   1.127   5.342 -0.3842 -0.4328 -3.2445
 5385SOL     OW27790   2.476   4.148  13.062  0.4740  0.2448 -0.0687
 5385SOL    HW127791   2.404   4.204  13.094 -1.5417 -1.9124 -0.8326
 5385SOL    HW227792   2.554   4.196  13.088  0.1480  0.5497  0.3452
 5386SOL     OW27793   4.440   0.875  15.879 -0.3168 -0.3878  0.0634
 5386SOL    HW127794   4.382   0.942  15.843 -2.3249 -2.9955 -1.5501
 5386SOL    HW227795   4.375   0.847  15.944  2.8330 -1.9769  2.4946
 5387SOL     OW27796   0.804   3.298   5.270  0.7195  0.6159 -0.3235
 5387SOL    HW127797   0.890   3.335   5.252 -0.2905  1.1776 -4.0399
 5387SOL    HW227798   0.820   3.247   5.350  1.4540  1.3863  0.0235
 5388SOL     OW27799   4.316   0.958  11.244 -0.7239 -0.3928  0.1309
 5388SOL    HW127800   4.333   1.014  11.320  0.9302 -2.4210  1.2568
 5388SOL    HW227801   4.343   0.871  11.273 -1.3545 -0.2034  1.2700
 5389SOL     OW27802   1.189   0.878  14.294 -0.3525  0.0277  0.0004
 5389SOL    HW127803   1.108   0.875  14.345 -1.4622  1.8271 -1.6445
 5389SOL    HW227804   1.249   0.924  14.353 -0.6211 -0.4386  0.6352
 5390SOL     OW27805   3.078   0.621   1.444  0.3481 -0.7646 -0.1086
 5390SOL    HW127806   3.102   0.713   1.442  0.2088 -0.7082  0.8576
 5390SOL    HW227807   3.094   0.592   1.534  0.1185 -0.9741 -0.1344
 5391SOL     OW27808   1.495   0.339  11.441  0.1482 -0.5258  0.4519
 5391SOL    HW127809   1.450   0.382  11.369  2.0416  1.0855  0.2317
 5391SOL    HW227810   1.577   0.388  11.441 -0.9889  1.3479  1.6846
 5392SOL     OW27811   3.451   3.203  17.636 -0.8596 -0.3238  0.4252
 5392SOL    HW127812   3.418   3.200  17.726  0.3667 -0.3138  0.8757
 5392SOL    HW227813   3.544   3.217  17.657 -0.5765 -0.0895 -0.9963
 5393SOL     OW27814   4.392   2.660  11.739 -0.3774 -0.0937  0.0150
 5393SOL    HW127815   4.394   2.580  11.686 -4.3489 -1.0980  1.3267
 5393SOL    HW227816   4.354   2.728  11.683 -0.9013 -1.3603 -1.1637
 5394SOL     OW27817   3.505   3.553   3.815 -0.0984 -0.9880 -0.2339
 5394SOL    HW127818   3.486   3.612   3.742  1.1899  0.1997  0.3998
 5394SOL    HW227819   3.480   3.613   3.886  0.2316 -0.8740 -0.2142
 5395SOL     OW27820   2.873   1.973   2.193  0.1326 -0.0200 -0.3686
 5395SOL    HW127821   2.847   1.891   2.151  1.4622 -0.7456  0.1924
 5395SOL    HW227822   2.794   2.000   2.239  0.1049 -0.1843 -0.3175
 5396SOL     OW27823   0.416   3.481   6.201  0.1146 -0.0945 -0.7081
 5396SOL    HW127824   0.490   3.491   6.261  0.4912  1.1936 -1.3835
 5396SOL    HW227825   0.348   3.459   6.264  0.1023  0.3866 -0.5526
 5397SOL     OW27826   4.185   0.499   7.189 -0.3122 -0.2904 -0.3089
 5397SOL    HW127827   4.198   0.438   7.261 -0.5475  0.6598  0.5491
 5397SOL    HW227828   4.264   0.487   7.136 -0.5744 -2.2036 -0.2482
 5398SOL     OW27829   4.421   4.035   3.105  0.3980  0.0137 -0.1559
 5398SOL    HW127830   4.339   4.080   3.126  0.3735 -1.2539  2.3965
 5398SOL    HW227831   4.398   3.977   3.032 -0.0457 -0.4054  0.3202
 5399SOL     OW27832   2.836   1.323   0.958  0.0972 -0.3035  0.4732
 5399SOL    HW127833   2.789   1.401   0.931  2.4713  0.3489 -1.8275
 5399SOL    HW227834   2.928   1.326   0.929  1.1804 -2.2684  3.6702
 5400SOL     OW27835   1.719   3.047   1.775 -0.2878  0.6131 -0.9369
 5400SOL    HW127836   1.681   3.011   1.855 -0.8081  2.9498 -0.1193
 5400SOL    HW227837   1.711   3.142   1.786  1.1241  0.3017  2.7171
 5401SOL     OW27838   4.344   4.614   6.943 -0.5651  0.3821 -0.0654
 5401SOL    HW127839   4.300   4.596   6.860 -1.6852  1.1158  0.3600
 5401SOL    HW227840   4.350   4.521   6.964  0.4403  0.7272  1.1532
 5402SOL     OW27841   3.962   1.426   4.648  0.1992 -0.2850 -0.5838
 5402SOL    HW127842   3.896   1.416   4.579  1.9330 -1.3184 -2.1081
 5402SOL    HW227843   3.908   1.453   4.722  1.0645  3.3999 -1.2754
 5403SOL     OW27844   0.986   2.907  12.671  0.0282  0.2637 -0.4724
 5403SOL    HW127845   1.039   2.906  12.591 -0.5272 -0.8593 -0.8355
 5403SOL    HW227846   1.002   2.825  12.718 -0.6334  1.1734  1.3040
 5404SOL     OW27847   0.002   0.095   2.696 -0.0574  0.5436  0.1357
 5404SOL    HW127848   0.011   0.011   2.653  1.6453  1.2450 -0.8924
 5404SOL    HW227849   0.023   0.083   2.789 -1.4597  0.3776  0.4321
 5405SOL     OW27850   2.159   3.658   8.720 -0.8281  0.0325 -0.1142
 5405SOL    HW127851   2.192   3.568   8.720 -1.1075 -0.0611 -1.6891
 5405SOL    HW227852   2.067   3.639   8.734 -0.7866 -0.7016 -0.8240
 5406SOL     OW27853   4.473   4.167   5.741 -0.1376  0.2721  0.1723
 5406SOL    HW127854   4.411   4.106   5.700  0.9625 -1.4002  0.9770
 5406SOL    HW227855   4.413   4.239   5.758 -0.5513 -0.4964  1.9363
 5407SOL     OW27856   1.815   3.636   8.956  0.5732 -0.5897  0.1712
 5407SOL    HW127857   1.820   3.724   8.993 -1.5207 -0.5572  0.3547
 5407SOL    HW227858   1.901   3.607   8.988 -0.0125 -1.1366  1.2387
 5408SOL     OW27859   0.631   3.463   5.837 -0.1081  0.2060  0.4377
 5408SOL    HW127860   0.548   3.438   5.879  0.2634 -1.4347  0.1666
 5408SOL    HW227861   0.664   3.378   5.809  0.3940  0.3230  0.6774
 5409SOL     OW27862   0.390   2.015  12.540  0.2784  0.9221  1.0987
 5409SOL    HW127863   0.345   2.000  12.457  1.6429  1.8729  0.1856
 5409SOL    HW227864   0.323   1.975  12.595 -1.8418  0.1051 -2.1065
 5410SOL     OW27865   1.926   0.437   6.846  0.3563  0.2655  0.7192
 5410SOL    HW127866   1.911   0.435   6.752  0.6608 -1.0226  0.6950
 5410SOL    HW227867   1.905   0.347   6.871  2.0468 -0.4860 -0.5466
 5411SOL     OW27868   2.622   0.425   9.562  0.4497 -0.1257 -0.4535
 5411SOL    HW127869   2.559   0.378   9.507  0.1188 -1.5798  1.1881
 5411SOL    HW227870   2.651   0.504   9.516 -0.1396 -0.6912 -1.7942
 5412SOL     OW27871   3.963   2.049  17.493 -0.2795  0.2695 -0.0889
 5412SOL    HW127872   4.022   2.005  17.555  0.2265  0.6017 -0.3360
 5412SOL    HW227873   4.023   2.117  17.462 -1.3232  0.8195 -0.9217
 5413SOL     OW27874   4.495   4.684   7.317 -0.3009 -0.3698  0.3540
 5413SOL    HW127875   4.412   4.710   7.278  1.0796  1.0247 -1.6138
 5413SOL    HW227876   4.461   4.627   7.386  1.7310  1.5906  3.0039
 5414SOL     OW27877   0.946   3.334   4.886  0.0226  0.4815 -0.0872
 5414SOL    HW127878   0.946   3.427   4.906  2.5332  0.4342  0.0393
 5414SOL    HW227879   0.976   3.300   4.970  0.5371  0.5996 -0.2260
 5415SOL     OW27880   4.370   0.103  17.327 -0.3708  0.4412 -0.2417
 5415SOL    HW127881   4.452   0.123  17.373 -0.0349  0.9309 -1.0641
 5415SOL    HW227882   4.354   0.015  17.363 -1.1920  0.7572  0.1514
 5416SOL     OW27883   0.961   0.871   4.501  0.0240 -0.0411 -0.0032
 5416SOL    HW127884   1.041   0.841   4.543  0.6794  0.7745 -0.6733
 5416SOL    HW227885   0.927   0.785   4.476 -1.8221  1.0674 -1.2907
 5417SOL     OW27886   3.525   4.364  16.977 -0.1586  0.4640 -0.0105
 5417SOL    HW127887   3.445   4.331  17.018  0.4194  1.3126  1.7908
 5417SOL    HW227888   3.578   4.357  17.057  1.4258  0.9652 -1.0121
 5418SOL     OW27889   0.562   1.384   5.654 -0.4151 -0.1407  0.0584
 5418SOL    HW127890   0.543   1.350   5.566 -0.2367 -1.1177  0.4078
 5418SOL    HW227891   0.472   1.403   5.680  0.1566  1.2594  1.0239
 5419SOL     OW27892   2.895   4.032   0.905  0.0538  0.5589 -0.2186
 5419SOL    HW127893   2.826   4.071   0.959 -0.8814  1.6913 -2.2224
 5419SOL    HW227894   2.889   3.939   0.927  2.0919  0.1654 -1.3187
 5420SOL     OW27895   4.519   3.146   7.518 -0.8095  0.0857 -0.5642
 5420SOL    HW127896   4.427   3.120   7.517 -1.2370  1.5775  0.0838
 5420SOL    HW227897   4.560   3.067   7.555  2.3912  1.7278 -0.6063
 5421SOL     OW27898   3.487   2.924   6.967  0.2234  0.0464 -0.5021
 5421SOL    HW127899   3.516   2.836   6.991  1.9307  1.2443  1.8680
 5421SOL    HW227900   3.458   2.958   7.051 -0.5938 -0.0783 -0.7316
 5422SOL     OW27901   0.103   3.812   5.409 -0.0847  0.2688 -0.1570
 5422SOL    HW127902   0.051   3.881   5.369  1.0005  0.2464 -1.6040
 5422SOL    HW227903   0.033   3.751   5.433  0.8511 -0.9004 -0.3654
 5423SOL     OW27904   1.228   0.955  15.213  0.8277  0.6488 -0.3198
 5423SOL    HW127905   1.312   0.922  15.245  1.3365  0.1680 -2.1160
 5423SOL    HW227906   1.224   0.913  15.127 -0.2878  0.5136 -0.2069
 5424SOL     OW27907   2.967   0.144   9.186 -0.1633  0.7937 -0.1116
 5424SOL    HW127908   2.995   0.138   9.278 -0.0155  1.1563 -0.1334
 5424SOL    HW227909   2.886   0.093   9.182  0.7305 -0.8537  2.3734
 5425SOL     OW27910   3.764   2.921   2.870 -0.2798  0.1584 -0.5799
 5425SOL    HW127911   3.777   2.961   2.956  1.1816  1.3863 -1.3738
 5425SOL    HW227912   3.767   2.827   2.889 -3.0094  0.0940 -0.4548
 5426SOL     OW27913   3.507   1.928   4.598  0.2683 -0.3221 -0.0009
 5426SOL    HW127914   3.536   1.964   4.514 -0.6867  1.3284  0.3677
 5426SOL    HW227915   3.476   2.013   4.628  1.6135  0.0108  0.4424
 5427SOL     OW27916   3.358   2.440   2.160  0.6410  0.6273 -0.2428
 5427SOL    HW127917   3.288   2.403   2.214  1.8474 -1.1499  0.1144
 5427SOL    HW227918   3.381   2.376   2.092 -1.6942 -2.1040  1.4951
 5428SOL     OW27919   3.951   4.091   3.391  0.7155 -0.1053 -0.3582
 5428SOL    HW127920   3.860   4.107   3.365  0.8859 -0.1411 -0.9802
 5428SOL    HW227921   3.943   3.996   3.389  0.3643 -0.0963  0.6365
 5429SOL     OW27922   2.273   1.067   2.640  0.4118 -0.7822 -0.5842
 5429SOL    HW127923   2.289   0.982   2.681  1.3533 -0.5321 -0.4272
 5429SOL    HW227924   2.211   1.101   2.705  2.1997  0.2166  0.6298
 5430SOL     OW27925   0.905   4.140   2.092 -0.2585  0.3184  0.2405
 5430SOL    HW127926   0.831   4.095   2.133  0.0221 -1.2056 -0.9269
 5430SOL    HW227927   0.963   4.149   2.168 -0.0067 -1.1455  0.2334
 5431SOL     OW27928   2.155   0.208  15.180 -1.2768 -0.4476  0.3919
 5431SOL    HW127929   2.234   0.194  15.128 -0.3606  0.8411  1.4309
 5431SOL    HW227930   2.146   0.120  15.215  2.4338 -1.1636 -0.4754
 5432SOL     OW27931   1.605   4.299   7.885 -0.3762  0.1741 -0.0895
 5432SOL    HW127932   1.544   4.228   7.865 -0.2867 -0.3671  1.5931
 5432SOL    HW227933   1.575   4.318   7.973 -2.5979  0.1319 -0.8369
 5433SOL     OW27934   2.176   4.575   4.109 -0.0702 -0.2176 -0.1989
 5433SOL    HW127935   2.166   4.646   4.045  0.2542 -0.9761 -1.0929
 5433SOL    HW227936   2.089   4.536   4.117 -0.9624  1.4463 -1.8286
 5434SOL     OW27937   4.301   0.795  16.094  0.3465  0.0773  0.0661
 5434SOL    HW127938   4.304   0.759  16.183 -0.8022 -0.1759  0.0002
 5434SOL    HW227939   4.215   0.837  16.088 -0.3667 -1.6553 -1.9739
 5435SOL     OW27940   2.467   0.911   2.421 -0.0528  0.1304 -0.1712
 5435SOL    HW127941   2.553   0.903   2.380 -0.7942 -1.6123 -1.4016
 5435SOL    HW227942   2.485   0.885   2.511 -1.2462  1.3853  0.4299
 5436SOL     OW27943   4.567   4.201   6.271 -0.4165  0.5538  0.2775
 5436SOL    HW127944   4.650   4.158   6.250  0.0965  3.0271 -2.6726
 5436SOL    HW227945   4.585   4.290   6.241 -0.0065  0.4108  0.0923
 5437SOL     OW27946   0.203   0.273   4.606 -0.2010  0.1194  0.2845
 5437SOL    HW127947   0.110   0.260   4.621 -0.5668 -0.4357 -2.4741
 5437SOL    HW227948   0.208   0.363   4.638  0.6041 -0.3887  1.5861
 5438SOL     OW27949   3.102   1.165   2.415 -0.2349 -0.1849 -0.5548
 5438SOL    HW127950   3.149   1.141   2.494 -0.5315  1.4873  0.1459
 5438SOL    HW227951   3.012   1.149   2.445 -0.6393 -1.8721 -2.6960
 5439SOL     OW27952   2.529   4.219   4.807 -0.3709 -0.1768  0.1900
 5439SOL    HW127953   2.530   4.130   4.842  1.4639 -0.0978  0.3383
 5439SOL    HW227954   2.438   4.248   4.815 -0.0038  0.3101  2.5954
 5440SOL     OW27955   1.250   3.211   7.074 -0.4771  0.2866  0.3172
 5440SOL    HW127956   1.260   3.306   7.071 -3.5031  0.6358  1.2889
 5440SOL    HW227957   1.227   3.194   6.982  0.8945  0.4042 -0.0424
 5441SOL     OW27958   3.098   3.004   4.920  0.2257 -0.1766 -0.0693
 5441SOL    HW127959   3.037   2.977   4.851 -0.5851 -0.5328  0.7870
 5441SOL    HW227960   3.047   2.976   4.996 -1.0160 -0.6988 -1.0953
 5442SOL     OW27961   0.068   1.314   3.019 -0.7021  0.0159  0.6149
 5442SOL    HW127962   0.086   1.394   3.069 -0.3475 -2.1087  3.9243
 5442SOL    HW227963   0.017   1.265   3.083  0.8496 -1.1416  0.9331
 5443SOL     OW27964   3.809   1.225   7.716 -0.5638  0.3211 -0.1612
 5443SOL    HW127965   3.854   1.154   7.670 -0.9524 -0.7559  1.1093
 5443SOL    HW227966   3.876   1.250   7.780 -1.5760 -0.8288  1.3564
 5444SOL     OW27967   1.603   4.077  13.079  0.0219 -0.8289 -0.2097
 5444SOL    HW127968   1.572   4.012  13.142 -2.1801  2.1243  1.6882
 5444SOL    HW227969   1.522   4.126  13.075  0.2334 -0.2816  2.1588
 5445SOL     OW27970   2.162   4.162   5.089 -0.0406  0.5819 -0.1179
 5445SOL    HW127971   2.095   4.216   5.129  0.3204  0.7900  0.2044
 5445SOL    HW227972   2.151   4.093   5.154  1.2150  2.5372  2.1663
 5446SOL     OW27973   0.883   1.110   2.804  0.4600  0.4784 -0.1356
 5446SOL    HW127974   0.802   1.101   2.855 -0.6732 -0.2605 -2.0732
 5446SOL    HW227975   0.909   1.023   2.774 -2.2044 -0.0296 -1.0099
 5447SOL     OW27976   2.595   0.509  12.045 -0.1058  0.2632  0.1003
 5447SOL    HW127977   2.593   0.502  12.140  0.9480 -0.4083  0.0793
 5447SOL    HW227978   2.583   0.418  12.019  1.5406  0.1083 -0.1468
 5448SOL     OW27979   4.225   1.836  13.067  0.1890 -0.3681  0.0324
 5448SOL    HW127980   4.253   1.749  13.097 -0.7830 -0.1739  1.5133
 5448SOL    HW227981   4.192   1.815  12.980 -1.2265  0.2098  0.4374
 5449SOL     OW27982   1.299   1.515  14.948 -0.4766  0.0374  0.2346
 5449SOL    HW127983   1.289   1.432  14.994 -0.1494 -0.1072  0.0398
 5449SOL    HW227984   1.206   1.538  14.957 -0.3347  0.7905 -0.2661
 5450SOL     OW27985   4.612   1.851   6.668 -0.2606 -0.2434 -0.0535
 5450SOL    HW127986   4.648   1.779   6.720 -0.7384 -1.2022 -1.0498
 5450SOL    HW227987   4.526   1.817   6.642 -0.4842  0.5625 -0.4051
 5451SOL     OW27988   2.021   0.017   2.590  0.2074  0.5476  0.0584
 5451SOL    HW127989   1.982   0.061   2.665  0.6569 -0.1154  0.6848
 5451SOL    HW227990   2.045   0.087   2.530  0.4171 -0.6836 -1.3172
 5452SOL     OW27991   0.650   1.082   2.240 -0.0255 -0.0126 -0.3749
 5452SOL    HW127992   0.693   1.168   2.243 -1.1958  0.5195  1.1328
 5452SOL    HW227993   0.628   1.072   2.147  2.5566  0.9246 -1.0921
 5453SOL     OW27994   0.851   4.533   4.440 -0.0672  0.2898 -0.5325
 5453SOL    HW127995   0.758   4.523   4.459  0.4231 -0.3783  1.5344
 5453SOL    HW227996   0.859   4.627   4.424 -1.0834  0.3052 -0.9444
 5454SOL     OW27997   2.327   4.500  16.391  0.7348 -0.9551  0.2026
 5454SOL    HW127998   2.375   4.529  16.314 -1.0313 -0.1900 -0.6031
 5454SOL    HW227999   2.335   4.404  16.389 -1.7282 -1.1543 -0.9492
 5455SOL     OW28000   1.500   2.990   3.283 -0.1579  0.4040  0.1013
 5455SOL    HW128001   1.527   2.926   3.218 -0.9432  0.6698 -0.4813
 5455SOL    HW228002   1.576   2.981   3.340  0.1559 -0.9593 -0.5539
 5456SOL     OW28003   0.493   0.441  16.769  0.4547  0.9087  0.1194
 5456SOL    HW128004   0.409   0.447  16.814 -1.1383  1.1191 -2.8618
 5456SOL    HW228005   0.495   0.364  16.711 -3.1245  1.9328 -1.3634
 5457SOL     OW28006   2.722   0.740   5.199  0.0044  0.0348 -0.7688
 5457SOL    HW128007   2.688   0.762   5.113 -3.1712 -0.0212  0.4846
 5457SOL    HW228008   2.732   0.645   5.192  3.6307  0.4106 -0.5651
 5458SOL     OW28009   3.456   0.485   6.076  0.6372  0.9405 -0.4757
 5458SOL    HW128010   3.459   0.390   6.085  1.5187  0.8481 -1.6481
 5458SOL    HW228011   3.364   0.499   6.051  0.5281 -0.2999 -0.7722
 5459SOL     OW28012   2.302   3.431   5.827 -0.1683  0.4011 -0.0280
 5459SOL    HW128013   2.333   3.418   5.738 -0.1284 -0.5863  0.1287
 5459SOL    HW228014   2.227   3.372   5.833 -0.2716  0.6037  0.8136
 5460SOL     OW28015   0.960   1.775   0.609 -0.0675 -0.3328 -0.4826
 5460SOL    HW128016   0.940   1.860   0.569  1.2311 -0.7922 -2.1220
 5460SOL    HW228017   1.007   1.811   0.684 -0.6342 -0.0022 -0.2867
 5461SOL     OW28018   3.158   0.602   5.963 -0.0356 -0.3096  0.1988
 5461SOL    HW128019   3.198   0.686   5.984 -0.8425 -0.2453  1.4853
 5461SOL    HW228020   3.148   0.616   5.868 -1.6628 -1.0241  0.2539
 5462SOL     OW28021   4.454   3.374  15.556 -0.0809  0.6401  0.1396
 5462SOL    HW128022   4.384   3.434  15.583 -1.1868 -0.7156  0.3043
 5462SOL    HW228023   4.437   3.374  15.462 -1.0953 -1.8164  0.3062
 5463SOL     OW28024   0.411   3.962   6.805 -0.9010 -0.4560  0.1253
 5463SOL    HW128025   0.493   3.991   6.843 -0.9364 -0.2536  0.0455
 5463SOL    HW228026   0.452   3.881   6.775 -1.3319 -0.2046 -1.1681
 5464SOL     OW28027   4.243   2.253   4.238  0.1618 -0.7658  0.0721
 5464SOL    HW128028   4.336   2.245   4.217 -0.3128  0.1777 -2.3583
 5464SOL    HW228029   4.245   2.253   4.334 -2.2858 -0.4609  0.1192
 5465SOL     OW28030   4.577   3.092   5.264  0.3381 -0.3995  0.8105
 5465SOL    HW128031   4.565   3.186   5.275 -0.2156 -0.3234 -0.4766
 5465SOL    HW228032   4.603   3.091   5.171  0.9983 -0.2265  0.9927
 5466SOL     OW28033   4.435   1.765  15.639 -0.3606  0.1007 -0.0568
 5466SOL    HW128034   4.423   1.751  15.733  3.0428 -0.0103  0.3670
 5466SOL    HW228035   4.386   1.690  15.605 -0.6369 -0.1391  0.8543
 5467SOL     OW28036   1.393   2.559   7.606 -0.4200 -0.1267  0.0493
 5467SOL    HW128037   1.383   2.498   7.533 -0.4781 -0.0799  0.0176
 5467SOL    HW228038   1.422   2.506   7.680 -1.3875  1.7011  1.7471
 5468SOL     OW28039   2.798   3.883   0.400 -0.5467  0.2159 -0.1710
 5468SOL    HW128040   2.752   3.912   0.478 -2.8870  1.1637 -1.8946
 5468SOL    HW228041   2.731   3.831   0.355 -0.8175  0.3369  0.0995
 5469SOL     OW28042   2.409   0.825   6.569 -0.4525 -0.2466 -0.2858
 5469SOL    HW128043   2.495   0.844   6.606 -1.2607  0.1405  1.4072
 5469SOL    HW228044   2.412   0.729   6.569  2.1094 -0.1578  0.2056
 5470SOL     OW28045   3.760   1.691   8.671 -0.0935 -0.1968  0.4015
 5470SOL    HW128046   3.743   1.687   8.577  1.6939  0.8172  0.0247
 5470SOL    HW228047   3.671   1.691   8.704 -0.2252  0.5130  0.0529
 5471SOL     OW28048   0.960   1.958   4.111 -0.3328 -0.5532 -0.8478
 5471SOL    HW128049   1.038   1.992   4.068 -1.1747  1.9978 -0.3948
 5471SOL    HW228050   0.996   1.943   4.198 -1.7764  1.6245  0.1236
 5472SOL     OW28051   0.948   3.258   2.528  0.5545 -0.2823 -0.0611
 5472SOL    HW128052   0.966   3.165   2.517  0.7248 -0.1670 -0.7813
 5472SOL    HW228053   0.913   3.290   2.445 -1.3657  0.6509  1.1112
 5473SOL     OW28054   0.543   1.974   8.963 -0.6650  0.4956  0.2722
 5473SOL    HW128055   0.454   1.938   8.967 -1.1016  1.5159 -0.1418
 5473SOL    HW228056   0.573   1.992   9.052 -1.7357  2.5100  0.2334
 5474SOL     OW28057   0.533   4.370   5.547  0.4860  0.1269 -0.0164
 5474SOL    HW128058   0.469   4.409   5.607 -0.8112 -2.4036  0.2415
 5474SOL    HW228059   0.555   4.456   5.511  0.0759  0.8481  1.4223
 5475SOL     OW28060   0.802   0.260  17.375  0.6913  0.0719 -0.1565
 5475SOL    HW128061   0.766   0.324  17.314 -0.3484 -0.4659 -0.1036
 5475SOL    HW228062   0.880   0.232  17.329  1.7984  0.5707  1.4034
 5476SOL     OW28063   3.274   2.437   5.276 -0.0864 -0.3437  0.1455
 5476SOL    HW128064   3.243   2.348   5.295  1.5575 -0.4318  2.3719
 5476SOL    HW228065   3.357   2.431   5.323  0.1374  2.0722  0.0353
 5477SOL     OW28066   1.419   2.005  14.994  0.4031  0.5025  0.0720
 5477SOL    HW128067   1.348   2.064  15.018 -0.9638 -0.0725 -2.5533
 5477SOL    HW228068   1.369   1.927  15.018  1.7821  0.1955  1.9535
 5478SOL     OW28069   1.094   0.292   1.884  0.2960 -0.2714  0.4098
 5478SOL    HW128070   1.100   0.217   1.824 -1.8152 -0.9560  1.0564
 5478SOL    HW228071   1.078   0.365   1.824  2.7688  1.1529  1.4880
 5479SOL     OW28072   1.361   4.230  13.030  0.0784 -0.0713 -0.2359
 5479SOL    HW128073   1.282   4.283  13.021  0.1134 -0.1486 -0.9312
 5479SOL    HW228074   1.366   4.215  13.125  0.0686 -2.7987 -0.6671
 5480SOL     OW28075   4.335   0.991  12.896 -0.0057 -0.0872 -0.1534
 5480SOL    HW128076   4.427   1.001  12.870 -0.1956  2.9507  0.3476
 5480SOL    HW228077   4.360   0.986  12.988  2.1776  2.6164 -0.5796
 5481SOL     OW28078   1.360   2.920   5.646  0.3774  0.2627 -0.1231
 5481SOL    HW128079   1.455   2.912   5.649  0.3066 -0.3185  0.7093
 5481SOL    HW228080   1.315   2.869   5.714  0.6491 -2.0729 -1.6908
 5482SOL     OW28081   1.996   2.764   4.353  0.4101 -0.1450  0.3436
 5482SOL    HW128082   2.075   2.710   4.361 -1.2092 -2.4606  0.8480
 5482SOL    HW228083   1.960   2.743   4.439 -0.8115 -0.5754 -0.2728
 5483SOL     OW28084   1.079   2.645   0.989 -0.3816 -0.0097  0.5755
 5483SOL    HW128085   1.029   2.715   0.946  0.5323  1.8008  2.4217
 5483SOL    HW228086   1.036   2.648   1.075 -0.3645  1.4713  0.5388
 5484SOL     OW28087   2.419   3.048   6.521 -0.1155 -0.2255 -0.4392
 5484SOL    HW128088   2.445   3.012   6.606 -2.7987 -1.8248 -0.2762
 5484SOL    HW228089   2.453   2.981   6.463 -0.5787  0.6824 -1.7685
 5485SOL     OW28090   1.418   1.847   4.149  0.1181 -0.2502  0.6043
 5485SOL    HW128091   1.383   1.854   4.238  1.4292  0.8336  1.0394
 5485SOL    HW228092   1.457   1.760   4.155 -2.2710 -1.3149  0.4329
 5486SOL     OW28093   1.208   2.560  13.123 -0.5679  0.1571 -0.2065
 5486SOL    HW128094   1.265   2.501  13.173 -0.5925  0.2347 -0.0856
 5486SOL    HW228095   1.209   2.634  13.184 -0.7835  1.0747 -1.3342
 5487SOL     OW28096   1.745   1.629   6.698  0.0007  0.6629 -0.9802
 5487SOL    HW128097   1.656   1.636   6.664  0.0809 -0.7891 -1.4785
 5487SOL    HW228098   1.741   1.540   6.733  0.8063  0.6501 -0.9273
 5488SOL     OW28099   1.876   2.876   4.910  0.4438  0.2593  0.2604
 5488SOL    HW128100   1.817   2.800   4.915  0.0587  0.5005 -0.6216
 5488SOL    HW228101   1.956   2.842   4.872  0.2621  0.7660 -0.5754
 5489SOL     OW28102   0.353   1.031   6.524 -0.0921  0.0386 -0.0899
 5489SOL    HW128103   0.446   1.008   6.528 -0.0602  0.4050  1.0477
 5489SOL    HW228104   0.304   0.973   6.582 -1.8945  0.2206 -1.4047
 5490SOL     OW28105   2.325   0.908   1.884 -0.8895 -0.6277  0.2617
 5490SOL    HW128106   2.416   0.906   1.857 -1.2428 -1.3766 -0.9100
 5490SOL    HW228107   2.283   0.924   1.800 -0.4941  0.6050  0.3027
 5491SOL     OW28108   0.231   4.302  17.641 -0.0497  0.1562 -0.2742
 5491SOL    HW128109   0.171   4.320  17.569  1.3271 -0.9118 -1.6863
 5491SOL    HW228110   0.268   4.220  17.608  3.6694  2.1731 -1.0997
 5492SOL     OW28111   3.915   2.387   3.600  0.2875 -0.0748  0.0131
 5492SOL    HW128112   3.938   2.471   3.560  0.4865 -0.2825 -0.3085
 5492SOL    HW228113   3.968   2.337   3.538  0.2690 -1.4733  1.1103
 5493SOL     OW28114   0.072   0.426  11.780 -0.0129 -0.1927 -0.0489
 5493SOL    HW128115   0.154   0.376  11.782 -0.8036 -1.4537  0.3312
 5493SOL    HW228116   0.020   0.353  11.813  2.6409 -2.3998 -0.7325
 5494SOL     OW28117   1.763   3.467  17.537 -0.4516 -0.2463 -0.3238
 5494SOL    HW128118   1.750   3.392  17.595 -1.0606 -0.9766 -1.4038
 5494SOL    HW228119   1.767   3.542  17.596  2.2115  0.0226 -0.8364
 5495SOL     OW28120   1.832   1.769   1.601 -0.4282  0.1519 -0.3729
 5495SOL    HW128121   1.766   1.711   1.563  0.0664 -0.7756  0.1943
 5495SOL    HW228122   1.914   1.725   1.578  0.7121  2.7616 -1.3009
 5496SOL     OW28123   2.153   2.820   6.739  0.2408 -0.3077 -0.2158
 5496SOL    HW128124   2.175   2.768   6.817 -0.2724 -1.5644 -0.9049
 5496SOL    HW228125   2.058   2.807   6.739  0.5264 -2.4031  2.7280
 5497SOL     OW28126   0.198   4.613   6.357 -0.0297  0.5857 -0.1406
 5497SOL    HW128127   0.240   4.570   6.283  0.6155  0.4376  0.3117
 5497SOL    HW228128   0.202   4.548   6.427  3.1522 -1.7665 -2.4826
 5498SOL     OW28129   1.262   3.360  11.215  0.0846 -0.4149 -0.2130
 5498SOL    HW128130   1.192   3.388  11.274  1.3704 -1.0943  1.6381
 5498SOL    HW228131   1.261   3.265  11.233 -1.4572 -0.4729 -0.6292
 5499SOL     OW28132   4.168   3.264   1.483 -0.0993 -0.0786  0.1541
 5499SOL    HW128133   4.165   3.176   1.521  0.4256  0.2601  0.9669
 5499SOL    HW228134   4.080   3.278   1.447 -0.1684 -0.3887  0.1965
 5500SOL     OW28135   2.118   2.869   7.735 -0.6120 -0.0872 -0.6445
 5500SOL    HW128136   2.029   2.834   7.742  0.5463 -3.1377 -1.1308
 5500SOL    HW228137   2.140   2.867   7.828 -1.4101 -0.2899 -0.4601
 5501SOL     OW28138   4.487   0.367   6.179 -0.4576  0.3535  0.3170
 5501SOL    HW128139   4.418   0.314   6.218 -0.2579 -1.2849 -1.5830
 5501SOL    HW228140   4.562   0.308   6.187 -0.4742  0.2424 -0.4299
 5502SOL     OW28141   4.402   2.524   1.766  0.7033  0.2153  0.1457
 5502SOL    HW128142   4.496   2.507   1.762  0.7481  0.5491 -0.2470
 5502SOL    HW228143   4.412   2.617   1.787 -1.6130  0.6972 -0.9044
 5503SOL     OW28144   0.809   0.404   2.623 -0.3513 -0.1702 -0.2540
 5503SOL    HW128145   0.744   0.350   2.579 -0.0789 -0.5525 -0.1824
 5503SOL    HW228146   0.824   0.357   2.705 -0.3262 -0.2833 -0.3236
 5504SOL     OW28147   3.541   2.789  10.620 -0.8553  0.0681 -0.1023
 5504SOL    HW128148   3.588   2.728  10.676 -0.0138 -0.3144 -1.2338
 5504SOL    HW228149   3.528   2.868  10.673 -1.8339  0.0760 -0.3497
 5505SOL     OW28150   1.834   2.954  13.421 -0.0884 -0.0398 -0.4760
 5505SOL    HW128151   1.776   2.926  13.351  0.7625 -0.2775 -1.0850
 5505SOL    HW228152   1.778   2.921  13.492 -0.2778 -2.9923 -1.9997
 5506SOL     OW28153   2.561   3.414   1.545  0.6621  0.2261  0.0766
 5506SOL    HW128154   2.488   3.474   1.529  1.5869  1.0696 -0.8956
 5506SOL    HW228155   2.527   3.350   1.609 -0.3374  0.6004 -0.0738
 5507SOL     OW28156   0.701   2.667   1.155  0.5231 -0.5899  0.3156
 5507SOL    HW128157   0.613   2.642   1.127  0.7712 -1.5282  0.3733
 5507SOL    HW228158   0.712   2.589   1.210 -0.2262 -0.8025  0.1687
 5508SOL     OW28159   0.511   0.711   5.266 -0.9585  0.1121 -0.7838
 5508SOL    HW128160   0.589   0.754   5.301 -3.0211  2.7829  0.4621
 5508SOL    HW228161   0.494   0.754   5.182 -3.1403 -1.0896 -0.9520
 5509SOL     OW28162   0.562   1.485   6.464 -0.2017 -0.1597 -0.3933
 5509SOL    HW128163   0.532   1.419   6.527  1.4410  0.9872  1.5982
 5509SOL    HW228164   0.543   1.561   6.518  0.1113 -0.4177  0.0866
 5510SOL     OW28165   3.612   2.500   0.377 -0.5188 -0.1517  0.1431
 5510SOL    HW128166   3.603   2.595   0.377 -1.6705 -0.2619 -0.2849
 5510SOL    HW228167   3.701   2.482   0.408 -1.1458 -0.1631  1.9588
 5511SOL     OW28168   2.748   3.832  17.691  0.4046  0.0437 -0.5093
 5511SOL    HW128169   2.786   3.915  17.661 -2.0515  1.1027 -0.6420
 5511SOL    HW228170   2.678   3.812  17.629 -0.2737  1.7624 -0.3024
 5512SOL     OW28171   4.029   3.136   5.925  0.2926 -0.1869 -0.1037
 5512SOL    HW128172   3.987   3.142   6.011  0.3592 -0.0437 -0.0809
 5512SOL    HW228173   3.956   3.099   5.876  1.0905 -1.9230  0.0288
 5513SOL     OW28174   0.671   3.659   6.185  0.1396 -0.0138 -0.0481
 5513SOL    HW128175   0.712   3.652   6.099 -0.3652 -0.6793 -0.2287
 5513SOL    HW228176   0.678   3.569   6.217  3.0970  0.2304  0.0028
 5514SOL     OW28177   4.138   0.975   8.451 -0.0681 -0.0112 -0.1146
 5514SOL    HW128178   4.098   0.917   8.516  0.2497 -0.1801 -0.0709
 5514SOL    HW228179   4.087   1.055   8.458  0.7179  0.4075  0.8762
 5515SOL     OW28180   2.288   2.388   8.666  0.3643  0.1319 -0.6299
 5515SOL    HW128181   2.214   2.389   8.605  0.3037 -0.3234 -0.5636
 5515SOL    HW228182   2.367   2.373   8.616 -0.9149 -0.7552 -2.3708
 5516SOL     OW28183   0.991   4.027   7.173 -0.4082  0.0281 -0.1273
 5516SOL    HW128184   0.976   4.072   7.090  0.1497 -2.8998 -1.8011
 5516SOL    HW228185   0.913   3.971   7.167 -0.1285 -0.5802  1.8735
 5517SOL     OW28186   1.789   1.926   5.387 -0.6839  0.4841  0.0633
 5517SOL    HW128187   1.775   1.892   5.299 -1.9350  0.0449  0.4365
 5517SOL    HW228188   1.882   1.944   5.372 -1.0140  0.1430 -2.3303
 5518SOL     OW28189   1.632   2.970   5.687  0.5670  0.1823  0.1327
 5518SOL    HW128190   1.693   2.958   5.760  0.7010  0.8250  0.1221
 5518SOL    HW228191   1.672   3.041   5.637 -1.4418 -0.5164 -2.4161
 5519SOL     OW28192   4.692   2.965  16.019 -0.8836 -0.1521 -0.0534
 5519SOL    HW128193   4.717   3.038  15.962 -0.8563  0.2572  0.4857
 5519SOL    HW228194   4.652   2.907  15.955 -1.4758 -0.0726  0.2480
 5520SOL     OW28195   2.944   1.101   8.562  0.4241  0.3156 -0.3736
 5520SOL    HW128196   3.022   1.065   8.604  0.7064  2.3603  0.8875
 5520SOL    HW228197   2.970   1.078   8.473 -1.1428  0.9587 -1.0070
 5521SOL     OW28198   4.518   1.877   5.848 -0.3986 -0.7376  0.4426
 5521SOL    HW128199   4.446   1.931   5.882  0.4833  0.3796  0.5369
 5521SOL    HW228200   4.583   1.945   5.863  0.5933 -1.8399  1.0881
 5522SOL     OW28201   0.046   1.913   1.355 -0.4257 -0.1977 -0.4926
 5522SOL    HW128202   0.025   1.841   1.414 -1.1514 -0.2981 -0.8734
 5522SOL    HW228203   0.131   1.951   1.376 -0.8531  0.1307  0.6555
 5523SOL     OW28204   2.840   2.028  11.915  0.3823  0.2847 -0.0907
 5523SOL    HW128205   2.828   1.999  12.005  1.4438  0.6957  0.1838
 5523SOL    HW228206   2.757   2.073  11.896  1.0534  1.5632 -0.0235
 5524SOL     OW28207   1.650   4.495   7.288 -0.3349 -0.1132  0.2208
 5524SOL    HW128208   1.629   4.431   7.221  2.0512 -1.2018  0.5140
 5524SOL    HW228209   1.610   4.455   7.365  0.3960  0.3198  0.8219
 5525SOL     OW28210   3.739   1.350   3.353 -0.4680 -0.3970 -0.1408
 5525SOL    HW128211   3.744   1.436   3.395  1.1823 -0.1162 -0.8947
 5525SOL    HW228212   3.682   1.313   3.420 -2.0269  1.0775 -0.6579
 5526SOL     OW28213   2.278   2.676  10.297 -0.4705  0.5087  0.2121
 5526SOL    HW128214   2.221   2.752  10.303 -1.6083 -0.5953  3.4111
 5526SOL    HW228215   2.359   2.706  10.339  0.8911 -2.3106 -0.3966
 5527SOL     OW28216   1.039   3.684   3.894 -0.3768 -0.0915 -0.0645
 5527SOL    HW128217   1.019   3.777   3.902 -1.7191 -0.3938  0.1666
 5527SOL    HW228218   0.950   3.654   3.873 -0.5677 -0.3770  1.1119
 5528SOL     OW28219   0.788   1.896  14.904  0.1329 -0.0689 -0.5452
 5528SOL    HW128220   0.874   1.921  14.939  0.1267  3.8891 -3.3924
 5528SOL    HW228221   0.737   1.895  14.985  1.2382  1.2344  0.1673
 5529SOL     OW28222   1.572   2.451   5.118 -0.4477  0.2922 -0.2405
 5529SOL    HW128223   1.603   2.462   5.208  0.4807  2.3033 -0.8149
 5529SOL    HW228224   1.545   2.539   5.096 -2.1322 -0.2467 -0.3303
 5530SOL     OW28225   1.053   1.165   8.139  0.1511  0.0545  0.2676
 5530SOL    HW128226   1.034   1.082   8.183  0.0582  0.1581  0.4200
 5530SOL    HW228227   1.143   1.182   8.169  0.1541 -0.6386  0.6627
 5531SOL     OW28228   1.714   0.354   2.434  0.2267 -0.2639 -0.0729
 5531SOL    HW128229   1.677   0.271   2.463  1.1413 -0.4336  0.6172
 5531SOL    HW228230   1.711   0.404   2.515  1.1053 -0.7152  0.2391
 5532SOL     OW28231   1.588   4.704   8.654  0.4193  0.2427 -0.0540
 5532SOL    HW128232   1.647   0.037   8.624  0.6029 -0.1625 -0.6208
 5532SOL    HW228233   1.527   0.016   8.711  0.1806 -0.3237  0.1689
 5533SOL     OW28234   3.100   1.198  12.650 -0.3746  0.5519  0.0017
 5533SOL    HW128235   3.032   1.131  12.641  0.9318 -0.6488 -0.9572
 5533SOL    HW228236   3.126   1.202  12.558  1.8445 -2.0730  0.5117
 5534SOL     OW28237   2.817   1.915   8.264 -0.3504  0.1675 -0.5507
 5534SOL    HW128238   2.858   1.932   8.179  3.3547 -0.0135  1.2392
 5534SOL    HW228239   2.726   1.946   8.253 -1.1664 -1.4113  1.8780
 5535SOL     OW28240   2.073   0.040   3.262  0.0199  0.8086  0.0913
 5535SOL    HW128241   2.159   0.004   3.241  0.8405  2.4100  0.6909
 5535SOL    HW228242   2.043   0.048   3.172 -0.4065 -0.7146  0.1093
 5536SOL     OW28243   4.499   2.286   5.175  0.2431 -0.3023 -0.3632
 5536SOL    HW128244   4.457   2.329   5.250  3.2432  0.7917  0.7080
 5536SOL    HW228245   4.565   2.351   5.150 -0.5436  1.1390  1.3516
 5537SOL     OW28246   1.271   2.659  12.323 -0.4245 -0.5479  0.5907
 5537SOL    HW128247   1.210   2.602  12.370  0.0867 -2.0469 -0.5677
 5537SOL    HW228248   1.322   2.704  12.391  1.1046 -0.8638 -0.3419
 5538SOL     OW28249   2.445   0.832   3.665  0.6641 -0.4956 -0.6979
 5538SOL    HW128250   2.508   0.797   3.729 -0.4262  2.2543  1.8425
 5538SOL    HW228251   2.436   0.925   3.683 -0.3730 -0.8746  0.7279
 5539SOL     OW28252   2.319   3.736   9.057 -0.6315  0.0085  0.3593
 5539SOL    HW128253   2.228   3.754   9.032 -0.9595 -2.2273 -0.0907
 5539SOL    HW228254   2.327   3.792   9.134 -0.4419  0.1196  0.2590
 5540SOL     OW28255   3.559   3.692   5.242 -0.3902  1.0051 -0.2556
 5540SOL    HW128256   3.630   3.745   5.207  1.9932 -1.3802  0.9439
 5540SOL    HW228257   3.505   3.680   5.164 -0.6290  2.0833 -0.2515
 5541SOL     OW28258   1.207   1.913   4.630  0.0293  0.0641  0.1207
 5541SOL    HW128259   1.215   1.842   4.692 -0.2858 -1.6275 -1.7759
 5541SOL    HW228260   1.112   1.923   4.619 -0.1696 -3.1700 -1.0215
 5542SOL     OW28261   3.435   2.039  17.506  0.3020  0.3357 -0.1231
 5542SOL    HW128262   3.434   1.944  17.494 -3.8988  0.4728 -0.9222
 5542SOL    HW228263   3.501   2.062  17.571  1.8811 -0.2803 -1.4833
 5543SOL     OW28264   0.267   3.795   2.737 -0.4505  0.2909  0.3582
 5543SOL    HW128265   0.314   3.748   2.668  3.0733  1.4437  1.9635
 5543SOL    HW228266   0.216   3.858   2.687 -1.0464  0.0949  0.7154
 5544SOL     OW28267   3.227   4.210   8.139 -0.0128  0.1100  0.6539
 5544SOL    HW128268   3.198   4.210   8.048 -1.1796 -0.9468  1.0189
 5544SOL    HW228269   3.179   4.136   8.177  1.2155 -1.4613 -0.8919
 5545SOL     OW28270   2.342   0.357  11.126 -0.1737  0.2701  0.7771
 5545SOL    HW128271   2.319   0.274  11.085  1.9404  0.3233 -0.4960
 5545SOL    HW228272   2.391   0.400  11.056 -1.6024 -1.4220 -1.2282
 5546SOL     OW28273   4.098   3.397   7.117  0.1297 -0.2020  0.3910
 5546SOL    HW128274   4.126   3.450   7.042  0.6610  0.3101  0.9551
 5546SOL    HW228275   4.073   3.313   7.079  0.8976 -0.9227  1.5095
 5547SOL     OW28276   2.211   3.418   1.553  0.4016  0.4461  0.5266
 5547SOL    HW128277   2.168   3.356   1.612  0.4550  1.0375  1.1892
 5547SOL    HW228278   2.228   3.367   1.474 -0.1040  0.8217  0.1756
 5548SOL     OW28279   0.744   3.995   3.025  0.1248 -0.2535  0.5555
 5548SOL    HW128280   0.653   4.007   3.050 -0.4031 -2.3400 -0.4301
 5548SOL    HW228281   0.788   3.996   3.111  2.2575 -1.5224 -0.5176
 5549SOL     OW28282   2.280   2.757   5.861 -0.2335 -0.6903  0.0964
 5549SOL    HW128283   2.311   2.760   5.770  0.8215  0.8152  0.4980
 5549SOL    HW228284   2.286   2.849   5.887 -0.8684 -0.0442 -2.0235
 5550SOL     OW28285   4.073   2.717   6.039 -0.0361  0.2158  0.6448
 5550SOL    HW128286   4.062   2.802   6.081  0.8624  0.1892  0.9261
 5550SOL    HW228287   3.990   2.679   6.068 -0.0890  2.6447  3.5988
 5551SOL     OW28288   4.278   4.356   7.023 -0.7963  0.0721  0.1089
 5551SOL    HW128289   4.352   4.331   7.079  0.2474 -1.3007 -1.8818
 5551SOL    HW228290   4.232   4.272   7.026 -2.2398  0.9506  2.2884
 5552SOL     OW28291   1.644   2.948   4.717 -0.1359  0.1282 -0.0970
 5552SOL    HW128292   1.618   2.927   4.627  0.3458  1.4003 -0.5407
 5552SOL    HW228293   1.731   2.982   4.696  0.5461 -1.0167  0.8170
 5553SOL     OW28294   1.700   0.948   5.842  0.3706  0.2705  0.3233
 5553SOL    HW128295   1.715   0.920   5.752  0.8789 -0.1304  0.5361
 5553SOL    HW228296   1.618   0.999   5.836  0.8468  0.9915 -0.0540
 5554SOL     OW28297   3.751   1.984   5.259  0.4192  0.3565  0.1983
 5554SOL    HW128298   3.660   2.006   5.280  0.2561 -1.8638  1.9554
 5554SOL    HW228299   3.778   2.075   5.254 -0.3635  0.8136  3.8285
 5555SOL     OW28300   2.742   1.760  13.274  0.4287  0.3261  0.6757
 5555SOL    HW128301   2.691   1.686  13.243  2.8900 -0.3104 -1.7880
 5555SOL    HW228302   2.746   1.812  13.194  0.7717  2.7559  2.2544
 5556SOL     OW28303   2.423   2.768  12.854 -0.0328  0.2512  0.7341
 5556SOL    HW128304   2.511   2.742  12.826 -0.5550 -0.0772 -0.6478
 5556SOL    HW228305   2.444   2.819  12.932  1.4824  0.0523  0.4649
 5557SOL     OW28306   2.259   1.924  16.635  0.9320 -0.0316  0.5901
 5557SOL    HW128307   2.245   1.887  16.548 -1.7248  2.5683 -0.0600
 5557SOL    HW228308   2.187   1.986  16.646  1.4325  0.8359 -1.0811
 5558SOL     OW28309   2.345   3.925  10.908  0.6044 -0.0314 -0.9736
 5558SOL    HW128310   2.272   3.870  10.882  0.3559 -1.3069  2.3556
 5558SOL    HW228311   2.382   3.875  10.981  0.6808 -0.3641 -1.2417
 5559SOL     OW28312   0.421   4.169   0.984  0.0009 -0.0030 -0.3138
 5559SOL    HW128313   0.390   4.078   0.991  2.2113 -0.9415 -2.7485
 5559SOL    HW228314   0.514   4.147   0.981 -0.0370 -0.3389  0.8797
 5560SOL     OW28315   3.181   3.188   5.646  0.1460 -0.0687 -0.1183
 5560SOL    HW128316   3.263   3.141   5.661 -0.3373 -0.4502  1.3298
 5560SOL    HW228317   3.216   3.253   5.585  2.2453 -1.2323 -0.1852
 5561SOL     OW28318   0.987   2.206   1.887  0.0956 -0.4113  0.4702
 5561SOL    HW128319   0.989   2.172   1.976  1.0204  1.4599  1.1612
 5561SOL    HW228320   1.078   2.211   1.857  0.3324 -0.0388  1.2558
 5562SOL     OW28321   2.874   2.062   6.612 -0.0906  0.4937 -0.3153
 5562SOL    HW128322   2.823   2.088   6.690  0.4766 -1.9341  0.8449
 5562SOL    HW228323   2.927   1.993   6.650 -0.8742 -0.3287 -0.7160
 5563SOL     OW28324   3.294   0.820   9.163 -0.5503 -0.0928  0.3356
 5563SOL    HW128325   3.388   0.832   9.174  0.1653 -2.7662 -2.7229
 5563SOL    HW228326   3.269   0.820   9.255  0.4846 -1.6230  0.6210
 5564SOL     OW28327   2.103   1.304  16.470  0.6052 -0.2993  0.3280
 5564SOL    HW128328   2.155   1.295  16.550  3.7062  2.5506 -1.3578
 5564SOL    HW228329   2.061   1.218  16.470  0.8255 -0.4069  1.4813
 5565SOL     OW28330   4.271   4.360  11.602  0.6588 -0.2266 -0.1222
 5565SOL    HW128331   4.313   4.303  11.538  3.1958 -1.6671  2.8196
 5565SOL    HW228332   4.213   4.409  11.544 -1.4236  1.3288  3.2913
 5566SOL     OW28333   1.836   3.066   5.146  0.4368  0.2753 -0.2822
 5566SOL    HW128334   1.835   3.048   5.052 -2.8239  0.8936 -0.3814
 5566SOL    HW228335   1.821   2.978   5.182  1.7530 -0.0720 -0.5701
 5567SOL     OW28336   1.599   1.972  13.148 -0.0235  0.2839  0.0582
 5567SOL    HW128337   1.588   1.942  13.238  0.4765  3.0917  1.0652
 5567SOL    HW228338   1.519   1.937  13.110 -0.1105  0.8527 -0.2826
 5568SOL     OW28339   0.193   2.779   2.693 -0.3756 -0.2071 -0.3196
 5568SOL    HW128340   0.265   2.755   2.752 -0.0260  0.6335 -0.3998
 5568SOL    HW228341   0.177   2.697   2.647 -0.5407 -0.9837  1.1214
 5569SOL     OW28342   3.450   1.803   9.069 -0.0898 -0.6154  0.4372
 5569SOL    HW128343   3.520   1.738   9.054  0.5064  0.3056 -0.7391
 5569SOL    HW228344   3.410   1.762   9.146  0.1162 -1.2211  0.2281
 5570SOL     OW28345   3.757   1.395   1.401 -0.4198 -0.1231 -0.6325
 5570SOL    HW128346   3.695   1.466   1.386  1.7808  2.3349  1.8939
 5570SOL    HW228347   3.814   1.408   1.325  1.4242 -0.9645  0.5932
 5571SOL     OW28348   3.033   1.812  14.562  0.0487  0.5382 -0.0340
 5571SOL    HW128349   3.026   1.764  14.645  0.9017 -0.4059 -0.5085
 5571SOL    HW228350   3.076   1.893  14.589  1.7940 -0.3416 -0.0996
 5572SOL     OW28351   2.968   1.704   1.717 -0.6316  0.2343  0.1958
 5572SOL    HW128352   3.039   1.642   1.736  0.1019  0.4403 -1.9084
 5572SOL    HW228353   2.970   1.712   1.622 -0.1613  1.8403  0.3477
 5573SOL     OW28354   1.644   0.009   5.271  0.1176 -0.1352 -0.2925
 5573SOL    HW128355   1.726   0.050   5.296  0.1886  0.9644 -2.3677
 5573SOL    HW228356   1.615   4.712   5.357 -2.2447  3.2286  0.2062
 5574SOL     OW28357   3.258   4.609   7.571  0.2566  0.9481  0.2332
 5574SOL    HW128358   3.281   4.517   7.560  2.5694  1.5299  0.3004
 5574SOL    HW228359   3.222   4.623   7.484 -4.0704  2.6254  2.2977
 5575SOL     OW28360   1.205   1.613   1.689 -0.1069 -0.0085  0.0880
 5575SOL    HW128361   1.216   1.519   1.700  1.2388  0.0594 -0.5729
 5575SOL    HW228362   1.283   1.647   1.645 -0.2120 -2.4807 -2.0464
 5576SOL     OW28363   1.565   2.716   8.776  0.1217 -0.1133  0.1772
 5576SOL    HW128364   1.546   2.808   8.793 -1.5548 -0.6738  1.3472
 5576SOL    HW228365   1.525   2.704   8.690  1.3714 -0.8345 -0.2951
 5577SOL     OW28366   1.840   1.344   5.046 -0.4533 -0.0855  0.0142
 5577SOL    HW128367   1.849   1.301   4.960 -0.8463  0.7795 -0.4564
 5577SOL    HW228368   1.780   1.415   5.024  0.0484  0.1170 -0.6981
 5578SOL     OW28369   0.568   1.009  13.911  0.4189  0.2625 -0.2684
 5578SOL    HW128370   0.540   0.925  13.947 -2.7933  0.6678 -1.8744
 5578SOL    HW228371   0.662   0.993  13.924  0.0764 -0.3891  1.3178
 5579SOL     OW28372   2.118   2.264   4.687  0.3339 -0.1736  0.3023
 5579SOL    HW128373   2.109   2.243   4.594  0.0492 -0.3964  0.3790
 5579SOL    HW228374   2.174   2.186   4.685 -0.3169 -0.6607  0.8367
 5580SOL     OW28375   2.148   2.509   4.027 -0.1876 -0.6174  0.8590
 5580SOL    HW128376   2.106   2.422   4.030  2.0569 -1.6980  0.6366
 5580SOL    HW228377   2.151   2.517   3.932  2.1106 -0.9720  0.8995
 5581SOL     OW28378   4.701   2.574   8.522  0.5592  0.3397 -0.2705
 5581SOL    HW128379   4.634   2.539   8.580  1.7187  0.4097  1.1116
 5581SOL    HW228380   0.043   2.578   8.577  0.6590  0.1833 -0.4011
 5582SOL     OW28381   1.180   1.325   6.338  0.2839  0.4187 -0.3390
 5582SOL    HW128382   1.120   1.297   6.269 -0.4512 -0.6058  0.7008
 5582SOL    HW228383   1.162   1.418   6.350 -0.3022  0.4320 -1.3919
 5583SOL     OW28384   1.816   1.773   2.550 -0.5505  0.3869  0.4843
 5583SOL    HW128385   1.750   1.803   2.487  0.5827  0.6843 -0.5681
 5583SOL    HW228386   1.869   1.850   2.532 -0.3731  0.4612  1.3415
 5584SOL     OW28387   3.594   3.887  12.642 -0.3410  0.1968 -0.1572
 5584SOL    HW128388   3.647   3.952  12.687  0.3579 -0.8961  0.6241
 5584SOL    HW228389   3.516   3.884  12.698  0.3509 -0.2259  0.7778
 5585SOL     OW28390   1.634   4.398   1.235  0.3321  0.4433 -0.2819
 5585SOL    HW128391   1.607   4.487   1.214  0.1200  0.0020 -1.8874
 5585SOL    HW228392   1.593   4.344   1.167 -2.1480  1.1756  0.6719
 5586SOL     OW28393   4.356   1.327   9.136  0.2183  0.1612 -0.3395
 5586SOL    HW128394   4.432   1.281   9.171  0.5067  1.1382  0.3356
 5586SOL    HW228395   4.333   1.380   9.213  0.9134  0.0945 -0.0865
 5587SOL     OW28396   4.075   2.208   5.261  0.4958 -0.4684 -0.1575
 5587SOL    HW128397   4.137   2.142   5.291 -0.1637 -0.3514  1.4321
 5587SOL    HW228398   4.133   2.283   5.247  1.7015 -1.3964 -0.1525
 5588SOL     OW28399   1.058   3.980  12.136 -0.0995 -0.0649 -0.1080
 5588SOL    HW128400   1.030   3.889  12.129 -1.8884  0.4924 -0.3031
 5588SOL    HW228401   1.072   3.994  12.230  2.7653  0.7855 -0.6819
 5589SOL     OW28402   2.517   0.987   9.546  0.5681  0.1969  0.3132
 5589SOL    HW128403   2.541   0.946   9.630  2.0546  2.6349  1.1114
 5589SOL    HW228404   2.425   0.965   9.531  1.0053 -1.0904 -0.5249
 5590SOL     OW28405   1.423   1.635  12.114  0.7188  0.6419 -0.2868
 5590SOL    HW128406   1.472   1.578  12.054 -0.7284  1.1673 -1.9769
 5590SOL    HW228407   1.388   1.705  12.058 -1.1175 -1.9757 -2.3948
 5591SOL     OW28408   1.422   2.708   6.211 -0.2575 -0.0415 -0.0816
 5591SOL    HW128409   1.485   2.644   6.245 -0.2306  0.8436  1.5314
 5591SOL    HW228410   1.463   2.737   6.130  2.2096 -2.2927  0.3537
 5592SOL     OW28411   3.820   4.281   8.759  0.0320 -0.1734 -0.0682
 5592SOL    HW128412   3.894   4.229   8.790  0.5390 -0.3629 -1.5630
 5592SOL    HW228413   3.853   4.369   8.772  1.3247 -0.2025 -3.0911
 5593SOL     OW28414   1.243   3.819   7.050  0.2954 -1.0730 -0.3848
 5593SOL    HW128415   1.195   3.764   7.112 -1.5681  1.1524  0.1249
 5593SOL    HW228416   1.194   3.800   6.970  1.8423 -0.5429 -1.4618
 5594SOL     OW28417   3.411   0.750   5.934 -0.1088 -0.1447  0.3518
 5594SOL    HW128418   3.473   0.816   5.965  0.6144 -0.6126 -0.0836
 5594SOL    HW228419   3.442   0.662   5.953  0.2790 -0.3242 -1.1086
 5595SOL     OW28420   1.017   3.627   6.325  0.2048  0.0672  0.2693
 5595SOL    HW128421   0.969   3.708   6.306 -0.5596  0.0190  2.0408
 5595SOL    HW228422   1.032   3.591   6.237 -0.7116 -0.1495  0.2040
 5596SOL     OW28423   3.426   1.635   2.049 -0.0801 -0.3290  0.0862
 5596SOL    HW128424   3.413   1.545   2.020  3.5652 -1.4054  1.7779
 5596SOL    HW228425   3.333   1.659   2.052  0.1916  0.5904  1.3410
 5597SOL     OW28426   2.431   4.026   5.446 -0.5691  0.1109 -0.2576
 5597SOL    HW128427   2.425   4.029   5.542  0.3249 -2.6957 -0.1213
 5597SOL    HW228428   2.368   3.956   5.433 -1.0135  0.5113 -0.2750
 5598SOL     OW28429   2.126   4.357   4.776 -0.2744 -0.1098 -0.0748
 5598SOL    HW128430   2.143   4.266   4.802 -0.1548 -0.6081 -1.8451
 5598SOL    HW228431   2.074   4.342   4.697 -2.4842  0.5734  1.2710
 5599SOL     OW28432   0.179   0.885   9.038 -0.3150 -0.4139 -0.3219
 5599SOL    HW128433   0.146   0.855   8.953 -0.6887 -0.0419 -0.3065
 5599SOL    HW228434   0.202   0.976   9.017 -2.3399 -0.4193 -2.6073
 5600SOL     OW28435   3.663   2.234  12.868  0.6119 -0.6249 -0.4755
 5600SOL    HW128436   3.682   2.324  12.895 -1.4981 -0.0730 -0.8373
 5600SOL    HW228437   3.605   2.243  12.792  1.0547 -0.4987 -0.7990
 5601SOL     OW28438   3.922   0.464   5.631  0.0949  0.3317 -0.5718
 5601SOL    HW128439   3.985   0.447   5.701  1.5624  0.7187 -1.8054
 5601SOL    HW228440   3.841   0.476   5.680 -0.4192  0.6649 -1.5067
 5602SOL     OW28441   2.624   4.592  13.411 -0.4848  0.5861 -0.3116
 5602SOL    HW128442   2.697   4.639  13.370  1.3206  0.1753  2.5014
 5602SOL    HW228443   2.559   4.605  13.342 -0.6276 -1.0578 -0.4747
 5603SOL     OW28444   1.768   0.769   6.422 -0.1709 -0.0369  0.2991
 5603SOL    HW128445   1.683   0.768   6.377 -0.7163 -1.3978  1.3443
 5603SOL    HW228446   1.810   0.845   6.383  0.6624 -1.3044 -1.2787
 5604SOL     OW28447   1.327   0.959   6.181 -0.0831 -0.3332  0.0962
 5604SOL    HW128448   1.236   0.984   6.166 -0.3570 -0.6332  1.2180
 5604SOL    HW228449   1.372   1.041   6.203 -1.0083  0.3759 -0.6648
 5605SOL     OW28450   1.326   1.830  11.943  0.6373 -0.2598 -0.2819
 5605SOL    HW128451   1.257   1.894  11.960  0.1664 -1.3897  2.1315
 5605SOL    HW228452   1.408   1.874  11.960  0.3653  1.3207 -3.1343
 5606SOL     OW28453   0.860   2.686  16.866  0.5964  0.1379 -0.1154
 5606SOL    HW128454   0.791   2.676  16.800  1.4053  1.3679 -1.1384
 5606SOL    HW228455   0.878   2.779  16.853  0.7627 -0.4030 -3.7255
 5607SOL     OW28456   3.424   2.678   1.403  0.1181 -0.3185  0.0389
 5607SOL    HW128457   3.427   2.694   1.497  0.3745 -1.0141  0.1477
 5607SOL    HW228458   3.391   2.589   1.394 -0.6769  0.0584 -0.7426
 5608SOL     OW28459   3.360   3.625  15.141 -0.2939  0.6828 -0.6992
 5608SOL    HW128460   3.343   3.560  15.073  1.5834  0.0349 -0.5473
 5608SOL    HW228461   3.275   3.635  15.184  1.4280  2.4665  2.2754
 5609SOL     OW28462   1.251   4.110   6.672  0.2712  0.1384 -0.1307
 5609SOL    HW128463   1.217   4.162   6.745 -1.5527 -2.4086  0.8466
 5609SOL    HW228464   1.294   4.040   6.720  0.2986 -0.0331 -0.4080
 5610SOL     OW28465   0.427   1.280   2.544  0.1025 -0.4468 -0.6833
 5610SOL    HW128466   0.497   1.217   2.559  1.8904  1.8210  0.5219
 5610SOL    HW228467   0.359   1.225   2.583  1.0382 -0.9529  0.2433
 5611SOL     OW28468   4.328   0.125  15.785  0.1312  0.0465  0.0551
 5611SOL    HW128469   4.330   0.061  15.713 -0.5880  0.6091 -0.4602
 5611SOL    HW228470   4.378   0.072  15.848  0.2852  0.8939  0.6390
 5612SOL     OW28471   4.454   3.965  15.863 -0.2747  0.0554  0.3786
 5612SOL    HW128472   4.372   3.915  15.855 -0.4516  0.7065 -1.7685
 5612SOL    HW228473   4.486   3.946  15.951 -3.6553  1.2136  1.8665
 5613SOL     OW28474   0.073   0.886   8.555 -0.1475 -0.0603 -0.0078
 5613SOL    HW128475   0.014   0.879   8.481 -0.1476  2.8813 -0.2850
 5613SOL    HW228476   0.152   0.874   8.502  0.5278  0.7884  0.7962
 5614SOL     OW28477   2.375   1.067  11.234 -0.1922  0.3680  0.3341
 5614SOL    HW128478   2.452   1.010  11.234 -0.2772  0.2507  0.5531
 5614SOL    HW228479   2.391   1.127  11.161  1.8343  1.0521  1.3519
 5615SOL     OW28480   1.600   2.127   3.725 -0.3750 -0.0059  0.1287
 5615SOL    HW128481   1.580   2.034   3.737  0.9449 -0.2573  0.4694
 5615SOL    HW228482   1.664   2.141   3.795  2.3057 -1.0086 -2.0917
 5616SOL     OW28483   0.264   0.542  10.339  0.5902 -0.0334 -1.0441
 5616SOL    HW128484   0.292   0.535  10.430 -1.0031  0.8296 -0.4866
 5616SOL    HW228485   0.298   0.460  10.304  1.1217 -0.1602 -0.2239
 5617SOL     OW28486   4.716   0.260  15.078  0.2533  0.3061 -0.6040
 5617SOL    HW128487   4.667   0.256  14.997 -0.9051 -1.9073  0.2059
 5617SOL    HW228488   4.667   0.332  15.119  0.3678  0.0457  0.0017
 5618SOL     OW28489   2.405   3.318   7.587 -0.4653  0.6314  0.1669
 5618SOL    HW128490   2.351   3.395   7.603 -0.2100  1.3325 -2.2767
 5618SOL    HW228491   2.344   3.245   7.584 -0.9745  1.1019 -0.8732
 5619SOL     OW28492   3.186   4.118   7.510 -0.2726 -0.4619  0.1477
 5619SOL    HW128493   3.254   4.050   7.503  1.1743  0.9462  0.5579
 5619SOL    HW228494   3.119   4.073   7.459  0.8907 -1.7398 -0.2709
 5620SOL     OW28495   0.200   4.034   6.639 -0.1097 -0.7219  0.7039
 5620SOL    HW128496   0.146   3.954   6.636 -2.7198  1.0681 -0.4982
 5620SOL    HW228497   0.250   4.017   6.719 -0.3956 -0.5318  0.9249
 5621SOL     OW28498   1.255   3.022  10.099  0.6067  0.2251 -0.3273
 5621SOL    HW128499   1.264   2.993  10.190  0.0564  1.3652  0.0767
 5621SOL    HW228500   1.305   2.955  10.052 -0.6478 -0.8954 -0.0608
 5622SOL     OW28501   2.886   0.662   4.580  0.4882 -0.3273 -0.3302
 5622SOL    HW128502   2.920   0.632   4.496  0.4549 -2.7895  0.5436
 5622SOL    HW228503   2.827   0.735   4.564 -0.4982 -1.2074 -0.7091
 5623SOL     OW28504   4.135   3.631   7.532 -0.5339 -0.1937 -0.1121
 5623SOL    HW128505   4.160   3.539   7.521 -1.8303 -0.4139 -1.2601
 5623SOL    HW228506   4.154   3.638   7.625 -2.8424 -3.8644  0.6742
 5624SOL     OW28507   1.604   0.111  11.838  0.0169  0.3396 -0.2724
 5624SOL    HW128508   1.624   0.097  11.746  1.4317 -0.3481  0.1257
 5624SOL    HW228509   1.583   0.023  11.869 -0.6356 -0.4498 -3.0379
 5625SOL     OW28510   4.182   2.411   2.137  0.0410  0.4665 -0.2359
 5625SOL    HW128511   4.193   2.375   2.225  2.4367 -0.6438 -0.9894
 5625SOL    HW228512   4.091   2.388   2.117  0.0661 -0.2016  0.4302
 5626SOL     OW28513   3.843   3.888   6.021 -0.3107 -0.2123  0.1874
 5626SOL    HW128514   3.804   3.926   5.942  1.8684  0.4408 -0.5894
 5626SOL    HW228515   3.912   3.953   6.031  0.3427 -0.9503  0.5123
 5627SOL     OW28516   0.634   1.012  17.206  0.3040 -0.0783  0.3794
 5627SOL    HW128517   0.681   1.091  17.232 -3.3641  2.5132 -0.9548
 5627SOL    HW228518   0.550   1.053  17.187  0.7780 -0.3255 -2.2137
 5628SOL     OW28519   1.302   3.475   7.627  0.5203  0.0953 -0.0697
 5628SOL    HW128520   1.239   3.455   7.558 -0.0623 -0.6609  0.6749
 5628SOL    HW228521   1.272   3.566   7.624 -0.4551 -0.2053  0.5426
 5629SOL     OW28522   0.316   3.997   6.395  0.5461 -0.2237  0.1006
 5629SOL    HW128523   0.369   3.919   6.415 -1.2723 -1.1863  1.2212
 5629SOL    HW228524   0.276   4.013   6.481 -1.4104  2.0196 -1.2516
 5630SOL     OW28525   1.101   4.450   6.091 -0.0541  0.5616  0.3211
 5630SOL    HW128526   1.030   4.400   6.132  0.8096 -0.5159  0.5182
 5630SOL    HW228527   1.168   4.458   6.159  1.0649  0.8957 -0.8333
 5631SOL     OW28528   4.679   1.495   9.605 -0.0402  0.2491  0.5252
 5631SOL    HW128529   0.023   1.545   9.616  0.0003  0.3349 -0.1767
 5631SOL    HW228530   4.639   1.520   9.688 -1.3952  0.5592 -0.2359
 5632SOL     OW28531   1.994   1.043   5.651 -0.5866  0.7977 -0.3484
 5632SOL    HW128532   2.088   1.055   5.667 -0.6341 -1.2473  1.5141
 5632SOL    HW228533   1.987   1.084   5.565 -0.0014 -0.8584 -1.1780
 5633SOL     OW28534   4.712   1.469   3.479  0.5015 -0.4268  0.1120
 5633SOL    HW128535   4.643   1.535   3.487 -0.5508 -1.3540 -1.3420
 5633SOL    HW228536   4.710   1.439   3.570 -1.0262  1.2685  0.6276
 5634SOL     OW28537   2.469   4.200   7.563  0.6962  0.3866  0.8306
 5634SOL    HW128538   2.473   4.294   7.547 -0.6318  0.0156 -1.6131
 5634SOL    HW228539   2.550   4.187   7.612  0.7148 -1.7730  0.2078
 5635SOL     OW28540   4.530   0.541  10.268  0.1599 -0.4008 -0.3555
 5635SOL    HW128541   4.490   0.486  10.334 -0.9119 -0.1648 -0.8057
 5635SOL    HW228542   4.610   0.491  10.250  1.7769  2.1848 -0.3689
 5636SOL     OW28543   0.077   2.755   8.840  0.1576  0.0770  0.5296
 5636SOL    HW128544   0.102   2.728   8.752  0.1929 -1.1143  0.8964
 5636SOL    HW228545   0.040   2.678   8.883  0.9569  0.1301  1.3333
 5637SOL     OW28546   0.837   3.600   9.798  0.6901 -0.0885  0.1159
 5637SOL    HW128547   0.892   3.529   9.829  0.1321 -0.9943 -0.9715
 5637SOL    HW228548   0.811   3.646   9.878  1.7071  0.1513  0.3068
 5638SOL     OW28549   1.543   3.784   7.358  0.2680  0.0873 -0.1542
 5638SOL    HW128550   1.540   3.801   7.264  1.0009  0.0067 -0.1962
 5638SOL    HW228551   1.504   3.866   7.387  1.1341  1.1445 -1.9514
 5639SOL     OW28552   3.113   3.514   7.517  0.1248 -0.1934 -0.1246
 5639SOL    HW128553   3.069   3.443   7.564  0.6077 -0.9229 -0.7740
 5639SOL    HW228554   3.182   3.545   7.576  1.5338 -0.9446 -1.3826
 5640SOL     OW28555   1.877   3.346   6.662 -0.1427 -0.0763 -0.4722
 5640SOL    HW128556   1.841   3.295   6.735  0.9516  0.7759  0.6540
 5640SOL    HW228557   1.942   3.406   6.698 -1.2667  0.9140 -0.1005
 5641SOL     OW28558   3.912   3.644  15.682 -0.1723  0.5069 -0.2680
 5641SOL    HW128559   3.862   3.594  15.618 -1.0141 -1.8860  2.2575
 5641SOL    HW228560   3.990   3.589  15.696  0.5341  1.0642 -1.9676
 5642SOL     OW28561   0.464   2.612   2.536 -0.2031 -0.3353 -0.2034
 5642SOL    HW128562   0.376   2.603   2.574  0.4230 -0.2968  1.2488
 5642SOL    HW228563   0.489   2.687   2.591 -1.1688 -0.2052  0.0667
 5643SOL     OW28564   3.729   0.999  17.355  0.3523 -0.2738  0.4611
 5643SOL    HW128565   3.641   1.016  17.390 -0.0056 -0.7713 -0.2101
 5643SOL    HW228566   3.703   0.932  17.292  3.0419  1.4542 -2.4701
 5644SOL     OW28567   3.623   2.981   7.824 -0.5058 -0.2271 -0.5863
 5644SOL    HW128568   3.564   2.990   7.750  0.0692  1.6762 -0.7927
 5644SOL    HW228569   3.622   2.887   7.846  2.2005 -0.0658  0.1833
 5645SOL     OW28570   0.065   3.963   8.832  0.2845 -0.2352 -0.2696
 5645SOL    HW128571   0.154   3.927   8.833 -0.1524 -1.3693 -2.8057
 5645SOL    HW228572   0.064   4.024   8.759  1.4629  0.5458  0.3703
 5646SOL     OW28573   4.360   2.668  16.324  0.1349 -0.3496 -0.0761
 5646SOL    HW128574   4.382   2.584  16.364 -1.2051  0.0538  1.5004
 5646SOL    HW228575   4.437   2.671  16.267  2.7529  1.0631  3.5642
 5647SOL     OW28576   2.574   1.336  15.705  0.1598  0.5611 -0.0754
 5647SOL    HW128577   2.555   1.334  15.611  0.4158  0.8033 -0.1309
 5647SOL    HW228578   2.545   1.248  15.731  1.1432  0.5441  0.9486
 5648SOL     OW28579   0.310   3.363   3.052 -0.2261  0.5169 -0.0407
 5648SOL    HW128580   0.237   3.307   3.027 -0.7758  1.3618 -0.3379
 5648SOL    HW228581   0.278   3.450   3.026  1.0419  0.6442 -1.1520
 5649SOL     OW28582   0.499   1.082   4.036 -0.0040  0.4697 -0.2121
 5649SOL    HW128583   0.454   1.082   3.952  0.4734 -2.5333 -0.4703
 5649SOL    HW228584   0.446   1.150   4.077  1.2527  1.9822 -1.0897
 5650SOL     OW28585   1.244   1.290  16.768  0.7558  0.3454  0.0051
 5650SOL    HW128586   1.169   1.283  16.709 -0.3663  0.1940  1.4431
 5650SOL    HW228587   1.306   1.348  16.723  0.3910 -0.2555 -1.2495
 5651SOL     OW28588   4.447   1.498  16.149 -0.4020  0.5723  0.6315
 5651SOL    HW128589   4.450   1.580  16.198  2.2236  1.4571 -0.9866
 5651SOL    HW228590   4.421   1.446  16.226  0.6420  1.8148  1.8349
 5652SOL     OW28591   2.062   3.498   7.872  0.0392 -0.0821 -0.3737
 5652SOL    HW128592   1.992   3.500   7.807 -1.1545 -4.1147  0.8189
 5652SOL    HW228593   2.016   3.472   7.952 -0.0179  0.7475 -0.1324
 5653SOL     OW28594   0.405   1.099   6.201 -0.3085  0.0603  0.2361
 5653SOL    HW128595   0.470   1.170   6.201  0.0344 -0.2610 -0.4704
 5653SOL    HW228596   0.458   1.022   6.223  0.6195  0.9061  0.9590
 5654SOL     OW28597   0.571   2.683   4.199 -0.3020  0.1443  0.5719
 5654SOL    HW128598   0.516   2.665   4.275 -0.9227 -0.2490  0.0332
 5654SOL    HW228599   0.645   2.724   4.244  0.1540  0.6723 -0.6649
 5655SOL     OW28600   3.935   4.275   7.862 -0.3029  0.0491 -0.0903
 5655SOL    HW128601   4.007   4.324   7.822 -1.6543  0.8496 -1.5642
 5655SOL    HW228602   3.877   4.346   7.891  0.8358  0.6587  0.6694
 5656SOL     OW28603   0.270   3.594   8.268 -0.0537 -0.4132 -0.4640
 5656SOL    HW128604   0.283   3.538   8.345  0.3683  1.5501  0.8841
 5656SOL    HW228605   0.184   3.566   8.238  0.0066 -1.4514  0.3240
 5657SOL     OW28606   1.945   1.623  13.634 -0.3111 -0.1893 -0.3095
 5657SOL    HW128607   1.890   1.626  13.556 -0.8704  0.2565  0.1010
 5657SOL    HW228608   1.874   1.609  13.696  0.2590  1.7788  0.8097
 5658SOL     OW28609   3.041   3.111   2.643 -0.4532 -0.4807 -0.7160
 5658SOL    HW128610   3.069   3.077   2.558 -1.3777 -0.9138 -0.8438
 5658SOL    HW228611   2.946   3.114   2.639 -0.5114  1.6370  2.1961
 5659SOL     OW28612   1.970   0.151   0.156  0.0845  0.1913 -0.5002
 5659SOL    HW128613   2.006   0.142   0.068  0.3392 -0.5602 -0.3158
 5659SOL    HW228614   1.970   0.064   0.195  0.1817  0.5061  0.1983
 5660SOL     OW28615   0.900   3.352   8.706 -0.5203  0.2444  0.4783
 5660SOL    HW128616   0.991   3.376   8.724  0.2650 -2.4215  0.1255
 5660SOL    HW228617   0.879   3.411   8.634  1.1891  1.1663  0.7274
 5661SOL     OW28618   1.443   2.440   3.620  0.1984 -0.4847  0.1263
 5661SOL    HW128619   1.450   2.450   3.715  2.1984 -3.6146  0.2880
 5661SOL    HW228620   1.453   2.345   3.616  0.6219 -0.3433 -1.9084
 5662SOL     OW28621   3.084   3.314   6.740  0.1010 -0.6489 -0.4841
 5662SOL    HW128622   3.136   3.270   6.807 -1.1447  0.3213  1.1301
 5662SOL    HW228623   2.997   3.275   6.744 -1.3375  2.4199 -1.4866
 5663SOL     OW28624   0.184   3.827   7.885 -0.4465 -0.3570 -0.5245
 5663SOL    HW128625   0.273   3.791   7.881 -0.0911  0.2819  1.8062
 5663SOL    HW228626   0.165   3.838   7.978  1.1802 -2.1988  0.0449
 5664SOL     OW28627   0.093   4.628   4.494 -0.2909 -0.2577 -0.1247
 5664SOL    HW128628   0.018   4.570   4.479  1.0308 -2.4142  1.6359
 5664SOL    HW228629   0.111   4.659   4.405  0.5407 -0.9569 -0.1944
 5665SOL     OW28630   2.775   1.853  11.700 -0.0191 -0.7861 -0.4703
 5665SOL    HW128631   2.842   1.913  11.669  0.7530 -2.0247 -1.2332
 5665SOL    HW228632   2.817   1.832  11.783 -0.0258 -0.0506 -0.2882
 5666SOL     OW28633   1.770   0.887   0.146  0.4390  0.1382 -0.1113
 5666SOL    HW128634   1.767   0.798   0.110 -0.6261 -0.1752  0.7546
 5666SOL    HW228635   1.677   0.910   0.146  0.6572  0.9972  0.4056
 5667SOL     OW28636   2.900   2.960   7.081 -0.8733 -0.0692 -0.2197
 5667SOL    HW128637   2.993   2.951   7.097 -0.8493 -0.0166 -0.3279
 5667SOL    HW228638   2.891   3.038   7.027  2.0022 -0.8260 -1.7729
 5668SOL     OW28639   2.655   4.400   4.085 -0.6458  0.3630 -0.5148
 5668SOL    HW128640   2.582   4.452   4.118  0.1692  1.6448 -0.7265
 5668SOL    HW228641   2.608   4.333   4.036 -3.0813  0.9808  0.9841
 5669SOL     OW28642   0.360   2.527   3.129  0.4809  0.2250 -0.1329
 5669SOL    HW128643   0.305   2.459   3.090  1.0452  0.4011 -1.2329
 5669SOL    HW228644   0.424   2.528   3.057  1.6859  2.1769  0.9805
 5670SOL     OW28645   3.294   0.477   4.858  0.4375 -0.2440  0.3036
 5670SOL    HW128646   3.278   0.397   4.808 -0.7757  0.5265 -0.5379
 5670SOL    HW228647   3.208   0.508   4.887  0.5827 -0.9577  1.5286
 5671SOL     OW28648   2.756   3.209   8.864  0.0475 -0.5624  0.4918
 5671SOL    HW128649   2.730   3.248   8.948 -0.3305 -0.7038  0.4383
 5671SOL    HW228650   2.731   3.117   8.877 -1.8260 -0.1261 -0.0713
 5672SOL     OW28651   3.532   2.528   8.452  0.5427  0.0324  0.0082
 5672SOL    HW128652   3.508   2.473   8.378 -2.0325  0.0137  0.8681
 5672SOL    HW228653   3.606   2.573   8.411 -0.4507  2.1701  0.6082
 5673SOL     OW28654   2.913   0.215  11.317 -0.2298  0.0793  0.4885
 5673SOL    HW128655   2.869   0.174  11.243  0.0898  0.3669  0.1367
 5673SOL    HW228656   2.871   0.301  11.313 -0.5681 -0.1155 -0.2792
 5674SOL     OW28657   1.854   3.977   6.450  0.3093  0.1375  0.2703
 5674SOL    HW128658   1.906   3.926   6.388  1.1246  1.8666 -0.4512
 5674SOL    HW228659   1.845   4.060   6.404 -1.1318  0.0534  0.3975
 5675SOL     OW28660   0.083   2.715   5.901 -0.2232  0.2277 -0.4314
 5675SOL    HW128661   0.054   2.785   5.842 -0.7137  0.8212  0.5157
 5675SOL    HW228662   0.169   2.744   5.931 -0.3977 -0.2857  0.5826
 5676SOL     OW28663   2.726   0.398   5.306  0.1583  0.3310 -0.7280
 5676SOL    HW128664   2.802   0.340   5.303  0.0600  0.2585 -1.8926
 5676SOL    HW228665   2.696   0.391   5.215  1.9353 -0.0426 -1.2884
 5677SOL     OW28666   3.541   2.553   2.874 -0.1701  0.4748 -0.0627
 5677SOL    HW128667   3.582   2.469   2.893  0.3445  0.3878 -1.5268
 5677SOL    HW228668   3.604   2.605   2.923 -1.1471  1.1674  0.4502
 5678SOL     OW28669   0.517   2.357   5.932  0.6206  0.0064 -0.2492
 5678SOL    HW128670   0.549   2.425   5.991 -1.2812  0.6670  0.0289
 5678SOL    HW228671   0.515   2.416   5.856  0.1664 -1.2265 -1.2022
 5679SOL     OW28672   2.366   2.227   4.243  0.2431 -0.2989  0.3851
 5679SOL    HW128673   2.445   2.178   4.266  3.2486  3.3826 -1.9600
 5679SOL    HW228674   2.402   2.310   4.211 -1.1757  0.1435 -0.0701
 5680SOL     OW28675   1.098   4.356   9.085 -0.6221  0.0556 -0.0515
 5680SOL    HW128676   1.113   4.307   9.166  1.8102 -0.8802 -1.0430
 5680SOL    HW228677   1.014   4.395   9.105 -1.7302 -1.1427 -2.3016
 5681SOL     OW28678   2.084   3.017   8.846 -0.1436  0.5337  0.0707
 5681SOL    HW128679   2.105   2.999   8.938 -1.6447 -0.1824  0.2719
 5681SOL    HW228680   2.015   2.952   8.832  0.9488 -1.0941  2.3760
 5682SOL     OW28681   4.678   3.664  11.180  0.5258 -0.3789  0.4354
 5682SOL    HW128682   4.711   3.751  11.162  0.9332 -0.4937  0.6327
 5682SOL    HW228683   4.691   3.622  11.095  0.0070 -0.9317  0.6302
 5683SOL     OW28684   3.035   4.128   6.773  0.6105 -0.0196 -0.2852
 5683SOL    HW128685   3.062   4.041   6.745  0.7301 -0.7227  2.0542
 5683SOL    HW228686   2.942   4.114   6.788  0.3734 -0.9025 -2.6077
 5684SOL     OW28687   3.982   2.073   1.543 -0.3414  0.3244  0.0024
 5684SOL    HW128688   3.928   2.000   1.573 -0.3968 -0.6960 -2.5302
 5684SOL    HW228689   3.931   2.154   1.543 -0.9242 -0.0388 -0.7848
 5685SOL     OW28690   3.409   0.043  11.351 -0.5887  0.1490 -0.0441
 5685SOL    HW128691   3.403   4.684  11.365  1.8610  0.0110  0.1044
 5685SOL    HW228692   3.318   0.073  11.347 -0.4016  1.0665  2.4736
 5686SOL     OW28693   2.288   2.113   3.987  0.7113  0.5537  0.7080
 5686SOL    HW128694   2.358   2.049   3.996 -0.7833 -0.9889  1.3684
 5686SOL    HW228695   2.313   2.161   4.066 -0.1763  1.4038  0.4679
 5687SOL     OW28696   3.661   2.389   1.869  0.1169 -0.6767 -0.7214
 5687SOL    HW128697   3.653   2.451   1.797 -1.0892 -1.6522 -1.4361
 5687SOL    HW228698   3.659   2.451   1.942  2.3052  1.7164 -2.6816
 5688SOL     OW28699   1.163   1.720   8.672 -0.0654  0.6084  0.3015
 5688SOL    HW128700   1.171   1.814   8.690  2.4269  0.3940  0.3248
 5688SOL    HW228701   1.098   1.721   8.602  0.7311 -0.6776 -0.4493
 5689SOL     OW28702   0.308   0.381  15.339 -0.2741  0.0061  0.9967
 5689SOL    HW128703   0.389   0.431  15.350  0.6671 -0.6706 -2.9209
 5689SOL    HW228704   0.280   0.423  15.258  0.0637 -0.9548  0.3756
 5690SOL     OW28705   3.474   3.387   2.426 -0.0740  0.6213  0.4125
 5690SOL    HW128706   3.511   3.471   2.397  1.4566 -0.4255 -0.6611
 5690SOL    HW228707   3.401   3.422   2.476 -2.3583 -4.1354  0.4147
 5691SOL     OW28708   2.667   3.716   2.035 -0.3164 -0.3533 -0.4411
 5691SOL    HW128709   2.699   3.760   2.113  1.6623  1.4071 -2.2710
 5691SOL    HW228710   2.656   3.782   1.966  0.3618  0.7125  0.4779
 5692SOL     OW28711   2.271   0.112  11.337 -0.1505 -0.8507  0.1798
 5692SOL    HW128712   2.345   0.099  11.396 -0.3366  0.7656  0.7648
 5692SOL    HW228713   2.235   0.196  11.365 -1.5421 -1.2599 -0.3734
 5693SOL     OW28714   0.352   0.076   2.588 -0.7762  0.4500  0.4102
 5693SOL    HW128715   0.359   0.076   2.493  1.0025 -1.9075  0.5580
 5693SOL    HW228716   0.286   0.010   2.608 -1.0420  0.7594  0.5664
 5694SOL     OW28717   2.688   2.212   8.062 -0.4151 -0.0955  0.1700
 5694SOL    HW128718   2.614   2.271   8.046  1.6661  2.6071  0.3587
 5694SOL    HW228719   2.645   2.130   8.039 -0.8018  0.9070 -2.7702
 5695SOL     OW28720   2.582   1.786   0.645  0.3430 -0.3129 -0.1315
 5695SOL    HW128721   2.533   1.725   0.700 -1.9479 -0.4206 -2.2424
 5695SOL    HW228722   2.543   1.762   0.560 -0.0926 -0.3870  0.0867
 5696SOL     OW28723   1.087   1.616   7.508 -0.0253  0.2949  0.7102
 5696SOL    HW128724   1.152   1.610   7.579 -0.1783  1.7639  0.9878
 5696SOL    HW228725   1.028   1.545   7.531  1.5065 -1.2479 -0.1526
 5697SOL     OW28726   4.180   2.640   7.345 -0.2654  0.4305  0.4403
 5697SOL    HW128727   4.139   2.584   7.412  0.9142 -2.0622 -0.9501
 5697SOL    HW228728   4.237   2.702   7.392 -0.1011  0.6369 -0.0333
 5698SOL     OW28729   1.966   3.482   2.604  0.0277 -0.3156  0.0075
 5698SOL    HW128730   1.931   3.393   2.611 -2.2917  0.6997  1.4104
 5698SOL    HW228731   1.898   3.533   2.648  0.9196  0.5260  0.4223
 5699SOL     OW28732   3.561   0.317   8.428 -0.1887  0.5213 -0.2208
 5699SOL    HW128733   3.485   0.297   8.483  0.8422 -0.3015  0.9118
 5699SOL    HW228734   3.523   0.327   8.341  2.4062 -1.6129 -1.5826
 5700SOL     OW28735   2.758   1.469   4.823 -0.2637 -0.2720  0.1368
 5700SOL    HW128736   2.830   1.423   4.866 -0.0697  1.2616  1.4666
 5700SOL    HW228737   2.720   1.400   4.769 -0.8506  0.1320  0.0232
 5701SOL     OW28738   4.391   4.486   3.320 -0.1504  0.1504 -0.1341
 5701SOL    HW128739   4.438   4.408   3.352  0.1174  0.2158 -0.3653
 5701SOL    HW228740   4.311   4.489   3.373  0.1007 -0.0769  0.2619
 5702SOL     OW28741   1.637   2.036   0.770  0.6491 -0.1655  0.2195
 5702SOL    HW128742   1.719   2.062   0.727  1.1582 -1.3302  0.4763
 5702SOL    HW228743   1.665   1.955   0.813 -0.1200 -0.9232 -0.6953
 5703SOL     OW28744   4.505   1.535   5.352 -0.7548  0.2284  0.0961
 5703SOL    HW128745   4.427   1.495   5.313 -0.0376 -0.6863 -0.3996
 5703SOL    HW228746   4.503   1.486   5.434  1.8524 -0.1682 -0.1006
 5704SOL     OW28747   1.510   1.988   4.783  0.0328  0.4068 -0.0193
 5704SOL    HW128748   1.421   1.975   4.751 -0.0520  1.7592 -0.3341
 5704SOL    HW228749   1.508   2.084   4.779  0.2408  0.3855 -0.5811
 5705SOL     OW28750   1.501   4.458   2.023 -0.0099  0.4162  0.6319
 5705SOL    HW128751   1.437   4.392   1.996  0.8982 -0.2492  0.0772
 5705SOL    HW228752   1.496   4.445   2.117 -0.3604 -0.7582  0.4587
 5706SOL     OW28753   3.055   1.132   6.427  0.0417 -0.1451 -0.3695
 5706SOL    HW128754   3.141   1.124   6.468  0.2226 -2.1180 -1.1564
 5706SOL    HW228755   3.007   1.069   6.481 -0.5597 -0.2249 -1.0054
 5707SOL     OW28756   2.749   3.892  13.928 -0.0389  0.0057 -0.2475
 5707SOL    HW128757   2.675   3.832  13.937 -1.1731  1.3558 -0.7132
 5707SOL    HW228758   2.820   3.838  13.964  1.0660  1.9508  0.5152
 5708SOL     OW28759   3.431   1.625  11.929  0.0956  0.2572 -0.0891
 5708SOL    HW128760   3.450   1.676  12.008 -0.1416  1.0202 -0.5331
 5708SOL    HW228761   3.506   1.649  11.876 -1.4903 -0.7220 -2.7791
 5709SOL     OW28762   0.983   0.194   1.504 -0.3136  0.3708 -0.4742
 5709SOL    HW128763   1.003   0.124   1.566  1.3604  1.5707  0.3324
 5709SOL    HW228764   1.070   0.232   1.496 -0.0786 -0.1346 -0.3425
 5710SOL     OW28765   2.189   2.106   8.389 -0.1164 -0.4820 -0.5009
 5710SOL    HW128766   2.138   2.128   8.467  0.0040 -1.6478 -0.0847
 5710SOL    HW228767   2.230   2.024   8.416  0.4645 -0.4721 -1.3504
 5711SOL     OW28768   2.636   1.785  15.834  0.1537  0.3315  0.2645
 5711SOL    HW128769   2.716   1.825  15.868  0.0702 -1.2733  2.4045
 5711SOL    HW228770   2.666   1.729  15.762 -0.1452 -0.5402  0.8070
 5712SOL     OW28771   0.610   1.996   1.506  0.0918  0.3788  0.3397
 5712SOL    HW128772   0.661   2.029   1.580 -0.2671  2.1090 -0.1869
 5712SOL    HW228773   0.623   1.903   1.526  0.0041  0.3736  0.3738
 5713SOL     OW28774   0.544   0.564  15.022 -0.5793  0.7095 -0.0904
 5713SOL    HW128775   0.626   0.517  15.005 -0.1775  1.1996  0.5164
 5713SOL    HW228776   0.478   0.515  14.973  0.4154 -0.8673  0.1268
 5714SOL     OW28777   0.207   3.388  16.252 -1.0963  0.0485 -0.2997
 5714SOL    HW128778   0.146   3.421  16.187 -1.5586  0.7059  0.4842
 5714SOL    HW228779   0.192   3.458  16.314  0.8697 -0.5148  0.8392
 5715SOL     OW28780   2.520   3.550   9.150 -0.2258 -0.1298 -0.2557
 5715SOL    HW128781   2.504   3.612   9.222  1.6746  0.3497 -0.2336
 5715SOL    HW228782   2.476   3.595   9.079 -2.8180 -0.4405  1.1375
 5716SOL     OW28783   0.790   3.270   7.023 -0.7437  0.3875 -0.1552
 5716SOL    HW128784   0.831   3.282   6.937 -0.1420 -1.3329 -0.1027
 5716SOL    HW228785   0.794   3.175   7.037  1.5189  0.6396  0.8060
 5717SOL     OW28786   2.236   3.732   6.843 -0.0076 -0.2263 -0.8305
 5717SOL    HW128787   2.304   3.797   6.827  0.1188 -0.0252  0.5198
 5717SOL    HW228788   2.233   3.746   6.937 -1.1426  2.3006 -1.2371
 5718SOL     OW28789   0.430   4.492   8.883 -0.2551 -0.5553 -0.4749
 5718SOL    HW128790   0.452   4.550   8.810  0.9522 -1.0662 -0.5274
 5718SOL    HW228791   0.441   4.547   8.960 -1.5046 -1.4853  0.3506
 5719SOL     OW28792   1.191   4.396   0.600 -0.2622 -0.4621  0.0491
 5719SOL    HW128793   1.192   4.439   0.515  3.1921 -1.0787 -0.2328
 5719SOL    HW228794   1.254   4.324   0.596 -0.3141 -0.4363 -1.2265
 5720SOL     OW28795   4.277   3.980  14.124  0.1766  0.0852 -0.1497
 5720SOL    HW128796   4.368   3.981  14.095 -0.2486  1.3843 -1.4084
 5720SOL    HW228797   4.254   4.073  14.133 -2.3736 -0.4970 -0.5337
 5721SOL     OW28798   2.926   2.019   8.042  0.0538  0.2145 -0.2699
 5721SOL    HW128799   3.000   2.007   7.983 -1.8786 -1.1880 -2.3826
 5721SOL    HW228800   2.903   2.105   8.007 -0.0251  0.7424  1.0574
 5722SOL     OW28801   1.605   1.698   3.033 -0.0207  0.2827 -0.0719
 5722SOL    HW128802   1.556   1.636   2.979 -0.4951  2.2429 -1.8777
 5722SOL    HW228803   1.638   1.639   3.100  2.5633  1.6067 -0.1732
 5723SOL     OW28804   2.187   0.115  10.997  0.3206  0.0363 -0.6107
 5723SOL    HW128805   2.113   0.059  10.973 -0.6492  1.5185 -1.0219
 5723SOL    HW228806   2.211   0.161  10.917  2.2729 -0.4385 -0.2990
 5724SOL     OW28807   1.539   2.282   3.318  0.1177 -0.0965  0.4345
 5724SOL    HW128808   1.501   2.196   3.302  1.4720 -0.5850 -0.1490
 5724SOL    HW228809   1.604   2.260   3.385  0.7097  0.1788 -0.0501
 5725SOL     OW28810   4.311   2.483   6.534  0.3543  0.3725 -0.1784
 5725SOL    HW128811   4.334   2.431   6.611  0.1393 -0.8501 -0.9569
 5725SOL    HW228812   4.397   2.499   6.496 -0.6548  1.4929 -1.9784
 5726SOL     OW28813   3.064   4.117   4.295 -0.0362 -0.1962 -0.4126
 5726SOL    HW128814   3.045   4.053   4.364 -1.3102  0.0251 -0.5577
 5726SOL    HW228815   3.137   4.080   4.245  0.1284 -0.7934  0.2746
 5727SOL     OW28816   0.437   4.277  10.387 -0.5103 -0.1941 -0.2436
 5727SOL    HW128817   0.410   4.259  10.477 -1.1690 -0.4414 -0.4908
 5727SOL    HW228818   0.529   4.293  10.406 -1.1458  1.8026  1.1630
 5728SOL     OW28819   2.585   3.488   3.315 -0.3053 -0.0826  0.2775
 5728SOL    HW128820   2.533   3.419   3.356 -0.9270 -0.1068 -0.5371
 5728SOL    HW228821   2.572   3.552   3.385 -1.4886  0.7920 -0.7262
 5729SOL     OW28822   2.213   4.437   2.709 -0.1559 -0.0871  0.4731
 5729SOL    HW128823   2.234   4.349   2.679 -0.1577  0.6057 -1.5601
 5729SOL    HW228824   2.135   4.463   2.660 -0.2364 -1.1037  0.0578
 5730SOL     OW28825   0.705   1.924   4.140 -0.0136 -0.2931  0.4721
 5730SOL    HW128826   0.694   1.988   4.071  0.0120 -1.6891 -0.8190
 5730SOL    HW228827   0.799   1.906   4.133  0.8925  3.0481  3.9312
 5731SOL     OW28828   1.093   2.963   6.706  0.2924 -0.1481 -0.2758
 5731SOL    HW128829   1.142   3.025   6.760  1.2990  0.5117 -1.9701
 5731SOL    HW228830   1.062   3.016   6.633 -0.4418 -0.5310 -0.2459
 5732SOL     OW28831   4.372   2.088   1.123 -0.1296 -0.3791  0.1760
 5732SOL    HW128832   4.456   2.042   1.125  1.1121  1.8857 -0.0802
 5732SOL    HW228833   4.327   2.047   1.197 -2.8120 -0.5927 -1.5866
 5733SOL     OW28834   2.048   3.854  10.904  0.4694  0.1025  0.6793
 5733SOL    HW128835   2.047   3.794  10.830 -0.0199 -3.3506  3.4637
 5733SOL    HW228836   2.062   3.787  10.972  0.9570  1.8880  2.3487
 5734SOL     OW28837   4.063   1.000   1.002 -0.3371  0.4406 -0.3061
 5734SOL    HW128838   4.145   0.951   1.002 -2.0462 -2.3953 -1.3714
 5734SOL    HW228839   4.100   1.089   1.002 -1.7707  1.0367 -0.1520
 5735SOL     OW28840   0.822   4.329   1.522 -0.5349 -0.4819  0.1939
 5735SOL    HW128841   0.876   4.257   1.489 -0.8539 -0.2808 -0.7717
 5735SOL    HW228842   0.753   4.323   1.456 -1.0562  0.7082  0.6385
 5736SOL     OW28843   3.621   4.620   7.746 -0.1462  0.5910 -0.2952
 5736SOL    HW128844   3.592   4.557   7.811 -2.0535  2.6628  0.8823
 5736SOL    HW228845   3.588   4.707   7.771  0.8859  0.7240  0.5715
 5737SOL     OW28846   4.386   1.088  14.506  0.0219  0.0846 -1.2484
 5737SOL    HW128847   4.300   1.111  14.470 -0.5259 -0.6021 -0.3664
 5737SOL    HW228848   4.447   1.157  14.480  1.7214 -0.5092  1.2830
 5738SOL     OW28849   1.416   1.961   8.923 -0.3042 -0.3429 -0.6804
 5738SOL    HW128850   1.494   1.909   8.903  0.6868  0.6408  0.6950
 5738SOL    HW228851   1.446   2.050   8.906 -3.1758  1.0872  1.7103
 5739SOL     OW28852   1.386   4.691   4.897 -0.2630 -0.0874 -0.4789
 5739SOL    HW128853   1.446   4.638   4.845  2.2931 -0.6308  3.0237
 5739SOL    HW228854   1.366   4.631   4.970  1.2610  1.0881  0.9065
 5740SOL     OW28855   1.052   0.945   2.622 -0.3272 -0.2633 -0.2293
 5740SOL    HW128856   1.123   0.990   2.668 -0.4800 -2.7091  2.4153
 5740SOL    HW228857   1.056   0.861   2.669 -3.8543 -1.6672 -2.4453
 5741SOL     OW28858   2.812   0.312   3.603  0.6767 -0.4867 -0.1721
 5741SOL    HW128859   2.901   0.314   3.569  0.6911 -0.7682 -0.1528
 5741SOL    HW228860   2.768   0.311   3.519  1.7819 -0.0382 -0.7591
 5742SOL     OW28861   1.367   3.576  17.213 -0.2008  0.2621 -0.6438
 5742SOL    HW128862   1.366   3.487  17.176  1.5164 -0.6346  1.4684
 5742SOL    HW228863   1.375   3.624  17.130 -1.6571  1.0614 -0.3207
 5743SOL     OW28864   1.196   2.557   9.628 -0.0493 -0.2562  0.5323
 5743SOL    HW128865   1.288   2.562   9.655  0.1037 -2.4964  0.4483
 5743SOL    HW228866   1.163   2.645   9.646  0.3058 -0.1318  0.5881
 5744SOL     OW28867   4.405   1.001   8.505  0.5384 -0.1934 -0.1164
 5744SOL    HW128868   4.406   1.096   8.494  0.8595 -0.2496 -0.5653
 5744SOL    HW228869   4.317   0.982   8.537  0.2101  0.7161 -0.4968
 5745SOL     OW28870   4.318   2.982   9.866  0.3595 -0.9068  0.0733
 5745SOL    HW128871   4.393   2.954   9.814 -0.1234  0.0524 -1.1301
 5745SOL    HW228872   4.347   3.071   9.885  1.3256 -1.2669  0.3065
 5746SOL     OW28873   4.140   1.772   5.465 -0.0352  0.2198 -0.0509
 5746SOL    HW128874   4.077   1.700   5.464  2.6763 -2.0953 -0.7399
 5746SOL    HW228875   4.090   1.843   5.507 -0.4882 -0.0196 -0.1848
 5747SOL     OW28876   2.767   3.391  10.323  0.5307 -0.2058 -0.1910
 5747SOL    HW128877   2.716   3.390  10.242  0.1313 -1.5221  0.0821
 5747SOL    HW228878   2.728   3.470  10.361 -0.4275 -0.6814 -0.1897
 5748SOL     OW28879   2.349   3.627  10.049 -0.3947 -0.5897  0.6950
 5748SOL    HW128880   2.407   3.698  10.074 -1.6152  0.5312  0.3477
 5748SOL    HW228881   2.267   3.674  10.064 -0.3658 -0.5684  0.7841
 5749SOL     OW28882   1.166   4.711   8.884  0.4393 -0.5036 -0.6523
 5749SOL    HW128883   1.206   4.625   8.872  0.3107 -0.4867 -1.1997
 5749SOL    HW228884   1.231   0.030   8.842  0.7150  0.3285  0.8805
 5750SOL     OW28885   2.159   0.992   2.093 -0.1422 -0.0525  0.1553
 5750SOL    HW128886   2.164   1.084   2.069 -1.4124  0.6017  2.3747
 5750SOL    HW228887   2.193   0.951   2.014 -1.7889 -0.0939 -0.5197
 5751SOL     OW28888   4.662   1.084  10.087  0.8677 -0.6191  0.1068
 5751SOL    HW128889   4.658   1.072   9.992  0.1489  1.2057 -0.0844
 5751SOL    HW228890   4.578   1.042  10.106 -0.3668  1.5988 -0.4171
 5752SOL     OW28891   4.638   0.498   9.946  0.0079  0.3583 -0.0007
 5752SOL    HW128892   4.731   0.474   9.942 -0.0541  0.1767 -0.3582
 5752SOL    HW228893   4.615   0.453  10.027 -1.6496 -0.6047 -1.0045
 5753SOL     OW28894   1.173   4.666  13.067 -0.2863  0.3094 -0.3371
 5753SOL    HW128895   1.208   4.647  12.980  1.1265 -2.1826  0.8005
 5753SOL    HW228896   1.176   0.026  13.061  0.2815  0.2788 -0.5144
 5754SOL     OW28897   0.236   0.549   3.404 -0.1352 -0.1384 -0.4277
 5754SOL    HW128898   0.256   0.544   3.310 -0.6874  1.1761 -0.6053
 5754SOL    HW228899   0.324   0.549   3.443 -0.8553  0.9912  1.1773
 5755SOL     OW28900   2.129   0.067   0.661 -0.0027 -0.0538  0.8483
 5755SOL    HW128901   2.163   0.003   0.723  1.1348 -0.3885 -0.1428
 5755SOL    HW228902   2.171   0.143   0.701 -0.3482  1.3062 -1.3809
 5756SOL     OW28903   0.227   0.799   5.514  0.1458  0.2983 -0.1792
 5756SOL    HW128904   0.307   0.748   5.529 -0.2149  0.1509  1.1657
 5756SOL    HW228905   0.251   0.872   5.455  0.6185  0.3465  0.0731
 5757SOL     OW28906   4.668   1.032   5.280  0.2339  0.2274  0.2652
 5757SOL    HW128907   4.612   0.979   5.223  1.2367  0.2223 -0.7000
 5757SOL    HW228908   4.622   1.022   5.364  0.4779  0.1365  0.3882
 5758SOL     OW28909   3.067   0.829  10.037 -0.2186  0.0326  0.3058
 5758SOL    HW128910   3.073   0.739  10.067  2.8326  0.4825  1.0647
 5758SOL    HW228911   3.063   0.862  10.127 -1.4893 -0.9812  0.6062
 5759SOL     OW28912   2.651   4.138   3.084 -0.4231 -0.2270  0.7113
 5759SOL    HW128913   2.728   4.109   3.134 -0.8391 -0.4700  1.2140
 5759SOL    HW228914   2.591   4.076   3.125 -0.4493 -0.3068  0.5496
 5760SOL     OW28915   0.300   3.895  15.252 -0.5052 -0.2112  0.2435
 5760SOL    HW128916   0.205   3.901  15.251 -0.3552  2.1617 -0.5750
 5760SOL    HW228917   0.324   3.984  15.226  0.5405 -1.2427 -2.3038
 5761SOL     OW28918   1.260   0.507  11.388  0.0656 -0.4135  0.3542
 5761SOL    HW128919   1.328   0.542  11.329 -1.2551  0.8872 -0.3893
 5761SOL    HW228920   1.290   0.535  11.474  0.4761  1.4206 -0.3694
 5762SOL     OW28921   0.278   4.458   3.696  0.4679 -0.4960  0.2376
 5762SOL    HW128922   0.313   4.398   3.631  2.4441  0.5609  0.3354
 5762SOL    HW228923   0.306   4.545   3.667  1.7711 -1.0036  0.0004
 5763SOL     OW28924   1.818   1.480   7.730  0.4901 -0.2699  0.0268
 5763SOL    HW128925   1.768   1.560   7.714 -0.4327 -1.3742 -2.5194
 5763SOL    HW228926   1.763   1.421   7.679 -0.2311  0.1776  0.2911
 5764SOL     OW28927   0.566   1.463  14.262  0.3256 -0.0505  0.2471
 5764SOL    HW128928   0.624   1.536  14.242 -0.5976  0.9418  1.1499
 5764SOL    HW228929   0.531   1.482  14.349  0.0919  2.6278 -0.4399
 5765SOL     OW28930   0.555   2.748  14.639  0.6075 -0.0943  0.0896
 5765SOL    HW128931   0.624   2.813  14.647 -1.1230  1.6776  0.4280
 5765SOL    HW228932   0.558   2.732  14.545  0.2583  1.7298 -0.2281
 5766SOL     OW28933   2.458   1.977   9.157 -0.0413  0.1187  0.1557
 5766SOL    HW128934   2.537   1.939   9.120 -1.6368 -2.6138 -0.4326
 5766SOL    HW228935   2.436   1.910   9.222  0.0409  1.0613  1.1521
 5767SOL     OW28936   2.977   1.644   4.766 -0.1675 -0.2638  0.0898
 5767SOL    HW128937   3.025   1.582   4.821 -0.3345 -2.2635 -2.0134
 5767SOL    HW228938   2.931   1.583   4.708  2.8193  0.0838 -2.6504
 5768SOL     OW28939   1.410   2.675  16.771  0.5569  0.1420 -0.2683
 5768SOL    HW128940   1.329   2.673  16.822 -0.1771  3.1486 -1.3181
 5768SOL    HW228941   1.480   2.688  16.834 -0.7960  0.6637  1.1335
 5769SOL     OW28942   2.919   0.619   2.087  0.2497  0.2133 -0.1063
 5769SOL    HW128943   2.862   0.547   2.061 -1.9653  1.0341  2.4239
 5769SOL    HW228944   2.987   0.599   2.022  1.2971  1.4104  0.6283
 5770SOL     OW28945   0.017   3.731   2.404 -0.0047 -0.1200 -0.2304
 5770SOL    HW128946   4.709   3.816   2.403  0.9063  0.3657  1.3018
 5770SOL    HW228947   4.679   3.678   2.376  0.1852 -0.7013  0.3798
 5771SOL     OW28948   4.055   4.146   8.761  0.2641  0.7488  0.2975
 5771SOL    HW128949   4.110   4.176   8.688  0.0268  2.7632  0.9437
 5771SOL    HW228950   4.052   4.054   8.738  2.0474  1.2990 -2.1250
 5772SOL     OW28951   3.385   1.460   5.911  0.1571 -0.4691  0.2474
 5772SOL    HW128952   3.390   1.388   5.974 -0.8929 -2.1629 -1.6115
 5772SOL    HW228953   3.474   1.492   5.924  0.2033 -0.7584  0.6564
 5773SOL     OW28954   4.464   4.461   4.997 -0.1858  0.3125 -0.6642
 5773SOL    HW128955   4.388   4.421   4.956  1.5409 -2.4261 -1.2409
 5773SOL    HW228956   4.523   4.388   4.976  2.2750  1.4340  2.4435
 5774SOL     OW28957   1.383   4.721   3.239 -0.1300  0.1738 -0.1593
 5774SOL    HW128958   1.358   4.638   3.198 -1.4877  0.4808  0.0440
 5774SOL    HW228959   1.478   4.711   3.232  0.1145  2.4368 -0.1231
 5775SOL     OW28960   2.517   1.972   3.503  0.1816 -0.1810 -0.4444
 5775SOL    HW128961   2.600   1.924   3.494  0.2698 -0.3470  1.2728
 5775SOL    HW228962   2.509   1.988   3.409  2.4573 -0.1697 -0.6348
 5776SOL     OW28963   0.241   3.451  12.971 -0.1267  0.3118  0.3399
 5776SOL    HW128964   0.335   3.437  12.955 -0.3036 -1.5164  0.9502
 5776SOL    HW228965   0.239   3.533  13.021 -1.4787  1.4913 -1.6836
 5777SOL     OW28966   0.049   2.045  16.346 -0.3002 -0.3696 -0.5034
 5777SOL    HW128967   0.032   1.952  16.358 -1.5937  0.2761  2.7078
 5777SOL    HW228968   0.126   2.044  16.289  0.0004 -0.4647 -0.1002
 5778SOL     OW28969   1.947   4.390   2.607 -0.1157 -0.2667  0.2723
 5778SOL    HW128970   1.969   4.301   2.580  1.4215  0.4297 -0.7571
 5778SOL    HW228971   1.973   4.445   2.534  1.3528 -0.9755  0.2533
 5779SOL     OW28972   3.248   0.319   2.175  0.2103  0.1394  0.6162
 5779SOL    HW128973   3.339   0.295   2.160 -0.2859 -1.4485  0.1368
 5779SOL    HW228974   3.260   0.379   2.248  2.1467  0.2850  0.1681
 5780SOL     OW28975   2.309   0.059  13.671 -0.0377  0.0591 -0.1717
 5780SOL    HW128976   2.344   4.726  13.726 -1.7608 -0.5363  0.1669
 5780SOL    HW228977   2.307   0.132  13.733 -2.3159 -1.3004  1.3366
 5781SOL     OW28978   3.528   1.754   7.903  1.0587 -0.3598  0.1265
 5781SOL    HW128979   3.554   1.662   7.909 -0.3239 -0.8498 -1.0921
 5781SOL    HW228980   3.472   1.766   7.826  0.6691  1.7276  0.7389
 5782SOL     OW28981   2.887   1.131   8.874  0.0713 -0.9825  0.2575
 5782SOL    HW128982   2.874   1.167   8.786 -0.2332  1.5170  1.3446
 5782SOL    HW228983   2.900   1.038   8.854  0.3241 -0.9662  0.3484
 5783SOL     OW28984   1.450   1.536   5.789  0.1485  0.4021  0.9622
 5783SOL    HW128985   1.469   1.630   5.793 -0.5128  0.7048 -3.2662
 5783SOL    HW228986   1.392   1.537   5.713 -1.1366 -1.4198  1.9128
 5784SOL     OW28987   3.136   1.306   6.971  0.3073  0.5661 -0.2724
 5784SOL    HW128988   3.131   1.210   6.972  0.5210  0.5851  1.8518
 5784SOL    HW228989   3.112   1.325   7.062  0.1901  1.0136 -0.4001
 5785SOL     OW28990   2.825   1.854  13.034  0.1026  0.6535  0.2293
 5785SOL    HW128991   2.882   1.804  12.975 -0.0815 -1.3191  1.7092
 5785SOL    HW228992   2.888   1.919  13.067  1.3489 -0.5854  0.2927
 5786SOL     OW28993   0.081   2.208   0.918 -0.0783  0.5217  0.2005
 5786SOL    HW128994   0.064   2.204   0.824 -0.8536 -0.2695  0.3759
 5786SOL    HW228995   0.092   2.114   0.933  1.5527  0.4612 -1.3438
 5787SOL     OW28996   2.527   4.074  10.292  0.0330  0.2438  0.5410
 5787SOL    HW128997   2.525   4.136  10.365  1.9964 -2.5055  2.9403
 5787SOL    HW228998   2.620   4.052  10.289  0.0426  0.5842 -1.4840
 5788SOL     OW28999   1.544   4.452   5.923  0.0412 -0.1401 -0.1886
 5788SOL    HW129000   1.467   4.435   5.869 -1.6761  0.5110  2.0560
 5788SOL    HW229001   1.584   4.522   5.872 -1.2135  0.7778  0.0928
 5789SOL     OW29002   0.352   2.237   6.851 -0.2932  0.4371 -0.1053
 5789SOL    HW129003   0.354   2.258   6.757  0.1435 -0.6729 -0.3383
 5789SOL    HW229004   0.259   2.250   6.870 -0.4555 -0.0183 -0.6033
 5790SOL     OW29005   1.874   2.206  13.803 -0.4136 -0.1100  0.8042
 5790SOL    HW129006   1.871   2.111  13.793  0.1385  0.0471 -0.9150
 5790SOL    HW229007   1.968   2.220  13.798 -0.2142 -2.9606 -3.4660
 5791SOL     OW29008   0.162   1.787  14.877  0.1081 -0.3976 -0.5897
 5791SOL    HW129009   0.190   1.824  14.793  1.4258 -0.8792 -0.3585
 5791SOL    HW229010   0.132   1.869  14.917 -0.9552 -0.9576 -0.2416
 5792SOL     OW29011   3.221   0.841   7.913 -0.0156 -0.0535  0.5660
 5792SOL    HW129012   3.177   0.802   7.838  0.8979 -0.5214  0.2833
 5792SOL    HW229013   3.194   0.933   7.905 -1.1790 -0.3561  0.9726
 5793SOL     OW29014   3.275   0.541   6.891  0.1190  0.7950  0.0628
 5793SOL    HW129015   3.223   0.600   6.835  0.6276  0.6949 -0.5137
 5793SOL    HW229016   3.279   0.592   6.972  1.7151  0.4473  0.1930
 5794SOL     OW29017   1.581   1.303   8.089 -0.8879 -0.3489  0.6201
 5794SOL    HW129018   1.649   1.332   8.149 -1.1880  0.3128  0.6424
 5794SOL    HW229019   1.503   1.302   8.144 -2.7493 -1.6758 -2.0042
 5795SOL     OW29020   1.082   2.960   6.209  0.3976 -0.3183  0.3887
 5795SOL    HW129021   1.142   3.032   6.224 -0.1797 -0.1093  1.6353
 5795SOL    HW229022   1.116   2.908   6.282  0.0381 -0.4794  0.4421
 5796SOL     OW29023   3.995   2.751   4.804  0.5473 -0.3869 -0.3576
 5796SOL    HW129024   3.908   2.710   4.808 -0.2987  1.4609  0.4916
 5796SOL    HW229025   4.027   2.745   4.893 -1.5651 -2.4225  0.2730
 5797SOL     OW29026   3.135   1.217  12.382  0.1762 -0.2328 -0.2134
 5797SOL    HW129027   3.089   1.136  12.360 -0.7928  0.6124 -1.2992
 5797SOL    HW229028   3.183   1.240  12.303 -0.2158  1.1095 -0.0730
 5798SOL     OW29029   2.370   0.462   5.673 -0.2438 -0.0276  0.3630
 5798SOL    HW129030   2.315   0.540   5.682 -2.6183 -1.7379  0.8443
 5798SOL    HW229031   2.434   0.502   5.614 -0.4413 -0.0289  0.1473
 5799SOL     OW29032   0.085   2.188   8.594  0.1325  0.4560  0.2850
 5799SOL    HW129033   0.120   2.177   8.683 -0.0366 -0.2357  0.2684
 5799SOL    HW229034   0.147   2.253   8.561 -1.2824  1.6277 -0.0907
 5800SOL     OW29035   1.801   2.612   3.551 -0.1729 -1.2194  0.4872
 5800SOL    HW129036   1.834   2.590   3.638 -0.4992 -0.2951  0.8474
 5800SOL    HW229037   1.723   2.666   3.563  0.6291  0.2750 -0.8782
 5801SOL     OW29038   1.592   0.941   1.752 -0.2341 -0.8166  0.6397
 5801SOL    HW129039   1.595   0.922   1.658  1.0552 -1.6671  0.8620
 5801SOL    HW229040   1.620   1.032   1.754  0.2245 -1.0044  2.6028
 5802SOL     OW29041   3.338   1.817  16.737 -0.2908  0.1336  0.1934
 5802SOL    HW129042   3.300   1.865  16.663  1.3990 -0.3940 -0.9972
 5802SOL    HW229043   3.258   1.819  16.791 -0.7932 -1.8761 -0.5025
 5803SOL     OW29044   2.411   3.930   6.782  0.0465  0.2117 -0.3843
 5803SOL    HW129045   2.429   3.995   6.850 -1.8019  1.1044 -0.7554
 5803SOL    HW229046   2.465   3.962   6.709  0.7524  0.2839  0.1672
 5804SOL     OW29047   4.435   0.591   1.866  0.0570  0.2890 -0.3186
 5804SOL    HW129048   4.364   0.548   1.820  0.0707 -1.9501  1.7473
 5804SOL    HW229049   4.432   0.684   1.844  2.6910  0.8959  1.8293
 5805SOL     OW29050   0.426   3.260   7.804  0.4887 -0.1247  0.0398
 5805SOL    HW129051   0.384   3.328   7.858  2.9907  1.6171 -0.1813
 5805SOL    HW229052   0.421   3.292   7.714  0.7736 -1.5906 -0.4903
 5806SOL     OW29053   1.826   1.977  16.933 -0.7266 -0.2813  0.4192
 5806SOL    HW129054   1.814   1.951  17.025  2.8296  0.7332  1.1530
 5806SOL    HW229055   1.777   1.908  16.888 -1.5557  0.0451  0.8042
 5807SOL     OW29056   4.014   1.390  12.058  0.3250  0.4921 -0.5671
 5807SOL    HW129057   4.096   1.431  12.032  1.9823 -1.4126  1.6227
 5807SOL    HW229058   4.035   1.380  12.151  1.5479 -2.1685 -1.1311
 5808SOL     OW29059   4.289   0.164   1.105 -0.0678  0.0250  0.2868
 5808SOL    HW129060   4.224   0.234   1.116  0.1476  0.0203  1.5046
 5808SOL    HW229061   4.322   0.179   1.016  0.2637  0.8738  0.5506
 5809SOL     OW29062   2.702   4.084   7.691  0.1360  0.6499  0.0548
 5809SOL    HW129063   2.780   4.117   7.646  0.1562  2.4669  1.4100
 5809SOL    HW229064   2.732   4.078   7.782 -1.1564  0.5412  0.4766
 5810SOL     OW29065   4.666   4.408   9.476 -0.2844 -0.2236 -0.5105
 5810SOL    HW129066   4.608   4.335   9.453  0.8631 -1.1479 -0.4879
 5810SOL    HW229067   4.610   4.485   9.483  0.8173  0.3512  1.8128
 5811SOL     OW29068   4.108   1.836  15.990 -0.1970  0.2111 -0.4133
 5811SOL    HW129069   4.042   1.835  15.921  0.3424 -0.0737 -0.9243
 5811SOL    HW229070   4.074   1.915  16.030  0.1537  0.1151  0.0772
 5812SOL     OW29071   4.111   1.140   7.054  0.2031  0.3552 -0.2264
 5812SOL    HW129072   4.183   1.201   7.070  0.2535  0.3981 -0.6032
 5812SOL    HW229073   4.117   1.127   6.959  1.0978  0.1769 -0.1404
 5813SOL     OW29074   1.230   2.786   6.405  0.1512 -0.1155  0.0228
 5813SOL    HW129075   1.176   2.709   6.423 -2.1369  1.7388  1.0903
 5813SOL    HW229076   1.288   2.751   6.338 -1.4100  1.1582 -2.0084
 5814SOL     OW29077   4.431   4.012  14.364 -0.2994  0.1624  0.3034
 5814SOL    HW129078   4.367   3.993  14.295 -1.2841  2.4747  0.5899
 5814SOL    HW229079   4.506   3.964  14.328 -0.9522  0.1974 -1.0980
 5815SOL     OW29080   2.651   0.097   2.118 -0.3182  0.4544 -0.0871
 5815SOL    HW129081   2.625   0.102   2.026  0.4732 -0.9549 -0.3927
 5815SOL    HW229082   2.611   0.176   2.154 -0.2509  0.1857  0.5765
 5816SOL     OW29083   1.216   1.740   4.825 -0.2589 -0.0486 -0.2257
 5816SOL    HW129084   1.256   1.662   4.864 -0.1803 -0.4191 -1.0640
 5816SOL    HW229085   1.143   1.753   4.885  0.3683  0.6312  0.4031
 5817SOL     OW29086   1.185   2.779  13.312 -0.1892 -0.6505 -0.0532
 5817SOL    HW129087   1.117   2.779  13.379 -0.1582 -3.8263 -0.0262
 5817SOL    HW229088   1.264   2.774  13.365  0.0884  0.1993 -0.3942
 5818SOL     OW29089   2.171   1.810  12.639 -0.2448 -0.0824 -0.8820
 5818SOL    HW129090   2.230   1.885  12.646 -0.1546 -0.4652  2.7493
 5818SOL    HW229091   2.174   1.791  12.545 -0.3644 -0.0925 -0.8838
 5819SOL     OW29092   3.613   3.149  11.816 -0.3848 -0.3690 -0.4592
 5819SOL    HW129093   3.564   3.105  11.885 -0.7259  1.3302  0.3824
 5819SOL    HW229094   3.670   3.073  11.802  0.6072 -0.2112  2.8157
 5820SOL     OW29095   3.383   0.489   1.806  0.7123 -0.5798 -0.3236
 5820SOL    HW129096   3.406   0.514   1.716 -0.1922  0.2700 -0.3304
 5820SOL    HW229097   3.325   0.414   1.797  1.4061 -1.1325 -0.0975
 5821SOL     OW29098   1.704   2.383   9.018 -0.1021  0.1373  0.3573
 5821SOL    HW129099   1.798   2.403   9.016 -0.1404  0.5421  2.0523
 5821SOL    HW229100   1.702   2.388   9.114  0.2217 -1.9920  0.4714
 5822SOL     OW29101   1.326   3.699   2.571  0.1736  0.3063 -0.3389
 5822SOL    HW129102   1.300   3.670   2.658  1.0163 -0.2615 -0.2760
 5822SOL    HW229103   1.334   3.619   2.519 -2.6549  0.6667 -1.3195
 5823SOL     OW29104   0.602   1.240   5.152  0.5553 -0.4476 -0.2595
 5823SOL    HW129105   0.651   1.321   5.166  0.3123 -0.3678  0.1368
 5823SOL    HW229106   0.670   1.174   5.153  0.7238 -0.2745 -0.4313
 5824SOL     OW29107   1.304   3.337   9.540 -0.1489  0.3334  0.3317
 5824SOL    HW129108   1.285   3.387   9.461  0.5814 -0.9127 -0.6254
 5824SOL    HW229109   1.316   3.251   9.500  1.6180 -0.2940  2.1978
 5825SOL     OW29110   0.805   0.975   5.142  0.8431 -0.1543  0.0606
 5825SOL    HW129111   0.810   0.880   5.139 -1.9107 -0.3335  1.0085
 5825SOL    HW229112   0.821   1.007   5.053  1.6565  1.4066  0.7758
 5826SOL     OW29113   3.097   1.054   6.899 -0.2299 -0.5456  0.1669
 5826SOL    HW129114   3.087   1.047   6.804  0.9043  2.5218 -0.1657
 5826SOL    HW229115   3.011   1.034   6.935 -1.0594 -2.6952 -3.0186
 5827SOL     OW29116   4.734   0.289  13.182 -0.3540 -0.4067 -0.0452
 5827SOL    HW129117   4.700   0.302  13.271 -2.3823  0.1878 -0.9133
 5827SOL    HW229118   4.661   0.266  13.126 -0.3880  1.7480 -0.8626
 5828SOL     OW29119   0.720   2.023   6.650  0.0580 -0.2314  0.3033
 5828SOL    HW129120   0.747   2.114   6.635 -0.8353  0.0185  0.2201
 5828SOL    HW229121   0.777   1.973   6.591 -0.5844  1.2583 -1.5982
 5829SOL     OW29122   1.098   0.258   2.388  0.0413  0.0064 -0.0685
 5829SOL    HW129123   1.146   0.273   2.307  0.0273 -1.1219 -0.2871
 5829SOL    HW229124   1.047   0.339   2.396 -0.7759 -0.4510 -0.6078
 5830SOL     OW29125   2.769   3.582   3.707  0.5898  0.3824 -0.0564
 5830SOL    HW129126   2.838   3.596   3.643  0.5775 -3.9347 -1.0115
 5830SOL    HW229127   2.786   3.659   3.762  1.4028  0.3274 -0.2326
 5831SOL     OW29128   4.133   2.605  11.886  0.0694  0.7031 -0.3534
 5831SOL    HW129129   4.194   2.604  11.812  1.1287  1.4555  0.5012
 5831SOL    HW229130   4.194   2.594  11.959  0.2141  1.6141 -0.3385
 5832SOL     OW29131   1.614   3.458   2.544 -0.0988 -0.1421 -0.7517
 5832SOL    HW129132   1.556   3.515   2.594  1.8672  0.8638  0.3674
 5832SOL    HW229133   1.580   3.370   2.561 -0.0061 -0.2441 -1.0916
 5833SOL     OW29134   0.126   2.648   3.902 -0.1430  0.4216 -0.0132
 5833SOL    HW129135   0.147   2.658   3.994 -0.3292 -1.6199  0.2487
 5833SOL    HW229136   0.161   2.730   3.867  1.6997 -1.5484 -2.8192
 5834SOL     OW29137   0.870   4.249   7.962 -0.0460 -0.2618 -0.1179
 5834SOL    HW129138   0.850   4.280   8.051 -0.2980 -0.9219  0.0548
 5834SOL    HW229139   0.799   4.279   7.906 -0.2139 -1.3659 -0.4917
 5835SOL     OW29140   4.241   3.985  16.851  0.3352 -0.1184  0.0885
 5835SOL    HW129141   4.216   3.936  16.929 -0.0565 -1.6744 -1.0009
 5835SOL    HW229142   4.177   4.056  16.852  1.1326  0.6234 -1.2852
 5836SOL     OW29143   2.454   3.189   1.722  0.0145 -0.9839  0.4325
 5836SOL    HW129144   2.371   3.206   1.765  0.3172  1.3975  0.0540
 5836SOL    HW229145   2.429   3.105   1.684 -0.1853 -0.3483 -0.8435
 5837SOL     OW29146   2.027   0.404   5.835 -0.0374 -0.4025 -0.2333
 5837SOL    HW129147   1.938   0.423   5.806 -0.0745 -1.7041 -0.9756
 5837SOL    HW229148   2.033   0.446   5.920 -2.1496 -2.1681  0.7792
 5838SOL     OW29149   3.801   0.972  12.440 -0.0470 -0.0543 -0.0662
 5838SOL    HW129150   3.708   0.973  12.417 -0.3542  1.8117  1.2782
 5838SOL    HW229151   3.822   0.879  12.449 -0.6119 -0.2387 -0.6522
 5839SOL     OW29152   3.807   1.324   4.450  0.5011 -0.4103  0.0858
 5839SOL    HW129153   3.743   1.288   4.511 -0.6807  1.6795  0.0776
 5839SOL    HW229154   3.755   1.402   4.431  2.5895  0.7207 -1.0427
 5840SOL     OW29155   0.877   1.080   1.416  0.3820  0.2153  0.0562
 5840SOL    HW129156   0.860   0.986   1.404  0.9278  0.3416 -1.7082
 5840SOL    HW229157   0.946   1.093   1.351 -0.2554 -1.2125 -0.9139
 5841SOL     OW29158   1.749   0.139  10.356  0.2118 -0.1819 -0.1094
 5841SOL    HW129159   1.844   0.133  10.344  0.0905 -2.3391  0.0320
 5841SOL    HW229160   1.724   0.050  10.334 -1.4327 -0.0803  1.3981
 5842SOL     OW29161   0.502   2.450  14.881 -0.6415  0.0400  1.1660
 5842SOL    HW129162   0.557   2.461  14.803 -0.6797 -0.0286  1.1295
 5842SOL    HW229163   0.538   2.516  14.939  1.3444  0.2011 -0.2415
 5843SOL     OW29164   0.541   4.361   2.618 -0.2641 -0.1739 -0.4243
 5843SOL    HW129165   0.624   4.373   2.573  1.1017 -1.4538  1.7615
 5843SOL    HW229166   0.475   4.363   2.548 -2.2868 -0.0134  1.4715
 5844SOL     OW29167   2.188   3.747   4.787 -0.2281  0.3794  0.1012
 5844SOL    HW129168   2.125   3.700   4.842  0.8490  0.7040  1.6067
 5844SOL    HW229169   2.264   3.689   4.777 -0.9197 -0.2701 -1.3195
 5845SOL     OW29170   2.933   0.203   0.967  0.2532 -0.6272 -0.4226
 5845SOL    HW129171   2.849   0.188   1.009 -0.0253 -1.4889 -1.2887
 5845SOL    HW229172   2.902   0.241   0.885 -3.0080  2.9151  2.4701
 5846SOL     OW29173   1.602   2.517  13.571 -0.3443 -0.1434 -0.0850
 5846SOL    HW129174   1.630   2.493  13.659 -0.1335  1.3873  0.2679
 5846SOL    HW229175   1.590   2.431  13.530  0.6901  0.5874 -1.9348
 5847SOL     OW29176   1.927   3.776   2.646 -0.0604  0.0967 -1.0246
 5847SOL    HW129177   1.923   3.864   2.609 -2.0124  0.0377 -0.9124
 5847SOL    HW229178   1.871   3.729   2.585 -1.1943 -1.0536  0.9249
 5848SOL     OW29179   3.160   3.800   6.984  0.1737  0.1294  0.0513
 5848SOL    HW129180   3.213   3.769   6.911 -0.3416  1.0948 -0.7356
 5848SOL    HW229181   3.092   3.733   6.989  0.9620 -0.7942 -1.6667
 5849SOL     OW29182   3.915   4.602   4.972 -0.1749 -0.8689  0.0434
 5849SOL    HW129183   3.844   4.613   4.909  0.6084 -1.3380 -0.9108
 5849SOL    HW229184   3.991   4.634   4.924  0.3873 -0.4545  1.2093
 5850SOL     OW29185   2.767   0.069   9.661  0.0955  0.4449 -0.0137
 5850SOL    HW129186   2.705   0.068   9.589 -2.1174 -1.8305  1.9430
 5850SOL    HW229187   2.720   0.131   9.716 -0.1569 -0.8940  1.2957
 5851SOL     OW29188   0.078   3.479   3.526 -0.0433 -0.2560  0.0497
 5851SOL    HW129189   4.730   3.521   3.545  1.7632  3.3184  0.1838
 5851SOL    HW229190   0.073   3.481   3.431  0.3046  1.6274  0.0634
 5852SOL     OW29191   1.734   0.410   8.128  0.1408 -0.0226  0.0641
 5852SOL    HW129192   1.698   0.370   8.207  0.2520  0.8423  0.5625
 5852SOL    HW229193   1.828   0.393   8.127  0.5512  2.0519  2.1461
 5853SOL     OW29194   2.130   2.978  13.019  0.7205 -0.0541  0.3851
 5853SOL    HW129195   2.221   2.978  13.050  0.6438 -0.1759  0.6110
 5853SOL    HW229196   2.137   3.044  12.950  0.8611  1.6152  1.9899
 5854SOL     OW29197   1.621   3.566   3.844  0.1195 -0.4829  0.4345
 5854SOL    HW129198   1.627   3.553   3.749 -0.8397 -1.8764  0.5656
 5854SOL    HW229199   1.623   3.479   3.885 -2.2638 -1.3968 -1.4131
 5855SOL     OW29200   2.265   0.628  10.398 -0.0401 -0.0116 -0.3702
 5855SOL    HW129201   2.171   0.613  10.399 -0.3362  1.7789 -2.1035
 5855SOL    HW229202   2.305   0.543  10.383  2.7567  0.9908  1.2908
 5856SOL     OW29203   1.789   4.617   7.056 -0.2635  0.4690  0.8864
 5856SOL    HW129204   1.739   4.657   6.985  0.2534 -1.4216 -0.5135
 5856SOL    HW229205   1.714   4.575   7.098 -0.3087 -1.0404 -0.7344
 5857SOL     OW29206   4.075   3.951  13.929 -0.0254  0.0130 -0.2267
 5857SOL    HW129207   3.995   3.962  13.981  0.1900 -3.3937  0.8757
 5857SOL    HW229208   4.132   3.939  14.005 -0.0955 -0.0803 -0.1882
 5858SOL     OW29209   3.566   4.305  16.371 -0.1591 -0.1088 -0.2720
 5858SOL    HW129210   3.605   4.389  16.394 -1.7866 -0.1872  2.8288
 5858SOL    HW229211   3.622   4.253  16.428  1.3166  1.7023 -0.0722
 5859SOL     OW29212   1.265   0.993   7.591 -0.6656  0.0430 -0.3020
 5859SOL    HW129213   1.189   0.944   7.623  0.4185 -2.1902 -1.2141
 5859SOL    HW229214   1.317   1.003   7.671  1.2570  1.0295 -1.6910
 5860SOL     OW29215   1.563   3.761   5.505  0.2069 -0.3593  0.0433
 5860SOL    HW129216   1.540   3.800   5.420  1.2193  2.3155  0.9796
 5860SOL    HW229217   1.599   3.678   5.476 -0.2696 -1.0803  1.5354
 5861SOL     OW29218   1.657   1.697   0.704 -0.5512  0.0721  0.1891
 5861SOL    HW129219   1.578   1.680   0.755 -2.6400  1.7326 -2.4658
 5861SOL    HW229220   1.618   1.746   0.631 -3.8217  0.5058  2.1970
 5862SOL     OW29221   1.444   1.768   0.079  0.0855  0.5631  0.0394
 5862SOL    HW129222   1.476   1.816   0.002 -3.2920 -0.0146 -1.7097
 5862SOL    HW229223   1.369   1.721   0.043 -1.2877  0.9065  2.4781
 5863SOL     OW29224   2.735   4.362   6.658  0.6691  0.3378  0.0353
 5863SOL    HW129225   2.640   4.364   6.666  0.5500 -2.0345 -0.9105
 5863SOL    HW229226   2.754   4.292   6.721 -0.9780  0.9557  1.2229
 5864SOL     OW29227   2.025   3.761  15.910  0.0172  0.0330  0.2516
 5864SOL    HW129228   1.948   3.801  15.870  0.3810  1.1944  0.7125
 5864SOL    HW229229   1.981   3.727  15.988 -1.3951  1.3525  0.0331
 5865SOL     OW29230   3.292   1.764   6.561 -0.6739 -0.4697 -0.1891
 5865SOL    HW129231   3.372   1.817   6.567 -0.1664 -1.1161 -1.2549
 5865SOL    HW229232   3.267   1.747   6.651  0.2414 -0.7049  0.0246
 5866SOL     OW29233   1.949   1.525  14.943  0.4886 -0.0438  0.0069
 5866SOL    HW129234   1.876   1.488  14.893 -0.4757 -1.1843  2.2438
 5866SOL    HW229235   1.995   1.572  14.874 -1.6764  0.3584 -1.1494
 5867SOL     OW29236   1.113   1.147   4.093 -0.3603 -0.1242 -0.3450
 5867SOL    HW129237   1.165   1.105   4.025  0.5845  0.7311 -0.1548
 5867SOL    HW229238   1.136   1.091   4.167  1.1230  1.3510  0.3182
 5868SOL     OW29239   0.052   3.962  15.326  0.0495  0.0712 -0.0746
 5868SOL    HW129240   4.719   4.001  15.380 -0.9964  1.6546 -2.5839
 5868SOL    HW229241   0.000   3.913  15.262  0.2020  1.6947 -1.4437
 5869SOL     OW29242   2.461   0.623   0.593  0.2437  0.4932 -0.6207
 5869SOL    HW129243   2.389   0.645   0.534 -0.6612  1.6264  0.9148
 5869SOL    HW229244   2.416   0.615   0.677  0.0038  0.3818 -0.7600
 5870SOL     OW29245   4.097   0.110   2.132  0.1756  0.4456 -0.0618
 5870SOL    HW129246   4.007   0.076   2.138 -0.2528  1.2876 -1.6803
 5870SOL    HW229247   4.141   0.038   2.177 -1.0046 -0.3492 -0.1752
 5871SOL     OW29248   0.834   0.158  14.885  0.3177  0.4437 -0.3136
 5871SOL    HW129249   0.895   0.223  14.921  0.9957  0.0656 -0.7766
 5871SOL    HW229250   0.764   0.178  14.947 -0.3842 -2.2416 -0.2331
 5872SOL     OW29251   3.070   3.528   1.627 -0.0383  0.2754  0.2555
 5872SOL    HW129252   2.974   3.534   1.622  0.0832  0.6485 -1.6035
 5872SOL    HW229253   3.080   3.587   1.701 -0.5774  0.8548 -0.1297
 5873SOL     OW29254   1.754   2.161  13.541  0.0625 -0.4091 -0.2294
 5873SOL    HW129255   1.826   2.216  13.511 -0.3793  0.6004  0.5741
 5873SOL    HW229256   1.791   2.140  13.626 -0.4237 -0.5961 -0.0588
 5874SOL     OW29257   0.751   0.132   3.058 -0.2817  0.3969  0.3581
 5874SOL    HW129258   0.813   0.067   3.025  0.4768  0.0463  2.4713
 5874SOL    HW229259   0.747   0.100   3.148 -0.5057 -1.4083 -0.2856
 5875SOL     OW29260   1.711   3.930   8.450  0.6704 -0.1197 -0.6560
 5875SOL    HW129261   1.709   4.019   8.484  1.8736 -1.1049  2.0054
 5875SOL    HW229262   1.790   3.904   8.497  0.0716  1.2862  1.1241
 5876SOL     OW29263   4.078   3.038  11.464 -0.0084  0.0956 -0.1698
 5876SOL    HW129264   4.017   3.041  11.538  0.8965  1.9916  0.5045
 5876SOL    HW229265   4.148   2.979  11.493  0.0249 -0.3637 -1.1677
 5877SOL     OW29266   3.777   0.324  14.659  0.3854 -0.0080 -0.3536
 5877SOL    HW129267   3.815   0.238  14.676 -0.0271  0.1019  1.1021
 5877SOL    HW229268   3.739   0.299  14.575  1.8951 -1.7846 -0.4921
 5878SOL     OW29269   3.882   2.412   4.927 -0.7040  0.0981 -0.1947
 5878SOL    HW129270   3.814   2.461   4.974  0.4798  0.0617  1.5506
 5878SOL    HW229271   3.870   2.443   4.838 -1.1721  0.2199 -0.0891
 5879SOL     OW29272   3.819   4.143   2.466  0.3168 -0.7362  0.1353
 5879SOL    HW129273   3.732   4.164   2.434  0.5181  1.5851  1.1059
 5879SOL    HW229274   3.875   4.115   2.393 -2.7396  0.6277 -2.7032
 5880SOL     OW29275   1.586   4.059  12.684  0.2778 -0.5769  0.2786
 5880SOL    HW129276   1.675   4.038  12.712 -0.3531 -1.3092  1.7283
 5880SOL    HW229277   1.534   4.008  12.747  1.3985 -0.3135  1.4072
 5881SOL     OW29278   0.213   3.439  11.068  0.4006 -0.4426 -0.6974
 5881SOL    HW129279   0.218   3.427  11.162  1.1936  0.2619 -0.6526
 5881SOL    HW229280   0.246   3.526  11.049 -0.5348 -0.1386 -0.9600
 5882SOL     OW29281   4.135   3.823   8.625  0.4236  0.5008 -0.3654
 5882SOL    HW129282   4.125   3.875   8.545  0.8760 -1.2214 -1.5427
 5882SOL    HW229283   4.043   3.827   8.650  0.3599  0.0720 -0.5368
 5883SOL     OW29284   0.645   4.151   5.297 -0.2203 -0.3697 -0.0782
 5883SOL    HW129285   0.614   4.169   5.386  0.4530 -0.3560  0.1574
 5883SOL    HW229286   0.584   4.081   5.274 -0.4518 -0.0317 -0.4760
 5884SOL     OW29287   3.691   1.678  10.711 -0.2710  0.0150  0.6903
 5884SOL    HW129288   3.760   1.720  10.659 -0.4887 -1.7833 -1.0414
 5884SOL    HW229289   3.635   1.752  10.735  0.0368 -0.2397  2.1774
 5885SOL     OW29290   1.846   0.015   8.234  0.3569 -0.6893  0.2591
 5885SOL    HW129291   1.804   0.039   8.316  0.6447 -0.2773  0.2799
 5885SOL    HW229292   1.936   0.042   8.250  0.3410 -0.6254  0.2407
 5886SOL     OW29293   4.537   0.060   6.933 -0.9932  0.6130 -0.3066
 5886SOL    HW129294   4.460   0.003   6.941  0.2201 -1.2284 -1.7541
 5886SOL    HW229295   4.565   0.039   6.844  1.8650 -1.3488  1.0468
 5887SOL     OW29296   0.307   0.385   5.575 -0.8410  0.3503 -0.3188
 5887SOL    HW129297   0.235   0.439   5.544 -1.4764 -1.2988 -1.7390
 5887SOL    HW229298   0.381   0.440   5.549  0.0593 -0.0127  1.4761
 5888SOL     OW29299   2.819   1.688   7.983  0.4693 -0.2910  0.0623
 5888SOL    HW129300   2.823   1.670   7.889  2.3836  0.9022 -0.0742
 5888SOL    HW229301   2.878   1.620   8.014  0.8113  0.2939  0.6968
 5889SOL     OW29302   3.332   2.046  10.046 -0.1814 -0.1714 -0.1142
 5889SOL    HW129303   3.405   2.102  10.073 -0.2294  0.2827 -0.9214
 5889SOL    HW229304   3.263   2.060  10.111  1.3704  0.4355  1.4128
 5890SOL     OW29305   2.972   0.682   3.133 -0.8680 -0.5677  0.7035
 5890SOL    HW129306   2.889   0.706   3.092 -0.5563 -1.1619 -0.2812
 5890SOL    HW229307   3.032   0.714   3.065 -0.6874 -1.4224  0.4563
 5891SOL     OW29308   1.479   3.869   6.130  0.4577  0.3820 -0.4349
 5891SOL    HW129309   1.569   3.899   6.120 -0.1696  1.8193 -1.9575
 5891SOL    HW229310   1.476   3.784   6.088 -1.8313  0.2452 -0.0140
 5892SOL     OW29311   2.401   4.635   5.078  0.0343 -0.6335 -0.5050
 5892SOL    HW129312   2.379   4.701   5.144  1.7263 -1.5129  0.9610
 5892SOL    HW229313   2.319   4.586   5.076  0.1530 -0.7828 -1.8464
 5893SOL     OW29314   4.053   3.799  17.720 -0.0169  0.4055  0.3195
 5893SOL    HW129315   4.136   3.752  17.722  0.2274  0.8569  0.6533
 5893SOL    HW229316   3.990   3.743   0.022 -1.7721  2.5433  0.5511
 5894SOL     OW29317   4.592   4.458   2.341 -0.5890 -0.3210 -0.1551
 5894SOL    HW129318   4.630   4.470   2.254  3.0344 -0.9564  1.3213
 5894SOL    HW229319   4.536   4.535   2.338 -1.2940 -0.7187  2.5259
 5895SOL     OW29320   2.537   4.347   4.396  0.6407  0.2344  0.3934
 5895SOL    HW129321   2.496   4.434   4.396  1.0790  0.4484  3.0498
 5895SOL    HW229322   2.486   4.293   4.456 -0.2585  2.6532  1.8329
 5896SOL     OW29323   1.768   0.536   4.453  0.1534  0.2225 -0.1807
 5896SOL    HW129324   1.686   0.488   4.459  0.8108 -1.2112 -2.7059
 5896SOL    HW229325   1.818   0.473   4.400  1.4237 -0.6507  2.0786
 5897SOL     OW29326   3.792   4.077   0.610 -0.0422  0.0618 -0.5458
 5897SOL    HW129327   3.706   4.091   0.649 -0.0638  1.4625 -1.1057
 5897SOL    HW229328   3.795   4.154   0.553  2.2247 -0.3198 -0.9474
 5898SOL     OW29329   2.925   3.623   7.327 -0.7056 -0.1465 -0.3327
 5898SOL    HW129330   2.987   3.598   7.395 -0.7063 -1.8606 -0.9598
 5898SOL    HW229331   2.843   3.628   7.375 -0.1909  0.1628  0.5080
 5899SOL     OW29332   0.869   4.254   6.858  0.1960 -0.2427  0.5882
 5899SOL    HW129333   0.849   4.348   6.854  2.9106  0.4304  2.9778
 5899SOL    HW229334   0.960   4.258   6.831  1.1206  0.4659  3.7492
 5900SOL     OW29335   4.651   3.852   1.892 -0.5455 -0.0648 -0.2464
 5900SOL    HW129336   4.696   3.768   1.901 -0.6406  0.3315  3.6707
 5900SOL    HW229337   4.711   3.897   1.951 -0.7108 -0.9610  0.6108
 5901SOL     OW29338   0.285   1.262   8.484 -0.4051 -0.0386  0.1703
 5901SOL    HW129339   0.335   1.338   8.455  0.0389 -0.8977 -1.3573
 5901SOL    HW229340   0.205   1.264   8.430  0.3343 -1.4074 -0.9751
 5902SOL     OW29341   0.787   1.669   4.922 -0.5380 -0.2119  0.8417
 5902SOL    HW129342   0.710   1.623   4.889 -0.1328  0.7281 -1.4154
 5902SOL    HW229343   0.852   1.651   4.854 -2.6371  3.6979 -2.2187
 5903SOL     OW29344   0.227   0.002   4.267 -0.2663 -0.3270  0.6881
 5903SOL    HW129345   0.201   0.094   4.265 -0.3598 -0.4422 -2.7438
 5903SOL    HW229346   0.170   4.695   4.204 -1.8851  0.2482  1.7609
 5904SOL     OW29347   4.348   1.793   0.351 -0.2047  0.0965 -0.0628
 5904SOL    HW129348   4.260   1.807   0.387 -0.0313  3.0767 -0.7957
 5904SOL    HW229349   4.404   1.822   0.423 -0.4108  1.0751 -0.2921
 5905SOL     OW29350   0.573   0.198   5.587 -0.1427 -0.0063  0.9530
 5905SOL    HW129351   0.546   0.127   5.528  0.4426 -0.7062  1.5300
 5905SOL    HW229352   0.663   0.218   5.564 -1.4460  3.3373 -1.3248
 5906SOL     OW29353   2.315   2.012   0.853 -0.6252  0.0754 -0.5615
 5906SOL    HW129354   2.347   2.058   0.775 -2.2442  1.2405 -0.5237
 5906SOL    HW229355   2.385   2.035   0.915  0.9750 -0.6651 -2.1020
 5907SOL     OW29356   2.720   1.289   8.614 -0.0524  0.1078 -0.4040
 5907SOL    HW129357   2.799   1.238   8.598  2.0321  2.8207  1.3827
 5907SOL    HW229358   2.729   1.368   8.561 -1.6300 -0.0645 -0.9288
 5908SOL     OW29359   0.581   2.460  12.288 -0.4092 -0.0814  0.9302
 5908SOL    HW129360   0.613   2.516  12.359 -1.4545  0.3825  1.0338
 5908SOL    HW229361   0.639   2.387  12.307  1.1967  1.2725  1.2132
 5909SOL     OW29362   2.545   2.752   7.236 -0.1522  0.3854  0.2905
 5909SOL    HW129363   2.492   2.673   7.245  1.1992 -0.3791  1.6454
 5909SOL    HW229364   2.600   2.729   7.161 -0.1730 -1.7427  0.9054
 5910SOL     OW29365   4.723   0.422   3.480 -0.4114 -0.1933 -0.3748
 5910SOL    HW129366   0.066   0.475   3.468 -0.4824 -0.4297 -1.9581
 5910SOL    HW229367   4.651   0.479   3.451  0.3631  0.2799 -1.3782
 5911SOL     OW29368   1.746   4.672   7.998 -0.5095  0.3179  0.6825
 5911SOL    HW129369   1.656   4.697   7.980 -0.6786 -2.3233 -2.0796
 5911SOL    HW229370   1.755   4.693   8.091 -0.6824 -0.8070  0.9513
 5912SOL     OW29371   2.337   0.714   9.493  0.3179  0.0531 -0.1774
 5912SOL    HW129372   2.272   0.784   9.485 -0.2858 -0.4273  0.5467
 5912SOL    HW229373   2.393   0.734   9.418  1.1454 -0.9316  0.1644
 5913SOL     OW29374   3.057   1.585  11.282  0.0313 -0.1758 -0.7918
 5913SOL    HW129375   3.059   1.644  11.358 -1.1578 -1.1354 -0.0213
 5913SOL    HW229376   3.117   1.629  11.221 -0.2304 -1.0785 -1.7004
 5914SOL     OW29377   2.968   1.090   5.145 -0.0164  0.3411  0.8425
 5914SOL    HW129378   3.021   1.129   5.215  0.4923  1.4808 -0.1873
 5914SOL    HW229379   2.989   0.999   5.169  1.5277  0.3815 -0.3527
 5915SOL     OW29380   2.518   0.003   7.665 -0.5356 -0.2895  0.0299
 5915SOL    HW129381   2.424   4.727   7.679 -0.8018  1.3253 -0.3778
 5915SOL    HW229382   2.550   4.723   7.754 -0.6030 -1.3951 -0.1496
 5916SOL     OW29383   4.023   1.271   1.684  0.5689  0.1056 -0.3292
 5916SOL    HW129384   4.045   1.180   1.703 -2.0378 -0.8861 -1.9399
 5916SOL    HW229385   3.979   1.288   1.767  0.2448  0.0596 -0.4888
 5917SOL     OW29386   0.243   0.447  16.862 -0.1175 -0.0128 -0.2847
 5917SOL    HW129387   0.205   0.442  16.774  0.0250 -0.7808 -0.3003
 5917SOL    HW229388   0.169   0.420  16.915 -0.4405 -0.0842 -0.7716
 5918SOL     OW29389   3.947   1.953   0.284 -0.1016 -0.2159 -0.2312
 5918SOL    HW129390   4.003   2.030   0.296  1.3663 -1.6242  1.8999
 5918SOL    HW229391   3.892   1.983   0.211  0.3990 -0.2153 -0.6057
 5919SOL     OW29392   3.672   0.936  15.408  0.1623  0.2411  0.3164
 5919SOL    HW129393   3.754   0.941  15.358  0.0938  3.1229  0.4851
 5919SOL    HW229394   3.697   0.915  15.497 -0.2485  0.0484  0.3830
 5920SOL     OW29395   0.141   3.940   5.656  0.6091 -0.0137 -0.5648
 5920SOL    HW129396   0.160   3.857   5.699 -2.8658 -0.4589  0.1205
 5920SOL    HW229397   0.122   3.902   5.570 -0.3663  0.6104 -0.6319
 5921SOL     OW29398   4.541   3.000   5.530  0.6574  0.3141 -0.0257
 5921SOL    HW129399   4.579   2.913   5.530 -0.4777 -0.1951 -1.1501
 5921SOL    HW229400   4.553   3.020   5.437 -0.5581  0.9602 -0.0501
 5922SOL     OW29401   0.104   3.378   5.613  0.2142  0.3014  0.0699
 5922SOL    HW129402   0.059   3.415   5.688  0.3429  1.3043 -0.3475
 5922SOL    HW229403   0.032   3.392   5.552  1.5403 -0.8344 -1.7743
 5923SOL     OW29404   1.919   4.410  12.778 -0.1650  0.4171  0.3227
 5923SOL    HW129405   1.885   4.370  12.857 -0.2931 -0.0893  0.0124
 5923SOL    HW229406   1.864   4.369  12.712  4.1779 -0.5438 -2.7578
 5924SOL     OW29407   3.291   0.794   5.388  0.3725 -0.1349 -0.0252
 5924SOL    HW129408   3.375   0.768   5.349  0.9014  0.3016  0.8420
 5924SOL    HW229409   3.231   0.771   5.317 -1.1318 -2.5952  2.0430
 5925SOL     OW29410   3.110   1.691   8.523  0.1910 -0.0367 -0.2076
 5925SOL    HW129411   3.055   1.613   8.514 -0.1631  0.0665  1.2099
 5925SOL    HW229412   3.071   1.739   8.449 -0.9879  0.3174  0.6417
 5926SOL     OW29413   2.746   0.778  10.111  0.3556  0.3008 -0.2748
 5926SOL    HW129414   2.657   0.748  10.095  0.9490 -0.5969 -1.8797
 5926SOL    HW229415   2.791   0.730  10.042  0.1044 -0.5779  0.1680
 5927SOL     OW29416   2.837   1.162   2.495 -0.5619  0.4587 -0.1478
 5927SOL    HW129417   2.772   1.093   2.505 -1.7104  1.7265  1.1577
 5927SOL    HW229418   2.865   1.174   2.586  0.5494  0.4126 -0.4802
 5928SOL     OW29419   1.502   4.308  14.307 -0.0376 -0.6642  0.2251
 5928SOL    HW129420   1.578   4.275  14.259  0.7283 -1.7500  2.1767
 5928SOL    HW229421   1.440   4.350  14.248  2.0529  1.7779 -0.2148
 5929SOL     OW29422   1.616   1.110   3.402 -0.2787 -1.0278 -0.1239
 5929SOL    HW129423   1.612   1.099   3.497 -0.5478 -0.5295 -0.0790
 5929SOL    HW229424   1.570   1.029   3.378 -0.0709 -0.6692 -1.7043
 5930SOL     OW29425   1.427   0.106   6.467  0.1527  0.2952 -0.3963
 5930SOL    HW129426   1.356   0.167   6.447 -1.9338 -1.3508  1.9653
 5930SOL    HW229427   1.495   0.157   6.511 -0.3173 -1.3077  2.2104
 5931SOL     OW29428   3.397   1.573   4.133 -0.0267  0.2620 -0.4114
 5931SOL    HW129429   3.412   1.506   4.065  0.0327 -1.6041  1.4392
 5931SOL    HW229430   3.461   1.553   4.201 -0.2942 -0.6098 -0.4054
 5932SOL     OW29431   1.728   3.574  12.950  0.0781  0.3699 -0.1364
 5932SOL    HW129432   1.794   3.621  13.002 -0.9099 -0.6090  2.0034
 5932SOL    HW229433   1.746   3.488  12.987 -1.1730  0.1483 -0.0664
 5933SOL     OW29434   4.292   0.018   7.159  0.2616  0.2836 -1.0672
 5933SOL    HW129435   4.306   4.701   7.080 -1.3240 -0.6280 -0.7274
 5933SOL    HW229436   4.242   0.095   7.132  0.7296  1.4932  1.5234
 5934SOL     OW29437   1.290   2.714   4.708 -0.4985 -0.6840  0.0680
 5934SOL    HW129438   1.296   2.686   4.617  2.2284  0.8476 -0.2254
 5934SOL    HW229439   1.287   2.809   4.692  0.3302 -0.5095  0.9918
 5935SOL     OW29440   1.099   3.820   3.045 -0.2579 -0.7591 -0.1263
 5935SOL    HW129441   1.159   3.746   3.053  1.1666  0.5137  0.7198
 5935SOL    HW229442   1.065   3.825   3.134  0.6918 -0.0594  0.1896
 5936SOL     OW29443   0.962   1.236  11.778  0.4627  0.0531 -0.1592
 5936SOL    HW129444   1.008   1.244  11.862 -0.5159  0.0491  0.3849
 5936SOL    HW229445   0.980   1.324  11.746 -0.4944  0.4615  0.4313
 5937SOL     OW29446   1.851   2.554   3.296 -0.1881  0.2070 -0.5815
 5937SOL    HW129447   1.826   2.643   3.272 -1.4442 -0.1449 -0.5368
 5937SOL    HW229448   1.852   2.564   3.391 -0.7404 -4.5533 -0.1124
 5938SOL     OW29449   4.139   3.254   6.580 -0.0243  0.2300 -0.1463
 5938SOL    HW129450   4.129   3.185   6.645  0.6145  0.7284  0.4821
 5938SOL    HW229451   4.227   3.230   6.550  0.0715  0.5816 -0.1528
 5939SOL     OW29452   0.863   2.579   9.760 -0.5535 -0.1650  0.4078
 5939SOL    HW129453   0.934   2.628   9.719  0.0091 -0.5656  0.9014
 5939SOL    HW229454   0.853   2.610   9.850  0.9958 -0.4685  0.6885
 5940SOL     OW29455   4.058   1.451   5.418 -0.1473  0.2943  0.0750
 5940SOL    HW129456   4.040   1.410   5.503 -2.3971 -0.7626 -0.9156
 5940SOL    HW229457   3.972   1.486   5.395 -0.6035 -0.9707 -0.1476
 5941SOL     OW29458   1.710   1.735   4.535  0.6955 -0.3439  0.4271
 5941SOL    HW129459   1.707   1.816   4.483  0.0943 -0.8372 -0.3129
 5941SOL    HW229460   1.802   1.717   4.513  0.4423 -0.1841 -0.7544
 5942SOL     OW29461   1.741   2.416   9.816  0.7289 -0.3642  0.8420
 5942SOL    HW129462   1.812   2.430   9.879  0.5742 -1.9542  1.3594
 5942SOL    HW229463   1.716   2.508   9.804 -1.5909 -1.0156  0.5991
 5943SOL     OW29464   1.023   4.008   8.267  0.1564  0.1167 -0.4542
 5943SOL    HW129465   0.933   4.018   8.296 -0.2573  2.5297 -2.6182
 5943SOL    HW229466   1.006   3.922   8.229 -0.7725 -0.8680  2.1883
 5944SOL     OW29467   4.217   2.038   5.068 -1.0832 -0.4344  0.3934
 5944SOL    HW129468   4.196   2.002   5.154  0.2782 -0.1920  0.8304
 5944SOL    HW229469   4.308   2.009   5.056 -1.3921  0.2573 -3.6448
 5945SOL     OW29470   2.430   2.273   9.170 -0.0771  0.3821 -0.4991
 5945SOL    HW129471   2.430   2.178   9.157  2.7829  0.4493 -1.0597
 5945SOL    HW229472   2.468   2.292   9.084  1.2403  1.2241  0.2660
 5946SOL     OW29473   4.427   1.805   2.437  0.3009  0.1091 -0.1590
 5946SOL    HW129474   4.367   1.879   2.437  0.8135  0.5175 -2.0632
 5946SOL    HW229475   4.372   1.754   2.497 -2.4529  0.8982 -2.0423
 5947SOL     OW29476   4.687   0.947  12.593 -0.6281 -0.5126  0.1252
 5947SOL    HW129477   4.656   1.004  12.663 -1.5878 -0.2598 -0.5003
 5947SOL    HW229478   0.045   0.941  12.608 -0.4551  0.5238 -0.5463
 5948SOL     OW29479   0.593   1.579   3.929 -0.2437  0.0682 -0.2494
 5948SOL    HW129480   0.628   1.514   3.869  1.5751  1.0044 -0.1980
 5948SOL    HW229481   0.644   1.657   3.907 -1.2389  0.5438 -0.8338
 5949SOL     OW29482   1.250   3.348   5.051  0.4671  0.0145 -0.2160
 5949SOL    HW129483   1.293   3.380   4.972  2.0508 -2.1444 -0.2220
 5949SOL    HW229484   1.322   3.313   5.104 -1.9412 -1.6092  1.9840
 5950SOL     OW29485   4.111   2.444   1.669 -0.1937 -0.0202 -0.3041
 5950SOL    HW129486   4.138   2.524   1.714 -0.1832 -0.7958  1.0568
 5950SOL    HW229487   4.190   2.391   1.682  0.7150  1.7451  1.2470
 5951SOL     OW29488   2.253   3.522   7.675  0.0053  0.3803  0.2659
 5951SOL    HW129489   2.263   3.617   7.672 -0.5023  0.4147 -0.3385
 5951SOL    HW229490   2.193   3.526   7.750  0.8820  0.6906  0.9559
 5952SOL     OW29491   0.636   3.780  14.430  0.5375  0.2119  0.2311
 5952SOL    HW129492   0.696   3.803  14.359  0.1974 -1.2072 -0.4954
 5952SOL    HW229493   0.682   3.812  14.508 -2.1767  0.5980  1.6753
 5953SOL     OW29494   3.798   0.450   2.093 -0.6876  0.4216  0.1623
 5953SOL    HW129495   3.796   0.535   2.049  0.2408  0.8112  0.8833
 5953SOL    HW229496   3.765   0.403   2.016 -0.6529 -1.5304  1.3433
 5954SOL     OW29497   1.329   0.091   6.954  0.1625  0.2275  0.4120
 5954SOL    HW129498   1.311   0.121   6.865 -0.8355  2.2606  1.3256
 5954SOL    HW229499   1.263   0.023   6.968 -1.1307  1.4521  0.1378
 5955SOL     OW29500   0.199   1.305  14.918  0.4598  0.0082 -0.3457
 5955SOL    HW129501   0.209   1.399  14.932  0.9012  0.1819 -1.7551
 5955SOL    HW229502   0.156   1.301  14.832 -1.1807 -1.9205  0.5801
 5956SOL     OW29503   3.723   1.913   7.824 -0.3115  0.1273 -0.1064
 5956SOL    HW129504   3.647   1.872   7.865 -0.1896 -0.9393 -0.9507
 5956SOL    HW229505   3.786   1.842   7.811  0.8136  1.5852 -2.6807
 5957SOL     OW29506   2.961   4.639  11.777  0.0806  0.5359 -0.0940
 5957SOL    HW129507   2.958   4.651  11.683  1.5443  0.3927 -0.1615
 5957SOL    HW229508   3.047   4.677  11.798  1.1777 -1.4089 -1.0866
 5958SOL     OW29509   4.387   1.229   7.103 -0.3111 -0.1763 -0.5636
 5958SOL    HW129510   4.420   1.146   7.069 -0.4984 -1.4008  2.2033
 5958SOL    HW229511   4.411   1.231   7.196 -2.2585 -2.7025  0.0236
 5959SOL     OW29512   2.562   0.320   2.273  0.2900 -0.1285 -0.0911
 5959SOL    HW129513   2.562   0.414   2.258 -1.8887 -0.0273  0.4736
 5959SOL    HW229514   2.646   0.313   2.317 -0.1877 -0.2775  0.8008
 5960SOL     OW29515   4.389   1.495   6.405 -0.0517 -0.0936  0.1307
 5960SOL    HW129516   4.379   1.412   6.451  0.0156 -0.2147 -0.0742
 5960SOL    HW229517   4.365   1.464   6.317 -1.5714  0.5018  0.3287
 5961SOL     OW29518   2.736   3.605   2.866 -0.0019 -0.0360 -0.1581
 5961SOL    HW129519   2.675   3.549   2.913 -0.4664  0.2634 -0.4013
 5961SOL    HW229520   2.797   3.618   2.939  0.3754  0.4005 -0.5502
 5962SOL     OW29521   1.558   4.162  16.121  0.3015  1.3231  0.6662
 5962SOL    HW129522   1.473   4.177  16.079  0.9778  0.5566 -0.9992
 5962SOL    HW229523   1.536   4.083  16.172  0.0109  0.0250 -1.4656
 5963SOL     OW29524   4.310   0.312   7.983 -0.1989 -0.5043  0.7715
 5963SOL    HW129525   4.362   0.343   8.057  2.0571 -2.1296 -0.1382
 5963SOL    HW229526   4.233   0.367   7.993 -0.9833 -0.8851 -3.3407
 5964SOL     OW29527   3.836   2.127  15.564 -0.1808 -0.3012  0.1317
 5964SOL    HW129528   3.921   2.096  15.595 -0.5480  2.3202  3.7326
 5964SOL    HW229529   3.845   2.217  15.533 -0.5975 -0.6468 -1.0120
 5965SOL     OW29530   4.726   3.454   2.182 -0.5361  0.0103 -0.1595
 5965SOL    HW129531   0.077   3.436   2.217  0.5065  2.4553 -1.5002
 5965SOL    HW229532   4.679   3.438   2.264  0.7171  1.8539  0.9332
 5966SOL     OW29533   0.048   1.426   4.583  0.1614 -0.1961 -0.1806
 5966SOL    HW129534   0.039   1.518   4.610  2.7536  0.6469 -2.1203
 5966SOL    HW229535   4.690   1.410   4.572  0.6244 -2.1681 -1.1264
 5967SOL     OW29536   2.677   3.373   8.070  0.2267  0.1066  0.3366
 5967SOL    HW129537   2.606   3.361   8.007 -0.5271  1.3256  0.9393
 5967SOL    HW229538   2.715   3.289   8.043 -1.1289 -0.3122 -0.2410
 5968SOL     OW29539   3.440   3.242   0.152  0.3113 -0.7123 -0.6573
 5968SOL    HW129540   3.425   3.149   0.166 -1.0339 -0.4240 -0.1747
 5968SOL    HW229541   3.464   3.274   0.239  0.2032  1.7412 -1.5126
 5969SOL     OW29542   2.418   0.149   3.105  0.1076  0.3312 -0.0813
 5969SOL    HW129543   2.351   0.082   3.099  1.8987 -1.3891 -0.7752
 5969SOL    HW229544   2.365   0.223   3.135  0.0751  0.8677 -1.4864
 5970SOL     OW29545   1.680   2.645  10.929 -0.1258 -0.2531  0.2715
 5970SOL    HW129546   1.725   2.671  11.009  0.9527  1.3310 -0.8525
 5970SOL    HW229547   1.699   2.552  10.918 -0.6921 -0.5141  1.5791
 5971SOL     OW29548   4.705   4.262   6.534  0.1640 -0.4072 -0.4448
 5971SOL    HW129549   0.010   4.178   6.555 -0.6661 -0.8028 -0.3868
 5971SOL    HW229550   4.670   4.240   6.447  0.6993 -1.1240 -0.4762
 5972SOL     OW29551   4.111   2.943   6.188 -0.1867 -0.5627 -0.4138
 5972SOL    HW129552   4.118   3.038   6.178  0.0180 -0.5162  0.1393
 5972SOL    HW229553   4.032   2.934   6.241 -0.3519  0.0485 -0.5613
 5973SOL     OW29554   2.656   2.116   4.096 -0.1181  0.2087 -0.1871
 5973SOL    HW129555   2.642   2.112   4.191  1.8485 -1.0773  0.0444
 5973SOL    HW229556   2.586   2.058   4.064  1.0262 -1.4662  0.3800
 5974SOL     OW29557   3.205   0.710   5.114 -0.1468  0.4066  0.1879
 5974SOL    HW129558   3.196   0.734   5.022 -0.1824  2.5829  0.7681
 5974SOL    HW229559   3.139   0.764   5.159  0.5991  0.2439  1.4999
 5975SOL     OW29560   1.945   4.459  17.403  0.1190  0.4607 -0.7762
 5975SOL    HW129561   1.901   4.527  17.453  2.6080  1.3200  0.2332
 5975SOL    HW229562   2.003   4.411  17.462 -1.5008  1.8785  1.9300
 5976SOL     OW29563   0.881   3.312  15.864  0.4920  0.0442  0.4324
 5976SOL    HW129564   0.963   3.362  15.872  0.0163  1.2026 -1.8367
 5976SOL    HW229565   0.850   3.346  15.780  0.2697  0.0324  0.5109
 5977SOL     OW29566   2.822   0.304   2.438 -0.1184  0.0392 -0.4226
 5977SOL    HW129567   2.913   0.331   2.425 -0.2474 -0.2383 -1.8923
 5977SOL    HW229568   2.837   0.221   2.483  0.7580 -1.5512 -3.6626
 5978SOL     OW29569   4.298   1.299   3.602  0.5328  0.2289  0.0389
 5978SOL    HW129570   4.214   1.325   3.640 -1.0562 -4.4695 -0.2540
 5978SOL    HW229571   4.313   1.386   3.564  0.1724  0.2754 -0.0072
 5979SOL     OW29572   0.952   3.242   2.008  0.7348  0.1038 -0.0164
 5979SOL    HW129573   1.026   3.220   2.064  0.0304  2.4973  1.8545
 5979SOL    HW229574   0.944   3.162   1.957  0.6627  0.4810 -0.6078
 5980SOL     OW29575   4.051   4.497   5.899  0.3701 -0.1212  0.4707
 5980SOL    HW129576   4.004   4.533   5.974 -0.0216  0.7785 -0.1955
 5980SOL    HW229577   3.979   4.483   5.837  1.3622  0.6294 -0.8572
 5981SOL     OW29578   0.695   0.402   3.463 -0.7604  0.0511 -0.2026
 5981SOL    HW129579   0.750   0.428   3.389  0.1505  1.0447  0.8243
 5981SOL    HW229580   0.658   0.319   3.433 -1.5279  0.0051  0.8897
 5982SOL     OW29581   3.689   2.546   6.617  0.2813 -0.4258  0.0405
 5982SOL    HW129582   3.687   2.634   6.580 -0.6523  0.1894  1.5588
 5982SOL    HW229583   3.669   2.490   6.542  0.4503 -0.6347  0.1526
 5983SOL     OW29584   2.204   1.575   5.570 -0.3149  0.0570 -0.0851
 5983SOL    HW129585   2.281   1.533   5.609 -0.5234  0.1034  0.3714
 5983SOL    HW229586   2.144   1.555   5.642  2.3203  0.5615  2.2187
 5984SOL     OW29587   3.969   2.889  16.615 -0.0483 -0.6827 -0.2790
 5984SOL    HW129588   3.984   2.962  16.555 -2.1513  0.4729  0.6306
 5984SOL    HW229589   3.892   2.865  16.563  1.2815 -0.2211 -2.4776
 5985SOL     OW29590   0.361   3.392   3.554  0.1584 -0.7764  0.3274
 5985SOL    HW129591   0.370   3.393   3.459 -0.9251  4.6864  0.2882
 5985SOL    HW229592   0.313   3.311   3.567 -0.2693 -0.4417  0.8454
 5986SOL     OW29593   0.548   1.481   7.195  0.3091 -0.2029  0.3813
 5986SOL    HW129594   0.527   1.416   7.262  0.5951  1.6136  2.2431
 5986SOL    HW229595   0.634   1.448   7.170  0.1207 -0.2108 -0.2567
 5987SOL     OW29596   4.695   2.200   5.672  0.1594  0.5395 -0.1983
 5987SOL    HW129597   4.700   2.279   5.618  2.6851 -0.1545 -0.9718
 5987SOL    HW229598   4.631   2.147   5.624 -0.7514 -0.3979  2.0315
 5988SOL     OW29599   3.984   2.667   2.644 -0.2921  0.0510  0.2107
 5988SOL    HW129600   3.899   2.623   2.652 -0.2139 -0.0394  0.5397
 5988SOL    HW229601   4.043   2.593   2.635 -0.2672 -0.0395  1.0499
 5989SOL     OW29602   3.930   0.716   2.683 -0.4137  0.1207 -0.2740
 5989SOL    HW129603   3.853   0.772   2.696  1.4428  2.4834  0.6129
 5989SOL    HW229604   3.953   0.739   2.593  0.4430 -1.2707 -0.4102
 5990SOL     OW29605   0.784   2.463   6.451 -0.4792 -0.0339 -0.0685
 5990SOL    HW129606   0.705   2.518   6.445  0.0421  0.6966 -0.2126
 5990SOL    HW229607   0.760   2.405   6.524  1.1082 -0.1867  0.3196
 5991SOL     OW29608   4.439   0.416   8.207 -0.0477  0.4580 -0.5406
 5991SOL    HW129609   4.376   0.439   8.275 -1.5492  0.2725 -1.8744
 5991SOL    HW229610   4.470   0.497   8.165 -0.1645  1.0203  0.4634
 5992SOL     OW29611   1.068   0.112   3.630 -0.1364 -0.0351 -0.4963
 5992SOL    HW129612   1.141   0.116   3.692  1.3631  0.0306 -2.2415
 5992SOL    HW229613   1.082   0.192   3.579 -0.0470 -0.2328 -0.7885
 5993SOL     OW29614   1.920   2.415   7.593 -0.5462 -0.1848  0.2883
 5993SOL    HW129615   1.933   2.491   7.537 -2.3455 -0.3748 -0.3931
 5993SOL    HW229616   1.895   2.352   7.526 -0.9352  0.5646 -0.2610
 5994SOL     OW29617   1.999   4.257  13.163 -0.2657 -0.1633 -0.2433
 5994SOL    HW129618   1.940   4.259  13.088 -1.1520 -2.2880  0.3995
 5994SOL    HW229619   1.952   4.317  13.221  1.8956 -1.4368  2.8234
 5995SOL     OW29620   1.369   0.380  12.544  0.0254 -0.7543  0.1135
 5995SOL    HW129621   1.307   0.411  12.478  0.5273 -0.1851 -0.0875
 5995SOL    HW229622   1.394   0.291  12.516 -4.0980 -1.3264 -1.8406
 5996SOL     OW29623   3.826   4.023   4.021  0.0903 -0.7509  0.1952
 5996SOL    HW129624   3.832   4.073   4.103  0.4988  2.4778 -1.8099
 5996SOL    HW229625   3.899   4.059   3.971 -2.4508  1.3793 -1.9909
 5997SOL     OW29626   2.096   3.546   6.134  0.1570 -0.2360 -0.0446
 5997SOL    HW129627   2.153   3.484   6.179 -2.6585 -0.5242  3.1516
 5997SOL    HW229628   2.145   3.572   6.056 -2.0207 -0.2450 -1.4331
 5998SOL     OW29629   3.775   0.753   4.150  0.1392  0.1427 -0.8317
 5998SOL    HW129630   3.830   0.831   4.146 -3.1237  2.4990  0.2161
 5998SOL    HW229631   3.845   0.690   4.169 -0.0012  0.2930  0.2166
 5999SOL     OW29632   2.165   4.447  12.406  0.7169 -0.7171  0.0888
 5999SOL    HW129633   2.139   4.489  12.489  0.6664  0.4352 -0.5012
 5999SOL    HW229634   2.254   4.477  12.392 -0.3449  2.1923 -0.4512
 6000SOL     OW29635   1.741   3.987   9.351  0.2241 -0.2827  0.0594
 6000SOL    HW129636   1.787   4.062   9.314  0.3347 -1.1595 -1.6182
 6000SOL    HW229637   1.781   3.909   9.311  2.1003  0.2219  0.9646
 6001SOL     OW29638   0.696   3.396   7.984  0.0626 -0.2016  0.3308
 6001SOL    HW129639   0.605   3.425   7.977  0.0066 -0.3344  0.4972
 6001SOL    HW229640   0.724   3.420   7.896 -0.5098  3.2973  1.0785
 6002SOL     OW29641   4.415   1.484   0.503  0.8110  0.3633  0.1526
 6002SOL    HW129642   4.451   1.398   0.481  1.0301  0.8514 -1.4155
 6002SOL    HW229643   4.361   1.501   0.426  1.0211  1.7818  0.3147
 6003SOL     OW29644   2.683   0.122   1.050 -0.2418  0.2800  0.2187
 6003SOL    HW129645   2.596   0.122   1.089  1.0254  1.5912  3.0094
 6003SOL    HW229646   2.667   0.169   0.968  0.4576 -0.9231 -0.6175
 6004SOL     OW29647   2.796   3.649   8.942 -0.1526  0.0898 -0.6614
 6004SOL    HW129648   2.874   3.594   8.930 -0.7242 -0.7284 -0.6300
 6004SOL    HW229649   2.800   3.672   9.034  0.5122 -0.0943 -0.6457
 6005SOL     OW29650   0.455   2.316   8.926  0.4085  0.4850 -0.3854
 6005SOL    HW129651   0.471   2.249   8.992  0.3659  1.2401  0.3857
 6005SOL    HW229652   0.536   2.318   8.875 -0.8054  1.2289 -2.3123
 6006SOL     OW29653   3.811   1.603  11.380 -0.0941  0.4443 -0.3732
 6006SOL    HW129654   3.820   1.646  11.465 -0.1019  0.2726 -0.2852
 6006SOL    HW229655   3.721   1.570  11.374 -0.3126  0.8376  0.7672
 6007SOL     OW29656   4.354   2.191   0.865  0.0685  0.7683  0.1868
 6007SOL    HW129657   4.341   2.140   0.944  1.6824 -2.4937 -1.6727
 6007SOL    HW229658   4.421   2.141   0.818 -0.8304 -1.2122  1.0420
 6008SOL     OW29659   4.703   2.353  12.030  0.0423  0.0225 -0.0517
 6008SOL    HW129660   4.617   2.314  12.015  0.5570 -0.5934 -1.3712
 6008SOL    HW229661   4.714   2.374  12.123 -0.2914  1.5897 -0.3821
 6009SOL     OW29662   4.387   4.446   7.737  0.4669 -0.5016 -0.4386
 6009SOL    HW129663   4.443   4.421   7.664  0.2482 -1.3985 -0.2989
 6009SOL    HW229664   4.455   4.452   7.805 -1.6552 -0.1514  1.6508
 6010SOL     OW29665   0.797   0.980   9.210 -0.4053 -0.7471  0.3253
 6010SOL    HW129666   0.735   0.910   9.232 -0.4260 -0.8487 -0.0638
 6010SOL    HW229667   0.746   1.048   9.167  0.0511  0.0621  1.0561
 6011SOL     OW29668   2.726   3.980  10.980  0.1741  0.0871  0.4931
 6011SOL    HW129669   2.781   4.020  10.913 -0.9163 -0.7011 -0.8714
 6011SOL    HW229670   2.731   3.890  10.946  2.5393  0.2084  0.5840
 6012SOL     OW29671   2.960   3.673  14.031 -0.2065  0.0218 -0.2530
 6012SOL    HW129672   2.938   3.605  13.968 -0.5876  0.1549 -0.2637
 6012SOL    HW229673   3.007   3.623  14.097  1.1362 -1.6286 -2.4442
 6013SOL     OW29674   3.111   3.557  14.692  0.5528  0.1095 -0.6196
 6013SOL    HW129675   3.156   3.642  14.694 -3.0033  2.0247 -1.1857
 6013SOL    HW229676   3.097   3.553  14.598 -1.2598  0.4784 -0.3654
 6014SOL     OW29677   4.618   1.610   8.180  0.1759 -0.3969  0.3490
 6014SOL    HW129678   4.698   1.633   8.226 -0.8587  1.6077  1.1263
 6014SOL    HW229679   4.553   1.650   8.238  0.3910  0.4607  0.0028
 6015SOL     OW29680   1.461   3.537   5.662  0.9391  0.1823 -0.7942
 6015SOL    HW129681   1.537   3.539   5.720  0.7174 -3.2820 -0.3840
 6015SOL    HW229682   1.458   3.622   5.618 -0.0479 -0.7466 -2.5487
 6016SOL     OW29683   1.529   1.368   8.849  0.1960 -0.1793 -0.2843
 6016SOL    HW129684   1.485   1.442   8.808 -0.9153 -1.3367 -1.2030
 6016SOL    HW229685   1.458   1.318   8.888 -1.1737 -0.2976 -2.9323
 6017SOL     OW29686   4.643   4.226  17.638  0.2498 -0.4874  0.0975
 6017SOL    HW129687   4.638   4.152  17.578  2.2974  0.9914 -1.8605
 6017SOL    HW229688   4.713   4.281  17.604  0.7407 -2.1407 -1.5808
 6018SOL     OW29689   1.594   3.828   4.324 -0.8527 -0.1624 -0.1002
 6018SOL    HW129690   1.572   3.758   4.262 -0.1393 -0.4880  0.0114
 6018SOL    HW229691   1.570   3.906   4.275 -0.1065 -0.3912 -0.8448
 6019SOL     OW29692   3.142   1.499   1.748  0.1097  0.0038 -0.0065
 6019SOL    HW129693   3.150   1.439   1.822  0.1940  0.5097  0.4016
 6019SOL    HW229694   3.059   1.469   1.713  0.6846 -1.0503 -0.4477
 6020SOL     OW29695   4.421   0.465   7.037 -0.2405  1.0310 -0.1070
 6020SOL    HW129696   4.505   0.424   7.015  0.6412  1.7896  1.8790
 6020SOL    HW229697   4.392   0.512   6.959 -1.8572 -1.1284 -0.7820
 6021SOL     OW29698   2.647   2.566  15.734 -0.1848  0.0658  0.0779
 6021SOL    HW129699   2.560   2.583  15.769 -0.5855 -0.9248 -0.4313
 6021SOL    HW229700   2.638   2.549  15.640  2.3672 -1.5743  0.1068
 6022SOL     OW29701   1.951   2.234   3.268 -0.1915 -0.0246  0.4783
 6022SOL    HW129702   1.895   2.217   3.343  1.0698  1.1484  1.6843
 6022SOL    HW229703   2.038   2.226   3.307 -0.7187 -1.4978  1.3384
 6023SOL     OW29704   3.597   4.583   5.971 -0.2841 -0.5296 -0.0956
 6023SOL    HW129705   3.628   4.572   6.061 -0.2336 -1.8873 -0.2789
 6023SOL    HW229706   3.506   4.555   5.982 -0.3985 -0.6457 -1.3496
 6024SOL     OW29707   4.522   0.422   4.503  0.1299 -0.0514  0.2192
 6024SOL    HW129708   4.611   0.453   4.487 -0.5227  0.9427 -1.4779
 6024SOL    HW229709   4.545   0.337   4.539 -0.1055 -0.4735 -0.6113
 6025SOL     OW29710   3.114   3.212   3.848 -0.3499 -0.1161  0.7807
 6025SOL    HW129711   3.120   3.248   3.937 -0.1549  1.2522  0.2174
 6025SOL    HW229712   3.065   3.283   3.805 -1.1902 -1.3324 -0.2836
 6026SOL     OW29713   4.537   1.759   8.766 -0.6478 -0.0358 -0.1557
 6026SOL    HW129714   4.613   1.817   8.772  1.1544 -2.2311 -1.9112
 6026SOL    HW229715   4.548   1.684   8.825 -0.7139 -0.6241 -0.8917
 6027SOL     OW29716   4.529   0.109   4.512 -0.2041 -0.3249 -0.3560
 6027SOL    HW129717   4.474   0.031   4.520  2.3232 -1.8533  2.1782
 6027SOL    HW229718   4.574   0.100   4.427  1.8580  3.0745  0.3853
 6028SOL     OW29719   0.173   3.413  15.064 -0.1211 -0.4313 -0.2837
 6028SOL    HW129720   0.147   3.326  15.094  1.3735 -0.5121  0.7620
 6028SOL    HW229721   0.232   3.447  15.131 -0.0368 -2.0012  0.4324
 6029SOL     OW29722   2.974   3.638   3.045 -0.5426 -0.1075  0.2890
 6029SOL    HW129723   3.063   3.619   3.076 -0.9828 -1.8202  0.4796
 6029SOL    HW229724   2.983   3.730   3.017 -0.6999  0.2942  1.5822
 6030SOL     OW29725   2.158   2.252  14.947  0.0148  0.1459 -0.6670
 6030SOL    HW129726   2.076   2.239  14.899  1.2661  0.2477 -2.8262
 6030SOL    HW229727   2.165   2.346  14.963  1.1616 -0.2766  1.3020
 6031SOL     OW29728   3.423   4.570   4.059 -0.5966 -0.6169 -0.2866
 6031SOL    HW129729   3.375   4.496   4.021 -2.4054  0.1943  0.4321
 6031SOL    HW229730   3.350   4.621   4.093 -1.6593 -2.0191 -0.4467
 6032SOL     OW29731   4.444   1.164   0.114 -0.5269 -0.1873 -0.4437
 6032SOL    HW129732   4.424   1.102   0.183  0.6228  0.3910  0.4167
 6032SOL    HW229733   4.494   1.113   0.050 -0.3236  0.6881 -0.9928
 6033SOL     OW29734   0.418   3.882  15.693 -0.3092 -0.4870 -0.0196
 6033SOL    HW129735   0.370   3.939  15.633 -1.9031  1.9743  3.6079
 6033SOL    HW229736   0.380   3.795  15.695 -0.9301 -0.2206 -0.2731
 6034SOL     OW29737   4.534   3.736  11.825  0.2979 -0.4449  0.1669
 6034SOL    HW129738   4.465   3.786  11.782  0.3308 -0.7284 -0.2192
 6034SOL    HW229739   4.485   3.680  11.885  0.6117  1.4318  2.1519
 6035SOL     OW29740   2.182   3.753   0.104  0.2610 -0.7966 -0.3072
 6035SOL    HW129741   2.094   3.788   0.118 -1.1422 -2.9890 -3.5527
 6035SOL    HW229742   2.239   3.813   0.152 -3.8067 -0.4744  4.0935
 6036SOL     OW29743   0.520   0.242  12.716  0.8180  0.1628 -0.0930
 6036SOL    HW129744   0.544   0.214  12.628  1.5207  0.8590 -0.1118
 6036SOL    HW229745   0.585   0.309  12.738 -3.2844  4.2453 -0.3106
 6037SOL     OW29746   3.915   1.731  11.607 -0.0369  0.3086  0.0118
 6037SOL    HW129747   3.917   1.722  11.702  1.6059 -0.4025 -0.1001
 6037SOL    HW229748   4.006   1.726  11.580  0.1521 -0.1991  0.7351
 6038SOL     OW29749   1.936   4.226  15.883  0.3584  0.3401 -0.0108
 6038SOL    HW129750   1.896   4.310  15.861 -1.1641 -0.3781  0.0135
 6038SOL    HW229751   1.953   4.186  15.797  1.9903  3.1628 -1.0084
 6039SOL     OW29752   3.955   3.299   0.199  0.0865 -0.4701 -0.4734
 6039SOL    HW129753   3.994   3.241   0.133  2.5421  1.3991 -0.6728
 6039SOL    HW229754   3.864   3.306   0.168 -0.3314 -0.7600  0.6958
 6040SOL     OW29755   4.594   0.807  14.108  0.4730  0.4476 -0.2616
 6040SOL    HW129756   4.605   0.737  14.172  2.5535 -0.1708 -1.2649
 6040SOL    HW229757   4.506   0.833  14.135  0.3688 -1.5047  1.2355
 6041SOL     OW29758   3.368   3.984   3.025  0.7630 -0.0736 -0.1254
 6041SOL    HW129759   3.359   3.943   2.939 -2.1959  0.9274 -0.3254
 6041SOL    HW229760   3.362   4.067   2.978 -0.3118 -0.3778 -0.5181
 6042SOL     OW29761   2.264   4.581   6.129 -0.4866  0.6458  0.2369
 6042SOL    HW129762   2.185   4.564   6.181 -0.3538 -3.0741 -0.7638
 6042SOL    HW229763   2.323   4.638   6.178 -1.0145  0.1639  1.4116
 6043SOL     OW29764   0.645   2.265   2.056 -0.0130 -0.0999 -0.0968
 6043SOL    HW129765   0.664   2.244   1.964 -0.7739  0.4681 -0.3894
 6043SOL    HW229766   0.733   2.297   2.073  0.4549  0.3384 -3.3668
 6044SOL     OW29767   0.146   3.762  13.125 -0.1782 -0.2341 -0.1495
 6044SOL    HW129768   0.069   3.753  13.069 -1.1228  0.6346  1.0190
 6044SOL    HW229769   0.111   3.831  13.182  1.5781 -0.5238  1.2866
 6045SOL     OW29770   2.955   1.376   1.620 -0.2330  0.4542  0.1838
 6045SOL    HW129771   2.883   1.318   1.644 -0.2874  2.1527  4.0241
 6045SOL    HW229772   2.997   1.341   1.541 -2.3597 -0.3228 -0.6005
 6046SOL     OW29773   0.145   1.482  10.039 -0.0334 -0.1204  0.4267
 6046SOL    HW129774   0.100   1.445  10.115 -2.0768 -1.7462 -1.5847
 6046SOL    HW229775   0.215   1.416  10.034  0.4461  0.4532 -0.3111
 6047SOL     OW29776   3.713   0.525   6.005  0.3579 -0.1664  0.1472
 6047SOL    HW129777   3.681   0.506   5.917 -0.9242  0.3803  0.4998
 6047SOL    HW229778   3.627   0.510   6.044 -0.0845  0.6747 -0.5013
 6048SOL     OW29779   3.501   2.688   4.293 -0.0787  0.2112  0.3322
 6048SOL    HW129780   3.452   2.639   4.227  1.4519 -0.0279 -0.6057
 6048SOL    HW229781   3.436   2.688   4.364 -0.7289 -0.6560 -0.2644
 6049SOL     OW29782   0.839   3.721   3.128  0.5252 -0.0157  0.7971
 6049SOL    HW129783   0.908   3.744   3.066  1.0405 -1.1271  0.9550
 6049SOL    HW229784   0.760   3.753   3.085  0.1524 -3.0308 -0.7596
 6050SOL     OW29785   3.295   2.451   8.144  0.2309 -0.0065 -0.4098
 6050SOL    HW129786   3.306   2.380   8.080 -2.9531 -0.7481 -0.0970
 6050SOL    HW229787   3.241   2.505   8.087 -0.2025 -0.3773 -0.3501
 6051SOL     OW29788   3.609   2.675   3.653  0.0741 -0.1600  0.1325
 6051SOL    HW129789   3.607   2.741   3.584 -0.1436 -0.4515 -0.1383
 6051SOL    HW229790   3.585   2.594   3.610 -1.1837  0.0338  0.4547
 6052SOL     OW29791   3.171   1.009   8.708  0.4760 -0.4297 -0.1046
 6052SOL    HW129792   3.220   0.930   8.685  0.4100 -0.1238 -1.3008
 6052SOL    HW229793   3.147   0.991   8.799 -1.7625 -2.8268 -1.1819
 6053SOL     OW29794   4.188   1.393  10.199  1.0263  0.0104  0.0297
 6053SOL    HW129795   4.093   1.384  10.202  0.8728  0.7390 -2.0718
 6053SOL    HW229796   4.198   1.485  10.176 -0.7655  0.3554  0.6617
 6054SOL     OW29797   2.183   4.046   8.271 -0.5724  0.7032  0.4057
 6054SOL    HW129798   2.108   4.043   8.211  0.3833 -1.1362 -0.7108
 6054SOL    HW229799   2.170   3.958   8.307 -1.0364 -0.1869 -1.9195
 6055SOL     OW29800   2.977   4.074  15.601  0.5225  0.6343 -0.0197
 6055SOL    HW129801   2.945   4.031  15.680 -1.2644  2.5040  0.2722
 6055SOL    HW229802   3.066   4.090  15.630 -0.0422  1.1679  1.3940
 6056SOL     OW29803   1.653   1.310  13.050 -0.4029 -0.1247 -0.2380
 6056SOL    HW129804   1.723   1.310  12.985 -0.6954  1.2613 -0.5599
 6056SOL    HW229805   1.585   1.284  12.988 -0.7622 -1.9547  0.9380
 6057SOL     OW29806   2.421   1.406  13.159 -0.9788  0.3846 -0.1581
 6057SOL    HW129807   2.394   1.335  13.217  0.7604 -0.5382 -0.4630
 6057SOL    HW229808   2.341   1.417  13.108 -1.6128  2.3527  1.2476
 6058SOL     OW29809   1.666   2.702   5.550 -0.2066  0.7175 -0.0651
 6058SOL    HW129810   1.632   2.774   5.498  0.3995  0.4843 -0.7747
 6058SOL    HW229811   1.661   2.742   5.637  2.5114 -0.2490  0.5175
 6059SOL     OW29812   0.690   4.710  13.232  0.4511  0.1779 -0.2095
 6059SOL    HW129813   0.694   0.045  13.169 -0.1982  0.3225 -0.0920
 6059SOL    HW229814   0.602   4.734  13.260  0.7438  1.6358 -0.5255
 6060SOL     OW29815   2.280   0.607  12.766 -0.0897 -0.1698 -0.1818
 6060SOL    HW129816   2.197   0.559  12.755 -0.1507 -0.3609  1.0343
 6060SOL    HW229817   2.270   0.649  12.851  0.9313  1.5226 -0.9199
 6061SOL     OW29818   1.318   3.605   8.550  0.0505 -0.5055  0.0133
 6061SOL    HW129819   1.386   3.669   8.530  1.5856 -2.1504 -0.0126
 6061SOL    HW229820   1.262   3.611   8.473 -1.1448  0.4423  0.9699
 6062SOL     OW29821   3.870   2.290   7.772 -0.8720 -0.0434 -0.4333
 6062SOL    HW129822   3.870   2.365   7.831 -2.7389  1.0830 -1.8804
 6062SOL    HW229823   3.830   2.344   7.703 -1.2529  0.8203  0.4716
 6063SOL     OW29824   3.436   0.007   9.969 -0.1138 -0.0533  0.1388
 6063SOL    HW129825   3.408   4.664   9.924 -1.5152  0.7456 -0.4123
 6063SOL    HW229826   3.352   0.043  10.000 -0.2933  1.2297 -1.7878
 6064SOL     OW29827   0.184   4.337   8.871  0.2554 -0.4045  0.0828
 6064SOL    HW129828   0.270   4.377   8.887  0.3113 -0.0835 -1.0578
 6064SOL    HW229829   0.213   4.282   8.798  1.6214  0.3084  0.0969
 6065SOL     OW29830   4.583   2.254   3.204  0.3523  0.2984 -0.3665
 6065SOL    HW129831   4.572   2.233   3.111 -2.8694  0.3774 -0.0091
 6065SOL    HW229832   4.515   2.199   3.243  0.7768  0.5052  0.6722
 6066SOL     OW29833   2.730   2.556   3.373 -0.5723 -0.5832  0.1184
 6066SOL    HW129834   2.783   2.494   3.423  0.8881 -0.2367 -0.9922
 6066SOL    HW229835   2.750   2.639   3.416 -0.6884 -0.0356 -0.8731
 6067SOL     OW29836   0.578   3.144   3.838  0.1078 -0.2679  0.1287
 6067SOL    HW129837   0.671   3.121   3.844 -0.0544 -0.9142  0.0905
 6067SOL    HW229838   0.571   3.232   3.876 -1.2964 -0.9744  1.4767
 6068SOL     OW29839   0.181   0.821   3.471 -0.0368 -0.4497  0.4281
 6068SOL    HW129840   0.174   0.731   3.438 -1.2704 -0.0283 -0.4853
 6068SOL    HW229841   0.269   0.839   3.439  0.1663  2.3781  2.5919
 6069SOL     OW29842   1.911   0.581   9.006 -0.0757  0.4684 -0.1527
 6069SOL    HW129843   1.955   0.506   8.968 -0.5857  0.6191 -1.0439
 6069SOL    HW229844   1.831   0.544   9.045 -1.2808  0.3831 -2.7015
 6070SOL     OW29845   3.194   2.147   1.837 -0.2311 -0.1091  0.1836
 6070SOL    HW129846   3.170   2.056   1.821 -2.4951  0.4392  0.3195
 6070SOL    HW229847   3.142   2.165   1.916 -0.4945 -0.0100 -0.0112
 6071SOL     OW29848   3.654   2.625  15.476 -0.2863  0.2069  0.5146
 6071SOL    HW129849   3.645   2.719  15.460 -0.2425  0.1447  0.1229
 6071SOL    HW229850   3.746   2.617  15.501 -0.0351 -1.6061 -1.0009
 6072SOL     OW29851   1.492   0.307   6.051 -0.0533 -0.3311  0.6508
 6072SOL    HW129852   1.445   0.389   6.040  1.0289  0.4792  2.0219
 6072SOL    HW229853   1.491   0.291   6.146  0.6846 -1.8477  0.4041
 6073SOL     OW29854   0.494   0.449   0.018  0.3348 -0.5223  0.1455
 6073SOL    HW129855   0.540   0.521  17.717  0.0960 -0.7115 -0.4130
 6073SOL    HW229856   0.441   0.419  17.687  0.1322 -1.1773  0.5585
 6074SOL     OW29857   4.526   3.486  11.613 -0.2860 -0.0502 -0.0270
 6074SOL    HW129858   4.455   3.441  11.659 -0.3722  0.0486 -0.0640
 6074SOL    HW229859   4.587   3.495  11.687 -1.6256 -0.2333  1.0996
 6075SOL     OW29860   2.855   0.347   5.897  0.1376 -0.0964  0.3711
 6075SOL    HW129861   2.909   0.289   5.844 -0.4123 -1.1105  0.9195
 6075SOL    HW229862   2.781   0.352   5.836 -0.6819 -1.0785  1.2775
 6076SOL     OW29863   1.610   3.911   6.526  0.3360 -0.1891  0.4281
 6076SOL    HW129864   1.619   3.869   6.611  3.5618 -2.9245 -1.2726
 6076SOL    HW229865   1.701   3.925   6.501 -0.3692 -0.0220 -2.0941
 6077SOL     OW29866   3.628   2.876   4.712 -0.5799  0.4461 -0.0693
 6077SOL    HW129867   3.692   2.887   4.642  1.5154  1.5370  2.0309
 6077SOL    HW229868   3.573   2.953   4.696  1.6440  1.9768 -0.2698
 6078SOL     OW29869   3.122   3.305   8.981 -0.0521  0.3017  0.2027
 6078SOL    HW129870   3.090   3.306   9.071  0.9168  2.3295  0.5274
 6078SOL    HW229871   3.181   3.230   8.983 -0.8984 -0.3390  1.5220
 6079SOL     OW29872   1.976   2.923   1.705 -0.2701  0.0624  0.0372
 6079SOL    HW129873   1.894   2.959   1.739 -0.3743  0.5553 -0.7509
 6079SOL    HW229874   1.995   2.985   1.635 -1.1285 -0.6791 -0.8553
 6080SOL     OW29875   1.114   0.951   7.294  0.6618  0.1612 -0.1530
 6080SOL    HW129876   1.115   0.907   7.209 -0.8359 -3.3102  1.6272
 6080SOL    HW229877   1.207   0.962   7.314 -0.1666  0.3484  3.6533
 6081SOL     OW29878   2.677   0.189   5.494  0.2999  0.0396  0.2586
 6081SOL    HW129879   2.717   0.272   5.471  1.4433  0.0542  2.2245
 6081SOL    HW229880   2.724   0.124   5.442  0.9385 -0.6454  1.6653
 6082SOL     OW29881   2.618   0.813   1.332  0.2035  0.1085  0.2524
 6082SOL    HW129882   2.697   0.762   1.349 -0.7646 -1.3571  0.4752
 6082SOL    HW229883   2.604   0.787   1.241  1.7113  1.7425 -0.4241
 6083SOL     OW29884   4.546   1.640   3.843  0.0865  0.3237  0.2997
 6083SOL    HW129885   4.482   1.709   3.824 -0.7013 -0.9815 -1.7462
 6083SOL    HW229886   4.486   1.569   3.865  0.2529 -0.1289 -0.6776
 6084SOL     OW29887   0.965   3.548   2.624  0.8073  0.1423 -0.1486
 6084SOL    HW129888   0.875   3.519   2.611  0.9905 -0.0293 -1.0051
 6084SOL    HW229889   1.017   3.493   2.565  0.7594 -1.9556  1.7308
 6085SOL     OW29890   0.220   1.476   1.670 -0.0468 -0.2440  0.0038
 6085SOL    HW129891   0.205   1.446   1.760 -0.5261  1.1609  0.3887
 6085SOL    HW229892   0.294   1.423   1.642  1.6663  1.3810  1.4985
 6086SOL     OW29893   0.071   0.630   3.733 -0.1369  0.5290 -0.2404
 6086SOL    HW129894   0.025   0.571   3.793  0.0686  0.1501 -0.4526
 6086SOL    HW229895   4.735   0.683   3.699  1.0351  1.1468 -1.7415
 6087SOL     OW29896   4.148   1.703  10.951  0.3996 -0.0433  0.2119
 6087SOL    HW129897   4.213   1.703  10.882  0.6936 -1.7540  0.4966
 6087SOL    HW229898   4.102   1.783  10.924  0.3183  0.7119  2.6040
 6088SOL     OW29899   2.763   4.290   1.817 -0.2736 -0.3587 -0.1554
 6088SOL    HW129900   2.855   4.267   1.826  0.2665  2.4815  1.5999
 6088SOL    HW229901   2.779   4.378   1.782 -1.0494 -0.1665 -0.0282
 6089SOL     OW29902   1.269   4.038   2.154  0.0093  0.1515  0.0203
 6089SOL    HW129903   1.309   4.120   2.123 -0.3510  0.3200 -0.0048
 6089SOL    HW229904   1.199   4.078   2.205 -0.6727 -2.0349  0.7646
 6090SOL     OW29905   2.978   3.692   7.857  0.1883 -0.4992 -0.0739
 6090SOL    HW129906   2.882   3.700   7.859  0.3187  0.6617  1.5190
 6090SOL    HW229907   2.989   3.647   7.774 -1.1059  0.5428 -0.8133
 6091SOL     OW29908   0.061   1.243  13.730 -0.0818  0.6013 -0.4244
 6091SOL    HW129909   0.087   1.157  13.763 -0.8564  1.7000  3.0029
 6091SOL    HW229910   0.020   1.209  13.650  0.3717 -0.4060 -0.2235
 6092SOL     OW29911   1.801   2.838  10.320  0.5017  0.0552  0.1204
 6092SOL    HW129912   1.767   2.772  10.381 -3.3839  0.1323 -1.9435
 6092SOL    HW229913   1.721   2.889  10.306 -0.4529 -1.3187  0.6160
 6093SOL     OW29914   1.769   4.318  13.028 -0.0590 -0.4243 -0.5596
 6093SOL    HW129915   1.706   4.390  13.018  0.2573  0.0288  0.6511
 6093SOL    HW229916   1.715   4.242  13.046 -0.5716  0.0329 -0.1446
 6094SOL     OW29917   0.428   3.333   1.387  0.3653 -0.3794  0.3522
 6094SOL    HW129918   0.338   3.314   1.413  0.0101  0.7593 -0.0296
 6094SOL    HW229919   0.419   3.357   1.295  0.2400 -0.1366  0.4253
 6095SOL     OW29920   3.308   1.074   0.527 -0.0918 -0.7056 -0.1439
 6095SOL    HW129921   3.282   1.126   0.603 -0.3985 -1.7386  0.4679
 6095SOL    HW229922   3.402   1.081   0.517  0.0832  0.2031  2.1653
 6096SOL     OW29923   3.120   2.320   2.303  0.3094 -0.3135 -0.3393
 6096SOL    HW129924   3.066   2.397   2.281  0.2351 -0.5002 -0.8188
 6096SOL    HW229925   3.094   2.253   2.239  0.2398  0.8582 -1.5484
 6097SOL     OW29926   1.999   1.368   1.956  0.7656 -0.5044  0.0485
 6097SOL    HW129927   2.000   1.331   2.044  0.9505  0.1162  0.3012
 6097SOL    HW229928   2.062   1.307   1.917  2.3113  1.3821 -0.3865
 6098SOL     OW29929   3.761   3.356   7.962 -0.3723 -0.3407 -0.2999
 6098SOL    HW129930   3.748   3.366   7.867 -1.6977 -0.5378 -0.1354
 6098SOL    HW229931   3.835   3.294   7.960 -0.8721 -0.9556  0.3102
 6099SOL     OW29932   3.924   3.233  14.686 -0.0672 -0.5439 -0.1713
 6099SOL    HW129933   4.005   3.186  14.706  0.3892  0.4363  0.3123
 6099SOL    HW229934   3.933   3.234  14.591 -0.7365 -2.2140 -0.2375
 6100SOL     OW29935   3.706   1.003   5.712  0.3183  0.3435 -0.1249
 6100SOL    HW129936   3.636   1.063   5.737 -0.2493 -0.7492  0.8953
 6100SOL    HW229937   3.650   0.933   5.681  1.2414 -1.5087  2.4008
 6101SOL     OW29938   3.461   2.981  17.482  0.3960  0.4167 -0.5029
 6101SOL    HW129939   3.464   3.071  17.515  1.0980  0.2090  0.0093
 6101SOL    HW229940   3.481   2.931  17.562  1.4675  0.4562 -0.7451
 6102SOL     OW29941   1.522   4.579   6.671  0.7736  0.3068 -0.2215
 6102SOL    HW129942   1.571   4.499   6.649 -0.8072 -0.8726  0.4963
 6102SOL    HW229943   1.545   4.635   6.597 -2.3395  0.3778 -1.1410
 6103SOL     OW29944   2.885   3.699   5.531  0.7414 -0.3010  0.0117
 6103SOL    HW129945   2.797   3.675   5.502 -0.1661 -0.0132  2.5641
 6103SOL    HW229946   2.912   3.751   5.455  1.8294 -0.7690  0.0858
 6104SOL     OW29947   0.571   0.312   4.677 -0.0633  0.2643 -0.3029
 6104SOL    HW129948   0.526   0.376   4.732  0.4043 -1.0430  1.5831
 6104SOL    HW229949   0.569   0.243   4.743 -2.9918  0.1195 -0.5191
 6105SOL     OW29950   3.235   3.744  11.799 -0.3385 -0.2868 -0.1688
 6105SOL    HW129951   3.218   3.771  11.709  0.0802 -0.1790 -0.2186
 6105SOL    HW229952   3.302   3.804  11.831 -0.5643 -0.0975 -0.0535
 6106SOL     OW29953   2.510   3.673   8.384 -0.3832  0.1464  0.6226
 6106SOL    HW129954   2.587   3.694   8.437  0.4690 -1.4858  0.0522
 6106SOL    HW229955   2.521   3.578   8.390  3.7971  0.4327 -2.9477
 6107SOL     OW29956   2.378   4.662  11.170 -0.3503  0.0388 -0.3301
 6107SOL    HW129957   2.318   4.734  11.183 -0.4521 -0.3727  1.4827
 6107SOL    HW229958   2.333   4.578  11.183  1.1829 -0.3481  2.5716
 6108SOL     OW29959   3.974   0.043  14.422 -0.0486  0.7519 -0.3086
 6108SOL    HW129960   4.016   4.730  14.351  0.6612 -1.1327  1.4091
 6108SOL    HW229961   3.923   0.115  14.386  0.4615  1.5595  0.5850
 6109SOL     OW29962   2.187   3.805   3.780  0.2158 -0.6884  0.5144
 6109SOL    HW129963   2.266   3.751   3.784  0.8411  0.0064 -2.0650
 6109SOL    HW229964   2.175   3.845   3.866  1.1649  0.6833  0.0129
 6110SOL     OW29965   2.687   4.039   3.797 -0.4660 -0.4020  0.1578
 6110SOL    HW129966   2.714   4.032   3.706 -0.3943 -2.1643  0.3193
 6110SOL    HW229967   2.748   4.102   3.836  0.7186 -1.1180 -0.5305
 6111SOL     OW29968   2.336   4.499   4.683 -0.2420 -0.6957 -0.1916
 6111SOL    HW129969   2.265   4.443   4.714 -0.1511 -0.5020  0.3641
 6111SOL    HW229970   2.394   4.507   4.759 -0.4726  0.2751 -0.1254
 6112SOL     OW29971   2.530   1.331   0.554 -0.4956 -0.0191  0.0102
 6112SOL    HW129972   2.440   1.362   0.543 -0.5873 -0.1642  0.3586
 6112SOL    HW229973   2.535   1.279   0.473 -2.4712 -0.3282  0.0763
 6113SOL     OW29974   3.391   0.306  15.238  0.5579  0.5252 -0.3545
 6113SOL    HW129975   3.315   0.254  15.210  0.2630  1.1142 -0.6527
 6113SOL    HW229976   3.463   0.278  15.181 -0.8070  1.3748 -2.5020
 6114SOL     OW29977   1.400   1.224   1.547 -0.2149 -0.4947 -0.7800
 6114SOL    HW129978   1.349   1.266   1.478  0.7151  1.9543  0.0629
 6114SOL    HW229979   1.350   1.240   1.627  0.4439  1.8052 -0.8453
 6115SOL     OW29980   0.624   4.661   2.296  0.0463 -0.8314 -0.1804
 6115SOL    HW129981   0.537   4.698   2.311  0.1225 -1.2238  1.1815
 6115SOL    HW229982   0.680   0.002   2.307 -0.9238  0.0962 -1.6164
 6116SOL     OW29983   3.783   0.518   2.458  0.5075  0.7420  0.2422
 6116SOL    HW129984   3.843   0.551   2.391  2.9031 -3.0178  0.5463
 6116SOL    HW229985   3.801   0.583   2.526 -0.7189  0.5479  0.7577
 6117SOL     OW29986   1.715   4.349   9.080  0.2890  0.3783  0.0535
 6117SOL    HW129987   1.687   4.437   9.055  1.8430  0.9367  0.3260
 6117SOL    HW229988   1.709   4.351   9.176 -1.9449 -0.1901 -0.0667
 6118SOL     OW29989   4.077   2.892   2.845 -0.1534 -0.1243 -0.7086
 6118SOL    HW129990   4.133   2.837   2.790  1.4491 -0.9269  1.7009
 6118SOL    HW229991   4.142   2.919   2.911 -2.8787  1.5107  1.2865
 6119SOL     OW29992   0.698   0.122   8.857 -0.2298  0.2982  0.0582
 6119SOL    HW129993   0.619   0.169   8.830 -3.7041 -3.3456  3.8977
 6119SOL    HW229994   0.702   0.052   8.792  2.4620  1.2946 -0.8371
 6120SOL     OW29995   0.155   0.102   1.638 -0.5632 -0.9000  0.8700
 6120SOL    HW129996   0.152   0.066   1.726  0.3857 -1.4428  0.6882
 6120SOL    HW229997   0.219   0.172   1.651 -1.1061 -0.1124 -0.6371
 6121SOL     OW29998   1.771   4.242  14.179  0.0647  0.1498  0.1560
 6121SOL    HW129999   1.832   4.168  14.173  1.4384  1.0441  2.9732
 6121SOL    HW230000   1.832   4.314  14.198  0.2668 -0.7605  2.9451
 6122SOL     OW30001   1.613   1.196   1.889  0.4386  0.2073  0.1634
 6122SOL    HW130002   1.630   1.150   1.971 -0.6700 -0.1024  0.2193
 6122SOL    HW230003   1.558   1.272   1.906 -1.6724 -0.3330 -4.1782
 6123SOL     OW30004   3.443   2.507   6.052  0.2110  0.2487 -0.0272
 6123SOL    HW130005   3.357   2.548   6.057  0.5694  0.8626  1.1113
 6123SOL    HW230006   3.417   2.440   5.989 -2.0231  1.0623  0.0347
 6124SOL     OW30007   1.271   1.595   8.343  0.0963  0.0860  0.3770
 6124SOL    HW130008   1.236   1.671   8.296  0.5538 -2.1774 -3.6074
 6124SOL    HW230009   1.321   1.632   8.416  1.6282  2.1243 -1.6881
 6125SOL     OW30010   4.514   3.346   6.621  0.0314  0.2316 -0.0709
 6125SOL    HW130011   4.450   3.323   6.554 -1.9111 -0.6342  2.1078
 6125SOL    HW230012   4.594   3.323   6.572 -1.0601 -1.2609 -1.1501
 6126SOL     OW30013   1.294   3.104   9.397  0.2149 -0.7959  0.2857
 6126SOL    HW130014   1.235   3.093   9.323  0.5597 -0.7724  0.0109
 6126SOL    HW230015   1.376   3.064   9.370  0.5279  0.5522 -0.7257
 6127SOL     OW30016   2.327   3.334   6.754  0.1911 -0.0635 -0.3451
 6127SOL    HW130017   2.401   3.274   6.750 -0.1099 -0.3511 -1.4583
 6127SOL    HW230018   2.254   3.273   6.751 -0.7981  1.1276 -0.4603
 6128SOL     OW30019   3.280   4.576   7.989 -0.5136  0.6506 -0.0327
 6128SOL    HW130020   3.192   4.541   8.002 -0.7027  1.7519  1.5682
 6128SOL    HW230021   3.326   4.554   8.070 -0.1987  0.7444 -0.1853
 6129SOL     OW30022   3.815   1.578   5.529  0.4155  0.1515 -0.5518
 6129SOL    HW130023   3.783   1.668   5.519 -1.9744 -0.4843  1.4229
 6129SOL    HW230024   3.874   1.574   5.604 -1.3570  1.4189  0.9326
 6130SOL     OW30025   1.685   1.048   2.118 -0.4923 -0.0891  0.0301
 6130SOL    HW130026   1.715   1.080   2.203  3.6489 -0.8730 -1.1277
 6130SOL    HW230027   1.747   0.983   2.087  0.3292  0.2275  1.0240
 6131SOL     OW30028   2.445   4.604   4.103 -0.5088  0.2141  0.1894
 6131SOL    HW130029   2.355   4.591   4.135 -0.8228  1.8326  0.0064
 6131SOL    HW230030   2.483   4.677   4.151  0.1105 -0.3578  0.5575
 6132SOL     OW30031   3.750   2.842   5.133  0.0571 -0.0658  0.4594
 6132SOL    HW130032   3.838   2.872   5.110 -0.1254  1.1921  1.4413
 6132SOL    HW230033   3.770   2.773   5.196 -0.5161 -1.1601 -0.5521
 6133SOL     OW30034   2.715   0.030  11.431  0.4477  0.1811 -0.2295
 6133SOL    HW130035   2.784   0.096  11.416 -2.9924  3.7719 -0.2424
 6133SOL    HW230036   2.758   4.683  11.412  1.1535 -0.3875  3.8760
 6134SOL     OW30037   4.557   3.409   6.139  0.1676  0.5953  0.1257
 6134SOL    HW130038   4.646   3.444   6.132  0.4332 -0.0700  0.2139
 6134SOL    HW230039   4.519   3.456   6.214  0.8198  0.5499  0.4861
 6135SOL     OW30040   4.504   1.114  16.700 -0.2303 -0.5497  0.0285
 6135SOL    HW130041   4.459   1.047  16.650  1.9284 -1.9527 -0.0328
 6135SOL    HW230042   4.435   1.127  16.766  1.4470  1.0656  1.4892
 6136SOL     OW30043   1.854   0.915   0.844 -0.1689 -0.4026 -1.0103
 6136SOL    HW130044   1.767   0.881   0.824 -0.5824  0.5612 -0.8221
 6136SOL    HW230045   1.836   1.004   0.816  2.2529  0.4199  0.0059
 6137SOL     OW30046   0.775   2.756  11.755 -0.2668 -0.1276  0.2050
 6137SOL    HW130047   0.714   2.828  11.740  0.7140  0.6106 -0.1979
 6137SOL    HW230048   0.718   2.679  11.753 -0.6851  0.1517  1.3090
 6138SOL     OW30049   0.329   2.759   6.009  0.3743  0.2933  0.5630
 6138SOL    HW130050   0.350   2.790   5.921  1.3644  0.7459  0.9575
 6138SOL    HW230051   0.420   2.746   6.035  1.1096  3.6511 -0.2868
 6139SOL     OW30052   0.837   2.387   5.933  0.5502  0.3608  0.0376
 6139SOL    HW130053   0.841   2.360   6.024 -1.4350 -0.4973 -0.1310
 6139SOL    HW230054   0.878   2.319   5.879 -1.4444  0.9713 -2.2718
 6140SOL     OW30055   3.698   3.564  15.466  0.1244 -0.2170 -0.2793
 6140SOL    HW130056   3.660   3.488  15.422  1.2306 -1.9466  1.7112
 6140SOL    HW230057   3.677   3.623  15.394 -1.1182 -0.7862 -0.3808
 6141SOL     OW30058   3.503   2.443   6.797  0.4654  0.3206 -0.5183
 6141SOL    HW130059   3.574   2.462   6.735  2.4583 -0.7036  1.4445
 6141SOL    HW230060   3.439   2.397   6.743  1.1795  0.8906 -1.8594
 6142SOL     OW30061   0.234   3.365  13.570 -0.9018  0.6789 -0.1951
 6142SOL    HW130062   0.178   3.442  13.579 -0.7969  0.6781  0.5188
 6142SOL    HW230063   0.161   3.304  13.561 -0.6203  0.3059  0.0812
 6143SOL     OW30064   3.270   1.877   2.765  0.2066  0.1357  0.0270
 6143SOL    HW130065   3.220   1.949   2.727  0.0580 -1.7545 -3.2978
 6143SOL    HW230066   3.202   1.815   2.790 -0.3518  0.9797  0.6065
 6144SOL     OW30067   4.324   0.218   5.922 -0.0075 -0.1295  0.0530
 6144SOL    HW130068   4.308   0.254   6.009  2.4979 -0.2678  0.5673
 6144SOL    HW230069   4.415   0.239   5.902  0.0812 -0.5218  0.0564
 6145SOL     OW30070   4.232   0.859   1.705 -0.4621  0.4780  0.6478
 6145SOL    HW130071   4.321   0.888   1.724  0.1030  0.7667 -2.4560
 6145SOL    HW230072   4.217   0.915   1.628  0.2235 -0.3285 -0.0672
 6146SOL     OW30073   3.514   2.382   5.398 -0.7812  0.0823  0.2868
 6146SOL    HW130074   3.560   2.303   5.427 -1.7654 -0.0499  1.4980
 6146SOL    HW230075   3.573   2.418   5.331  1.6653  0.0886  2.4126
 6147SOL     OW30076   0.588   2.835   9.104  0.3537 -0.0351  0.3299
 6147SOL    HW130077   0.575   2.746   9.138 -0.6751 -0.2901 -0.7203
 6147SOL    HW230078   0.507   2.849   9.055  1.0611 -0.8036 -1.0535
 6148SOL     OW30079   1.507   3.814  16.839 -0.3854  0.1728  0.3672
 6148SOL    HW130080   1.549   3.900  16.842 -1.6991  0.8891 -1.8381
 6148SOL    HW230081   1.581   3.754  16.832 -1.2614 -0.7413 -1.0466
 6149SOL     OW30082   1.481   0.201  16.699 -0.1810  0.2620 -0.1666
 6149SOL    HW130083   1.552   0.152  16.658 -0.4039  0.1632 -0.4359
 6149SOL    HW230084   1.448   0.133  16.758  2.8448 -2.4719 -1.6276
 6150SOL     OW30085   4.615   2.792  15.825 -0.0623 -0.2762  0.4096
 6150SOL    HW130086   4.585   2.718  15.877  0.7627 -1.4074 -0.7182
 6150SOL    HW230087   4.680   2.770  15.758  0.9168  2.7248  0.3823
 6151SOL     OW30088   2.214   2.945   7.265  0.4688 -0.4569  0.3248
 6151SOL    HW130089   2.143   3.005   7.288  0.0775 -0.9465  0.4052
 6151SOL    HW230090   2.203   2.882   7.336 -0.1711  0.1324  0.7567
 6152SOL     OW30091   3.242   1.819   2.341 -0.0340 -0.2007 -0.1158
 6152SOL    HW130092   3.307   1.759   2.378  0.4790  0.6724  0.4338
 6152SOL    HW230093   3.297   1.887   2.301  1.0124 -3.1589 -3.6743
 6153SOL     OW30094   1.903   3.807   8.591 -0.4466  0.0181  0.0858
 6153SOL    HW130095   1.938   3.762   8.515 -0.3006  0.0630  0.1269
 6153SOL    HW230096   1.874   3.741   8.654  0.4485 -0.1571  0.3053
 6154SOL     OW30097   0.168   0.786   1.610 -0.4168  0.3431  0.4940
 6154SOL    HW130098   0.171   0.881   1.599 -1.4022  0.3045 -0.1524
 6154SOL    HW230099   0.256   0.776   1.647  0.1912 -1.6189 -1.4670
 6155SOL     OW30100   2.073   1.945   5.337  0.0799  0.7612  0.1476
 6155SOL    HW130101   2.150   1.900   5.373  1.1818  1.5322 -1.2675
 6155SOL    HW230102   2.101   1.979   5.252 -1.4372  1.0777 -0.2258
 6156SOL     OW30103   3.801   1.844   5.476  0.3442  0.7976  0.1917
 6156SOL    HW130104   3.820   1.880   5.390 -0.1464  3.2122  1.0923
 6156SOL    HW230105   3.838   1.913   5.530  1.1030 -1.5463  2.6890
 6157SOL     OW30106   0.227   0.909   6.741 -0.1057 -0.3993 -0.0711
 6157SOL    HW130107   0.201   0.842   6.804  0.7675 -0.7943 -0.1414
 6157SOL    HW230108   0.140   0.936   6.711  0.4068  1.2266 -0.0447
 6158SOL     OW30109   0.447   1.745   6.094 -0.3369 -0.4016  0.0507
 6158SOL    HW130110   0.404   1.701   6.167 -1.6707  1.4407  0.3727
 6158SOL    HW230111   0.382   1.754   6.024  1.1354  2.9361 -0.9085
 6159SOL     OW30112   2.552   2.245   2.116 -0.3175 -0.4114  0.0275
 6159SOL    HW130113   2.581   2.286   2.198 -2.0125  2.0128 -0.5995
 6159SOL    HW230114   2.489   2.179   2.145  1.1778 -1.8824 -0.0654
 6160SOL     OW30115   0.961   0.740  12.041  0.4587 -0.5727  0.2252
 6160SOL    HW130116   0.980   0.736  12.135  0.9149 -0.3539  0.1434
 6160SOL    HW230117   1.019   0.815  12.026  0.5545 -0.6589  0.1641
 6161SOL     OW30118   1.936   0.511   2.947  0.3722  0.1280 -0.1336
 6161SOL    HW130119   1.848   0.500   2.911 -0.3196 -0.4721  1.7823
 6161SOL    HW230120   1.980   0.440   2.900  0.5708  0.2227 -0.0906
 6162SOL     OW30121   0.975   3.714   2.287 -0.1038 -0.0071  0.4025
 6162SOL    HW130122   0.994   3.747   2.375  1.3139  1.0614 -0.2953
 6162SOL    HW230123   0.879   3.715   2.276 -0.1106  2.6866  0.6021
 6163SOL     OW30124   3.663   0.390   2.919 -0.2100  0.9052  0.6124
 6163SOL    HW130125   3.714   0.352   2.847  1.3054  0.6004  1.8274
 6163SOL    HW230126   3.599   0.437   2.866 -0.6978 -1.3063 -0.7870
 6164SOL     OW30127   1.653   3.333   5.889 -0.5619 -0.2322  0.7442
 6164SOL    HW130128   1.673   3.287   5.807 -0.5112 -1.2723  1.3410
 6164SOL    HW230129   1.709   3.286   5.951  0.3089 -1.1918 -0.7679
 6165SOL     OW30130   3.952   3.891   8.990  0.2041  0.2655  0.4576
 6165SOL    HW130131   3.938   3.796   8.982  1.7456 -0.1900  3.2754
 6165SOL    HW230132   3.896   3.931   8.923 -0.6585 -3.1887 -0.8941
 6166SOL     OW30133   0.657   3.534   2.585  0.0540 -0.3992  1.1302
 6166SOL    HW130134   0.627   3.535   2.494 -0.5908 -0.6902  1.3310
 6166SOL    HW230135   0.644   3.621   2.621  0.3533  1.7151 -3.8562
 6167SOL     OW30136   0.673   2.327   2.837  0.2307 -0.6130  0.8247
 6167SOL    HW130137   0.641   2.264   2.902 -0.1868 -1.3564 -0.1007
 6167SOL    HW230138   0.668   2.399   2.900 -1.6768 -0.0205  0.0199
 6168SOL     OW30139   3.215   3.529   7.919 -0.0957 -0.3409 -0.2757
 6168SOL    HW130140   3.239   3.580   7.996 -2.3471 -2.3151  1.7560
 6168SOL    HW230141   3.121   3.547   7.921  0.2506  1.5343 -0.8369
 6169SOL     OW30142   2.611   0.100  15.638 -0.5422  0.3013  0.1546
 6169SOL    HW130143   2.528   0.064  15.672  1.3886 -2.3296  2.0773
 6169SOL    HW230144   2.671   0.085  15.711 -0.0641  0.2023 -0.2615
 6170SOL     OW30145   2.776   4.040   6.819  0.3747  0.5333  0.4449
 6170SOL    HW130146   2.774   3.973   6.888  1.9293 -0.5076 -0.5106
 6170SOL    HW230147   2.721   3.993   6.756  1.1026  0.2375  0.0211
 6171SOL     OW30148   4.299   0.459   2.270 -0.1084  0.5078  0.0803
 6171SOL    HW130149   4.352   0.404   2.211 -0.0794  2.1341 -1.3912
 6171SOL    HW230150   4.288   0.533   2.211  0.7014  2.0471  1.8718
 6172SOL     OW30151   0.968   4.360   4.104  0.0587  0.1401 -0.1004
 6172SOL    HW130152   1.051   4.336   4.145  1.0075 -0.2251 -2.2710
 6172SOL    HW230153   0.970   4.456   4.109  1.5158  0.1231 -0.2865
 6173SOL     OW30154   4.697   2.985   6.479  0.0709 -0.0606 -0.2944
 6173SOL    HW130155   0.053   3.009   6.469  0.2540 -1.0374 -0.9015
 6173SOL    HW230156   4.678   2.948   6.393 -3.4193  0.9739  0.0192
 6174SOL     OW30157   3.762   4.410   6.465 -0.1777 -0.1779  0.7192
 6174SOL    HW130158   3.720   4.383   6.547 -1.2483  0.9627  0.5484
 6174SOL    HW230159   3.851   4.440   6.482 -0.8146  2.6140 -0.8606
 6175SOL     OW30160   2.281   4.724  16.585 -0.2784 -0.1733 -0.0980
 6175SOL    HW130161   2.295   4.644  16.534  0.4695 -0.5506  0.7190
 6175SOL    HW230162   2.201   4.706  16.634 -0.8056  0.6840 -0.6339
 6176SOL     OW30163   2.202   0.782  16.713  0.3872  0.2186  0.6618
 6176SOL    HW130164   2.132   0.717  16.718  2.2751 -1.9587 -0.7464
 6176SOL    HW230165   2.233   0.766  16.802 -0.2091  3.3548  1.4249
 6177SOL     OW30166   1.598   0.994   4.810  0.3238  0.0443  0.4033
 6177SOL    HW130167   1.604   1.031   4.898  0.2227  0.2172  0.3384
 6177SOL    HW230168   1.605   1.081   4.772 -1.2911  0.3507  0.7949
 6178SOL     OW30169   3.848   1.088   3.765  0.4427 -0.6064  0.2341
 6178SOL    HW130170   3.851   1.004   3.811 -0.6322  0.8961  3.0773
 6178SOL    HW230171   3.909   1.076   3.693 -0.9128 -1.2850 -0.8006
 6179SOL     OW30172   4.224   1.467   4.389  0.0997 -0.1330 -0.4723
 6179SOL    HW130173   4.215   1.456   4.483 -0.0630  1.9497 -0.2457
 6179SOL    HW230174   4.193   1.380   4.364 -1.2732 -0.0199  0.8624
 6180SOL     OW30175   3.167   2.898   7.166 -0.5892  0.0067 -0.3384
 6180SOL    HW130176   3.239   2.960   7.175 -0.6553 -0.1510  1.3032
 6180SOL    HW230177   3.130   2.881   7.253  0.0270 -0.1864 -0.1116
 6181SOL     OW30178   2.972   4.000   3.178 -0.9968  0.2025 -0.3708
 6181SOL    HW130179   2.941   3.931   3.118 -2.6177  1.4240 -0.9521
 6181SOL    HW230180   3.021   4.056   3.117  0.8319 -2.6702 -1.5457
 6182SOL     OW30181   0.955   1.591   5.370 -0.0094  0.1221 -0.1772
 6182SOL    HW130182   0.990   1.671   5.408 -0.3273  0.3747 -0.4248
 6182SOL    HW230183   1.031   1.573   5.315  1.3135  1.0974  1.3263
 6183SOL     OW30184   2.016   0.646   3.445 -0.0062  0.0818 -0.1844
 6183SOL    HW130185   1.974   0.591   3.379 -0.0717  2.6034 -2.2539
 6183SOL    HW230186   2.079   0.580   3.475  0.8111  1.1027  0.3195
 6184SOL     OW30187   3.818   4.353   2.798 -0.0244 -0.4258  0.2129
 6184SOL    HW130188   3.751   4.415   2.826  0.8023  0.9881 -0.9709
 6184SOL    HW230189   3.859   4.357   2.884  0.2835 -2.0490  0.1438
 6185SOL     OW30190   1.013   2.336   8.478 -0.5453 -0.3927 -0.2641
 6185SOL    HW130191   1.007   2.345   8.573 -2.0953  1.3588 -0.5459
 6185SOL    HW230192   0.934   2.384   8.454  0.2427  0.3732 -1.3162
 6186SOL     OW30193   2.681   0.384   4.341  0.2460 -0.2125  0.4889
 6186SOL    HW130194   2.757   0.413   4.291  0.5087  0.8668  1.5187
 6186SOL    HW230195   2.724   0.316   4.393 -1.0774 -0.8848  0.7062
 6187SOL     OW30196   2.358   2.771  16.862 -0.6741 -0.3581  0.1525
 6187SOL    HW130197   2.375   2.829  16.937  2.7339  0.6455 -1.3647
 6187SOL    HW230198   2.404   2.814  16.789 -1.7536  1.7303  0.6840
 6188SOL     OW30199   1.414   1.974   6.221  0.3812  0.4717  0.0155
 6188SOL    HW130200   1.350   1.970   6.150 -0.9303  2.2357  1.0998
 6188SOL    HW230201   1.494   2.006   6.179  0.2538 -1.5860 -1.7943
 6189SOL     OW30202   1.505   3.191   3.067 -0.1378 -0.4437 -0.5801
 6189SOL    HW130203   1.569   3.159   3.130 -0.1039  2.1785  0.6827
 6189SOL    HW230204   1.434   3.215   3.126 -0.7992  0.1470 -1.6022
 6190SOL     OW30205   1.580   3.468   8.174  0.0604  0.1754  0.2424
 6190SOL    HW130206   1.667   3.433   8.153  0.2174 -0.1497  1.4315
 6190SOL    HW230207   1.602   3.529   8.244  2.1581  0.4282 -0.6529
 6191SOL     OW30208   4.434   2.374   1.188 -0.0779  0.4380  0.3856
 6191SOL    HW130209   4.487   2.338   1.259  1.2016  0.7808 -0.3753
 6191SOL    HW230210   4.394   2.294   1.155  1.7868 -0.5672  0.5292
 6192SOL     OW30211   3.431   1.774   5.217  0.1850  0.0314 -0.1181
 6192SOL    HW130212   3.474   1.795   5.135 -0.1509 -1.4577 -0.6736
 6192SOL    HW230213   3.398   1.688   5.193 -3.2950  1.0674  1.0173
 6193SOL     OW30214   0.228   1.003   5.329 -0.8579 -0.7574 -0.2447
 6193SOL    HW130215   0.144   1.000   5.285 -2.9635 -0.2022  3.7529
 6193SOL    HW230216   0.269   1.068   5.273 -1.0812 -0.5392 -0.1500
 6194SOL     OW30217   4.013   1.876  10.804 -0.8444  0.5003 -0.3872
 6194SOL    HW130218   4.071   1.920  10.742 -0.7907  0.5690 -0.2901
 6194SOL    HW230219   3.953   1.833  10.744 -0.8632 -0.6631  0.4702
 6195SOL     OW30220   1.537   0.154   1.680  0.2577 -0.6175 -0.0031
 6195SOL    HW130221   1.517   0.177   1.771  1.1701  1.6797 -0.3809
 6195SOL    HW230222   1.630   0.177   1.676  0.0201  0.5864  1.5707
 6196SOL     OW30223   2.515   0.173   1.896 -0.4317  0.1128 -0.3089
 6196SOL    HW130224   2.439   0.223   1.867 -1.2607 -1.5779 -1.0380
 6196SOL    HW230225   2.579   0.203   1.830 -0.1074 -0.1979 -0.1329
 6197SOL     OW30226   4.145   3.397   4.870  0.8607  0.1681 -0.6590
 6197SOL    HW130227   4.193   3.478   4.889 -0.5368  0.5653  1.1676
 6197SOL    HW230228   4.110   3.422   4.785 -0.4599  0.6289  0.0259
 6198SOL     OW30229   0.159   1.324  14.644  0.0062  0.1360 -0.5967
 6198SOL    HW130230   0.250   1.349  14.629 -0.4325  2.7251  1.1035
 6198SOL    HW230231   0.111   1.407  14.651  0.5405  0.3221  0.9231
 6199SOL     OW30232   1.715   2.429  13.793  0.2914 -0.7807 -0.4647
 6199SOL    HW130233   1.786   2.493  13.782 -1.4747  0.7238 -3.0425
 6199SOL    HW230234   1.772   2.355  13.815  0.6025 -0.4905 -0.2786
 6200SOL     OW30235   4.643   2.539   1.145 -0.1905 -0.5261  0.3382
 6200SOL    HW130236   4.590   2.609   1.184 -0.2015  0.4726 -1.4707
 6200SOL    HW230237   4.585   2.466   1.167  1.2737 -1.2358  1.8930
 6201SOL     OW30238   4.043   2.451   6.472  0.4042 -0.0797 -0.5445
 6201SOL    HW130239   4.127   2.497   6.472  0.3350  0.0444 -0.2456
 6201SOL    HW230240   4.030   2.440   6.566 -2.6546 -0.4997 -1.0146
 6202SOL     OW30241   4.463   0.968   9.215  0.0584  0.1176 -0.2260
 6202SOL    HW130242   4.480   1.058   9.241  0.8079  0.0600 -0.5058
 6202SOL    HW230243   4.482   0.965   9.121 -0.9172 -0.1473 -0.4192
 6203SOL     OW30244   3.308   0.561   7.284  0.5831 -0.4456 -0.3735
 6203SOL    HW130245   3.385   0.542   7.230  0.1615 -1.8118 -0.5050
 6203SOL    HW230246   3.290   0.654   7.270 -1.2756 -0.6079  1.0203
 6204SOL     OW30247   2.201   0.076   2.362  0.0983 -0.3681  0.1114
 6204SOL    HW130248   2.111   0.054   2.338  0.0732 -0.1537  0.0157
 6204SOL    HW230249   2.231   0.129   2.289  0.2309 -0.0612  0.3854
 6205SOL     OW30250   1.888   1.013   3.208  0.6586 -0.0994  0.2320
 6205SOL    HW130251   1.886   0.995   3.302 -0.9910  0.9604  0.4057
 6205SOL    HW230252   1.934   0.941   3.166  1.2572  0.3501  0.1195
 6206SOL     OW30253   1.959   0.065   6.050  0.8898 -0.3618 -0.0968
 6206SOL    HW130254   1.964   0.011   5.971 -1.9208  2.2798 -2.0916
 6206SOL    HW230255   1.924   0.149   6.020 -2.3407 -1.5694  0.2737
 6207SOL     OW30256   1.324   3.540  11.435  0.6689  0.1500 -0.1618
 6207SOL    HW130257   1.270   3.566  11.360  1.6392  1.1983 -0.4968
 6207SOL    HW230258   1.258   3.481  11.471  0.4641  0.3909 -0.1404
 6208SOL     OW30259   1.773   0.462   9.306  0.4012 -0.1589  0.2184
 6208SOL    HW130260   1.679   0.451   9.295  0.1123  2.3502  0.2617
 6208SOL    HW230261   1.771   0.498   9.395  1.2578 -0.6905  0.4546
 6209SOL     OW30262   1.158   2.929   5.179  0.4480  0.1107 -0.2306
 6209SOL    HW130263   1.081   2.888   5.217  0.3318  0.9553  0.4438
 6209SOL    HW230264   1.223   2.909   5.247 -1.1421  1.2025  1.6140
 6210SOL     OW30265   3.638   3.064   4.986 -0.3699  0.5365  0.4380
 6210SOL    HW130266   3.548   3.090   4.969 -0.1068  1.2596  0.1838
 6210SOL    HW230267   3.631   2.972   5.014 -1.5900  1.2706  2.5196
 6211SOL     OW30268   2.717   4.438  10.960 -0.0027  0.4350  0.0113
 6211SOL    HW130269   2.677   4.466  11.042 -1.2320 -1.9214  0.2108
 6211SOL    HW230270   2.788   4.498  10.939  1.6769 -0.8984  1.8193
 6212SOL     OW30271   3.539   0.944  12.377 -0.3819  0.1582 -0.2108
 6212SOL    HW130272   3.449   0.931  12.407 -0.5766  0.8842 -0.4891
 6212SOL    HW230273   3.524   0.989  12.294  0.1810 -0.4288 -0.6313
 6213SOL     OW30274   4.334   4.592   6.679 -0.4615  0.2609  0.0309
 6213SOL    HW130275   4.341   4.642   6.598  0.2512  0.0293 -0.0501
 6213SOL    HW230276   4.410   4.536   6.670 -0.2530  0.6638 -0.7596
 6214SOL     OW30277   3.992   4.049   4.582  0.0404 -0.4773 -0.0625
 6214SOL    HW130278   3.960   4.067   4.493  2.0101  0.5106 -0.5836
 6214SOL    HW230279   4.082   4.073   4.559  0.3976 -0.8605  0.9621
 6215SOL     OW30280   2.075   2.612   9.354 -0.2487  0.9708 -0.8311
 6215SOL    HW130281   2.040   2.617   9.443 -1.8532  0.3580 -1.4058
 6215SOL    HW230282   2.151   2.670   9.354  0.3504  0.1877 -0.8585
 6216SOL     OW30283   3.996   2.469   1.087  0.3666  1.1102 -0.2308
 6216SOL    HW130284   3.948   2.518   1.154 -0.9008 -0.0948 -0.2779
 6216SOL    HW230285   3.954   2.500   1.007  0.1420  0.0264 -0.5308
 6217SOL     OW30286   2.643   0.619   2.937 -0.5988  0.1364  0.6310
 6217SOL    HW130287   2.724   0.623   2.887 -1.6832 -1.0337 -1.2166
 6217SOL    HW230288   2.676   0.697   2.982  0.6164 -0.2647  0.4317
 6218SOL     OW30289   1.189   0.174   4.076  0.2918  0.1584  0.2100
 6218SOL    HW130290   1.174   0.267   4.061 -1.2677  0.3823  3.0715
 6218SOL    HW230291   1.139   0.167   4.157 -2.2595  1.0116 -1.2855
 6219SOL     OW30292   4.155   3.163   3.584  0.5443  0.4449 -0.2587
 6219SOL    HW130293   4.143   3.226   3.513 -1.5785 -2.0432 -2.0935
 6219SOL    HW230294   4.143   3.224   3.657  0.7892  2.4485 -1.8715
 6220SOL     OW30295   3.152   3.378  10.450  0.0326  0.6327  0.0562
 6220SOL    HW130296   3.156   3.403  10.358 -0.2146  0.6923  0.0617
 6220SOL    HW230297   3.231   3.324  10.444  0.5877  1.4820 -0.3537
 6221SOL     OW30298   0.187   0.467  11.531  0.0936 -0.7530  0.0315
 6221SOL    HW130299   0.247   0.540  11.544  0.0796 -1.2947  3.1452
 6221SOL    HW230300   0.165   0.467  11.624 -0.1409 -1.0608 -0.0254
 6222SOL     OW30301   0.033   0.356   1.765  0.1550  0.0877  0.8436
 6222SOL    HW130302   0.125   0.330   1.767  0.7349  1.9573 -0.7481
 6222SOL    HW230303   4.736   0.271   1.792  1.1452  0.2669  2.6185
 6223SOL     OW30304   2.661   1.806   9.040  0.0577 -0.2449 -0.4932
 6223SOL    HW130305   2.722   1.811   8.965  0.1420 -0.5068 -0.4443
 6223SOL    HW230306   2.723   1.781   9.108 -0.1192  0.9994  0.1076
 6224SOL     OW30307   2.939   1.481   3.722 -0.4344  0.4020  0.3043
 6224SOL    HW130308   2.984   1.552   3.676  1.1204 -0.5156  0.3999
 6224SOL    HW230309   3.014   1.423   3.737  0.0502  1.0421  0.3429
 6225SOL     OW30310   1.060   1.031   6.083 -0.0050  0.1241 -0.0669
 6225SOL    HW130311   0.974   0.992   6.069  0.2545 -0.7060  0.6584
 6225SOL    HW230312   1.036   1.119   6.053  1.6708  1.0779  1.4372
 6226SOL     OW30313   1.647   3.603   0.609 -0.1550 -0.1671 -0.3228
 6226SOL    HW130314   1.693   3.582   0.527  2.0453  0.7039  0.6894
 6226SOL    HW230315   1.558   3.570   0.595 -0.7380  0.3577  2.1034
 6227SOL     OW30316   1.094   3.947   5.437 -0.5523 -0.0509 -0.0984
 6227SOL    HW130317   1.163   4.011   5.420 -1.3428  0.9994  0.5889
 6227SOL    HW230318   1.147   3.869   5.422 -0.2106  0.4114 -1.3631
 6228SOL     OW30319   1.034   4.498  14.934 -0.3677 -0.0733 -0.2037
 6228SOL    HW130320   0.948   4.492  14.975 -0.5758  0.5747 -0.5422
 6228SOL    HW230321   1.015   4.538  14.849 -0.3669  1.4539  0.5088
 6229SOL     OW30322   2.040   1.702   9.267 -0.2756 -0.2540 -0.0318
 6229SOL    HW130323   2.092   1.774   9.231  1.0025 -1.9345 -1.5310
 6229SOL    HW230324   1.953   1.732   9.243 -0.5989 -1.2219 -0.0599
 6230SOL     OW30325   1.041   2.775   9.728 -0.7566 -0.1755  0.1910
 6230SOL    HW130326   1.042   2.847   9.792  1.6296  1.2248 -1.4029
 6230SOL    HW230327   1.009   2.824   9.652 -0.5334  0.8968  0.7792
 6231SOL     OW30328   1.878   2.164  16.426  0.3822  0.3239  0.3499
 6231SOL    HW130329   1.947   2.209  16.475 -0.9375  1.5797  1.0399
 6231SOL    HW230330   1.805   2.200  16.476  1.1450 -0.2548  1.9035
 6232SOL     OW30331   0.223   2.454   5.756 -0.5009 -0.1390  0.0921
 6232SOL    HW130332   0.181   2.524   5.707 -3.1238 -1.2388  0.7411
 6232SOL    HW230333   0.282   2.414   5.692  0.2816 -1.7454  1.7941
 6233SOL     OW30334   1.111   3.460   5.384 -0.0560 -0.1193  0.2326
 6233SOL    HW130335   1.063   3.414   5.452 -1.6542  1.0547 -0.1107
 6233SOL    HW230336   1.198   3.419   5.384 -0.8424 -1.7534  1.2704
 6234SOL     OW30337   3.617   4.182   4.546 -0.3231  0.2553 -0.6438
 6234SOL    HW130338   3.559   4.107   4.538 -1.0573  0.6740  0.7146
 6234SOL    HW230339   3.557   4.256   4.555  0.3362  0.8037 -0.7898
 6235SOL     OW30340   3.688   0.028   7.140 -0.3904 -0.1007  0.0222
 6235SOL    HW130341   3.739   0.045   7.219  0.4129 -0.3044 -0.4544
 6235SOL    HW230342   3.705   4.670   7.144  0.3509 -0.0714 -2.4376
 6236SOL     OW30343   3.791   1.432  15.776 -0.0717  0.5610 -0.3352
 6236SOL    HW130344   3.885   1.441  15.766 -0.0291  1.0830  0.5642
 6236SOL    HW230345   3.763   1.521  15.757 -1.8458  0.2246  0.7088
 6237SOL     OW30346   0.520   0.544  15.306  0.3959  0.1215  0.1744
 6237SOL    HW130347   0.509   0.549  15.211 -1.2906  1.7263  0.4682
 6237SOL    HW230348   0.614   0.524  15.307  0.4334  0.3456  1.4784
 6238SOL     OW30349   4.319   4.104   1.472  0.3802 -0.0486  0.3571
 6238SOL    HW130350   4.241   4.148   1.503 -0.0057  0.2324 -1.0002
 6238SOL    HW230351   4.291   4.014   1.490 -0.0535 -0.4403 -2.2735
 6239SOL     OW30352   0.523   2.846   5.024  0.4389 -0.1636 -0.0582
 6239SOL    HW130353   0.464   2.874   5.094  0.0491 -0.1079 -0.4116
 6239SOL    HW230354   0.562   2.930   5.000 -0.2513  0.4270  0.9021
 6240SOL     OW30355   3.001   0.215   8.767 -0.7313 -0.1362  0.4133
 6240SOL    HW130356   3.022   0.261   8.849  1.5852  1.6307 -1.1501
 6240SOL    HW230357   2.942   0.283   8.736  1.5557  1.1854 -1.1048
 6241SOL     OW30358   3.311   1.593   3.828  0.2052 -0.5635  0.1178
 6241SOL    HW130359   3.249   1.563   3.894  1.1903 -2.8589  0.0136
 6241SOL    HW230360   3.288   1.686   3.819  0.2498 -0.5778 -0.1585
 6242SOL     OW30361   4.310   1.672   1.015  0.3611 -0.4414  0.0292
 6242SOL    HW130362   4.380   1.728   0.983  0.9718 -1.8121 -1.0472
 6242SOL    HW230363   4.309   1.605   0.946 -1.3403 -1.4072  0.9866
 6243SOL     OW30364   0.400   0.739  12.315  0.0385 -0.1993  0.2250
 6243SOL    HW130365   0.464   0.772  12.377  1.6530  0.9887 -2.0676
 6243SOL    HW230366   0.421   0.648  12.334 -1.7411 -0.2475  1.9649
 6244SOL     OW30367   1.162   1.043   0.804  0.5345 -0.5637  0.1596
 6244SOL    HW130368   1.206   0.963   0.832  2.6238  0.5399  0.0275
 6244SOL    HW230369   1.214   1.113   0.844 -0.6304 -0.1948  1.0270
 6245SOL     OW30370   0.676   1.147   3.312 -0.0432  0.0208  0.0104
 6245SOL    HW130371   0.609   1.216   3.309  1.0219  1.0371 -0.5206
 6245SOL    HW230372   0.622   1.069   3.316  0.7087 -0.4323  1.6942
 6246SOL     OW30373   3.217   4.637   6.713 -0.4597 -0.2341 -0.0000
 6246SOL    HW130374   3.177   4.558   6.678  0.0879 -0.1975 -0.7127
 6246SOL    HW230375   3.186   4.628   6.803  1.4912  1.0894  0.8092
 6247SOL     OW30376   0.059   0.075   8.780  0.4817 -0.0623  0.1370
 6247SOL    HW130377   0.070   4.716   8.774 -0.9303 -0.2785  0.8730
 6247SOL    HW230378   4.701   0.082   8.797  0.5782  1.6437 -0.0292
 6248SOL     OW30379   2.429   2.353   1.193  0.1412  0.0582  0.3747
 6248SOL    HW130380   2.410   2.320   1.280 -0.9840  1.4160  0.6487
 6248SOL    HW230381   2.424   2.447   1.214  1.2488  0.5660 -1.5445
 6249SOL     OW30382   2.931   2.496  14.851 -0.3476  0.0314  0.5272
 6249SOL    HW130383   2.840   2.525  14.856 -0.3639 -0.1333  1.1326
 6249SOL    HW230384   2.958   2.484  14.942  0.3875 -1.5586  0.0911
 6250SOL     OW30385   4.161   1.082   5.498  0.0059 -0.4169 -0.7568
 6250SOL    HW130386   4.087   1.092   5.558 -0.3459 -0.0614 -1.2458
 6250SOL    HW230387   4.227   1.137   5.539 -0.6705  0.8885 -1.4018
 6251SOL     OW30388   0.552   0.148  14.595  0.1168 -0.4056  0.2964
 6251SOL    HW130389   0.584   0.121  14.681 -2.1528 -0.6104  1.0886
 6251SOL    HW230390   0.623   0.209  14.575  0.7661 -0.9719  0.8964
 6252SOL     OW30391   0.371   2.276  14.591  0.0906 -0.2671 -0.3261
 6252SOL    HW130392   0.369   2.371  14.583  0.1790 -0.1349  1.3150
 6252SOL    HW230393   0.372   2.256  14.685  0.8642  0.6201 -0.1494
 6253SOL     OW30394   1.938   2.084   6.172  0.2182  0.1258 -0.2822
 6253SOL    HW130395   2.011   2.087   6.111 -1.1654  1.6983 -1.8509
 6253SOL    HW230396   1.976   2.021   6.234 -0.5005  1.6049  1.6646
 6254SOL     OW30397   3.752   1.080   6.416 -0.0132 -0.7008  0.4783
 6254SOL    HW130398   3.690   1.038   6.355 -0.7597 -0.5779  1.1503
 6254SOL    HW230399   3.728   1.030   6.494 -2.3887 -1.0283 -0.4672
 6255SOL     OW30400   2.003   0.845  10.579  1.0751  0.3746  0.1743
 6255SOL    HW130401   2.008   0.933  10.616 -1.1392  0.9471 -0.8934
 6255SOL    HW230402   1.958   0.866  10.497  0.1139  0.8800  0.8416
 6256SOL     OW30403   1.423   2.353  14.230 -0.2505  0.1718 -0.7154
 6256SOL    HW130404   1.411   2.324  14.320 -1.7239  1.3057 -0.5469
 6256SOL    HW230405   1.331   2.366  14.207 -0.8115 -0.5107  1.1958
 6257SOL     OW30406   2.450   2.783   3.946  0.4143 -0.5958 -0.2906
 6257SOL    HW130407   2.532   2.834   3.948  0.7711 -1.2417  1.5373
 6257SOL    HW230408   2.482   2.697   3.919 -0.7649 -1.2975  0.5529
 6258SOL     OW30409   1.750   0.806   6.710 -0.2928 -0.3810  0.0399
 6258SOL    HW130410   1.803   0.786   6.633 -0.9132 -0.4492 -0.3672
 6258SOL    HW230411   1.697   0.882   6.687 -0.3536 -0.5032 -0.2239
 6259SOL     OW30412   0.784   4.729   3.306  0.0434 -0.1245 -0.2542
 6259SOL    HW130413   0.871   4.716   3.345 -0.4948  0.4443  1.1429
 6259SOL    HW230414   0.749   4.641   3.320 -0.4651  0.1703  0.3469
 6260SOL     OW30415   3.774   2.182   6.717 -0.0931  0.7616 -0.1005
 6260SOL    HW130416   3.844   2.117   6.723 -2.2261 -1.5041  0.0060
 6260SOL    HW230417   3.826   2.249   6.762  1.1578 -2.1538  2.8572
 6261SOL     OW30418   0.414   0.372   8.346 -0.1688  0.3824  0.2888
 6261SOL    HW130419   0.364   0.446   8.381  0.3294  0.4509  0.8609
 6261SOL    HW230420   0.493   0.423   8.329 -2.5874  3.1910 -2.6385
 6262SOL     OW30421   3.510   0.800   5.655 -0.1837  0.1426 -0.2968
 6262SOL    HW130422   3.467   0.808   5.570  1.6292 -1.2028 -1.3322
 6262SOL    HW230423   3.433   0.781   5.708  1.3820  0.7148  2.2105
 6263SOL     OW30424   2.357   3.125   3.714 -0.2101 -0.5416 -0.6642
 6263SOL    HW130425   2.283   3.115   3.654  0.3943  1.3837 -1.7572
 6263SOL    HW230426   2.380   3.036   3.739 -1.0171 -0.6030 -0.1388
 6264SOL     OW30427   1.913   3.392   2.304 -0.3953 -0.0480  0.1375
 6264SOL    HW130428   1.913   3.482   2.336 -2.1927  0.0413 -0.0949
 6264SOL    HW230429   1.861   3.382   2.224  0.1069  2.0189 -0.4700
 6265SOL     OW30430   3.642   3.782   5.682 -0.0313 -0.5471  0.5640
 6265SOL    HW130431   3.644   3.703   5.628  0.8674  0.9062 -1.5094
 6265SOL    HW230432   3.719   3.818   5.639 -0.1895 -0.1949  0.5743
 6266SOL     OW30433   2.913   1.021   0.409  0.5148 -0.0574  0.5106
 6266SOL    HW130434   2.858   1.086   0.365  1.1040  1.9921  2.7828
 6266SOL    HW230435   2.913   1.064   0.494  1.2496  0.8244  0.0627
 6267SOL     OW30436   3.273   3.268   2.623  0.3467  0.5875  0.3279
 6267SOL    HW130437   3.255   3.351   2.579 -0.5077  1.2337  1.9090
 6267SOL    HW230438   3.184   3.246   2.653  0.5728  1.5822  1.7063
 6268SOL     OW30439   3.962   2.196   6.322  0.6481 -0.2253  1.0659
 6268SOL    HW130440   3.950   2.264   6.388 -2.7755  1.6455 -1.4344
 6268SOL    HW230441   4.045   2.167   6.358  0.0290 -2.3223  0.7885
 6269SOL     OW30442   2.891   4.424   8.316  0.2181  0.4504 -0.4574
 6269SOL    HW130443   2.947   4.483   8.267  1.4905  0.2175  0.7290
 6269SOL    HW230444   2.888   4.342   8.266  1.2166 -0.0413  0.2858
 6270SOL     OW30445   4.642   4.266  10.874 -0.3691 -0.4699 -0.0141
 6270SOL    HW130446   4.594   4.313  10.807  0.3161  0.1589 -0.0536
 6270SOL    HW230447   4.574   4.206  10.907  0.9034 -1.6905  0.3789
 6271SOL     OW30448   1.529   4.632  15.224  0.1267 -0.0626  0.3227
 6271SOL    HW130449   1.457   4.684  15.188  0.0671 -0.1522  0.3131
 6271SOL    HW230450   1.536   4.575  15.148  0.9017 -0.1442  0.4547
 6272SOL     OW30451   2.897   4.305  16.916 -0.1706  0.1194  0.0550
 6272SOL    HW130452   2.930   4.247  16.985  0.8734 -0.7070 -1.1414
 6272SOL    HW230453   2.822   4.341  16.965 -1.4629  0.7201 -2.3553
 6273SOL     OW30454   0.349   1.970   8.474 -0.4150  0.4629 -0.4787
 6273SOL    HW130455   0.380   2.051   8.433 -0.6204  1.1374  0.6836
 6273SOL    HW230456   0.399   1.956   8.555  0.3009  0.1111 -0.9816
 6274SOL     OW30457   4.251   1.745   8.700 -0.1400  1.1326  0.4597
 6274SOL    HW130458   4.234   1.838   8.690  0.3113  1.1214 -0.3901
 6274SOL    HW230459   4.346   1.746   8.712  0.2036  2.1728 -2.3965
 6275SOL     OW30460   4.418   2.532   4.293  0.2054 -0.0755  0.1082
 6275SOL    HW130461   4.385   2.492   4.212 -1.4921  0.4479  0.5374
 6275SOL    HW230462   4.340   2.565   4.338  1.0969  1.6870  0.3472
 6276SOL     OW30463   4.602   1.238   2.804 -0.2009  0.1058 -0.4693
 6276SOL    HW130464   4.660   1.262   2.876 -0.8225 -1.9851  0.7248
 6276SOL    HW230465   4.614   1.143   2.793  1.2287  0.1809  0.4243
 6277SOL     OW30466   2.599   1.482   8.009  0.2167  0.6633 -0.0509
 6277SOL    HW130467   2.525   1.535   7.978 -2.0541 -1.5347  1.6720
 6277SOL    HW230468   2.642   1.548   8.063  1.5292  1.0580 -1.5561
 6278SOL     OW30469   2.857   2.285   3.986 -0.3609 -0.3369 -0.6336
 6278SOL    HW130470   2.806   2.226   4.041  0.4986 -2.3343 -2.0045
 6278SOL    HW230471   2.835   2.259   3.897 -0.8473  0.9522 -0.8912
 6279SOL     OW30472   4.413   1.795   5.594  0.2678 -0.2786  0.4247
 6279SOL    HW130473   4.451   1.782   5.681 -1.8652 -0.6202  1.3003
 6279SOL    HW230474   4.322   1.773   5.611  0.0408  1.0652  1.0008
 6280SOL     OW30475   0.506   0.407  15.790 -0.4904  0.6782 -0.2148
 6280SOL    HW130476   0.518   0.406  15.695  0.0639  1.0911 -0.1542
 6280SOL    HW230477   0.437   0.473  15.795  0.4888  1.8124 -1.6736
 6281SOL     OW30478   1.903   2.995  10.855  0.0523 -0.4233  0.0156
 6281SOL    HW130479   1.932   2.948  10.932 -2.2547  1.4320  2.0325
 6281SOL    HW230480   1.982   2.994  10.801 -0.0169 -0.2464 -0.0909
 6282SOL     OW30481   4.093   3.439   1.879 -0.0816  0.1012  0.1293
 6282SOL    HW130482   4.127   3.481   1.958 -0.4853  1.0541 -0.2182
 6282SOL    HW230483   4.155   3.469   1.813 -1.0462 -3.1784 -2.2932
 6283SOL     OW30484   2.817   2.004  17.555 -0.1202  0.2027  0.1250
 6283SOL    HW130485   2.865   1.925  17.535 -2.2222 -0.7337 -1.2493
 6283SOL    HW230486   2.812   1.997  17.651  1.2880 -1.8786  0.0387
 6284SOL     OW30487   3.542   1.157   5.208  0.4217 -0.3544 -0.3536
 6284SOL    HW130488   3.455   1.120   5.198 -0.2708  1.6121 -1.6218
 6284SOL    HW230489   3.560   1.146   5.302 -2.1727  0.2340  0.2109
 6285SOL     OW30490   2.237   1.114   9.036  0.4607  0.3141  0.4350
 6285SOL    HW130491   2.226   1.019   9.044 -1.6233  0.6155  1.2261
 6285SOL    HW230492   2.215   1.135   8.945 -0.2352 -0.7381  0.3526
 6286SOL     OW30493   0.181   1.992   6.328 -0.3421  0.2349  0.1916
 6286SOL    HW130494   0.188   1.987   6.233 -0.1907 -2.0337  0.3201
 6286SOL    HW230495   0.094   1.951   6.337 -0.4746  0.5331  0.2483
 6287SOL     OW30496   0.998   2.734   7.723  0.4281 -0.3702 -0.3025
 6287SOL    HW130497   0.908   2.742   7.691  0.6951 -0.8733 -1.1673
 6287SOL    HW230498   0.990   2.691   7.808  1.4656 -0.1690 -0.1040
 6288SOL     OW30499   4.210   2.339  17.513  0.0914  0.5516  0.2177
 6288SOL    HW130500   4.230   2.427  17.482  1.2031  0.1394 -0.2515
 6288SOL    HW230501   4.181   2.300  17.430 -1.0769  0.4900  0.6582
 6289SOL     OW30502   4.414   2.878   6.495  0.5522 -0.1943 -0.0275
 6289SOL    HW130503   4.495   2.864   6.447 -1.7080 -2.9993 -2.9351
 6289SOL    HW230504   4.446   2.861   6.583 -0.1729 -0.1664  0.2452
 6290SOL     OW30505   1.271   4.162   5.348  0.8075  0.2689  0.5235
 6290SOL    HW130506   1.192   4.215   5.342  0.9285  0.2169 -1.5573
 6290SOL    HW230507   1.313   4.199   5.426  1.4994  4.0876 -1.6736
 6291SOL     OW30508   1.342   4.594  13.298  0.5941  0.0866 -0.7473
 6291SOL    HW130509   1.290   4.671  13.318 -0.0951  0.0528 -2.3812
 6291SOL    HW230510   1.282   4.541  13.246  0.4808 -0.1670 -0.3516
 6292SOL     OW30511   3.415   3.766  15.810  0.4955 -0.2300 -0.1268
 6292SOL    HW130512   3.416   3.702  15.881  1.1116  1.0673  1.0533
 6292SOL    HW230513   3.491   3.751  15.753  0.3726 -0.3648 -0.2544
 6293SOL     OW30514   0.562   0.593   6.834 -0.7455  0.3213  0.5921
 6293SOL    HW130515   0.579   0.606   6.928  3.3238 -2.0332  0.1691
 6293SOL    HW230516   0.608   0.669   6.798 -1.5661  1.2135  1.4001
 6294SOL     OW30517   0.203   4.322   9.994 -0.0666  0.1899  0.3170
 6294SOL    HW130518   0.201   4.363  10.081  1.7269  1.3133 -0.1637
 6294SOL    HW230519   0.108   4.324   9.981  0.0807 -0.8251 -0.9416
 6295SOL     OW30520   4.571   0.726   9.026  0.5370  0.2409 -0.3459
 6295SOL    HW130521   4.547   0.741   8.934 -1.5514 -0.1216  0.1456
 6295SOL    HW230522   4.635   0.656   9.012 -2.0141 -2.4679  1.4987
 6296SOL     OW30523   1.072   3.790   3.423  0.0383  0.0176  0.4166
 6296SOL    HW130524   1.166   3.792   3.440  0.2718 -0.4646 -0.8288
 6296SOL    HW230525   1.052   3.797   3.516 -0.4806 -0.2929  0.3252
 6297SOL     OW30526   4.061   3.782  12.074 -0.5619 -0.5695  0.3221
 6297SOL    HW130527   3.994   3.820  12.131 -1.0867 -0.7373 -0.1837
 6297SOL    HW230528   4.048   3.688  12.090 -1.6021 -0.5163 -0.2083
 6298SOL     OW30529   4.093   4.650   6.499 -0.0456 -0.7819  0.2116
 6298SOL    HW130530   4.090   4.587   6.571  0.1442 -1.7512 -0.6429
 6298SOL    HW230531   4.133   4.597   6.430 -2.0083  1.5369 -2.7136
 6299SOL     OW30532   4.545   0.609   0.872  0.4581  0.1943  0.4754
 6299SOL    HW130533   4.568   0.662   0.948 -1.6627  0.5409  0.8607
 6299SOL    HW230534   4.605   0.535   0.883  1.1749  0.8358  0.8709
 6300SOL     OW30535   3.909   1.059   4.600  0.5206  0.1963 -0.1612
 6300SOL    HW130536   3.970   1.118   4.644  1.9657 -1.3402 -0.1174
 6300SOL    HW230537   3.942   0.976   4.636 -0.3769 -0.2515 -0.3694
 6301SOL     OW30538   1.066   1.511   5.095  0.0179  0.0354  0.2818
 6301SOL    HW130539   1.087   1.596   5.133 -1.5875  0.5526  0.0097
 6301SOL    HW230540   1.003   1.534   5.027 -0.9679  0.8184  1.4587
 6302SOL     OW30541   1.419   1.255   6.843  0.2348  0.3647 -0.0302
 6302SOL    HW130542   1.325   1.269   6.841  0.1914  0.1519  0.6889
 6302SOL    HW230543   1.422   1.174   6.895  1.7594  1.2102  1.1986
 6303SOL     OW30544   4.226   0.445   0.460 -0.6983  0.1477 -0.5317
 6303SOL    HW130545   4.154   0.428   0.400 -1.2288  0.8622 -0.0982
 6303SOL    HW230546   4.284   0.377   0.425  1.1650  1.5558 -0.1863
 6304SOL     OW30547   4.008   2.915   3.647  0.2234 -0.3716  0.0341
 6304SOL    HW130548   3.925   2.951   3.681 -0.3944 -2.9421  1.2173
 6304SOL    HW230549   4.054   2.999   3.636  0.5268 -0.5306  0.0952
 6305SOL     OW30550   0.365   1.674   9.510  0.2704  0.6712 -0.1296
 6305SOL    HW130551   0.365   1.578   9.506  4.2137  0.7795 -2.1570
 6305SOL    HW230552   0.272   1.692   9.525  0.4514  0.4672  1.2060
 6306SOL     OW30553   1.959   3.605  14.328  0.0420  0.3416 -0.1167
 6306SOL    HW130554   1.974   3.522  14.282 -0.7074 -0.2451  0.7001
 6306SOL    HW230555   1.875   3.590  14.371 -0.4258  0.0978 -1.0998
 6307SOL     OW30556   4.107   0.119   2.627 -0.3489 -0.5863  0.6451
 6307SOL    HW130557   4.112   0.187   2.693 -1.3444  0.8292 -0.7357
 6307SOL    HW230558   4.145   0.165   2.552  4.0842 -2.0388  2.0110
 6308SOL     OW30559   0.784   2.375   1.831 -0.2875  0.1615  0.4127
 6308SOL    HW130560   0.868   2.330   1.828 -0.3178  0.1042  0.4222
 6308SOL    HW230561   0.799   2.431   1.907  0.6710 -0.5643  0.7597
 6309SOL     OW30562   3.798   2.973   4.499 -0.6079 -0.0789 -0.0457
 6309SOL    HW130563   3.730   2.997   4.437 -1.2002 -0.8504  0.3021
 6309SOL    HW230564   3.835   2.895   4.457 -2.2711 -1.2619  0.6494
 6310SOL     OW30565   3.138   3.272   8.084 -0.0417  0.2348  0.1046
 6310SOL    HW130566   3.145   3.319   8.001  1.7303  0.9939  0.6897
 6310SOL    HW230567   3.187   3.191   8.068 -0.5496  0.4025 -2.3872
 6311SOL     OW30568   0.203   0.774   5.168  0.0182 -0.3218  0.1042
 6311SOL    HW130569   0.291   0.764   5.206  1.0911  0.1143 -2.2677
 6311SOL    HW230570   0.204   0.866   5.142 -0.2925  0.1269  1.6624
 6312SOL     OW30571   4.535   1.249   6.622 -0.3078 -0.1392 -0.2890
 6312SOL    HW130572   4.468   1.220   6.560  0.4579 -0.6963 -0.8512
 6312SOL    HW230573   4.552   1.173   6.677 -0.8992 -0.2267 -0.2213
 6313SOL     OW30574   3.249   4.029   8.371 -0.0190 -0.0974 -0.9167
 6313SOL    HW130575   3.303   3.988   8.438  0.9702  4.3379  0.9521
 6313SOL    HW230576   3.202   3.948   8.349  1.4854 -1.0060 -0.7776
 6314SOL     OW30577   3.423   3.058   7.187 -0.4204  0.2943 -0.0718
 6314SOL    HW130578   3.454   3.142   7.155  1.1793 -0.7214 -1.1943
 6314SOL    HW230579   3.479   3.053   7.265  0.6168 -0.1793 -0.8486
 6315SOL     OW30580   0.231   0.258   6.165 -0.1112 -0.0053  0.0215
 6315SOL    HW130581   0.308   0.218   6.125 -0.5901 -1.5520  0.6350
 6315SOL    HW230582   0.262   0.348   6.164 -1.0080  0.2962 -0.9794
 6316SOL     OW30583   1.475   3.285   5.579  0.9503 -0.8620 -0.0659
 6316SOL    HW130584   1.558   3.252   5.613 -0.0791 -2.4827  0.8782
 6316SOL    HW230585   1.455   3.362   5.631  0.6489 -0.0565 -1.3608
 6317SOL     OW30586   1.650   4.612   1.858  0.0499  0.1540 -0.3697
 6317SOL    HW130587   1.584   4.640   1.794  0.2118 -0.3946 -0.7821
 6317SOL    HW230588   1.599   4.550   1.909  1.4531  0.7998  1.8187
 6318SOL     OW30589   2.501   4.333  15.286 -0.0040 -0.5795 -0.0297
 6318SOL    HW130590   2.474   4.425  15.281 -2.0880 -1.0825  1.8946
 6318SOL    HW230591   2.595   4.340  15.300  0.1522 -1.6626 -0.5226
 6319SOL     OW30592   2.033   2.123  13.228  0.9824 -0.4916 -0.0505
 6319SOL    HW130593   1.995   2.177  13.297  0.3703  0.4319 -1.1153
 6319SOL    HW230594   2.127   2.133  13.242  0.9484  0.9298 -0.8907
 6320SOL     OW30595   1.840   1.682   8.901  0.3823  0.0481 -0.4178
 6320SOL    HW130596   1.800   1.597   8.889 -1.2237  0.4112  2.3568
 6320SOL    HW230597   1.857   1.688   8.995 -0.9866  1.2117 -0.2393
 6321SOL     OW30598   2.496   1.247   2.652 -0.6004 -0.5400  0.2740
 6321SOL    HW130599   2.435   1.177   2.629 -2.6762  1.5061 -0.4453
 6321SOL    HW230600   2.551   1.218   2.725 -1.2618  0.5053  1.1986
 6322SOL     OW30601   4.566   1.809   3.030 -0.9460 -0.9472  0.2932
 6322SOL    HW130602   4.545   1.720   3.059 -0.9409 -1.3979 -1.1021
 6322SOL    HW230603   4.653   1.826   3.065 -0.3793  0.8300 -2.0359
 6323SOL     OW30604   2.015   2.567   5.233  0.2910  0.3042  0.2498
 6323SOL    HW130605   1.998   2.492   5.289 -0.0510  1.8968  2.3077
 6323SOL    HW230606   2.110   2.575   5.238  0.2991 -1.0888  2.5627
 6324SOL     OW30607   0.132   0.386   7.789 -0.4178  0.2038  0.3285
 6324SOL    HW130608   0.044   0.352   7.776 -0.2269 -0.9256  2.1068
 6324SOL    HW230609   0.150   0.411   7.698 -1.0763 -0.0832  0.1174
 6325SOL     OW30610   2.965   2.129   3.364  0.8740  0.0538 -0.3872
 6325SOL    HW130611   2.994   2.190   3.432 -0.3505  0.7493 -0.4669
 6325SOL    HW230612   3.034   2.064   3.357 -0.2315 -1.3562  2.0197
 6326SOL     OW30613   3.198   2.755  16.508 -0.0623 -0.2434 -0.4689
 6326SOL    HW130614   3.202   2.663  16.534 -0.9686 -0.8490 -2.5421
 6326SOL    HW230615   3.107   2.781  16.495  0.3171  1.5417  0.4216
 6327SOL     OW30616   3.514   2.196   8.129 -0.2920 -0.1101  0.5786
 6327SOL    HW130617   3.605   2.213   8.154 -0.0541 -0.8921  0.2496
 6327SOL    HW230618   3.518   2.212   8.034 -1.0759 -1.2026  0.3522
 6328SOL     OW30619   4.051   1.223   8.674  0.2012 -0.1430  0.0077
 6328SOL    HW130620   4.094   1.184   8.750 -0.7583 -1.0556  0.0894
 6328SOL    HW230621   3.987   1.282   8.714  1.1760 -0.0491  1.4328
 6329SOL     OW30622   4.355   0.893   6.695  0.0606  0.0247  0.4599
 6329SOL    HW130623   4.406   0.898   6.615 -0.3700  2.0644  0.3138
 6329SOL    HW230624   4.289   0.829   6.668  0.2218  0.3567 -0.7204
 6330SOL     OW30625   1.447   0.550   4.402 -0.5077  0.4564 -0.0135
 6330SOL    HW130626   1.475   0.567   4.493 -0.0754 -1.7163  0.2447
 6330SOL    HW230627   1.470   0.632   4.358 -2.9465  2.4359  2.3923
 6331SOL     OW30628   2.557   4.396  15.016 -0.9342 -0.0549  0.1269
 6331SOL    HW130629   2.614   4.366  15.088 -0.0544 -1.0958 -1.0048
 6331SOL    HW230630   2.477   4.345  15.024 -1.4547  0.8161  0.5573
 6332SOL     OW30631   1.785   0.243   6.425 -0.3766  0.0345 -0.4378
 6332SOL    HW130632   1.770   0.328   6.384 -2.7363 -1.1101 -1.9786
 6332SOL    HW230633   1.808   0.192   6.347 -1.2587  1.0999 -1.3929
 6333SOL     OW30634   2.222   2.157  11.074  0.0502 -0.6176  0.1841
 6333SOL    HW130635   2.228   2.106  11.155 -1.0595 -0.7233  0.1980
 6333SOL    HW230636   2.269   2.099  11.014  1.7050  0.8805  0.0394
 6334SOL     OW30637   0.228   2.302   5.158  0.2768  0.0443 -0.1657
 6334SOL    HW130638   0.197   2.313   5.248 -1.5082 -0.6695 -0.6956
 6334SOL    HW230639   0.323   2.296   5.160  0.2743  0.1812  0.4286
 6335SOL     OW30640   1.160   0.600  17.263  0.0858 -0.2021  0.9745
 6335SOL    HW130641   1.157   0.618  17.357  1.1539  1.1964  0.7451
 6335SOL    HW230642   1.084   0.651  17.234 -1.0214 -2.2042  0.3032
 6336SOL     OW30643   4.708   2.720   5.038  0.2792  0.1533 -0.0834
 6336SOL    HW130644   0.039   2.734   4.971  0.1757 -0.1997 -0.2612
 6336SOL    HW230645   4.625   2.744   4.999  2.0552  2.6248 -2.3341
 6337SOL     OW30646   4.626   1.268   3.229  0.2916  0.0902  0.0470
 6337SOL    HW130647   4.633   1.215   3.308  0.3695  0.5073  0.3212
 6337SOL    HW230648   4.535   1.248   3.210  0.2233 -0.1987  0.6841
 6338SOL     OW30649   0.882   2.645   9.121  0.0105 -0.4024 -0.2290
 6338SOL    HW130650   0.803   2.640   9.176 -0.4386  1.1464 -0.7412
 6338SOL    HW230651   0.947   2.631   9.190  1.5750  0.5925 -1.5211
 6339SOL     OW30652   3.817   2.977   5.838  0.3442 -0.0289  0.0716
 6339SOL    HW130653   3.725   2.987   5.861  0.2640 -1.2272  0.2533
 6339SOL    HW230654   3.840   2.923   5.913 -0.0490  0.5415  0.6037
 6340SOL     OW30655   3.983   0.751   2.410  0.6012 -0.0486 -0.5821
 6340SOL    HW130656   3.980   0.754   2.315 -0.8014  0.2304 -0.5323
 6340SOL    HW230657   4.054   0.814   2.416  0.6550  0.0977 -2.8384
 6341SOL     OW30658   1.595   2.548   4.462 -0.0046  0.7229  0.3161
 6341SOL    HW130659   1.630   2.527   4.549  1.1085  0.6993 -0.1426
 6341SOL    HW230660   1.547   2.471   4.432 -0.6522  0.4524  2.0225
 6342SOL     OW30661   3.217   4.109   5.263  0.5210 -0.1073 -0.2490
 6342SOL    HW130662   3.208   4.087   5.356 -1.0016  1.1364 -0.0890
 6342SOL    HW230663   3.311   4.104   5.245  0.3094  0.4353 -1.4954
 6343SOL     OW30664   4.445   1.393   2.607  0.0097  0.1816  0.2703
 6343SOL    HW130665   4.534   1.367   2.630  0.3998  1.0390 -0.2681
 6343SOL    HW230666   4.392   1.356   2.677  0.2229  1.0980  0.9191
 6344SOL     OW30667   2.338   0.006   0.889  0.5591 -0.4205  0.4979
 6344SOL    HW130668   2.361   0.061   0.964 -0.4888 -0.0652  0.5636
 6344SOL    HW230669   2.249   4.722   0.918  0.5482 -1.6289 -0.3683
 6345SOL     OW30670   0.784   2.538   3.608  0.2112 -0.1912 -0.2154
 6345SOL    HW130671   0.764   2.620   3.562  2.7809  1.7219  2.0991
 6345SOL    HW230672   0.851   2.498   3.554  0.4147 -0.5941  0.3388
 6346SOL     OW30673   2.424   0.329  12.216 -0.5119 -0.2796 -0.4848
 6346SOL    HW130674   2.390   0.359  12.132 -1.1805 -0.8868 -0.4296
 6346SOL    HW230675   2.353   0.267  12.228 -0.3239 -0.4943 -0.4914
 6347SOL     OW30676   0.345   3.251   9.110  0.7457 -0.1263 -0.2795
 6347SOL    HW130677   0.431   3.247   9.152 -0.5933 -0.3485  2.4700
 6347SOL    HW230678   0.294   3.194   9.167 -0.2919 -0.8648 -1.9553
 6348SOL     OW30679   3.161   3.651  17.010 -0.2684 -0.1074  0.5724
 6348SOL    HW130680   3.227   3.719  16.997 -0.2383 -0.4549 -1.1007
 6348SOL    HW230681   3.205   3.567  17.022 -0.8192 -0.8398 -2.5128
 6349SOL     OW30682   3.643   4.262   4.901  0.0344 -0.4280  0.2452
 6349SOL    HW130683   3.630   4.168   4.917 -3.9418 -0.2792 -1.8879
 6349SOL    HW230684   3.553   4.294   4.892 -0.7905 -2.8025  0.0879
 6350SOL     OW30685   4.135   3.095   8.614 -0.2105  0.1730 -0.0745
 6350SOL    HW130686   4.221   3.070   8.649  1.5901  3.1413 -2.3681
 6350SOL    HW230687   4.105   3.006   8.597 -0.7231  0.0428  1.5398
 6351SOL     OW30688   0.161   3.419   3.812 -0.2814 -0.0979  0.0004
 6351SOL    HW130689   0.224   3.347   3.821  1.0861  1.1667  0.4624
 6351SOL    HW230690   0.138   3.425   3.720  2.8526  1.9667 -0.6464
 6352SOL     OW30691   1.583   1.550   1.219  0.2367 -0.4870  0.2396
 6352SOL    HW130692   1.522   1.564   1.292  0.8639  1.5601  0.3705
 6352SOL    HW230693   1.670   1.546   1.259  0.0962  1.0923  0.7087
 6353SOL     OW30694   4.600   1.107   4.729  0.1955  0.2476 -0.0163
 6353SOL    HW130695   4.599   1.164   4.806 -0.6930  0.8499 -0.4715
 6353SOL    HW230696   4.674   1.141   4.679 -0.1430  0.3358 -0.4557
 6354SOL     OW30697   3.700   2.974   0.482 -0.1163 -0.1676  0.1797
 6354SOL    HW130698   3.786   2.964   0.522 -0.0228 -2.0263 -0.4889
 6354SOL    HW230699   3.704   3.065   0.454  1.2598 -0.1464  0.4365
 6355SOL     OW30700   2.771   0.355  10.031 -0.2071 -0.7713 -0.1107
 6355SOL    HW130701   2.854   0.401  10.025 -0.3588 -0.3218  1.2657
 6355SOL    HW230702   2.732   0.347   9.944 -0.1724 -1.4114 -0.0671
 6356SOL     OW30703   2.867   3.016   6.698  0.1902 -0.2144  0.0326
 6356SOL    HW130704   2.856   2.928   6.663 -2.0289 -0.6576  1.8166
 6356SOL    HW230705   2.825   3.003   6.783 -3.0204 -0.9978 -1.6768
 6357SOL     OW30706   3.054   3.197   5.891 -0.2549  0.3076  0.1194
 6357SOL    HW130707   3.116   3.167   5.824  0.1775  1.3409  0.0701
 6357SOL    HW230708   2.974   3.177   5.842 -1.9777  1.3116  2.5300
 6358SOL     OW30709   3.122   3.032   7.426 -0.2047 -0.3670 -0.0153
 6358SOL    HW130710   3.050   3.072   7.475 -1.2816 -1.6430 -0.5403
 6358SOL    HW230711   3.158   2.977   7.495 -1.7137 -0.9706  0.2989
 6359SOL     OW30712   4.651   2.352   8.868 -0.5435 -0.0692 -0.7135
 6359SOL    HW130713   0.004   2.384   8.856 -0.0754 -0.5048  1.6414
 6359SOL    HW230714   4.665   2.276   8.925 -3.2819 -0.6303 -0.7530
 6360SOL     OW30715   2.942   3.173  10.129 -0.0193  0.1768 -0.3331
 6360SOL    HW130716   2.868   3.214  10.174  1.3216  2.8091 -0.5438
 6360SOL    HW230717   2.889   3.150  10.052  1.6492  0.0138 -1.4261
 6361SOL     OW30718   2.641   3.911   7.035 -0.2445 -0.0691 -0.9070
 6361SOL    HW130719   2.583   3.968   6.984 -0.0732  0.9011 -0.0116
 6361SOL    HW230720   2.659   3.962   7.114  1.2035  0.1359 -1.3604
 6362SOL     OW30721   1.191   2.084   4.975  0.3803 -0.5062 -0.1554
 6362SOL    HW130722   1.218   2.155   5.033 -1.7907 -0.2537  0.5192
 6362SOL    HW230723   1.246   2.016   5.014 -1.6050 -2.0615 -0.0669
 6363SOL     OW30724   3.506   0.683   2.631  0.1196  0.1261  0.0892
 6363SOL    HW130725   3.450   0.706   2.706 -1.2906 -0.0207 -0.9269
 6363SOL    HW230726   3.581   0.739   2.651  1.4067 -1.4628 -0.3666
 6364SOL     OW30727   0.438   4.080   2.639 -0.3699  0.5293  0.4240
 6364SOL    HW130728   0.516   4.136   2.639 -0.8496  1.2038 -0.6568
 6364SOL    HW230729   0.401   4.097   2.726  0.7444 -0.1314  1.0226
 6365SOL     OW30730   2.519   1.608   8.278  0.1864  0.2047 -0.4568
 6365SOL    HW130731   2.488   1.688   8.238 -0.4602  0.8993  1.4441
 6365SOL    HW230732   2.520   1.624   8.373  0.0204  1.0134 -0.6013
 6366SOL     OW30733   1.272   4.382   5.832  0.3588  0.9290  0.0765
 6366SOL    HW130734   1.329   4.316   5.872  0.9846  0.3438 -1.7970
 6366SOL    HW230735   1.249   4.445   5.900  0.0150  0.3923  0.4550
 6367SOL     OW30736   2.375   3.603   2.566  0.1276 -0.1510 -0.3268
 6367SOL    HW130737   2.325   3.547   2.507  0.0363 -3.2533  2.6795
 6367SOL    HW230738   2.443   3.537   2.579 -0.0269  0.0716  1.6401
 6368SOL     OW30739   0.083   4.431   1.374  0.1241  0.5484 -0.1432
 6368SOL    HW130740   0.079   4.424   1.279 -0.6167  1.1648 -0.1609
 6368SOL    HW230741   0.154   4.492   1.395  0.8917 -0.1182 -0.8357
 6369SOL     OW30742   2.656   0.867   6.301 -0.0028  0.2913  0.3669
 6369SOL    HW130743   2.563   0.870   6.324 -0.6148  0.2272 -2.0831
 6369SOL    HW230744   2.646   0.903   6.212  1.7931 -2.4531 -0.9470
 6370SOL     OW30745   0.354   4.642   4.915  0.0149 -0.1693  0.0953
 6370SOL    HW130746   0.330   4.686   4.833 -0.6380 -0.9044 -0.1174
 6370SOL    HW230747   0.441   4.607   4.895  0.0697 -0.1751  0.3535
 6371SOL     OW30748   4.724   2.399   8.327  0.3774  0.2366  0.1592
 6371SOL    HW130749   4.720   2.453   8.406  2.4297 -0.2154  0.5647
 6371SOL    HW230750   4.634   2.410   8.295  0.4021  1.7615  0.6286
 6372SOL     OW30751   2.132   0.530   7.530  0.1046  0.0044  0.0303
 6372SOL    HW130752   2.130   0.577   7.614  1.1017 -0.9954  0.6072
 6372SOL    HW230753   2.226   0.512   7.520  0.9546  3.4907  1.6626
 6373SOL     OW30754   0.720   0.198  12.163  0.2107  0.3924 -0.0938
 6373SOL    HW130755   0.734   0.277  12.111 -0.0362 -0.7035 -1.8343
 6373SOL    HW230756   0.690   0.141  12.092 -0.9733 -0.8292  1.3721
 6374SOL     OW30757   0.055   1.645   1.145 -0.0191 -0.0282  0.0640
 6374SOL    HW130758   0.061   1.579   1.214  0.4404  0.0877  0.1359
 6374SOL    HW230759   0.042   1.590   1.067  3.6283 -2.9701  1.4984
 6375SOL     OW30760   4.501   3.317   4.112  0.6834  0.0737  0.1775
 6375SOL    HW130761   4.445   3.306   4.035  0.8762 -0.6860  0.1420
 6375SOL    HW230762   4.470   3.254   4.177  0.1319  2.5459  2.2975
 6376SOL     OW30763   0.418   2.209   1.848  0.3236  0.3469  0.1308
 6376SOL    HW130764   0.328   2.188   1.873 -0.4495  2.9003 -0.4707
 6376SOL    HW230765   0.469   2.132   1.874  0.2804  0.7208  1.3033
 6377SOL     OW30766   1.279   3.436   2.528  0.2209  0.2744  0.2937
 6377SOL    HW130767   1.269   3.373   2.599 -1.1088 -0.1569 -0.2763
 6377SOL    HW230768   1.242   3.397   2.448  1.2881 -1.8523  0.8428
 6378SOL     OW30769   0.210   1.248   9.241  0.2921  0.6487 -0.4733
 6378SOL    HW130770   0.178   1.280   9.156 -3.3867 -2.6532 -0.3322
 6378SOL    HW230771   0.139   1.191   9.272  0.2781  0.0360 -1.6589
 6379SOL     OW30772   1.908   3.996   2.443 -0.6237  0.3878 -0.0558
 6379SOL    HW130773   1.827   4.031   2.478 -0.7572 -0.8775  0.8799
 6379SOL    HW230774   1.923   4.045   2.362 -1.4388 -0.2746 -0.6000
 6380SOL     OW30775   3.894   2.516  17.447  0.2391 -0.2859 -0.0715
 6380SOL    HW130776   3.815   2.568  17.441  0.0319 -0.7013 -0.9918
 6380SOL    HW230777   3.925   2.495  17.358  1.3264 -0.4236  0.3279
 6381SOL     OW30778   2.995   2.433   5.349 -0.8480 -0.4899 -0.5710
 6381SOL    HW130779   3.038   2.381   5.281  1.9033 -0.9963  1.5600
 6381SOL    HW230780   3.062   2.502   5.354  0.5924 -1.9039 -0.5528
 6382SOL     OW30781   1.038   1.667   6.573 -0.0465 -0.6890 -0.0989
 6382SOL    HW130782   1.126   1.675   6.610 -0.5821 -0.7492  1.1793
 6382SOL    HW230783   1.053   1.651   6.480  0.6544 -1.4328  0.1405
 6383SOL     OW30784   1.475   4.202   2.655  0.2820 -0.1766  0.3443
 6383SOL    HW130785   1.391   4.222   2.696  0.9874  0.4496  1.5030
 6383SOL    HW230786   1.459   4.229   2.565  0.6013  0.2162  0.4037
 6384SOL     OW30787   3.218   4.104   4.967  0.2312 -0.5517  0.6829
 6384SOL    HW130788   3.154   4.164   4.928  0.9749 -0.4887 -0.4036
 6384SOL    HW230789   3.182   4.094   5.056  1.4272  2.0685  1.4781
 6385SOL     OW30790   0.378   2.190  15.865 -0.4767 -0.3373 -0.3018
 6385SOL    HW130791   0.440   2.220  15.799  0.0888  2.2918  1.4158
 6385SOL    HW230792   0.294   2.180  15.820 -0.5310  0.6070 -0.3995
 6386SOL     OW30793   4.273   0.410   9.053  0.4765  0.6810 -0.1745
 6386SOL    HW130794   4.268   0.505   9.047 -2.0298  0.7775  2.8016
 6386SOL    HW230795   4.365   0.396   9.032  0.9073  1.3876  1.2222
 6387SOL     OW30796   2.959   1.287  16.192  0.6808  0.5232 -0.2160
 6387SOL    HW130797   2.883   1.345  16.199  0.5264  0.2691  0.2279
 6387SOL    HW230798   3.029   1.342  16.158 -0.1779  1.9605  0.3462
 6388SOL     OW30799   4.329   3.629  16.718  0.0183  0.7668 -0.3045
 6388SOL    HW130800   4.331   3.553  16.661 -0.0912  0.8415 -0.4081
 6388SOL    HW230801   4.242   3.667  16.711 -0.1294  0.5370  0.2579
 6389SOL     OW30802   2.956   3.593  12.150  0.6692 -0.4577  0.2596
 6389SOL    HW130803   2.900   3.523  12.183 -0.8646  0.5217 -0.2725
 6389SOL    HW230804   2.981   3.576  12.059 -0.6742  1.6883 -0.5218
 6390SOL     OW30805   3.822   3.093   5.612 -0.3008 -0.2959 -0.0706
 6390SOL    HW130806   3.917   3.104   5.619 -0.1075 -2.0359  0.0433
 6390SOL    HW230807   3.802   3.067   5.702  1.0113  2.6748  1.0635
 6391SOL     OW30808   1.611   1.272   5.976 -0.2362  0.0094 -0.2423
 6391SOL    HW130809   1.557   1.206   6.020  1.1117 -0.5594  0.5309
 6391SOL    HW230810   1.637   1.325   6.051 -0.3306  1.6321 -1.3671
 6392SOL     OW30811   3.038   3.499   8.793 -0.4281  0.2104  0.1847
 6392SOL    HW130812   3.023   3.450   8.712 -0.8266  1.0085 -0.2173
 6392SOL    HW230813   3.074   3.427   8.845  0.0053  0.1697 -0.1699
 6393SOL     OW30814   3.706   2.019  15.352  0.6106  0.4021  0.0668
 6393SOL    HW130815   3.730   2.037  15.443 -1.0556  2.9285 -0.0004
 6393SOL    HW230816   3.762   1.945  15.330  1.1957  0.5015  1.1877
 6394SOL     OW30817   3.275   0.882   6.688  0.6185 -0.0845 -0.2668
 6394SOL    HW130818   3.369   0.868   6.678  0.8069  0.9395  0.0436
 6394SOL    HW230819   3.238   0.800   6.654 -0.2601  0.2065 -0.0188
 6395SOL     OW30820   0.951   2.786   6.046  0.1321  0.6007 -0.5179
 6395SOL    HW130821   0.938   2.722   6.116  1.8995 -0.6186 -1.3116
 6395SOL    HW230822   0.963   2.861   6.105 -1.4709  1.0550 -0.7840
 6396SOL     OW30823   3.432   0.022  10.774  0.3760 -0.1312  0.0660
 6396SOL    HW130824   3.381   4.698  10.827 -0.9405 -0.5104 -1.6088
 6396SOL    HW230825   3.517   4.715  10.780  0.5083  0.2494  0.9666
 6397SOL     OW30826   2.847   3.216   6.509 -0.6706  0.0851 -0.3100
 6397SOL    HW130827   2.837   3.140   6.566  2.7165  0.3275  0.5797
 6397SOL    HW230828   2.790   3.273   6.561 -2.5014 -0.7497 -1.3805
 6398SOL     OW30829   2.130   3.193  12.844  0.4058  0.2735  0.0865
 6398SOL    HW130830   2.206   3.175  12.789 -0.4717 -2.6760 -0.1697
 6398SOL    HW230831   2.088   3.262  12.793  0.0524 -0.9741 -1.2950
 6399SOL     OW30832   4.675   4.546   5.436  0.7714  0.2867 -0.4163
 6399SOL    HW130833   4.619   4.479   5.398  1.6947 -0.3581 -0.6554
 6399SOL    HW230834   4.617   4.622   5.440 -1.9935 -1.8315 -0.4725
 6400SOL     OW30835   0.195   1.598   5.883 -0.0524  0.1977 -0.2036
 6400SOL    HW130836   0.268   1.541   5.909 -1.6929 -1.3677  0.9128
 6400SOL    HW230837   0.130   1.563   5.944  0.8325  3.4234  2.6301
 6401SOL     OW30838   2.464   4.311   1.976  0.1674  0.4194  0.4994
 6401SOL    HW130839   2.406   4.246   2.016  0.8542 -0.7586 -0.4262
 6401SOL    HW230840   2.502   4.338   2.060 -1.8476 -0.7149  1.7594
 6402SOL     OW30841   2.528   1.905   1.963  0.0397  0.5769  0.2135
 6402SOL    HW130842   2.460   1.839   1.978  0.7147 -0.2158 -0.1800
 6402SOL    HW230843   2.479   1.987   1.969  0.7374  0.8645  1.8819
 6403SOL     OW30844   4.044   4.102   3.900 -0.1433  0.1778 -0.3882
 6403SOL    HW130845   4.108   4.162   3.939 -1.6268 -0.2350  2.6647
 6403SOL    HW230846   4.077   4.099   3.810 -1.4817  0.0724 -0.8758
 6404SOL     OW30847   0.222   1.944  12.336 -0.0051  0.3529  0.0800
 6404SOL    HW130848   0.130   1.969  12.337 -0.6453 -2.0979  1.2078
 6404SOL    HW230849   0.210   1.855  12.368  0.5396 -0.8916 -3.1031
 6405SOL     OW30850   2.896   4.204   2.139 -0.3030  0.5436  0.1103
 6405SOL    HW130851   2.867   4.262   2.208 -1.1912 -0.9436  0.9973
 6405SOL    HW230852   2.969   4.258   2.110 -0.4928  0.7623  0.0496
 6406SOL     OW30853   0.149   0.223   9.014 -0.7295 -0.3998 -0.3783
 6406SOL    HW130854   0.106   0.174   8.944 -1.0154 -2.4240  1.2108
 6406SOL    HW230855   0.208   0.276   8.960  1.4130 -0.2113  2.1798
 6407SOL     OW30856   1.000   3.283   3.193  0.2264 -0.0666  0.5414
 6407SOL    HW130857   0.947   3.308   3.117 -0.7749 -0.9406  0.9480
 6407SOL    HW230858   0.993   3.370   3.233 -0.2442  0.1397  0.0043
 6408SOL     OW30859   2.498   1.399   3.257 -0.2443 -0.3684 -0.3167
 6408SOL    HW130860   2.431   1.467   3.250  0.7240  0.5453 -0.6751
 6408SOL    HW230861   2.501   1.379   3.351 -4.6305  0.9365  0.1164
 6409SOL     OW30862   4.109   2.993   2.164  0.5908 -0.5809 -0.5575
 6409SOL    HW130863   4.200   3.021   2.168  0.3440  0.5027 -2.2826
 6409SOL    HW230864   4.114   2.907   2.120 -0.0763 -0.4536 -0.8955
 6410SOL     OW30865   3.194   2.155  10.848  0.5647  0.0067  0.4272
 6410SOL    HW130866   3.192   2.251  10.858  0.4112 -0.0947  1.3714
 6410SOL    HW230867   3.243   2.158  10.766 -1.9992 -0.7320 -1.1485
 6411SOL     OW30868   1.374   1.883  12.273  0.2184 -0.4635 -0.3401
 6411SOL    HW130869   1.431   1.817  12.233  1.9990  0.7453  0.1808
 6411SOL    HW230870   1.298   1.829  12.293  2.6307 -3.1589  1.7175
 6412SOL     OW30871   1.070   0.544   5.274 -0.3207  0.4522  0.0533
 6412SOL    HW130872   1.093   0.550   5.181  2.2308 -0.0487  0.6604
 6412SOL    HW230873   1.118   0.622   5.302  0.3484 -0.4308  1.3532
 6413SOL     OW30874   4.596   1.874   7.244  0.2498 -0.2064 -0.3513
 6413SOL    HW130875   4.527   1.852   7.306  0.7551  1.0993  0.6750
 6413SOL    HW230876   4.600   1.786   7.205 -1.6643 -0.6491  0.4886
 6414SOL     OW30877   3.294   1.994   8.956 -0.0571 -0.0786 -0.0695
 6414SOL    HW130878   3.211   1.963   8.921 -1.0143  0.7700  1.4577
 6414SOL    HW230879   3.341   1.914   8.978  0.8806  0.0767 -1.5060
 6415SOL     OW30880   2.795   0.686  11.735 -0.6525 -0.1165  0.1926
 6415SOL    HW130881   2.872   0.736  11.708 -0.7789  1.4213  2.6566
 6415SOL    HW230882   2.726   0.709  11.674 -1.2616 -0.9915  0.5456
 6416SOL     OW30883   1.672   2.728  12.431 -0.4934 -0.3721 -0.1428
 6416SOL    HW130884   1.623   2.652  12.465 -0.0981 -0.9601 -0.8902
 6416SOL    HW230885   1.695   2.700  12.342 -0.9021 -2.4240  0.3920
 6417SOL     OW30886   1.937   2.772  12.270  0.0735 -0.2237 -0.2758
 6417SOL    HW130887   1.856   2.806  12.307 -0.0045  1.6364 -2.1804
 6417SOL    HW230888   1.922   2.677  12.276 -0.3288 -0.1689 -0.4101
 6418SOL     OW30889   2.907   2.300   7.865 -0.3966 -0.9607  0.2371
 6418SOL    HW130890   2.844   2.321   7.934  1.0873 -0.7039  1.4954
 6418SOL    HW230891   2.844   2.285   7.795  1.3025 -0.5744 -1.3742
 6419SOL     OW30892   2.705   0.736   5.600 -0.0562 -0.0174 -0.3988
 6419SOL    HW130893   2.776   0.739   5.537  1.2349 -1.0396  0.9871
 6419SOL    HW230894   2.697   0.825   5.634  1.6580  0.8142 -2.2260
 6420SOL     OW30895   4.306   0.168   8.560  0.0054 -0.0777 -0.3969
 6420SOL    HW130896   4.303   0.093   8.619 -1.0012 -0.1357 -0.5320
 6420SOL    HW230897   4.356   0.127   8.489  0.2874 -0.1863 -0.1409
 6421SOL     OW30898   4.132   0.250  16.096 -0.1064  0.1668  0.1626
 6421SOL    HW130899   4.175   0.329  16.129 -0.3289  0.6187 -0.6136
 6421SOL    HW230900   4.045   0.290  16.086  0.8777  1.8290 -1.7735
 6422SOL     OW30901   3.116   2.973   6.826 -0.1037 -0.0529 -0.4729
 6422SOL    HW130902   3.061   3.005   6.755 -0.0363 -0.2182 -0.6006
 6422SOL    HW230903   3.141   3.048   6.880  3.7147  0.1305 -2.5057
 6423SOL     OW30904   0.518   3.089   6.384  0.3882 -0.1543  0.0615
 6423SOL    HW130905   0.557   3.163   6.431 -1.5726  0.6856  0.3344
 6423SOL    HW230906   0.567   3.023   6.434  0.5538  0.2610  0.4480
 6424SOL     OW30907   1.261   4.473  13.808 -0.5464 -0.2673 -0.3697
 6424SOL    HW130908   1.345   4.460  13.853 -1.0110  0.1586  0.6209
 6424SOL    HW230909   1.229   4.384  13.791 -0.6891 -0.4251  0.7246
 6425SOL     OW30910   4.634   1.338   1.624 -0.3241  0.3082  0.4802
 6425SOL    HW130911   4.606   1.313   1.712 -1.8236  0.4424  0.0504
 6425SOL    HW230912   4.701   1.275   1.597  0.1809  0.8406  0.4895
 6426SOL     OW30913   1.398   2.333  15.745 -0.1623  0.1578 -0.0410
 6426SOL    HW130914   1.375   2.264  15.808 -0.0027 -0.3775 -0.5692
 6426SOL    HW230915   1.493   2.321  15.747 -0.1764  0.1417  0.4121
 6427SOL     OW30916   2.006   4.208   3.221  0.1164 -0.4296 -0.0983
 6427SOL    HW130917   2.063   4.215   3.145 -1.1974  0.5628 -0.9919
 6427SOL    HW230918   2.061   4.219   3.299  0.2423 -1.2512 -0.0618
 6428SOL     OW30919   3.771   4.235   5.938 -0.3672  0.0813 -0.1888
 6428SOL    HW130920   3.695   4.178   5.928  0.4894 -0.6577 -2.6485
 6428SOL    HW230921   3.800   4.223   6.028  1.9752 -2.7378 -1.3482
 6429SOL     OW30922   0.078   2.909  14.365  0.4727 -0.0650 -0.0918
 6429SOL    HW130923   4.736   2.934  14.414  1.5629  1.9687  0.5824
 6429SOL    HW230924   0.116   2.993  14.339  4.1161 -1.6578  0.0596
 6430SOL     OW30925   4.228   2.421   0.958  0.6186 -0.1093 -0.0721
 6430SOL    HW130926   4.274   2.340   0.935  0.9542  0.8218 -2.6936
 6430SOL    HW230927   4.159   2.400   1.021 -0.1799  1.7096 -0.3219
 6431SOL     OW30928   2.862   0.522   6.975  0.2190  0.4429  0.1456
 6431SOL    HW130929   2.849   0.493   6.885 -5.6592 -1.3553  1.5422
 6431SOL    HW230930   2.840   0.447   7.030  0.2238  1.1849  1.1758
 6432SOL     OW30931   1.850   0.732   4.211 -0.3488  0.1660 -0.1075
 6432SOL    HW130932   1.825   0.658   4.157  2.1309 -0.0139 -0.9864
 6432SOL    HW230933   1.856   0.701   4.302 -1.6325  0.7296  0.1689
 6433SOL     OW30934   2.633   2.132   3.010  0.2459  0.1609 -0.4166
 6433SOL    HW130935   2.714   2.182   3.001  1.4582 -1.0132  3.7360
 6433SOL    HW230936   2.605   2.165   3.095 -0.9068 -0.2454 -0.6425
 6434SOL     OW30937   1.596   1.850   1.387 -0.1197  0.3727  0.1004
 6434SOL    HW130938   1.579   1.919   1.450 -1.4269 -1.2468  1.5271
 6434SOL    HW230939   1.692   1.845   1.379 -0.0701 -0.6396  1.3308
 6435SOL     OW30940   0.464   0.356   2.396  0.3012 -0.7725 -0.2464
 6435SOL    HW130941   0.474   0.325   2.487  0.5664  1.2783  0.4157
 6435SOL    HW230942   0.522   0.431   2.407 -1.1518  0.3957 -0.6662
 6436SOL     OW30943   3.624   0.870  17.160 -0.5622  0.2769 -0.7688
 6436SOL    HW130944   3.566   0.801  17.193 -0.2464 -0.9751 -2.8841
 6436SOL    HW230945   3.561   0.941  17.150  3.4792  3.3657 -3.6083
 6437SOL     OW30946   3.147   0.176   6.706 -0.1889 -0.2560  0.1231
 6437SOL    HW130947   3.162   0.085   6.679  1.1442 -0.9827  3.4036
 6437SOL    HW230948   3.161   0.161   6.799  0.5261 -1.7420 -0.2056
 6438SOL     OW30949   1.859   2.632   9.105  0.3499 -0.0945 -0.5429
 6438SOL    HW130950   1.941   2.594   9.136 -0.7445  0.5615  3.1045
 6438SOL    HW230951   1.852   2.709   9.162  0.8569 -0.9992  0.7443
 6439SOL     OW30952   3.720   2.668   3.038 -0.3405  0.3175 -0.0493
 6439SOL    HW130953   3.691   2.636   3.123  2.6187  0.1137  0.8691
 6439SOL    HW230954   3.815   2.656   3.035 -0.4259 -0.4239  0.5278
 6440SOL     OW30955   2.903   2.864   1.825  0.8297 -0.3080 -0.3518
 6440SOL    HW130956   2.923   2.948   1.784 -0.8051  1.9898  3.5697
 6440SOL    HW230957   2.898   2.897   1.915  0.1935  0.7134 -0.7661
 6441SOL     OW30958   2.980   4.644   4.355  0.1013  0.6576  0.4424
 6441SOL    HW130959   2.970   4.562   4.306 -3.0733  0.6526  1.1417
 6441SOL    HW230960   2.890   4.676   4.364 -0.0757  0.8517 -2.0517
 6442SOL     OW30961   0.889   3.324   3.825  0.7209 -0.3769  0.6946
 6442SOL    HW130962   0.879   3.269   3.902  0.9538  1.7012  2.2052
 6442SOL    HW230963   0.984   3.340   3.829  0.6097  0.7198 -0.7411
 6443SOL     OW30964   2.794   0.130   4.769 -0.0928  0.2955 -0.5261
 6443SOL    HW130965   2.826   0.044   4.797 -1.8430 -0.1365  0.1897
 6443SOL    HW230966   2.848   0.187   4.824  0.6257  0.0521 -0.9777
 6444SOL     OW30967   0.206   1.490  10.395  0.8567  0.6022  0.0799
 6444SOL    HW130968   0.134   1.445  10.351  0.8737  1.3329 -0.7045
 6444SOL    HW230969   0.153   1.537  10.460 -2.3093 -2.4709 -0.2974
 6445SOL     OW30970   1.822   4.370   3.685 -0.1626 -0.0278 -0.6867
 6445SOL    HW130971   1.809   4.279   3.712  1.6181 -0.1357 -0.2126
 6445SOL    HW230972   1.915   4.383   3.700 -0.1673  1.3083 -1.8244
 6446SOL     OW30973   1.372   2.971   8.500  0.0917 -0.4118  0.0462
 6446SOL    HW130974   1.407   3.060   8.501  1.4527 -0.9618  1.3738
 6446SOL    HW230975   1.298   2.982   8.440  0.4731 -2.0448 -0.7221
 6447SOL     OW30976   1.558   0.374   4.610 -0.3205 -1.3370 -0.1714
 6447SOL    HW130977   1.542   0.281   4.597 -1.1085 -1.5614  2.3572
 6447SOL    HW230978   1.645   0.376   4.651 -0.6646 -1.9447  0.6011
 6448SOL     OW30979   1.442   3.912   5.092  0.3843  0.2033 -0.7932
 6448SOL    HW130980   1.371   3.855   5.120  0.1968  0.5150 -0.6366
 6448SOL    HW230981   1.426   3.912   4.998 -0.7849 -0.7767 -0.5846
 6449SOL     OW30982   0.339   3.530   9.020  0.2176 -0.3513  0.6835
 6449SOL    HW130983   0.334   3.436   9.039  1.6624 -0.4175  0.8009
 6449SOL    HW230984   0.325   3.535   8.926 -0.3647 -0.4686  0.7673
 6450SOL     OW30985   1.341   3.884   4.525 -0.1486  0.4020  0.2950
 6450SOL    HW130986   1.314   3.798   4.492  1.9823 -0.4231  0.7009
 6450SOL    HW230987   1.325   3.937   4.447  2.2349  0.7231  0.0272
 6451SOL     OW30988   0.616   3.639  10.784  0.1299 -0.2934  0.0226
 6451SOL    HW130989   0.673   3.696  10.732  0.1941  1.3923  1.9317
 6451SOL    HW230990   0.651   3.552  10.765 -1.3620 -0.6599 -1.0715
 6452SOL     OW30991   3.643   3.761   8.574  0.2914 -0.1400  0.1559
 6452SOL    HW130992   3.643   3.697   8.646 -0.0631  2.6196  2.5995
 6452SOL    HW230993   3.722   3.726   8.532  0.6732 -0.5276  1.2005
 6453SOL     OW30994   3.224   1.076   0.265 -0.4980  0.2009  0.1437
 6453SOL    HW130995   3.283   1.077   0.341 -1.0903  3.5742  0.5487
 6453SOL    HW230996   3.163   1.145   0.291 -0.3367 -0.5078  2.4065
 6454SOL     OW30997   1.009   0.873   9.038  0.3509  0.1330 -0.0238
 6454SOL    HW130998   0.925   0.836   9.011  0.3149  0.6727 -0.6480
 6454SOL    HW230999   0.980   0.949   9.088 -1.9148 -2.4189  2.4978
 6455SOL     OW31000   2.388   3.784   0.461 -0.0980  0.0018  0.2416
 6455SOL    HW131001   2.431   3.852   0.512 -0.4885 -0.3880  1.0982
 6455SOL    HW231002   2.453   3.779   0.391 -0.0798  0.1485  0.2483
 6456SOL     OW31003   1.667   2.069   9.416  0.0650  0.2892 -0.1197
 6456SOL    HW131004   1.651   2.134   9.348 -1.9132 -0.2200 -0.1336
 6456SOL    HW231005   1.680   2.130   9.489 -2.2878 -0.8850  1.2782
 6457SOL     OW31006   1.805   1.463   0.657  0.2517 -0.1705 -0.3325
 6457SOL    HW131007   1.770   1.538   0.705 -2.9610 -0.8711 -1.5336
 6457SOL    HW231008   1.744   1.467   0.583  0.2829  1.7106 -0.2575
 6458SOL     OW31009   1.885   0.088   0.574  0.3418 -0.5171  0.3021
 6458SOL    HW131010   1.981   0.085   0.581  0.4287 -0.7249 -0.8984
 6458SOL    HW231011   1.872   0.142   0.651 -0.4151 -0.0417 -0.1597
 6459SOL     OW31012   4.711   0.358  17.479  0.4387  0.0356 -0.1311
 6459SOL    HW131013   4.655   0.416  17.427  0.2176 -1.6818 -1.8060
 6459SOL    HW231014   0.029   0.423  17.524  0.6467 -0.9911  1.1426
 6460SOL     OW31015   3.971   0.973   5.681  0.0564 -0.4303  0.1496
 6460SOL    HW131016   3.958   0.886   5.719 -1.8125  0.0486  0.6158
 6460SOL    HW231017   3.884   1.008   5.701 -0.7207 -2.1424 -0.2075
 6461SOL     OW31018   2.706   3.449   6.628 -0.0032 -0.4442  0.6348
 6461SOL    HW131019   2.734   3.540   6.612 -0.3308 -0.3871  0.3780
 6461SOL    HW231020   2.628   3.465   6.681 -0.0286 -2.3038  1.1429
 6462SOL     OW31021   3.516   0.256  10.715 -0.0295 -0.5992 -0.3704
 6462SOL    HW131022   3.506   0.302  10.799  0.1171  0.8842 -1.1672
 6462SOL    HW231023   3.482   0.171  10.744  1.2662 -0.6546  0.9638
 6463SOL     OW31024   3.390   0.622   8.386  0.4011 -0.0760 -0.0017
 6463SOL    HW131025   3.446   0.654   8.316  0.9599  2.1018  1.4497
 6463SOL    HW231026   3.447   0.664   8.450  0.0666 -0.9784  0.8852
 6464SOL     OW31027   4.278   2.735   2.335  0.6802  0.1196 -0.6551
 6464SOL    HW131028   4.351   2.687   2.296  1.5297 -0.5584  1.7839
 6464SOL    HW231029   4.208   2.734   2.270 -0.5636  2.4365  0.6261
 6465SOL     OW31030   2.864   2.264   6.216 -0.5548 -0.1587  0.6939
 6465SOL    HW131031   2.861   2.178   6.258  1.7066 -0.9548 -0.7657
 6465SOL    HW231032   2.842   2.315   6.293 -0.7313 -1.5143  1.5413
 6466SOL     OW31033   2.829   1.528   4.008  0.2598  0.0708 -0.3006
 6466SOL    HW131034   2.779   1.518   3.927 -1.0189  2.1066  0.2225
 6466SOL    HW231035   2.870   1.442   4.017  1.6537  0.7194 -0.5781
 6467SOL     OW31036   4.301   2.606   0.229  0.3173  0.0092  0.6247
 6467SOL    HW131037   4.314   2.524   0.182 -1.1449  0.6208 -0.8274
 6467SOL    HW231038   4.393   2.623   0.252  0.4459 -0.6704  0.6274
 6468SOL     OW31039   4.212   2.101  13.298  0.1768 -0.2527 -0.0068
 6468SOL    HW131040   4.184   2.019  13.339 -1.1704  0.3845  0.3549
 6468SOL    HW231041   4.161   2.090  13.218  0.2716 -0.0831 -0.0895
 6469SOL     OW31042   2.740   0.607  11.100  0.7340  0.3610 -0.1949
 6469SOL    HW131043   2.832   0.601  11.076  0.6196  2.3564 -1.1372
 6469SOL    HW231044   2.702   0.562  11.025 -0.3529  2.8018 -1.1143
 6470SOL     OW31045   0.707   0.407   7.103 -0.4793 -0.6853  0.3376
 6470SOL    HW131046   0.640   0.359   7.055  0.0790 -1.1337  0.0047
 6470SOL    HW231047   0.793   0.388   7.066 -0.9417 -1.7759 -0.1725
 6471SOL     OW31048   3.678   0.690   3.394 -0.4315  0.7824 -0.1682
 6471SOL    HW131049   3.691   0.782   3.418  1.6590  0.4497 -0.0482
 6471SOL    HW231050   3.766   0.655   3.409 -0.7917  0.1700  0.5232
 6472SOL     OW31051   4.699   4.148   4.392 -0.3940 -0.0891  0.1007
 6472SOL    HW131052   0.035   4.210   4.402  0.3580 -1.0635  0.7276
 6472SOL    HW231053   0.015   4.069   4.405 -1.2527 -0.4074  1.5523
 6473SOL     OW31054   4.711   0.548  15.370  0.4199  0.5691  0.2085
 6473SOL    HW131055   4.617   0.541  15.387  0.4785  1.2880  0.8282
 6473SOL    HW231056   0.000   0.634  15.403 -0.8448  1.5625 -1.4083
 6474SOL     OW31057   3.012   3.404   8.533 -0.3300  0.0494  0.4850
 6474SOL    HW131058   3.067   3.480   8.511  0.4500 -0.2755  1.3293
 6474SOL    HW231059   2.997   3.370   8.445 -2.8556 -0.1593  0.9885
 6475SOL     OW31060   0.943   4.494   2.423  0.2762 -0.2748  0.5208
 6475SOL    HW131061   1.036   4.472   2.416  0.4178 -0.1685  2.0385
 6475SOL    HW231062   0.942   4.589   2.419  1.4698 -0.1833  2.2932
 6476SOL     OW31063   1.321   1.018   4.647 -0.1718 -0.4410 -0.2405
 6476SOL    HW131064   1.403   0.976   4.619 -0.3435  0.5018 -2.1538
 6476SOL    HW231065   1.261   0.944   4.635 -1.3398  0.4470  0.0970
 6477SOL     OW31066   0.372   2.033   7.656 -0.6893 -0.7401 -0.2918
 6477SOL    HW131067   0.295   1.985   7.686 -0.3313 -0.3493  1.2570
 6477SOL    HW231068   0.393   1.963   7.594  0.2172 -1.6783  1.0798
 6478SOL     OW31069   1.855   2.329   8.108  0.1134  0.3446 -0.2608
 6478SOL    HW131070   1.810   2.336   8.025 -1.0836  1.4585  0.4868
 6478SOL    HW231071   1.795   2.378   8.164 -1.3752  0.4209 -1.9525
 6479SOL     OW31072   0.422   3.978   5.943  0.3275  0.0017 -0.1527
 6479SOL    HW131073   0.388   3.911   6.002 -0.5175 -0.9703 -1.7568
 6479SOL    HW231074   0.400   3.942   5.857  3.1543 -0.1382 -0.8384
 6480SOL     OW31075   1.320   0.619   4.064 -0.4346  0.4225  0.7294
 6480SOL    HW131076   1.349   0.552   4.125  0.0512 -0.9846 -1.0459
 6480SOL    HW231077   1.395   0.678   4.062 -2.0176  2.3877 -0.2811
 6481SOL     OW31078   3.775   1.127   6.748  0.7204 -0.4224  0.1329
 6481SOL    HW131079   3.804   1.081   6.826  0.0444 -0.0800  0.5908
 6481SOL    HW231080   3.756   1.048   6.699 -0.8308 -0.8025  1.3441
 6482SOL     OW31081   0.927   3.761   8.172  0.3510 -0.3422  0.0440
 6482SOL    HW131082   0.948   3.745   8.080  1.6886  0.8323  0.1562
 6482SOL    HW231083   0.834   3.775   8.155  0.9556 -0.1947 -3.2111
 6483SOL     OW31084   0.842   2.344   3.176 -0.5948 -0.2747 -0.4478
 6483SOL    HW131085   0.760   2.320   3.220 -0.7647  2.0476  0.5069
 6483SOL    HW231086   0.889   2.381   3.250  0.5216  0.5654 -1.5850
 6484SOL     OW31087   1.550   0.783   3.987 -0.6082 -0.1695  0.1511
 6484SOL    HW131088   1.603   0.857   3.958 -1.2050  0.7591  1.4255
 6484SOL    HW231089   1.591   0.707   3.945  0.6283  0.9444 -0.6351
 6485SOL     OW31090   2.607   3.182   4.713 -0.0113  0.0809  0.3976
 6485SOL    HW131091   2.636   3.272   4.726 -0.7348  0.2750  0.6521
 6485SOL    HW231092   2.556   3.209   4.636 -0.6436 -2.7379 -0.1647
 6486SOL     OW31093   2.328   0.809  11.724  0.3265  0.5440  0.0722
 6486SOL    HW131094   2.307   0.893  11.766  0.1030  0.5534 -0.0544
 6486SOL    HW231095   2.378   0.765  11.792 -0.5373  0.7716  0.8585
 6487SOL     OW31096   3.134   4.648   3.359 -0.2337  0.2062  0.7168
 6487SOL    HW131097   3.190   4.644   3.282 -1.0000  1.0777  0.1256
 6487SOL    HW231098   3.045   4.652   3.324 -0.3110 -2.3661  0.6207
 6488SOL     OW31099   1.451   1.158  15.947 -0.1716 -0.5198 -0.2118
 6488SOL    HW131100   1.414   1.211  15.877 -1.1576 -1.9243 -0.7573
 6488SOL    HW231101   1.504   1.226  15.988 -0.9006 -0.8410  1.2818
 6489SOL     OW31102   1.224   0.467  13.145 -0.1615 -0.3026  0.1700
 6489SOL    HW131103   1.309   0.477  13.187  0.1012 -0.4199 -0.3295
 6489SOL    HW231104   1.226   0.515  13.062 -0.7445 -0.3621  0.1152
 6490SOL     OW31105   0.010   4.125  13.163  0.2918 -0.2003  0.6696
 6490SOL    HW131106   4.697   4.207  13.152 -0.0142 -0.4063  0.4907
 6490SOL    HW231107   0.081   4.134  13.099  0.8721 -1.3431  1.1606
 6491SOL     OW31108   1.982   3.966   7.583  0.3988 -0.3395 -0.4687
 6491SOL    HW131109   1.904   4.015   7.608  0.0992 -1.8248  1.5234
 6491SOL    HW231110   2.036   4.038   7.549 -1.5051  1.3650  0.0834
 6492SOL     OW31111   3.807   2.071   2.869 -0.0717 -0.1115 -0.2946
 6492SOL    HW131112   3.724   2.098   2.908  0.0436 -1.8843  1.1592
 6492SOL    HW231113   3.844   2.157   2.851  0.0976 -0.4133 -1.4369
 6493SOL     OW31114   0.422   1.619  15.224  0.1071 -0.5511  0.0908
 6493SOL    HW131115   0.493   1.664  15.270 -0.3896  0.5603 -0.2293
 6493SOL    HW231116   0.400   1.551  15.287 -1.5125 -1.1692 -1.1495
 6494SOL     OW31117   3.100   2.474  10.208  0.3481 -0.2373  0.3236
 6494SOL    HW131118   3.189   2.469  10.174  0.5354 -0.9986  0.9417
 6494SOL    HW231119   3.087   2.401  10.268 -1.9174 -2.0839 -2.3889
 6495SOL     OW31120   3.613   0.961   1.812  0.2189 -0.2727 -0.8076
 6495SOL    HW131121   3.535   0.936   1.861  1.5057  1.5772  2.2039
 6495SOL    HW231122   3.576   1.038   1.769 -1.0394 -0.3564  0.1228
 6496SOL     OW31123   4.250   0.711  11.693 -0.1950 -0.3852  0.5258
 6496SOL    HW131124   4.191   0.757  11.633  0.2178 -1.5916 -0.8106
 6496SOL    HW231125   4.191   0.641  11.720 -0.3748 -0.8338 -1.0256
 6497SOL     OW31126   4.360   3.008   2.220 -0.8672 -0.3728 -0.0482
 6497SOL    HW131127   4.446   2.965   2.225 -1.4117 -1.4454  0.0269
 6497SOL    HW231128   4.324   2.991   2.307 -1.5038 -1.6269 -0.5612
 6498SOL     OW31129   0.068   3.902   4.450  0.8966 -0.3033 -0.0735
 6498SOL    HW131130   0.094   3.836   4.515 -1.5234 -0.9388  0.2264
 6498SOL    HW231131   0.138   3.912   4.385  0.4885 -0.4280 -0.5236
 6499SOL     OW31132   3.982   0.167   6.592  0.1471 -0.1013  0.4057
 6499SOL    HW131133   3.892   0.160   6.625 -0.3458  1.8324 -0.5640
 6499SOL    HW231134   3.993   0.087   6.541 -0.2961  0.8243 -1.1377
 6500SOL     OW31135   1.045   0.373  14.649 -0.0182  0.3373 -0.2987
 6500SOL    HW131136   1.083   0.285  14.655 -0.2317  0.3413  1.0592
 6500SOL    HW231137   1.113   0.421  14.695  0.2381  0.0985 -0.4269
 6501SOL     OW31138   2.256   2.742   2.604 -0.9647  0.0335  0.4648
 6501SOL    HW131139   2.243   2.820   2.551  1.4454 -0.6677 -1.1511
 6501SOL    HW231140   2.264   2.675   2.537 -1.2724 -0.3448  0.8019
 6502SOL     OW31141   1.789   4.584   9.284  0.1582  0.3618  0.1425
 6502SOL    HW131142   1.854   4.530   9.328 -0.9711 -1.8634 -0.9573
 6502SOL    HW231143   1.800   4.671   9.324 -0.0718  0.5300 -0.1587
 6503SOL     OW31144   3.970   0.973   1.728 -0.1078  0.4056  0.1331
 6503SOL    HW131145   4.057   0.941   1.753 -1.0615 -0.6049  2.1528
 6503SOL    HW231146   3.927   0.894   1.695  0.0840 -0.0438  0.9366
 6504SOL     OW31147   2.105   3.588   6.481 -0.5163 -0.3305 -0.2427
 6504SOL    HW131148   2.110   3.503   6.437 -0.9299  0.1641 -1.2620
 6504SOL    HW231149   2.037   3.580   6.548 -0.5371 -0.3811 -0.2696
 6505SOL     OW31150   4.203   4.062   4.999  0.5157  0.8230 -0.5482
 6505SOL    HW131151   4.296   4.039   5.008  0.4071  0.3094 -0.7114
 6505SOL    HW231152   4.195   4.079   4.905  0.2461  0.7621 -0.5340
 6506SOL     OW31153   4.374   0.835   0.791 -0.4075  0.0675 -0.2798
 6506SOL    HW131154   4.390   0.765   0.729 -1.0032 -0.9925  0.7670
 6506SOL    HW231155   4.333   0.784   0.861  1.4057 -0.0270  0.6897
 6507SOL     OW31156   3.883   1.672   6.166  0.5209  1.0395  0.4430
 6507SOL    HW131157   3.879   1.765   6.190  1.6767  1.5368 -1.2503
 6507SOL    HW231158   3.978   1.665   6.156  0.4898  0.0022  0.8860
 6508SOL     OW31159   3.554   4.322   8.853 -0.0773 -0.2510 -0.0769
 6508SOL    HW131160   3.558   4.242   8.906 -1.0009 -0.6929 -0.6641
 6508SOL    HW231161   3.607   4.298   8.778 -1.3369  0.7970 -1.3121
 6509SOL     OW31162   3.686   4.556  16.258 -0.0945  0.3225  0.0620
 6509SOL    HW131163   3.673   4.559  16.353 -0.7631 -1.0721  0.0020
 6509SOL    HW231164   3.715   4.646  16.238  0.6743  0.1353  0.3239
 6510SOL     OW31165   2.841   2.532   8.060 -0.5841 -0.3792 -0.7725
 6510SOL    HW131166   2.862   2.450   8.105  1.5350  1.2948  1.3491
 6510SOL    HW231167   2.914   2.584   8.092 -0.4229 -1.0154 -0.0956
 6511SOL     OW31168   2.351   0.672   3.928  0.2152 -0.1200 -0.9141
 6511SOL    HW131169   2.433   0.625   3.944  1.0407  1.5272 -0.3545
 6511SOL    HW231170   2.386   0.759   3.945  1.2676 -1.1294  2.0751
 6512SOL     OW31171   0.375   4.549  17.574  0.1265  0.0590  0.2138
 6512SOL    HW131172   0.318   4.491  17.624 -0.7657  2.3499  1.8675
 6512SOL    HW231173   0.464   4.534  17.608 -0.7023  0.2989  2.4830
 6513SOL     OW31174   1.476   0.427   9.353  0.4635  0.5604 -0.4768
 6513SOL    HW131175   1.460   0.471   9.436 -3.8454  0.8421 -1.4785
 6513SOL    HW231176   1.395   0.377   9.341  0.7998 -0.6083  2.1165
 6514SOL     OW31177   1.568   0.897  13.587 -0.5749  0.1074 -0.1108
 6514SOL    HW131178   1.644   0.941  13.549 -0.1327  1.2321  2.0797
 6514SOL    HW231179   1.505   0.899  13.515 -1.2019  1.0629  0.4635
 6515SOL     OW31180   0.758   0.399   7.580 -0.3180 -0.1041  0.1403
 6515SOL    HW131181   0.830   0.408   7.517 -1.0489 -0.1056 -0.6870
 6515SOL    HW231182   0.789   0.317   7.618  0.5388  0.1315 -0.0386
 6516SOL     OW31183   2.072   1.761   7.419 -0.1553 -0.4181  0.4918
 6516SOL    HW131184   2.121   1.689   7.379  0.3213 -0.7215  1.6230
 6516SOL    HW231185   2.139   1.794   7.479  0.5164  2.5800 -1.9098
 6517SOL     OW31186   1.764   0.494   8.385 -0.0448  0.1691  0.0779
 6517SOL    HW131187   1.838   0.436   8.401 -0.2812 -0.5516 -1.4522
 6517SOL    HW231188   1.725   0.507   8.471  2.8201 -2.7686  1.8029
 6518SOL     OW31189   1.477   3.159   4.047 -0.0115 -0.7344 -0.6394
 6518SOL    HW131190   1.430   3.237   4.073 -0.1873  0.0144 -3.2200
 6518SOL    HW231191   1.407   3.097   4.025 -0.0519 -0.6924 -0.6291
 6519SOL     OW31192   2.876   4.479   1.085  0.6186  0.1101  0.2834
 6519SOL    HW131193   2.832   4.473   1.000  1.1061  2.0237 -0.0999
 6519SOL    HW231194   2.801   4.497   1.142  1.8120  0.9622  1.5850
 6520SOL     OW31195   3.538   2.782   0.370 -0.3242  0.2066  0.4681
 6520SOL    HW131196   3.447   2.764   0.390 -1.0393 -0.2388 -3.1668
 6520SOL    HW231197   3.571   2.840   0.439  1.2870  0.9370 -0.9011
 6521SOL     OW31198   4.659   0.473   3.002  0.2670 -0.4403  0.2517
 6521SOL    HW131199   0.014   0.446   3.002  1.0255  2.0676 -1.8164
 6521SOL    HW231200   4.663   0.547   2.940  0.8481 -0.1005  0.6987
 6522SOL     OW31201   4.208   1.793   6.866 -0.3325  0.0144  0.5573
 6522SOL    HW131202   4.296   1.755   6.859 -0.3182  0.3190 -1.0052
 6522SOL    HW231203   4.178   1.814   6.777  0.9722  0.7100  0.2667
 6523SOL     OW31204   0.346   2.758  15.198 -0.1580  0.2636 -0.4113
 6523SOL    HW131205   0.320   2.837  15.151  2.0025  0.0567 -1.9290
 6523SOL    HW231206   0.433   2.752  15.157  0.2201 -1.8654  0.6964
 6524SOL     OW31207   1.605   0.838   3.011 -0.0120  0.5923  0.5210
 6524SOL    HW131208   1.524   0.796   2.983  1.0294 -1.3038  0.3606
 6524SOL    HW231209   1.657   0.860   2.934 -0.2802 -1.5812 -0.2752
 6525SOL     OW31210   3.731   1.503   2.570 -0.0751  0.4378  0.1228
 6525SOL    HW131211   3.733   1.593   2.537 -1.4352 -0.4204 -2.2325
 6525SOL    HW231212   3.706   1.512   2.662 -1.2230 -4.7749  0.2844
 6526SOL     OW31213   1.488   2.515  12.232 -0.0328 -0.2707 -0.0283
 6526SOL    HW131214   1.417   2.578  12.245  2.5719  2.8990 -1.2046
 6526SOL    HW231215   1.453   2.426  12.240 -2.4985  0.9439  2.5551
 6527SOL     OW31216   4.364   1.980   4.749  0.2627 -0.1723 -0.4664
 6527SOL    HW131217   4.409   1.940   4.674  0.3837  1.1379 -1.0996
 6527SOL    HW231218   4.272   1.954   4.748  1.1558 -3.2631 -0.1085
 6528SOL     OW31219   3.068   1.321   0.770  0.0197  0.4451 -0.2855
 6528SOL    HW131220   3.090   1.412   0.747 -1.5484  0.1347 -3.1098
 6528SOL    HW231221   3.159   1.293   0.778 -0.4022 -0.9565 -0.3447
 6529SOL     OW31222   1.185   0.845   3.556  0.0332 -0.3623  0.3202
 6529SOL    HW131223   1.250   0.893   3.504  0.3521 -2.9342 -1.6103
 6529SOL    HW231224   1.242   0.777   3.593  1.5480  1.3509  1.1749
 6530SOL     OW31225   2.121   0.992  12.218  0.1047 -0.3544  0.0074
 6530SOL    HW131226   2.211   1.023  12.224 -0.2992  0.6065  1.1091
 6530SOL    HW231227   2.132   0.915  12.162  0.7668  0.2621 -0.6907
 6531SOL     OW31228   2.852   4.709   3.275 -0.2546  0.2759 -0.1330
 6531SOL    HW131229   2.884   0.063   3.277  1.6001 -0.4227  1.6587
 6531SOL    HW231230   2.777   4.712   3.216 -0.1136 -0.8102 -0.3748
 6532SOL     OW31231   1.730   2.690   9.753  0.0713 -0.1664  0.3991
 6532SOL    HW131232   1.711   2.719   9.842 -1.7418  0.0097 -0.0401
 6532SOL    HW231233   1.760   2.774   9.720 -0.2429 -0.2277 -0.0467
 6533SOL     OW31234   0.138   0.788   4.547 -0.0762  0.0542  0.5035
 6533SOL    HW131235   0.181   0.872   4.526 -0.9044  0.5579  0.8341
 6533SOL    HW231236   0.050   0.809   4.515 -0.9307 -1.6866  1.7770
 6534SOL     OW31237   0.245   3.430   2.035 -1.1003 -0.1319  0.2059
 6534SOL    HW131238   0.268   3.438   2.127 -0.7017 -0.5650  0.1454
 6534SOL    HW231239   0.335   3.435   2.002 -2.1827  0.0321 -2.7389
 6535SOL     OW31240   1.023   3.669   4.817 -0.4728  0.0475 -0.0432
 6535SOL    HW131241   1.117   3.688   4.815 -0.1225 -1.5234  1.6079
 6535SOL    HW231242   0.999   3.666   4.724 -0.4922  2.0520 -0.0940
 6536SOL     OW31243   3.560   4.600   3.301 -0.1657  0.3355 -0.0351
 6536SOL    HW131244   3.519   4.676   3.260  0.3312 -0.4456 -1.9579
 6536SOL    HW231245   3.605   4.641   3.376  0.4154  1.4428 -0.9866
 6537SOL     OW31246   4.101   2.617  17.583  0.0065  0.2915 -0.0203
 6537SOL    HW131247   4.162   2.625  17.509 -0.3480 -1.5090 -0.5128
 6537SOL    HW231248   4.033   2.568  17.536  0.1962  1.1073 -1.1630
 6538SOL     OW31249   0.467   1.431   4.987  0.1186  0.0943  0.0054
 6538SOL    HW131250   0.397   1.385   4.940  1.4834 -0.9300 -1.0525
 6538SOL    HW231251   0.532   1.362   5.001  0.1708  0.5300  1.8106
 6539SOL     OW31252   4.451   1.980   1.442  0.0943 -0.0748  0.1667
 6539SOL    HW131253   4.422   1.894   1.473 -1.1551  0.1876 -0.2751
 6539SOL    HW231254   4.544   1.959   1.451 -0.4854 -0.8545  4.0287
 6540SOL     OW31255   2.255   1.923   7.586 -0.0671  0.0590 -0.1752
 6540SOL    HW131256   2.268   1.917   7.681  0.6895  0.0585 -0.2792
 6540SOL    HW231257   2.220   2.012   7.582 -0.5940 -0.2056 -1.2446
 6541SOL     OW31258   0.505   3.895   2.083 -0.7692 -0.0622 -0.4982
 6541SOL    HW131259   0.560   3.930   2.013 -0.0126  0.3099  0.2674
 6541SOL    HW231260   0.500   3.800   2.068 -1.8186 -0.1206  0.2562
 6542SOL     OW31261   0.929   0.271   7.022 -0.1309  0.9819 -0.0329
 6542SOL    HW131262   0.934   0.229   6.937 -0.5975  2.9072 -1.0036
 6542SOL    HW231263   0.976   0.218   7.087  0.9634  1.8895 -0.0882
 6543SOL     OW31264   1.235   0.290   2.112  0.5391 -0.0860  0.0524
 6543SOL    HW131265   1.178   0.297   2.036  0.4610  1.5423  0.2727
 6543SOL    HW231266   1.318   0.306   2.067  1.4752  0.1953  1.8864
 6544SOL     OW31267   2.863   2.934   2.072 -0.1336  0.1105 -0.1572
 6544SOL    HW131268   2.789   2.878   2.097  0.5106 -0.0898  1.2828
 6544SOL    HW231269   2.849   2.994   2.146 -0.6788 -0.6877  0.3907
 6545SOL     OW31270   3.034   0.466  16.330  1.0829 -0.0621  0.0797
 6545SOL    HW131271   2.994   0.544  16.368 -1.3598 -1.1379 -0.2932
 6545SOL    HW231272   3.070   0.419  16.405  0.0699  1.9601  1.8110
 6546SOL     OW31273   4.718   4.570   7.386 -0.2023  0.4689 -0.4809
 6546SOL    HW131274   4.654   4.625   7.342 -1.1373  1.2834  1.8595
 6546SOL    HW231275   0.009   4.637   7.449 -1.8380 -0.3354  1.0865
 6547SOL     OW31276   1.415   4.404   3.739  0.0427 -0.1494  0.3074
 6547SOL    HW131277   1.461   4.367   3.664  1.8436  1.0291  0.8074
 6547SOL    HW231278   1.324   4.397   3.713 -0.0462  2.2256 -0.0104
 6548SOL     OW31279   3.352   1.517   5.177 -0.0111  0.1683  0.4693
 6548SOL    HW131280   3.352   1.512   5.272  1.2433  0.0516  0.4632
 6548SOL    HW231281   3.435   1.475   5.155 -0.6385 -0.2862 -1.0766
 6549SOL     OW31282   3.623   4.273   8.569  0.3505  0.1879  0.5411
 6549SOL    HW131283   3.661   4.299   8.486 -0.5944 -1.5477 -0.4329
 6549SOL    HW231284   3.699   4.261   8.627  1.7334  0.7460 -1.1626
 6550SOL     OW31285   1.073   0.496   2.612 -0.0644  0.1638  0.0800
 6550SOL    HW131286   0.978   0.484   2.616  0.0331 -1.0285 -1.3018
 6550SOL    HW231287   1.109   0.409   2.630 -0.2207  0.0072 -0.3477
 6551SOL     OW31288   1.809   4.383  12.523  0.5680 -0.2690 -0.3957
 6551SOL    HW131289   1.897   4.358  12.496  0.9555  1.3663 -0.6393
 6551SOL    HW231290   1.806   4.477  12.503  0.6377 -0.4397 -1.2136
 6552SOL     OW31291   2.080   1.507  15.857  0.0328  0.6129  0.4656
 6552SOL    HW131292   2.027   1.580  15.888  1.6141  1.3471  1.4938
 6552SOL    HW231293   2.072   1.460  15.941  1.3885 -1.4187 -0.5280
 6553SOL     OW31294   3.141   4.603   2.108  0.2284 -0.0168 -0.4131
 6553SOL    HW131295   3.111   4.661   2.178 -1.5038 -3.2734  1.4904
 6553SOL    HW231296   3.180   4.662   2.043 -0.4731  0.5727 -0.2973
 6554SOL     OW31297   3.668   2.559   1.656  0.3764  0.0314  0.0912
 6554SOL    HW131298   3.640   2.552   1.565 -2.5453 -1.6117  1.1294
 6554SOL    HW231299   3.733   2.629   1.653 -1.1355  1.4476  0.6491
 6555SOL     OW31300   2.282   1.949  14.555  0.0030  0.7738 -0.1379
 6555SOL    HW131301   2.334   1.869  14.564  0.3873  1.2026  1.4323
 6555SOL    HW231302   2.197   1.938  14.598 -1.1377  0.6368 -2.4442
 6556SOL     OW31303   1.339   3.211   6.533 -0.1958  0.1478 -0.1863
 6556SOL    HW131304   1.365   3.121   6.556 -0.8743  0.4982  1.9527
 6556SOL    HW231305   1.391   3.223   6.454 -1.7520  0.1920 -1.2111
 6557SOL     OW31306   3.431   4.408   5.238 -0.6722 -0.7275  0.2336
 6557SOL    HW131307   3.496   4.473   5.212 -1.6139  0.3028  0.4194
 6557SOL    HW231308   3.467   4.322   5.216  0.5018  0.1352 -1.1775
 6558SOL     OW31309   4.342   2.172   3.088 -0.2932  0.1729 -0.6508
 6558SOL    HW131310   4.383   2.176   3.001  0.6793 -0.0187 -0.1981
 6558SOL    HW231311   4.297   2.256   3.101  1.8879  1.5283 -1.7688
 6559SOL     OW31312   1.385   2.099  15.924 -0.7951 -0.8134  0.1414
 6559SOL    HW131313   1.321   2.096  15.995 -0.5778  0.0115  0.3764
 6559SOL    HW231314   1.442   2.024  15.939  0.8096  0.0708 -1.4915
 6560SOL     OW31315   1.702   2.452   1.663 -0.3314  0.0206 -0.3347
 6560SOL    HW131316   1.720   2.540   1.696  2.1788  0.5207 -3.0135
 6560SOL    HW231317   1.743   2.393   1.725 -2.1194  0.6076  1.4205
 6561SOL     OW31318   2.946   1.166   9.733 -0.5513 -0.2782  0.1873
 6561SOL    HW131319   2.957   1.240   9.793 -0.7462  0.3228 -0.5163
 6561SOL    HW231320   2.857   1.194   9.712 -0.8993  0.0345  2.0671
 6562SOL     OW31321   0.739   4.185   5.563 -0.1573  0.8636  0.4421
 6562SOL    HW131322   0.669   4.251   5.571 -0.4900  0.7725 -1.6293
 6562SOL    HW231323   0.808   4.227   5.615 -0.3839  0.4402  1.0863
 6563SOL     OW31324   3.904   1.858   8.313  0.0679  0.3526 -0.6796
 6563SOL    HW131325   3.936   1.913   8.242  1.0218  0.1567 -0.4005
 6563SOL    HW231326   3.852   1.918   8.367  1.5902  1.9082 -0.9715
 6564SOL     OW31327   1.224   3.025   3.977 -0.3765  1.0682 -0.0320
 6564SOL    HW131328   1.165   2.999   4.048 -1.3475 -2.0975 -1.9496
 6564SOL    HW231329   1.188   2.965   3.911  1.0262  0.1351  0.0420
 6565SOL     OW31330   2.513   1.746  10.889  0.2292  0.3012  0.6999
 6565SOL    HW131331   2.438   1.706  10.845  0.5891  0.8416 -0.4055
 6565SOL    HW231332   2.500   1.698  10.971 -1.1081  0.7840  0.7700
 6566SOL     OW31333   1.875   2.350   6.031  0.3878 -0.1313  0.5498
 6566SOL    HW131334   1.871   2.316   6.121 -2.5366 -1.9981 -0.2657
 6566SOL    HW231335   1.878   2.269   5.980  0.1067  0.1032  0.1602
 6567SOL     OW31336   2.187   3.043   5.727  0.0531  0.0816 -0.4748
 6567SOL    HW131337   2.134   3.058   5.805 -0.9266  0.8834 -1.2911
 6567SOL    HW231338   2.257   2.984   5.752  2.7848  3.6840  0.4666
 6568SOL     OW31339   3.966   0.863   3.919  0.2590  0.0245  0.1576
 6568SOL    HW131340   4.022   0.837   3.992  0.5637  1.6429  0.5062
 6568SOL    HW231341   3.910   0.786   3.907 -0.1368  0.3839 -0.2828
 6569SOL     OW31342   2.434   2.134   9.830 -0.0935 -0.8448  0.2354
 6569SOL    HW131343   2.340   2.134   9.852  0.2253  0.1006  1.5978
 6569SOL    HW231344   2.456   2.224   9.856  1.7977 -0.9070 -1.2016
 6570SOL     OW31345   0.952   3.060   3.383 -0.0284 -0.1638 -0.6703
 6570SOL    HW131346   1.033   3.067   3.433  0.2212  1.3297 -1.2927
 6570SOL    HW231347   0.974   3.125   3.316 -1.1047 -0.6110 -1.4663
 6571SOL     OW31348   4.531   2.663   7.723  0.3240 -0.1253  0.3213
 6571SOL    HW131349   4.605   2.611   7.692  1.0177 -0.1419  2.0040
 6571SOL    HW231350   4.456   2.616   7.688 -1.0452  3.8840 -2.1015
 6572SOL     OW31351   1.337   0.792   2.650  0.4534 -0.1447 -0.1019
 6572SOL    HW131352   1.349   0.788   2.745  0.4045 -0.0990 -0.0934
 6572SOL    HW231353   1.419   0.759   2.615  1.3160  0.5435  1.2733
 6573SOL     OW31354   4.521   1.598   5.960 -0.3104  0.4507 -0.8060
 6573SOL    HW131355   4.485   1.681   5.930  0.6524  2.0250  2.4537
 6573SOL    HW231356   4.594   1.588   5.899 -0.3993 -0.4195 -0.7720
 6574SOL     OW31357   0.122   3.203   1.117  0.1153 -0.6025 -0.4935
 6574SOL    HW131358   0.057   3.232   1.053 -1.6111  1.1316  2.0984
 6574SOL    HW231359   0.179   3.149   1.062  1.5887  0.7441 -0.2859
 6575SOL     OW31360   4.591   0.884   8.322  1.0096 -0.5263 -0.1278
 6575SOL    HW131361   4.519   0.883   8.385  1.4177  0.8481  0.3635
 6575SOL    HW231362   4.562   0.956   8.267  1.2981  2.0913  3.1110
 6576SOL     OW31363   0.784   3.617   7.360 -0.5852  0.1399  0.2179
 6576SOL    HW131364   0.703   3.599   7.314  0.4032  0.4603 -1.6431
 6576SOL    HW231365   0.843   3.554   7.318 -2.3188  0.7965 -3.1482
 6577SOL     OW31366   2.922   2.740   5.704 -0.8045 -0.8112 -0.0158
 6577SOL    HW131367   3.007   2.704   5.731 -1.3641 -0.6284  1.9533
 6577SOL    HW231368   2.914   2.694   5.620  1.5251 -1.8783  0.3295
 6578SOL     OW31369   3.218   4.564   6.226  0.1593  0.4485  0.2544
 6578SOL    HW131370   3.260   4.500   6.283 -2.2334 -1.3222  0.0308
 6578SOL    HW231371   3.277   4.596   6.157 -1.8392  3.0583 -0.2497
 6579SOL     OW31372   4.569   1.290  11.333 -0.4250 -0.3255  0.1529
 6579SOL    HW131373   4.664   1.287  11.332 -0.4101  0.5632 -0.8528
 6579SOL    HW231374   4.553   1.244  11.415  1.0769  1.1412  1.2776
 6580SOL     OW31375   0.219   2.780   6.620 -0.7180 -0.1929  0.0794
 6580SOL    HW131376   0.144   2.728   6.648 -0.8738  1.1186  2.0582
 6580SOL    HW231377   0.256   2.794   6.707 -1.5008  1.6375  0.1073
 6581SOL     OW31378   1.179   3.286   3.946 -0.0620 -0.0022  0.3087
 6581SOL    HW131379   1.239   3.316   3.878 -0.5463 -1.0632 -0.5746
 6581SOL    HW231380   1.195   3.192   3.942 -0.2957 -0.0671  0.8287
 6582SOL     OW31381   4.472   2.247  11.943 -0.0414  0.6369 -0.1885
 6582SOL    HW131382   4.380   2.272  11.950 -0.5889 -1.2548 -0.7724
 6582SOL    HW231383   4.476   2.269  11.850  0.5615 -0.0430 -0.3199
 6583SOL     OW31384   0.377   2.855   5.750 -0.0331  0.1479 -0.3026
 6583SOL    HW131385   0.365   2.798   5.674 -1.1618  0.1722 -0.1483
 6583SOL    HW231386   0.355   2.942   5.716 -0.5271  0.3148  0.4367
 6584SOL     OW31387   1.950   3.195   7.091  0.1685 -0.0604 -0.0534
 6584SOL    HW131388   1.878   3.214   7.031 -0.4653 -2.9523 -0.2163
 6584SOL    HW231389   1.918   3.117   7.135  2.2819 -1.2056 -0.5281
 6585SOL     OW31390   3.014   3.839   4.979  0.0314  0.6387  0.2685
 6585SOL    HW131391   2.991   3.923   5.018 -1.7609 -0.5388  1.7679
 6585SOL    HW231392   2.939   3.783   5.000 -1.5887  2.2657 -1.1208
 6586SOL     OW31393   0.507   4.384   8.494  0.1651  0.7696  0.3003
 6586SOL    HW131394   0.485   4.339   8.412  0.7817  2.2078 -0.6641
 6586SOL    HW231395   0.481   4.474   8.475 -3.5801 -0.8552 -2.3011
 6587SOL     OW31396   3.460   2.986   5.214  0.7156  0.6471  0.3930
 6587SOL    HW131397   3.539   2.989   5.267  0.3323 -0.6693  1.0246
 6587SOL    HW231398   3.434   3.079   5.211 -0.9153  0.2326  1.5425
 6588SOL     OW31399   4.329   0.902   2.532  0.7520 -0.2023 -0.2285
 6588SOL    HW131400   4.423   0.921   2.529  1.0835 -1.6140  0.9970
 6588SOL    HW231401   4.330   0.817   2.487  1.9901 -0.2194 -0.1625
 6589SOL     OW31402   0.580   1.626  13.117 -0.1994  0.6519 -0.3491
 6589SOL    HW131403   0.484   1.620  13.116 -0.0830 -1.1035 -0.8204
 6589SOL    HW231404   0.591   1.531  13.114 -0.5026  0.6035  0.0470
 6590SOL     OW31405   2.702   0.606   7.422  0.3685  0.1157  0.1493
 6590SOL    HW131406   2.655   0.642   7.347  0.8286  0.8651  0.2231
 6590SOL    HW231407   2.672   0.515   7.428 -0.9614  0.5236 -0.3158
 6591SOL     OW31408   1.995   2.020   2.547  0.3200  0.5504  0.0868
 6591SOL    HW131409   2.049   2.030   2.625  0.3186 -0.4396  0.2189
 6591SOL    HW231410   1.928   2.088   2.551 -0.3466 -0.1875  1.5374
 6592SOL     OW31411   1.579   3.475   4.208 -0.1583  0.0392 -0.3139
 6592SOL    HW131412   1.668   3.467   4.172 -0.5932 -2.0588 -0.9366
 6592SOL    HW231413   1.582   3.412   4.279 -0.4097  0.1524 -0.2055
 6593SOL     OW31414   1.231   1.019  11.780  0.0909  0.3168 -0.2726
 6593SOL    HW131415   1.247   0.984  11.868  1.2653 -0.3397 -0.7496
 6593SOL    HW231416   1.169   1.090  11.794  0.2127  0.3287  0.2048
 6594SOL     OW31417   3.703   0.232   0.523  0.2186  0.4955  0.4316
 6594SOL    HW131418   3.670   0.156   0.571  0.1398  0.5201  0.4146
 6594SOL    HW231419   3.798   0.224   0.533  0.5120  0.2157 -2.8543
 6595SOL     OW31420   1.534   2.822   6.003 -0.1891 -0.1218 -0.4580
 6595SOL    HW131421   1.522   2.768   5.925 -2.2471 -1.3843  0.7226
 6595SOL    HW231422   1.619   2.859   5.978 -0.2500 -0.5626 -1.3142
 6596SOL     OW31423   3.858   4.328   3.068 -0.6460 -0.1579 -0.2672
 6596SOL    HW131424   3.813   4.256   3.112 -0.1964  0.3197  0.9711
 6596SOL    HW231425   3.846   4.401   3.129  1.0981 -1.4551  1.6126
 6597SOL     OW31426   1.396   2.739  16.515 -0.4043 -0.4925 -0.0747
 6597SOL    HW131427   1.312   2.785  16.513 -1.3479 -2.2097 -0.1684
 6597SOL    HW231428   1.421   2.743  16.607  2.1960 -1.7726 -0.7138
 6598SOL     OW31429   0.610   2.941   6.133 -0.5867  0.2129 -0.0697
 6598SOL    HW131430   0.640   2.859   6.173 -1.3877 -0.0606 -0.0369
 6598SOL    HW231431   0.570   2.974   6.213 -0.9906 -0.4967  0.0159
 6599SOL     OW31432   4.164   4.064   3.645 -0.1647 -0.3922 -0.3300
 6599SOL    HW131433   4.161   4.011   3.565  2.4550  0.4491 -0.9879
 6599SOL    HW231434   4.238   4.122   3.631  0.5962 -1.2179  0.2047
 6600SOL     OW31435   2.308   4.087   3.439 -0.6146  0.3603  0.4945
 6600SOL    HW131436   2.285   4.149   3.369 -2.2582 -0.7114  0.0667
 6600SOL    HW231437   2.393   4.123   3.461 -1.1126  0.2313  2.6348
 6601SOL     OW31438   2.210   2.799   1.487  0.1978  0.1970  0.1278
 6601SOL    HW131439   2.239   2.744   1.414 -1.2427 -0.5367  0.1105
 6601SOL    HW231440   2.140   2.847   1.443  0.5481  0.6353  0.0477
 6602SOL     OW31441   3.558   1.921  16.487  0.3984 -0.7210  1.1548
 6602SOL    HW131442   3.558   1.910  16.392 -0.2489  1.9183  0.8270
 6602SOL    HW231443   3.506   1.844  16.508  0.1409 -1.3712 -1.8482
 6603SOL     OW31444   2.739   0.629   9.386 -0.0282  0.2418  0.1993
 6603SOL    HW131445   2.668   0.666   9.334 -1.8122 -2.1256  0.9528
 6603SOL    HW231446   2.798   0.700   9.410  0.0499  0.0033  0.7249
 6604SOL     OW31447   2.447   2.832   3.655 -0.2118  0.5138 -0.6422
 6604SOL    HW131448   2.523   2.846   3.712 -1.1339 -1.0027  0.9559
 6604SOL    HW231449   2.429   2.739   3.652 -1.5065  0.7156  1.0321
 6605SOL     OW31450   4.453   1.305  10.244  0.0393 -0.4467  0.1658
 6605SOL    HW131451   4.361   1.331  10.247  0.4496  0.8818  0.9767
 6605SOL    HW231452   4.447   1.210  10.254  2.1755 -0.8818 -2.6212
 6606SOL     OW31453   3.072   4.331   5.213  0.1271 -0.0634 -0.0813
 6606SOL    HW131454   2.998   4.275   5.187 -0.9176  0.8484  0.9735
 6606SOL    HW231455   3.149   4.274   5.216 -1.3999 -2.2184 -1.9368
 6607SOL     OW31456   1.408   0.934   7.301  0.1246 -0.7041  0.2954
 6607SOL    HW131457   1.497   0.930   7.266 -0.0122 -0.9295 -0.0250
 6607SOL    HW231458   1.427   0.891   7.385  0.7079 -0.3342  0.3511
 6608SOL     OW31459   0.697   0.379  15.975 -0.6331 -1.0791 -0.2224
 6608SOL    HW131460   0.631   0.405  15.910 -0.3936  0.3691  0.1094
 6608SOL    HW231461   0.736   0.463  15.999 -2.4114  0.2204 -1.8398
 6609SOL     OW31462   4.117   1.433  11.308 -0.0401  0.5314  0.3802
 6609SOL    HW131463   4.092   1.524  11.290  0.5675  0.5989 -0.1352
 6609SOL    HW231464   4.150   1.397  11.226 -1.0827  0.5171 -0.0342
 6610SOL     OW31465   1.259   4.699  15.201  0.9136  0.1503  0.2497
 6610SOL    HW131466   1.284   0.012  15.279 -3.7654 -1.3654  2.7081
 6610SOL    HW231467   1.238   4.618  15.247  1.9796 -1.0803 -1.4390
 6611SOL     OW31468   0.278   2.603   8.198  0.0355  0.5171  0.1985
 6611SOL    HW131469   0.320   2.616   8.283  2.4205 -1.3675 -0.6836
 6611SOL    HW231470   0.353   2.633   8.147  1.5494 -1.1941  1.4258
 6612SOL     OW31471   2.467   3.012   8.628 -0.0444 -0.6389 -0.1239
 6612SOL    HW131472   2.371   3.020   8.623  0.0192 -1.3018 -2.6813
 6612SOL    HW231473   2.496   3.099   8.601  0.8162 -0.7536  0.4469
 6613SOL     OW31474   3.152   0.671   6.631  0.0674  0.3381 -0.1107
 6613SOL    HW131475   3.118   0.590   6.670 -0.2082  0.8215  0.6581
 6613SOL    HW231476   3.160   0.631   6.545 -2.4908 -1.7752  0.6029
 6614SOL     OW31477   2.001   0.990   3.899 -0.8627 -0.1399  0.4385
 6614SOL    HW131478   2.059   0.974   3.973  0.2460 -0.0239 -0.4100
 6614SOL    HW231479   2.060   1.049   3.851 -2.6760  0.6027 -0.9053
 6615SOL     OW31480   3.414   2.980   3.539  0.9081  0.1557  0.6189
 6615SOL    HW131481   3.402   3.074   3.549  0.0131 -0.0066  1.1024
 6615SOL    HW231482   3.509   2.979   3.555  1.2331  1.8509 -1.2552
 6616SOL     OW31483   1.786   1.092   1.488 -0.2924 -0.3897  0.6145
 6616SOL    HW131484   1.778   1.153   1.561 -1.2049 -0.4859  0.5940
 6616SOL    HW231485   1.881   1.078   1.493  0.1216  2.0515 -0.1536
 6617SOL     OW31486   1.179   2.767   4.203  0.0368 -0.1354 -0.5186
 6617SOL    HW131487   1.134   2.701   4.150  1.0746 -0.6020 -0.8266
 6617SOL    HW231488   1.263   2.773   4.158 -0.3013 -0.5164 -1.1924
 6618SOL     OW31489   1.912   1.388   3.758  0.1893  0.4260 -0.1665
 6618SOL    HW131490   1.926   1.370   3.851 -0.2642  0.9508  0.0042
 6618SOL    HW231491   2.001   1.416   3.737  0.2855 -0.3599 -0.7945
 6619SOL     OW31492   0.204   0.775   1.159 -0.1014  0.1401  0.0131
 6619SOL    HW131493   0.187   0.703   1.098  2.0157  0.5380 -1.0486
 6619SOL    HW231494   0.228   0.844   1.097 -0.8586 -0.5042 -0.9955
 6620SOL     OW31495   3.259   4.547  17.157 -0.4632 -0.5190 -0.4691
 6620SOL    HW131496   3.326   4.605  17.195 -1.2586  1.0329 -1.4686
 6620SOL    HW231497   3.292   4.464  17.192  0.1678  0.0187  0.2170
 6621SOL     OW31498   2.777   2.064   3.679  0.4636 -1.0367  0.9933
 6621SOL    HW131499   2.738   2.010   3.747  0.5919 -1.1924  0.9418
 6621SOL    HW231500   2.837   2.000   3.640  0.7093  0.1080 -0.5373
 6622SOL     OW31501   3.479   0.152   7.316  0.2324  0.2104  0.5417
 6622SOL    HW131502   3.478   0.087   7.246  0.5907 -0.6065  1.2973
 6622SOL    HW231503   3.533   0.111   7.384 -0.5559 -0.2021  0.9138
 6623SOL     OW31504   4.320   3.559   2.536  0.1043  0.2695  0.1741
 6623SOL    HW131505   4.244   3.509   2.507  0.0619 -0.0921  0.9112
 6623SOL    HW231506   4.282   3.646   2.524 -0.9593 -0.2073  0.1180
 6624SOL     OW31507   4.699   4.246  12.606  0.5910 -0.5671  0.3399
 6624SOL    HW131508   4.622   4.220  12.656 -0.0159  0.1183 -0.2369
 6624SOL    HW231509   4.670   4.224  12.518 -1.6125  0.0594  0.9036
 6625SOL     OW31510   0.136   3.068   5.125 -0.1099  0.0324  0.0150
 6625SOL    HW131511   0.150   3.144   5.068  2.9463 -0.1746  0.4912
 6625SOL    HW231512   0.106   3.002   5.064  2.0703  0.4835 -1.5113
 6626SOL     OW31513   0.633   2.169   3.556 -0.0594 -0.0774  0.2341
 6626SOL    HW131514   0.667   2.221   3.484 -0.3051 -1.4107 -0.8421
 6626SOL    HW231515   0.713   2.145   3.602  0.9908  2.5415 -0.2400
 6627SOL     OW31516   2.602   0.401   3.119  0.1947  0.0432  0.0742
 6627SOL    HW131517   2.614   0.469   3.053 -0.1089 -0.2447 -0.2777
 6627SOL    HW231518   2.508   0.405   3.133  0.1956  0.0602  0.0754
 6628SOL     OW31519   4.538   3.119   4.970  0.0777  0.0367 -0.2738
 6628SOL    HW131520   4.624   3.092   4.937  0.1846 -0.4634  0.4087
 6628SOL    HW231521   4.477   3.107   4.897  0.7638  1.4629 -1.0828
 6629SOL     OW31522   3.413   1.704   0.823 -0.0007 -0.0564 -0.3366
 6629SOL    HW131523   3.472   1.629   0.820 -0.7539 -0.6853  0.6433
 6629SOL    HW231524   3.380   1.702   0.913  0.5913 -1.6960 -0.1615
 6630SOL     OW31525   0.795   1.814   1.033 -0.8445  0.2494 -0.1141
 6630SOL    HW131526   0.840   1.802   0.949 -1.6247 -1.2080 -0.3257
 6630SOL    HW231527   0.792   1.910   1.037  0.3239  0.2588  0.3339
 6631SOL     OW31528   2.702   0.025  12.330  0.2110 -0.2015  0.3962
 6631SOL    HW131529   2.690   4.684  12.274  1.7004 -1.4946  1.8483
 6631SOL    HW231530   2.792   0.019  12.363 -1.3169 -0.2019  4.6497
 6632SOL     OW31531   4.731   0.672   6.108  0.3578 -0.2181 -0.4375
 6632SOL    HW131532   0.019   0.741   6.046 -2.1864  0.0567 -1.1368
 6632SOL    HW231533   0.077   0.623   6.101  0.5124  0.2256 -1.7836
 6633SOL     OW31534   4.468   1.916   3.826 -0.3257  0.4783 -0.4483
 6633SOL    HW131535   4.467   1.974   3.902 -0.5449 -0.2128  0.0762
 6633SOL    HW231536   4.471   1.985   3.759  1.9773 -1.3259 -2.1947
 6634SOL     OW31537   2.815   1.105   1.123  0.8625  0.0040  0.1023
 6634SOL    HW131538   2.849   1.192   1.105 -2.8695  0.9473 -2.5049
 6634SOL    HW231539   2.721   1.117   1.106  1.0443  1.6985  0.3367
 6635SOL     OW31540   0.343   0.751   5.987 -0.4575  0.7844 -0.4104
 6635SOL    HW131541   0.388   0.675   5.950 -0.7454  0.5769 -0.3394
 6635SOL    HW231542   0.328   0.798   5.904 -0.3598  1.3058 -0.1327
 6636SOL     OW31543   4.318   3.753   5.982 -0.3138  0.2674  0.3305
 6636SOL    HW131544   4.280   3.665   5.981  0.8216 -0.2137 -0.4710
 6636SOL    HW231545   4.407   3.733   6.010 -0.8741  0.0704  1.9689
 6637SOL     OW31546   0.251   3.923  16.270  0.0116  0.1544 -0.1033
 6637SOL    HW131547   0.220   3.957  16.186 -2.2089  3.4440  2.0448
 6637SOL    HW231548   0.169   3.919  16.319 -1.9998 -0.1881 -3.5495
 6638SOL     OW31549   1.292   3.321   8.242 -0.0199  0.3927  0.0741
 6638SOL    HW131550   1.374   3.355   8.207  0.8413 -2.8295 -1.0844
 6638SOL    HW231551   1.259   3.256   8.180 -0.8988  2.0806 -1.2302
 6639SOL     OW31552   1.180   2.633  12.855  0.2960  0.0330  0.1549
 6639SOL    HW131553   1.085   2.640  12.860  0.3351  0.2037  0.6075
 6639SOL    HW231554   1.205   2.617  12.946 -0.5867  2.4699  0.8281
 6640SOL     OW31555   2.407   0.846   5.002  0.0811 -0.3266  0.1973
 6640SOL    HW131556   2.400   0.801   5.086 -0.0553  4.2760  2.6083
 6640SOL    HW231557   2.386   0.938   5.015 -1.0118 -0.3143 -1.5661
 6641SOL     OW31558   2.871   0.090   6.972  0.1192  0.4799 -0.2854
 6641SOL    HW131559   2.848   0.011   6.923  0.2423  0.7987 -0.8508
 6641SOL    HW231560   2.939   0.133   6.920 -1.6211  2.0465 -1.2712
 6642SOL     OW31561   0.980   2.120   8.262 -0.1862  0.1851  0.1779
 6642SOL    HW131562   0.902   2.123   8.207  0.7833  1.3539 -1.1390
 6642SOL    HW231563   0.982   2.200   8.315 -2.8994  1.3848 -1.5130
 6643SOL     OW31564   1.363   2.181   3.611 -0.6562  0.2745  0.4664
 6643SOL    HW131565   1.440   2.164   3.665 -0.1486 -0.4847 -0.5163
 6643SOL    HW231566   1.362   2.098   3.565  1.2122 -0.4831  1.8100
 6644SOL     OW31567   1.683   1.533   7.023 -0.0579  0.5023  0.0752
 6644SOL    HW131568   1.642   1.505   6.941  1.1037 -0.4552 -0.1896
 6644SOL    HW231569   1.605   1.556   7.073 -1.5174  0.0913 -2.0047
 6645SOL     OW31570   3.492   0.629   4.241  0.2836 -0.0610  0.5302
 6645SOL    HW131571   3.449   0.570   4.179 -2.5136 -0.2761  2.6492
 6645SOL    HW231572   3.549   0.683   4.187 -1.2844  0.4092 -0.6579
 6646SOL     OW31573   2.169   3.545  14.021  0.5761 -0.0869 -0.2441
 6646SOL    HW131574   2.208   3.542  14.109  1.3974  1.0269 -0.5601
 6646SOL    HW231575   2.121   3.463  14.026  1.0672 -0.1824  2.9714
 6647SOL     OW31576   1.309   0.296   8.024 -0.3475 -0.2269 -0.0495
 6647SOL    HW131577   1.218   0.320   8.036 -1.0187 -2.4742 -0.6707
 6647SOL    HW231578   1.358   0.368   8.064 -1.0507 -0.0557  0.4897
 6648SOL     OW31579   2.114   1.298   3.153  0.0761 -0.3451  0.1344
 6648SOL    HW131580   2.092   1.345   3.233 -0.0820  0.1408 -0.1939
 6648SOL    HW231581   2.165   1.225   3.188  1.2192  1.0207  1.3386
 6649SOL     OW31582   1.656   1.488   5.499  0.2997  0.1670 -0.4387
 6649SOL    HW131583   1.724   1.450   5.443 -0.4588 -2.6878  0.5876
 6649SOL    HW231584   1.664   1.420   5.566 -3.3546 -0.5890 -0.7831
 6650SOL     OW31585   4.255   3.404  14.818 -0.2629  1.0925  0.1684
 6650SOL    HW131586   4.331   3.433  14.766 -0.6234  2.0711  0.1771
 6650SOL    HW231587   4.185   3.442  14.765 -1.4349  1.8176  2.2263
 6651SOL     OW31588   1.313   2.476  11.946  0.2251  0.1632 -0.3508
 6651SOL    HW131589   1.233   2.516  11.980  0.7015  0.8516 -0.0521
 6651SOL    HW231590   1.384   2.539  11.955 -0.4804  1.0652 -1.1557
 6652SOL     OW31591   1.116   3.117   5.862 -0.4785 -0.3869 -0.1644
 6652SOL    HW131592   1.172   3.056   5.910  0.3404  0.4366 -0.0867
 6652SOL    HW231593   1.175   3.153   5.796  1.3301 -1.7806  0.7175
 6653SOL     OW31594   1.196   3.497   9.741  0.2185  0.2698 -1.0245
 6653SOL    HW131595   1.242   3.444   9.676 -1.5284 -0.4539 -1.6739
 6653SOL    HW231596   1.182   3.585   9.706 -1.8482 -0.2483 -1.4679
 6654SOL     OW31597   4.481   1.592   4.347  0.0786  0.0486 -0.2522
 6654SOL    HW131598   4.524   1.581   4.262  0.6994  1.0509 -0.0547
 6654SOL    HW231599   4.400   1.540   4.340 -0.1478  0.2920  0.5323
 6655SOL     OW31600   2.495   1.212   6.213 -0.4105  0.4843 -0.9182
 6655SOL    HW131601   2.561   1.262   6.261 -0.7306 -0.0968  0.1050
 6655SOL    HW231602   2.433   1.196   6.284 -0.0124  1.4913 -0.3477
 6656SOL     OW31603   0.763   4.350   5.002 -0.3360 -0.5644 -0.2655
 6656SOL    HW131604   0.736   4.382   4.916  0.8718  1.6022  0.1589
 6656SOL    HW231605   0.858   4.341   4.992 -0.3546  0.5071 -1.2993
 6657SOL     OW31606   3.153   1.314   3.728  0.5673  0.1806  1.1390
 6657SOL    HW131607   3.225   1.274   3.680 -0.9380 -1.1597  0.0242
 6657SOL    HW231608   3.182   1.308   3.819  2.4660 -0.1448  0.5225
 6658SOL     OW31609   2.211   3.295   6.105 -0.1479  0.1635 -0.8218
 6658SOL    HW131610   2.261   3.214   6.106  0.1621  0.3828  0.5519
 6658SOL    HW231611   2.167   3.284   6.020 -0.0303 -0.4212 -0.8065
 6659SOL     OW31612   0.730   0.514   5.930 -0.3545 -0.3693  0.2774
 6659SOL    HW131613   0.784   0.495   5.853 -1.4497  0.2624 -0.6337
 6659SOL    HW231614   0.793   0.566   5.981 -0.1550  2.3290 -2.7547
 6660SOL     OW31615   2.807   2.162  15.254  0.3105  0.2023 -0.2160
 6660SOL    HW131616   2.746   2.136  15.322  0.2869 -1.5488 -0.8965
 6660SOL    HW231617   2.851   2.079  15.231 -2.3898 -1.0040 -0.9815
 6661SOL     OW31618   2.873   0.081  15.796  0.0365 -0.1218 -0.0481
 6661SOL    HW131619   2.823   0.112  15.871  0.2056 -0.3784  0.1703
 6661SOL    HW231620   2.871   0.168  15.757  1.9124  0.1456  0.4368
 6662SOL     OW31621   0.056   2.641   8.045  0.2334 -0.1686  0.4859
 6662SOL    HW131622   0.111   2.706   8.001 -2.3891  2.5374  1.2039
 6662SOL    HW231623   0.105   2.622   8.125  0.2781 -2.6494 -0.1192
 6663SOL     OW31624   2.466   3.291   4.515 -0.0924  0.4215 -0.2767
 6663SOL    HW131625   2.531   3.297   4.445 -1.6621 -0.4160 -1.8034
 6663SOL    HW231626   2.381   3.309   4.475 -0.3524 -0.4363 -0.1110
 6664SOL     OW31627   1.369   4.608   6.334  0.3354 -0.4745  0.0075
 6664SOL    HW131628   1.354   4.694   6.375 -1.6223 -0.2403 -1.2386
 6664SOL    HW231629   1.334   4.552   6.403 -1.1048  0.7550  0.2838
 6665SOL     OW31630   1.295   2.971   2.381  0.4372 -0.2043 -0.9073
 6665SOL    HW131631   1.334   3.058   2.388  1.6431 -0.7917 -0.3462
 6665SOL    HW231632   1.372   2.916   2.393 -1.3139 -2.0323  1.8044
 6666SOL     OW31633   3.679   3.119   6.875 -0.0415  0.3437  0.0152
 6666SOL    HW131634   3.642   3.200   6.839 -0.9525  0.0962  0.3947
 6666SOL    HW231635   3.597   3.076   6.900  0.5295 -0.8884 -0.2360
 6667SOL     OW31636   1.480   3.779   8.805  0.1430 -0.7815 -0.1335
 6667SOL    HW131637   1.434   3.798   8.723 -1.6718 -0.2658  1.0059
 6667SOL    HW231638   1.471   3.868   8.838  0.1593 -0.3179 -1.3625
 6668SOL     OW31639   0.023   2.976  16.295  0.0326  0.1022  0.4639
 6668SOL    HW131640   4.718   2.969  16.208  2.1376  0.1308 -0.5292
 6668SOL    HW231641   0.090   3.044  16.292  1.9735 -1.8266 -0.1821
 6669SOL     OW31642   3.304   2.518   4.203  0.6269 -1.0681  0.9627
 6669SOL    HW131643   3.251   2.464   4.144 -0.8061 -0.5181  1.7484
 6669SOL    HW231644   3.230   2.574   4.228  2.3933  0.8420  1.9522
 6670SOL     OW31645   3.823   1.560   3.484 -0.5255 -0.4923  0.1876
 6670SOL    HW131646   3.832   1.539   3.577 -0.2429  1.1215  0.5290
 6670SOL    HW231647   3.842   1.654   3.487 -0.1145 -0.6099  1.3063
 6671SOL     OW31648   2.605   2.816   2.527  0.0144  0.0658  0.0465
 6671SOL    HW131649   2.584   2.850   2.440  2.9210  1.4796 -0.1109
 6671SOL    HW231650   2.700   2.830   2.518  0.6595 -4.2949  0.4319
 6672SOL     OW31651   1.762   3.254   5.662 -0.3231 -0.7177  0.2101
 6672SOL    HW131652   1.815   3.326   5.697  1.5106 -3.5734  3.3179
 6672SOL    HW231653   1.799   3.234   5.576  0.5840  0.6237  0.2807
 6673SOL     OW31654   1.000   2.801  11.606 -0.6152  0.5941 -0.2190
 6673SOL    HW131655   0.919   2.796  11.657  0.2874 -2.5029  0.9056
 6673SOL    HW231656   1.063   2.756  11.662  0.5294 -0.7763 -2.6005
 6674SOL     OW31657   3.038   1.894   6.784  0.0661 -0.2564 -0.1238
 6674SOL    HW131658   3.110   1.947   6.819 -0.4647 -0.1017  0.7394
 6674SOL    HW231659   3.053   1.823   6.846  0.4903  0.1715  0.2579
 6675SOL     OW31660   0.526   1.879   0.622 -0.5614 -0.1730  0.6051
 6675SOL    HW131661   0.618   1.905   0.631 -0.7628  0.9088 -0.4457
 6675SOL    HW231662   0.492   1.892   0.711  0.8944  0.8471  1.0234
 6676SOL     OW31663   0.377   2.381   6.588 -0.3454 -0.1433 -0.4494
 6676SOL    HW131664   0.443   2.375   6.518  1.9819  0.5708  1.6899
 6676SOL    HW231665   0.306   2.329   6.549  1.5643 -1.9780 -1.5040
 6677SOL     OW31666   0.757   2.696  10.034 -0.2054  0.3367 -0.3922
 6677SOL    HW131667   0.698   2.652  10.095  0.4409 -1.8245 -1.3195
 6677SOL    HW231668   0.798   2.758  10.094 -0.2545  0.4442 -0.4698
 6678SOL     OW31669   0.633   0.682  12.138  0.2215 -0.3009  0.6208
 6678SOL    HW131670   0.674   0.691  12.223  0.6103 -1.8700  0.6076
 6678SOL    HW231671   0.602   0.771  12.120 -0.1015 -0.8711 -1.6972
 6679SOL     OW31672   1.876   1.551   2.366  0.0212 -0.4401 -0.8150
 6679SOL    HW131673   1.848   1.633   2.407 -0.4951 -0.8152 -0.4091
 6679SOL    HW231674   1.971   1.555   2.359  0.1609 -0.1997  1.2500
 6680SOL     OW31675   1.138   1.503  17.479 -0.0436  0.0527  0.9181
 6680SOL    HW131676   1.178   1.573  17.531 -1.4376  1.5460  0.0031
 6680SOL    HW231677   1.050   1.537  17.497  0.2143  0.5146  1.3090
 6681SOL     OW31678   1.736   4.561  14.916  0.3242 -0.3134 -0.3842
 6681SOL    HW131679   1.643   4.540  14.910  0.0692  0.9774 -0.8507
 6681SOL    HW231680   1.748   4.589  15.007  0.2962  0.6321 -0.6676
 6682SOL     OW31681   4.134   1.721   7.625 -0.3367 -0.0973  0.3467
 6682SOL    HW131682   4.200   1.662   7.662 -0.2453 -0.3404 -0.2139
 6682SOL    HW231683   4.113   1.693   7.536  2.1448  0.9963 -0.5885
 6683SOL     OW31684   3.936   3.214   0.636 -0.4996  0.1789 -0.1575
 6683SOL    HW131685   3.947   3.176   0.549  0.7488 -0.9092  0.4797
 6683SOL    HW231686   4.021   3.198   0.677 -0.5307  1.0176  0.2339
 6684SOL     OW31687   3.113   3.398  16.355  0.0783 -0.1122  0.3001
 6684SOL    HW131688   3.134   3.444  16.274  1.1416  1.3796  1.4167
 6684SOL    HW231689   3.126   3.308  16.327 -0.7172  0.6267 -2.4126
 6685SOL     OW31690   4.539   1.098   7.298 -0.2612 -0.2084  0.1072
 6685SOL    HW131691   4.536   1.071   7.206 -0.9545 -1.7849  0.5859
 6685SOL    HW231692   4.614   1.157   7.302  0.1294 -0.7926  1.2205
 6686SOL     OW31693   2.996   0.721   0.542  0.5348 -0.2651  0.1597
 6686SOL    HW131694   2.967   0.755   0.458  2.7737 -0.5098 -0.7090
 6686SOL    HW231695   2.912   0.718   0.587  0.3845  0.4761 -0.0749
 6687SOL     OW31696   0.631   0.928   3.635  0.0430  0.2918 -0.1267
 6687SOL    HW131697   0.703   0.989   3.651 -0.7617  1.1682  0.1377
 6687SOL    HW231698   0.574   0.962   3.703 -0.6047  0.7812 -0.9198
 6688SOL     OW31699   1.363   2.828  14.191 -0.2835  0.3717  0.4881
 6688SOL    HW131700   1.435   2.765  14.194 -1.8113 -1.4584 -0.5229
 6688SOL    HW231701   1.323   2.809  14.106  0.4018 -0.2234  0.2962
 6689SOL     OW31702   3.903   0.017   9.763  0.1703 -0.3483 -0.3455
 6689SOL    HW131703   3.815   4.726   9.789  0.0935 -0.0264 -0.2702
 6689SOL    HW231704   3.940   4.665   9.763 -0.7376 -0.7205  1.2646
 6690SOL     OW31705   0.137   0.714   6.893 -0.0004 -0.4160 -0.0010
 6690SOL    HW131706   0.138   0.626   6.855 -1.2189  0.8604 -2.9727
 6690SOL    HW231707   0.046   0.716   6.923 -0.6857  2.2639 -2.2616
 6691SOL     OW31708   3.243   0.198   5.491  0.6282 -0.3919  0.0754
 6691SOL    HW131709   3.261   0.125   5.551 -0.6002 -0.7049  0.0592
 6691SOL    HW231710   3.256   0.172   5.400 -0.6281  0.8277 -0.4444
 6692SOL     OW31711   1.960   1.357   8.924 -0.0296  0.0313 -0.3272
 6692SOL    HW131712   2.007   1.278   8.896 -1.2746  0.2902 -3.1459
 6692SOL    HW231713   2.021   1.396   8.987 -0.6406  0.3077  0.0846
 6693SOL     OW31714   2.111   1.403   8.511  0.2782 -0.3840  0.2137
 6693SOL    HW131715   2.111   1.331   8.449  2.2976 -2.2361  2.3655
 6693SOL    HW231716   2.128   1.478   8.454  0.8886 -2.0517 -1.8041
 6694SOL     OW31717   3.779   2.594   0.861 -0.4237 -0.0238  0.2838
 6694SOL    HW131718   3.857   2.631   0.820 -1.0359  0.9530  0.0051
 6694SOL    HW231719   3.721   2.670   0.865 -0.9811 -0.3833 -0.9100
 6695SOL     OW31720   1.148   0.931   3.895  0.2677  0.3236  0.0592
 6695SOL    HW131721   1.152   1.001   3.830 -0.8800 -0.9968 -1.4233
 6695SOL    HW231722   1.187   0.857   3.847  0.0890  0.4199 -0.2359
 6696SOL     OW31723   0.370   3.331   4.900 -0.7236 -0.2093  0.2851
 6696SOL    HW131724   0.451   3.322   4.949 -1.8029 -0.4502  2.0037
 6696SOL    HW231725   0.386   3.277   4.823 -2.4537 -1.4948  0.8337
 6697SOL     OW31726   2.363   0.255   4.445 -0.0104 -0.1850  0.2503
 6697SOL    HW131727   2.378   0.311   4.521  1.0577 -0.0622 -0.0555
 6697SOL    HW231728   2.286   0.210   4.479 -0.3585 -0.1250 -0.4603
 6698SOL     OW31729   1.544   2.801   3.062  0.0809 -0.3927 -0.1918
 6698SOL    HW131730   1.574   2.722   3.108  0.6109  0.9585  1.7913
 6698SOL    HW231731   1.577   2.794   2.973 -2.3523 -3.1955 -0.8855
 6699SOL     OW31732   2.098   2.447   5.706 -0.1698 -0.0324 -0.3700
 6699SOL    HW131733   2.184   2.439   5.746  0.5902 -0.9617 -2.2184
 6699SOL    HW231734   2.120   2.382   5.640  1.2481 -1.3142  1.3737
 6700SOL     OW31735   0.397   3.454  10.552 -0.5338  0.4934 -0.2804
 6700SOL    HW131736   0.376   3.363  10.531  0.4720  0.3865 -0.8174
 6700SOL    HW231737   0.346   3.483  10.628  0.7958  0.3134  0.6917
 6701SOL     OW31738   3.727   4.470   7.154 -0.4350  0.4326 -0.3361
 6701SOL    HW131739   3.805   4.460   7.208  0.6325  1.9904 -1.5472
 6701SOL    HW231740   3.672   4.403   7.195  2.0001 -1.3500 -0.0197
 6702SOL     OW31741   2.888   1.567  11.045  0.1485  0.3464  0.0501
 6702SOL    HW131742   2.855   1.653  11.021  2.5486  1.7486  1.7729
 6702SOL    HW231743   2.895   1.566  11.141 -1.7823 -0.5170  0.1917
 6703SOL     OW31744   0.132   2.798  16.464 -0.7601 -0.3116 -0.0339
 6703SOL    HW131745   0.102   2.736  16.397  0.4389 -0.2134 -0.6547
 6703SOL    HW231746   0.111   2.880  16.420 -0.0787  1.2654  2.6387
 6704SOL     OW31747   2.892   3.070   4.327 -0.1947  0.0350 -0.2155
 6704SOL    HW131748   2.811   3.020   4.336 -0.6663  0.9717  0.7515
 6704SOL    HW231749   2.887   3.104   4.237  0.0151  1.0492  0.1466
 6705SOL     OW31750   3.236   3.997   4.146 -0.3812 -0.3382  0.1491
 6705SOL    HW131751   3.328   4.021   4.135 -1.0975  1.7898 -1.3234
 6705SOL    HW231752   3.195   4.043   4.073 -1.5603 -1.1830  0.2907
 6706SOL     OW31753   2.667   2.842   7.526  0.7235 -0.0926 -0.0890
 6706SOL    HW131754   2.720   2.827   7.448 -0.4147 -2.7740 -0.3382
 6706SOL    HW231755   2.659   2.936   7.514  0.7484 -0.5513 -3.5413
 6707SOL     OW31756   0.393   0.176   6.713  0.3271 -0.6802  0.3773
 6707SOL    HW131757   0.400   0.081   6.725 -0.5942 -0.7369  0.5250
 6707SOL    HW231758   0.297   0.168   6.713  0.5110 -3.0707  0.2875
 6708SOL     OW31759   4.621   0.300  13.434  0.1359  0.2756 -0.4351
 6708SOL    HW131760   4.546   0.244  13.413  0.5217 -0.7042  0.8404
 6708SOL    HW231761   4.583   0.385  13.412  1.8060  1.1606  0.0755
 6709SOL     OW31762   3.463   4.470   6.820 -0.3854 -0.5070  0.4767
 6709SOL    HW131763   3.384   4.443   6.775 -1.7531  1.4258  1.7382
 6709SOL    HW231764   3.473   4.407   6.891  0.5265 -1.1121 -0.1885
 6710SOL     OW31765   1.518   0.369   5.714 -0.3614 -0.0966  0.6220
 6710SOL    HW131766   1.484   0.286   5.747  0.4407  0.8565  3.7888
 6710SOL    HW231767   1.456   0.384   5.643  0.9539 -0.9031 -0.7311
 6711SOL     OW31768   1.374   3.381   5.338 -0.3043 -0.1407  0.1312
 6711SOL    HW131769   1.442   3.359   5.275 -1.6807 -0.4362 -1.2637
 6711SOL    HW231770   1.414   3.344   5.416 -2.0031 -1.2256  0.4900
 6712SOL     OW31771   3.585   0.937   6.000  0.6700 -0.3348  0.1862
 6712SOL    HW131772   3.535   0.994   5.942  3.5071  0.1051 -1.8858
 6712SOL    HW231773   3.625   1.006   6.054  1.0644  1.2516 -2.1171
 6713SOL     OW31774   4.323   0.509   5.831 -0.8024 -0.0627  0.4873
 6713SOL    HW131775   4.373   0.532   5.910 -1.2869 -1.2374  1.1270
 6713SOL    HW231776   4.346   0.416   5.825 -0.1959  0.0392  1.2042
 6714SOL     OW31777   1.811   2.399   3.755  0.5188  0.2942  0.3744
 6714SOL    HW131778   1.717   2.418   3.763  0.1290 -1.1470 -0.7699
 6714SOL    HW231779   1.819   2.364   3.843  0.5305 -0.4633  0.0704
 6715SOL     OW31780   3.105   4.645  10.271 -0.0007  0.0396  0.4098
 6715SOL    HW131781   3.192   4.636  10.231 -0.0034  1.8627 -0.0059
 6715SOL    HW231782   3.145   4.655  10.357 -0.1593  0.8525  0.3896
 6716SOL     OW31783   0.982   3.295  10.716  0.6598  0.5107  0.0295
 6716SOL    HW131784   0.952   3.227  10.777 -1.0880 -0.6643 -2.1227
 6716SOL    HW231785   1.059   3.325  10.763  0.3218 -0.5099  1.2432
 6717SOL     OW31786   1.901   4.637   1.769 -0.2484 -0.6900 -0.4718
 6717SOL    HW131787   1.946   4.575   1.826 -1.8246  0.7323  2.3094
 6717SOL    HW231788   1.811   4.630   1.801  0.4414  0.7282  1.7532
 6718SOL     OW31789   2.413   0.408  10.293  0.2201  0.1053  0.2013
 6718SOL    HW131790   2.503   0.376  10.293  0.0502 -0.3737 -0.6234
 6718SOL    HW231791   2.402   0.452  10.209 -0.0783  0.5813  0.4921
 6719SOL     OW31792   0.150   3.447   8.046  0.2376  0.2883  0.2510
 6719SOL    HW131793   0.119   3.357   8.043 -0.1084  0.4025  0.3702
 6719SOL    HW231794   0.077   3.497   8.008 -0.9099 -3.1328 -2.1197
 6720SOL     OW31795   2.139   0.845   8.232 -0.7509 -0.0888 -0.0701
 6720SOL    HW131796   2.182   0.924   8.197 -1.9472 -0.0714 -1.5024
 6720SOL    HW231797   2.168   0.798   8.154 -1.8523  1.9024 -1.6866
 6721SOL     OW31798   1.917   3.058   3.952 -0.9732  0.5419  0.0613
 6721SOL    HW131799   1.855   3.048   4.024  0.3441  1.9989  1.3964
 6721SOL    HW231800   1.969   2.978   3.950 -0.8638  0.5685  2.2652
 6722SOL     OW31801   3.324   2.497   7.270  0.2839  0.4502 -0.1093
 6722SOL    HW131802   3.342   2.450   7.351  0.8000  1.4523  0.3626
 6722SOL    HW231803   3.405   2.547   7.264  1.0176 -0.6103  0.9402
 6723SOL     OW31804   4.638   0.551   5.781 -0.2672 -0.0600 -0.3607
 6723SOL    HW131805   4.614   0.460   5.766  2.1659 -1.2261  2.7830
 6723SOL    HW231806   4.553   0.594   5.782  0.3451  1.1541 -0.2562
 6724SOL     OW31807   1.252   2.540   3.444 -0.2641  0.0487 -0.1626
 6724SOL    HW131808   1.347   2.528   3.448 -0.5952 -2.1477  1.0327
 6724SOL    HW231809   1.246   2.636   3.444 -0.6512  0.0262 -1.2372
 6725SOL     OW31810   2.859   0.477   8.770  0.0336  0.5311  0.4959
 6725SOL    HW131811   2.936   0.533   8.782 -0.7598  1.3910  1.4942
 6725SOL    HW231812   2.786   0.526   8.806  0.5230  0.9847  0.8689
 6726SOL     OW31813   1.917   3.189   7.787 -0.3347  0.0163  0.1056
 6726SOL    HW131814   1.888   3.275   7.758  2.2885 -0.3131 -3.4187
 6726SOL    HW231815   1.898   3.142   7.706  1.1590 -2.9493  1.4754
 6727SOL     OW31816   2.153   2.537   3.253  0.0208 -0.2144 -0.0611
 6727SOL    HW131817   2.059   2.529   3.272 -0.0864  1.3596  0.0621
 6727SOL    HW231818   2.187   2.476   3.318  1.0033 -0.7253 -1.0624
 6728SOL     OW31819   3.984   0.419   5.357  0.0490 -0.2110  0.1305
 6728SOL    HW131820   4.079   0.404   5.353  0.1407  0.4958 -0.3898
 6728SOL    HW231821   3.974   0.434   5.451 -0.9680  0.3931 -0.0763
 6729SOL     OW31822   3.145   1.456   7.850  0.4349  0.2285  0.1617
 6729SOL    HW131823   3.235   1.425   7.850  0.7812  1.2431  0.1603
 6729SOL    HW231824   3.114   1.431   7.763 -1.7732  0.7544  0.7850
 6730SOL     OW31825   3.056   2.920   6.394  0.2970  0.4089 -0.7058
 6730SOL    HW131826   2.967   2.894   6.417  1.0501 -1.4102  0.1339
 6730SOL    HW231827   3.046   2.962   6.308  3.9090  0.1181 -1.2595
 6731SOL     OW31828   0.145   0.017   5.082  0.6122 -0.2166 -0.2081
 6731SOL    HW131829   0.060   4.725   5.047  0.6021  0.4215 -0.7150
 6731SOL    HW231830   0.191   4.704   5.014 -0.6989 -4.1124  1.7283
 6732SOL     OW31831   2.740   1.347   3.164  0.5787  0.0004  0.0786
 6732SOL    HW131832   2.657   1.374   3.204 -1.1827 -0.5537 -3.1505
 6732SOL    HW231833   2.793   1.421   3.194  1.5577 -1.0687  0.9669
 6733SOL     OW31834   2.806   4.478  15.405  0.4950  0.4410 -0.0558
 6733SOL    HW131835   2.873   4.514  15.463  0.3631 -3.0943  2.3328
 6733SOL    HW231836   2.734   4.539  15.417 -0.2346 -0.3407 -0.4110
 6734SOL     OW31837   4.497   3.051   1.297 -0.1291 -0.1566 -0.6991
 6734SOL    HW131838   4.512   3.144   1.280  1.6769  0.1986  2.6871
 6734SOL    HW231839   4.456   3.054   1.384  0.4597  2.4837 -0.5143
 6735SOL     OW31840   0.973   4.687   3.027  0.3039 -0.6889 -0.0871
 6735SOL    HW131841   1.051   4.698   2.973  0.8320 -2.0415  0.4098
 6735SOL    HW231842   1.019   4.703   3.109  0.9586 -0.3916 -0.5103
 6736SOL     OW31843   3.151   4.397   7.797  0.4755  0.0022  0.7986
 6736SOL    HW131844   3.213   4.467   7.818 -0.2565  0.2381  2.2143
 6736SOL    HW231845   3.132   4.402   7.703 -0.5432 -0.1673  0.9904
 6737SOL     OW31846   1.077   2.446  12.350  0.4721  0.0030 -0.2328
 6737SOL    HW131847   1.052   2.389  12.277 -2.3471 -1.1455  1.6113
 6737SOL    HW231848   1.019   2.417  12.420  0.2456  0.1729 -0.3491
 6738SOL     OW31849   4.418   4.548   6.195 -0.2507  0.1493 -0.1976
 6738SOL    HW131850   4.498   4.502   6.169  0.2062  0.1897  1.1225
 6738SOL    HW231851   4.382   4.584   6.114  2.9017  2.4587 -0.6040
 6739SOL     OW31852   1.670   4.137   4.894 -0.1889  0.2845 -0.0726
 6739SOL    HW131853   1.619   4.120   4.973  0.5219 -0.7691  0.1656
 6739SOL    HW231854   1.715   4.215   4.929 -0.2631 -0.4707  1.6913
 6740SOL     OW31855   3.228   2.470   0.172  0.2348  0.2362  0.4135
 6740SOL    HW131856   3.268   2.468   0.259  1.1141  0.1135  0.0097
 6740SOL    HW231857   3.144   2.435   0.201  0.3077 -0.6340 -0.4354
 6741SOL     OW31858   3.218   3.620   3.161 -0.2538  0.4302 -0.3540
 6741SOL    HW131859   3.276   3.692   3.183  1.1887 -0.9394  0.3583
 6741SOL    HW231860   3.248   3.553   3.222 -1.4236  2.2733  2.2231
 6742SOL     OW31861   0.501   3.987   7.297 -0.2033 -0.4069 -0.3012
 6742SOL    HW131862   0.425   3.991   7.239  1.9479  0.8239 -3.0367
 6742SOL    HW231863   0.467   3.930   7.366 -0.4026 -0.1774 -0.2120
 6743SOL     OW31864   1.313   0.548  12.264  0.3565  0.3236 -0.2634
 6743SOL    HW131865   1.357   0.579  12.343  0.5836 -1.2003  0.2165
 6743SOL    HW231866   1.256   0.477  12.296  1.6673 -0.6787 -0.1557
 6744SOL     OW31867   4.732   2.381   5.467 -0.2935 -0.4417 -0.1428
 6744SOL    HW131868   0.090   2.396   5.456 -0.0756  0.8421  3.3626
 6744SOL    HW231869   4.707   2.445   5.401 -1.5013  0.5861  1.3062
 6745SOL     OW31870   1.842   0.751   1.049  0.5066  1.2225 -0.2529
 6745SOL    HW131871   1.835   0.805   0.971 -2.1143  1.7684  0.3803
 6745SOL    HW231872   1.819   0.665   1.014 -0.9406  1.3255  0.4607
 6746SOL     OW31873   0.896   3.269  11.139  0.1954  0.8041  0.2438
 6746SOL    HW131874   0.850   3.272  11.223  0.3954  2.7789  0.2863
 6746SOL    HW231875   0.965   3.336  11.147 -0.8303  1.9383 -0.5211
 6747SOL     OW31876   3.489   0.852   4.419  0.1071  0.2532  0.1253
 6747SOL    HW131877   3.529   0.767   4.401  1.0635  1.0865 -1.6723
 6747SOL    HW231878   3.571   0.900   4.419  1.4202 -2.0073  0.9140
 6748SOL     OW31879   3.631   0.489   8.749 -0.3685 -0.1887 -0.4993
 6748SOL    HW131880   3.667   0.401   8.742  0.4005  0.0424  0.4526
 6748SOL    HW231881   3.654   0.528   8.665 -0.4106 -1.0469 -0.9063
 6749SOL     OW31882   2.299   1.743   2.700  0.4049 -0.6499  0.3886
 6749SOL    HW131883   2.215   1.703   2.722 -0.1249  0.2758  0.0364
 6749SOL    HW231884   2.345   1.667   2.663  1.6790 -0.9564  2.6081
 6750SOL     OW31885   0.705   2.001   2.351 -0.1771  0.1701 -0.1772
 6750SOL    HW131886   0.618   2.039   2.368 -0.4653 -0.8824  0.6570
 6750SOL    HW231887   0.695   1.936   2.281  3.1573 -0.3693 -0.1418
 6751SOL     OW31888   2.216   3.383   4.403  0.1594 -0.9238 -0.4367
 6751SOL    HW131889   2.184   3.385   4.313 -2.3182 -1.8639  0.4324
 6751SOL    HW231890   2.202   3.470   4.440  0.4828 -0.2407 -1.9143
 6752SOL     OW31891   0.252   4.725   4.679  0.3724  0.0878  0.5379
 6752SOL    HW131892   0.237   0.083   4.677  1.7429  0.2666 -1.0181
 6752SOL    HW231893   0.199   4.685   4.609 -0.1890  2.0842 -0.1757
 6753SOL     OW31894   1.848   3.182   5.989 -0.3502 -0.2211  0.0616
 6753SOL    HW131895   1.862   3.118   6.059  0.4838  0.1881  0.2665
 6753SOL    HW231896   1.876   3.260   6.038  0.5179 -1.1824  1.0856
 6754SOL     OW31897   3.281   3.919  14.907  0.1450 -0.3393  0.4365
 6754SOL    HW131898   3.215   3.988  14.910 -0.8094 -1.2338 -0.1714
 6754SOL    HW231899   3.312   3.925  14.998 -0.3805  0.0317  0.5967
 6755SOL     OW31900   0.789   1.382  11.565  0.1305 -0.1237 -0.4513
 6755SOL    HW131901   0.873   1.396  11.609 -0.3298  0.5571  0.2126
 6755SOL    HW231902   0.751   1.469  11.574 -2.2670 -1.5685  3.5310
 6756SOL     OW31903   0.472   1.710   6.624 -0.0521 -0.3673  0.4353
 6756SOL    HW131904   0.442   1.669   6.705  1.3440  2.3283  2.3212
 6756SOL    HW231905   0.399   1.765   6.596  1.5933  1.4597 -0.2554
 6757SOL     OW31906   2.393   0.798  14.519 -0.4206 -0.1927 -0.3637
 6757SOL    HW131907   2.384   0.888  14.486  0.9000  0.7301  1.7624
 6757SOL    HW231908   2.303   0.770  14.534 -0.6248  0.0928 -1.0641
 6758SOL     OW31909   4.598   3.310   3.796  0.0651  0.0760  0.2074
 6758SOL    HW131910   4.684   3.339   3.827  0.3735  2.1800 -2.5087
 6758SOL    HW231911   4.621   3.229   3.751  1.9318  1.0957 -0.7316
 6759SOL     OW31912   1.180   1.637   6.338 -0.6143 -0.1957  0.2934
 6759SOL    HW131913   1.196   1.721   6.380 -1.5514 -0.6860  1.6175
 6759SOL    HW231914   1.218   1.657   6.252  2.8394 -2.4552  1.3050
 6760SOL     OW31915   0.935   3.429   9.109  0.3077 -0.4591 -0.0043
 6760SOL    HW131916   0.862   3.475   9.068  1.8552 -0.4255 -2.7293
 6760SOL    HW231917   0.906   3.423   9.200  1.3227  1.6357  0.4395
 6761SOL     OW31918   2.317   2.759   9.803  0.2365  0.5716 -0.9028
 6761SOL    HW131919   2.366   2.679   9.784  0.2953  0.3923  0.0156
 6761SOL    HW231920   2.303   2.740   9.895  1.3301 -0.1551 -0.9023
 6762SOL     OW31921   4.054   3.466   2.472  0.1695 -0.4198 -0.2435
 6762SOL    HW131922   4.071   3.413   2.550  0.8489 -0.2909 -0.2988
 6762SOL    HW231923   4.077   3.409   2.399  2.0418  1.0601 -0.8122
 6763SOL     OW31924   1.414   1.072   2.579  0.0788 -0.2084  0.5227
 6763SOL    HW131925   1.370   1.004   2.528  1.4043 -0.8519  0.2444
 6763SOL    HW231926   1.371   1.053   2.663 -1.2669  1.0056  0.1177
 6764SOL     OW31927   1.047   0.964   5.562 -0.1643  1.0457  0.3067
 6764SOL    HW131928   0.983   0.996   5.625 -2.1638  0.5131 -1.4528
 6764SOL    HW231929   1.025   0.994   5.474  0.6388  2.2253  0.5124
 6765SOL     OW31930   4.022   0.431   3.695  0.6005  0.4158  0.1935
 6765SOL    HW131931   4.080   0.358   3.715  0.0772 -0.2718 -0.7695
 6765SOL    HW231932   3.970   0.397   3.621 -0.6507  0.8315  0.8826
 6766SOL     OW31933   2.974   4.182   2.965  0.4812  0.2043  0.2022
 6766SOL    HW131934   3.009   4.212   2.880 -1.1100  0.1555 -0.4686
 6766SOL    HW231935   2.926   4.262   2.986  0.1861 -0.1845  0.9989
 6767SOL     OW31936   2.815   2.590   3.757 -0.1393 -0.2501  0.3013
 6767SOL    HW131937   2.890   2.549   3.800 -0.1445  1.0259  1.5245
 6767SOL    HW231938   2.855   2.628   3.678  0.0935 -2.6007 -0.7018
 6768SOL     OW31939   4.195   2.927   7.629 -0.1210  0.0817  0.2439
 6768SOL    HW131940   4.199   3.017   7.662 -0.8628  0.7108 -1.3811
 6768SOL    HW231941   4.183   2.875   7.709 -1.2463  1.2808  0.8494
 6769SOL     OW31942   1.004   2.234  17.036  0.3590 -0.1339  0.5668
 6769SOL    HW131943   0.918   2.266  17.006  1.0657 -0.6487 -2.0554
 6769SOL    HW231944   0.991   2.146  17.000  1.8693  0.0747 -0.4761
 6770SOL     OW31945   1.438   1.903  14.177 -0.2295  0.0722  0.3218
 6770SOL    HW131946   1.416   1.826  14.230  1.1377 -2.3393 -2.6536
 6770SOL    HW231947   1.533   1.903  14.188 -0.3228 -1.0290  1.1773
 6771SOL     OW31948   1.831   4.418  10.152 -0.2443 -0.2481 -0.1856
 6771SOL    HW131949   1.847   4.331  10.190 -1.6066 -0.7717 -0.8353
 6771SOL    HW231950   1.837   4.390  10.061 -0.4611 -2.6688  0.5352
 6772SOL     OW31951   0.774   1.326   3.099 -0.4640 -0.0441 -0.1013
 6772SOL    HW131952   0.704   1.307   3.161  1.0181  1.2486  2.0006
 6772SOL    HW231953   0.735   1.295   3.018 -1.5728 -1.5256  1.0182
 6773SOL     OW31954   2.729   0.812   3.839  0.1206 -0.0433  0.5394
 6773SOL    HW131955   2.766   0.748   3.778 -3.8094 -0.1531 -1.7327
 6773SOL    HW231956   2.762   0.782   3.924  0.4663 -2.5401 -0.4768
 6774SOL     OW31957   2.223   1.717   4.750  0.5874 -0.3970  0.2890
 6774SOL    HW131958   2.240   1.721   4.656  0.0003 -0.4542  0.1801
 6774SOL    HW231959   2.155   1.650   4.753  0.3986 -0.1281  2.3302
 6775SOL     OW31960   2.477   3.284   3.455 -0.1808  0.2793 -0.1354
 6775SOL    HW131961   2.425   3.347   3.505 -1.5116 -0.9333  0.0278
 6775SOL    HW231962   2.403   3.237   3.416  1.4332 -2.0047 -0.4494
 6776SOL     OW31963   2.176   2.856   8.003 -0.3020 -0.2361 -0.0827
 6776SOL    HW131964   2.230   2.784   8.037 -0.0020 -0.9244 -2.0083
 6776SOL    HW231965   2.115   2.869   8.076  1.2856 -0.2127  1.2617
 6777SOL     OW31966   1.382   2.990   7.783  0.8513  0.0641  0.7213
 6777SOL    HW131967   1.391   3.073   7.735  1.2428  0.4103  1.3937
 6777SOL    HW231968   1.350   2.925   7.721  3.2003 -0.0840 -0.3366
 6778SOL     OW31969   1.653   0.317   7.871  0.3535 -0.2520 -0.5030
 6778SOL    HW131970   1.674   0.369   7.948 -3.6431 -0.5892  0.8275
 6778SOL    HW231971   1.732   0.303   7.819  1.3265 -0.3211  1.0164
 6779SOL     OW31972   3.171   2.165   5.300  0.5284 -0.2559 -0.1462
 6779SOL    HW131973   3.191   2.073   5.288 -1.1859 -0.4842 -1.2812
 6779SOL    HW231974   3.077   2.168   5.281  0.2635  0.5027  1.2426
 6780SOL     OW31975   0.249   0.947   4.827 -0.1842  0.3286 -0.3830
 6780SOL    HW131976   0.169   0.972   4.872  0.7504  0.4626  1.1878
 6780SOL    HW231977   0.234   0.862   4.784 -0.5611  0.6767 -0.9417
 6781SOL     OW31978   1.695   2.269  16.601 -0.1215 -0.2747  0.6642
 6781SOL    HW131979   1.600   2.277  16.609  0.0870  0.8975  1.9401
 6781SOL    HW231980   1.728   2.316  16.677 -1.8314 -0.1711  1.3536
 6782SOL     OW31981   2.745   3.856   2.288  0.0056 -0.8619  0.7344
 6782SOL    HW131982   2.747   3.770   2.330 -1.6308 -1.4082 -0.2771
 6782SOL    HW231983   2.711   3.908   2.360 -0.5383  0.4430 -0.4632
 6783SOL     OW31984   4.172   3.638  12.330 -0.0088  0.2105  0.0876
 6783SOL    HW131985   4.220   3.580  12.390 -0.6149  0.6473  0.9994
 6783SOL    HW231986   4.123   3.580  12.272 -0.7340  0.1262  0.7814
 6784SOL     OW31987   2.550   2.110   6.690  0.1435 -0.3770 -0.2686
 6784SOL    HW131988   2.556   2.148   6.603 -0.2058 -3.0424 -1.4624
 6784SOL    HW231989   2.518   2.177   6.750  0.1258  0.1682 -0.8918
 6785SOL     OW31990   3.343   2.933   2.025  0.4697  0.0866 -0.6370
 6785SOL    HW131991   3.270   2.996   2.021 -0.2472 -0.7487 -0.8875
 6785SOL    HW231992   3.339   2.895   1.937  0.0828  0.4456 -0.7752
 6786SOL     OW31993   1.100   1.972   1.554 -0.4630 -0.3296  0.1014
 6786SOL    HW131994   1.066   1.955   1.466 -0.4117 -0.9165  0.1916
 6786SOL    HW231995   1.116   2.066   1.558 -0.3635 -0.2930 -1.2319
 6787SOL     OW31996   0.921   1.049  12.027 -0.2332  0.1042 -0.4100
 6787SOL    HW131997   0.836   1.014  12.049 -0.3665  0.1590 -0.8254
 6787SOL    HW231998   0.920   1.030  11.933 -0.2278  1.0896 -0.6095
 6788SOL     OW31999   1.332   3.018   4.664  0.1519  0.1128  0.3879
 6788SOL    HW132000   1.414   2.987   4.627 -0.0983  1.0176 -0.9119
 6788SOL    HW232001   1.326   3.109   4.637 -0.2447 -0.0318 -0.0243
 6789SOL     OW32002   1.993   1.227   4.235 -0.2569 -0.0195 -0.4263
 6789SOL    HW132003   2.081   1.253   4.262 -0.7269  0.5987  0.4847
 6789SOL    HW232004   2.006   1.135   4.256 -0.0878  0.4986  1.6641
 6790SOL     OW32005   2.399   0.885   5.932 -0.0771  0.2514  0.1265
 6790SOL    HW132006   2.480   0.936   5.927  0.5525 -0.6894  0.5609
 6790SOL    HW232007   2.420   0.799   5.895  1.1038  0.0650  1.2370
 6791SOL     OW32008   3.063   3.615  11.077  0.3666  0.0141 -0.2476
 6791SOL    HW132009   3.012   3.614  11.159  0.7046 -0.3358 -0.0398
 6791SOL    HW232010   3.071   3.707  11.051 -1.4574  0.6542  1.4643
 6792SOL     OW32011   0.508   2.369  11.376  0.4137 -0.1502  0.2140
 6792SOL    HW132012   0.440   2.324  11.427  2.3255 -4.6180 -1.1968
 6792SOL    HW232013   0.586   2.325  11.408 -0.2616 -0.2749  1.7131
 6793SOL     OW32014   0.893   2.582  10.895 -0.1636 -0.1010 -1.0023
 6793SOL    HW132015   0.855   2.589  10.983 -0.4430 -1.4570 -1.0169
 6793SOL    HW232016   0.900   2.676  10.877 -2.0794  0.4588  1.1475
 6794SOL     OW32017   2.135   1.872   8.169 -0.2918 -0.8499  0.1428
 6794SOL    HW132018   2.080   1.950   8.163 -0.7864 -1.0953  1.6415
 6794SOL    HW232019   2.218   1.919   8.185 -1.9888  1.9283  0.8014
 6795SOL     OW32020   0.265   1.183   4.150  0.7636  0.5002 -0.1714
 6795SOL    HW132021   0.226   1.181   4.063  0.0654 -3.0709  0.2063
 6795SOL    HW232022   0.262   1.275   4.177 -2.7628  0.2229  0.3700
 6796SOL     OW32023   1.044   2.952   4.674 -0.4820 -0.0104  0.0939
 6796SOL    HW132024   1.129   2.997   4.669 -0.8688  0.8919  1.7813
 6796SOL    HW232025   1.035   2.941   4.579 -1.1555 -0.7091  0.2422
 6797SOL     OW32026   2.640   2.564   2.637  0.6570 -0.0155 -0.5561
 6797SOL    HW132027   2.622   2.644   2.588 -0.4035  1.5994  2.5137
 6797SOL    HW232028   2.656   2.590   2.728  0.8811 -2.4566  0.1187
 6798SOL     OW32029   1.013   1.271   7.878 -0.0912 -0.1048 -0.1664
 6798SOL    HW132030   0.976   1.202   7.933  1.7583 -1.6624 -0.8834
 6798SOL    HW232031   1.047   1.238   7.794 -3.3375 -1.9038 -0.7784
 6799SOL     OW32032   1.756   3.167   8.008 -0.4944 -0.6604  0.4276
 6799SOL    HW132033   1.830   3.151   7.950 -2.1004  1.3159 -2.1651
 6799SOL    HW232034   1.792   3.217   8.081 -0.3771  0.9971 -0.7696
 6800SOL     OW32035   3.657   3.808   2.939 -0.0037 -0.0239  0.3279
 6800SOL    HW132036   3.691   3.827   2.851  2.1326  1.6617  1.5189
 6800SOL    HW232037   3.586   3.871   2.952  0.4556  1.1009 -2.5236
 6801SOL     OW32038   1.178   0.786  14.991 -0.2160  0.0078 -0.2848
 6801SOL    HW132039   1.090   0.749  14.999  0.2679 -1.7541 -2.9168
 6801SOL    HW232040   1.179   0.816  14.900  0.4483 -0.9389 -0.5855
 6802SOL     OW32041   3.929   0.029   8.529 -0.0677  0.0708  0.2489
 6802SOL    HW132042   3.934   4.730   8.619 -1.1634  0.2154  0.3618
 6802SOL    HW232043   4.007   4.723   8.492  0.2616  1.0736 -0.1906
 6803SOL     OW32044   2.700   4.641   4.376  0.0586  0.0835 -0.0993
 6803SOL    HW132045   2.676   4.550   4.393 -1.6794  0.6590  0.5470
 6803SOL    HW232046   2.621   4.692   4.359  1.7283  2.4654 -0.7198
 6804SOL     OW32047   4.250   4.297   5.341  0.5109 -0.2560  0.3097
 6804SOL    HW132048   4.309   4.290   5.266 -1.6469  2.4319 -1.6451
 6804SOL    HW232049   4.306   4.352   5.395  1.3956  1.3454 -2.2364
 6805SOL     OW32050   0.372   3.171   6.155  0.2445 -0.1421 -0.2242
 6805SOL    HW132051   0.434   3.130   6.214 -0.1386  1.1909  1.0972
 6805SOL    HW232052   0.437   3.215   6.100  2.2460 -1.8234  0.8342
 6806SOL     OW32053   0.355   0.808  10.310  0.0055 -0.2217  0.5028
 6806SOL    HW132054   0.279   0.865  10.298  0.0074 -0.3673 -0.2202
 6806SOL    HW232055   0.306   0.727  10.323 -1.7118  0.6660 -0.4008
 6807SOL     OW32056   4.367   1.374   6.177  0.0554 -0.2650  0.2477
 6807SOL    HW132057   4.287   1.337   6.139  0.3684  1.5256 -2.1496
 6807SOL    HW232058   4.428   1.340   6.113  2.2617  0.7976  1.7793
 6808SOL     OW32059   0.847   0.135   4.195  0.2153  0.0936 -0.1004
 6808SOL    HW132060   0.857   0.187   4.116  0.4777  0.5430  0.2248
 6808SOL    HW232061   0.924   0.166   4.243 -0.3513  2.3451 -0.6738
 6809SOL     OW32062   3.000   4.493   8.020 -0.7552 -0.0608  0.2639
 6809SOL    HW132063   3.034   4.447   7.944  1.3227 -0.3442  1.3845
 6809SOL    HW232064   2.921   4.439   8.023 -1.6555  1.3288  1.4811
 6810SOL     OW32065   0.542   2.507   9.114 -0.2523  0.1178 -0.3008
 6810SOL    HW132066   0.470   2.446   9.101  0.9235 -0.9902 -1.5360
 6810SOL    HW232067   0.545   2.553   9.030 -1.8738 -1.3777 -1.1670
 6811SOL     OW32068   4.553   4.195   3.269  0.1743  0.3032 -0.0920
 6811SOL    HW132069   4.533   4.110   3.229 -0.4478 -0.2878  1.4841
 6811SOL    HW232070   4.563   4.252   3.193  1.3162 -0.1622 -0.2736
 6812SOL     OW32071   3.270   1.151   8.153 -0.0185  0.7501  0.0538
 6812SOL    HW132072   3.230   1.136   8.067  0.4120  0.1436 -0.0389
 6812SOL    HW232073   3.349   1.101   8.136 -0.5392 -0.7353  2.0807
 6813SOL     OW32074   0.839   1.360   2.720 -0.0240  0.9888  0.1577
 6813SOL    HW132075   0.849   1.265   2.728  0.5289  1.1151  0.9956
 6813SOL    HW232076   0.789   1.382   2.799 -1.4062 -2.3358  0.2072
 6814SOL     OW32077   0.755   1.115  10.589 -0.1732  0.4019  0.0030
 6814SOL    HW132078   0.676   1.103  10.537  1.3503 -1.2158 -1.9471
 6814SOL    HW232079   0.787   1.025  10.594 -0.6836  0.3255  1.7493
 6815SOL     OW32080   4.114   0.494   8.013 -0.1199  0.0885  0.3485
 6815SOL    HW132081   4.083   0.585   8.016  1.4003  0.5336  2.4009
 6815SOL    HW232082   4.078   0.459   8.094 -1.1946  0.0981 -0.1309
 6816SOL     OW32083   0.081   0.762   2.696  0.2580 -0.5692  0.0483
 6816SOL    HW132084   0.169   0.738   2.724  0.4569  0.9201  0.7085
 6816SOL    HW232085   0.095   0.811   2.615 -2.2897  2.7591  1.6488
 6817SOL     OW32086   2.668   3.276   2.817 -0.1097  0.0599 -0.1775
 6817SOL    HW132087   2.585   3.264   2.863 -0.3274  0.7854 -0.3815
 6817SOL    HW232088   2.732   3.241   2.879 -1.0551 -3.7858 -1.3930
 6818SOL     OW32089   4.087   3.905  12.413 -0.4018 -0.5464  0.3109
 6818SOL    HW132090   4.094   3.816  12.380  1.2928  0.2979 -1.5942
 6818SOL    HW232091   4.043   3.886  12.496  2.4116 -0.1452  1.9097
 6819SOL     OW32092   2.120   1.189   8.773  0.3325  0.2957  0.0989
 6819SOL    HW132093   2.196   1.218   8.724  0.7147  1.6226  1.4663
 6819SOL    HW232094   2.115   1.099   8.742  2.9090 -0.4437  1.8367
 6820SOL     OW32095   0.187   0.589   0.980  0.7032  0.2596 -0.4255
 6820SOL    HW132096   0.205   0.497   0.960 -0.7451  0.1200 -1.0913
 6820SOL    HW232097   0.171   0.620   0.891 -0.8199 -1.8982 -0.9153
 6821SOL     OW32098   0.337   1.278   1.427  0.0166 -0.1299  0.8207
 6821SOL    HW132099   0.360   1.282   1.334  0.8439  2.3462  1.1195
 6821SOL    HW232100   0.370   1.194   1.459 -0.0781 -1.3827 -2.4085
 6822SOL     OW32101   0.673   4.489   7.437  0.1448  0.1788 -0.0562
 6822SOL    HW132102   0.614   4.547   7.484  3.3716  3.4505 -0.0097
 6822SOL    HW232103   0.687   4.547   7.363 -1.7261 -0.2392 -0.7277
 6823SOL     OW32104   1.982   2.716   8.209  0.2297 -0.3388 -0.0548
 6823SOL    HW132105   1.916   2.775   8.246 -0.4408 -0.3304 -1.2754
 6823SOL    HW232106   1.932   2.689   8.132  0.5482 -1.3276  0.0811
 6824SOL     OW32107   3.195   2.641   7.092 -0.5597 -0.4310  0.0525
 6824SOL    HW132108   3.226   2.606   7.176  1.2825 -0.4864 -0.6458
 6824SOL    HW232109   3.197   2.734   7.113  1.7613 -0.5818  0.5121
 6825SOL     OW32110   3.670   3.505   7.136 -0.8129 -0.7714  0.6422
 6825SOL    HW132111   3.744   3.493   7.196 -2.4316  3.8404  3.5629
 6825SOL    HW232112   3.601   3.517   7.201 -0.0340 -0.6930  1.4587
 6826SOL     OW32113   4.320   2.383  16.907 -0.3104 -0.0639  0.1617
 6826SOL    HW132114   4.278   2.297  16.906  1.0386 -0.7280  0.4640
 6826SOL    HW232115   4.288   2.425  16.827  2.2056  1.5738  0.0313
 6827SOL     OW32116   0.194   2.560  15.810  0.1202  0.2546  0.0583
 6827SOL    HW132117   0.128   2.551  15.741  0.5551 -1.6178 -0.1077
 6827SOL    HW232118   0.152   2.508  15.878 -1.1470  1.3459  0.1058
 6828SOL     OW32119   2.538   2.418   8.505 -0.1824 -0.5345 -0.3301
 6828SOL    HW132120   2.594   2.350   8.467 -0.1784 -0.6104 -0.1903
 6828SOL    HW232121   2.520   2.466   8.425  0.4116  1.2219  0.5859
 6829SOL     OW32122   4.677   2.085  15.534  0.3428  0.4892 -0.7568
 6829SOL    HW132123   0.015   2.126  15.578 -1.3947  1.8689  0.9399
 6829SOL    HW232124   4.624   2.164  15.522 -1.4038 -0.8025 -1.5501
 6830SOL     OW32125   2.015   0.071   7.979 -0.0329  0.4974 -0.4229
 6830SOL    HW132126   2.084   0.012   7.950  1.1474  2.0063 -0.6936
 6830SOL    HW232127   1.940   0.018   8.003 -0.1239  0.6402 -0.3930
 6831SOL     OW32128   1.453   0.451   6.336 -0.1178  0.2541 -0.3627
 6831SOL    HW132129   1.381   0.479   6.279  0.8657  2.2419 -0.6122
 6831SOL    HW232130   1.415   0.433   6.422  0.4816 -1.2747 -0.4175
 6832SOL     OW32131   3.912   2.056   4.555 -0.2696 -0.3461  0.4807
 6832SOL    HW132132   3.925   1.967   4.522  2.8621 -0.6626  2.5409
 6832SOL    HW232133   3.822   2.047   4.584 -0.9103 -1.2785 -1.7288
 6833SOL     OW32134   0.047   2.593   6.983 -0.1595  0.0700  0.8931
 6833SOL    HW132135   0.019   2.527   6.919 -2.4987  1.7293  0.1911
 6833SOL    HW232136   0.140   2.596   6.962 -0.1749  2.3598  1.1366
 6834SOL     OW32137   3.893   1.600   7.098  0.2066 -0.1131 -0.8224
 6834SOL    HW132138   3.845   1.522   7.069 -1.8016  0.6499  0.4613
 6834SOL    HW232139   3.981   1.581   7.064  0.5811  2.1553 -1.1018
 6835SOL     OW32140   4.421   2.381   5.826  0.2473  0.3015  0.2341
 6835SOL    HW132141   4.330   2.378   5.855 -0.6105  2.5058 -2.3256
 6835SOL    HW232142   4.427   2.473   5.804 -0.0897  0.2351 -0.1339
 6836SOL     OW32143   0.528   3.386   2.045  0.0112 -0.7498  0.0341
 6836SOL    HW132144   0.603   3.387   1.985  0.8627 -0.6649  1.0977
 6836SOL    HW232145   0.512   3.291   2.041 -0.8346 -0.7524  3.2332
 6837SOL     OW32146   0.147   0.893  12.341 -0.1421  0.3227 -0.1260
 6837SOL    HW132147   0.174   0.940  12.419  1.4956 -1.7123  0.5549
 6837SOL    HW232148   0.206   0.817  12.347 -1.0519 -0.3157  0.6816
 6838SOL     OW32149   1.124   0.711   2.115  0.4968  0.2788 -0.2589
 6838SOL    HW132150   1.200   0.682   2.064  0.2858 -0.6947 -0.0121
 6838SOL    HW232151   1.153   0.681   2.201 -0.3374  0.4893  0.0945
 6839SOL     OW32152   0.171   1.762   7.142  0.8299 -0.0075 -0.1727
 6839SOL    HW132153   0.255   1.784   7.184  0.1982  2.1850 -0.0843
 6839SOL    HW232154   0.119   1.822   7.196  1.9969  0.9625 -0.1159
 6840SOL     OW32155   1.484   1.578   4.184 -0.0543  0.5926  0.3744
 6840SOL    HW132156   1.579   1.579   4.183 -0.0753  0.5895 -1.4650
 6840SOL    HW232157   1.467   1.486   4.163 -3.5732  1.1963  0.5599
 6841SOL     OW32158   1.439   2.208  17.252 -0.7333  0.4597 -0.1028
 6841SOL    HW132159   1.477   2.185  17.167  2.1701  0.9184  1.0797
 6841SOL    HW232160   1.375   2.139  17.267 -1.8903  1.9831  1.9935
 6842SOL     OW32161   0.846   0.691   6.766 -0.4751 -0.0455  0.3182
 6842SOL    HW132162   0.915   0.659   6.824 -0.3974 -2.3716 -1.0769
 6842SOL    HW232163   0.881   0.691   6.677 -1.0316 -2.2828  0.0949
 6843SOL     OW32164   2.985   2.780   8.246 -0.3189 -0.1538 -0.2010
 6843SOL    HW132165   2.892   2.765   8.268 -0.0252 -1.0830  0.4538
 6843SOL    HW232166   3.022   2.721   8.312 -0.1920 -1.0840 -1.1162
 6844SOL     OW32167   2.056   1.134   5.407 -0.1452  0.3580 -0.5411
 6844SOL    HW132168   2.150   1.145   5.392 -0.3110  0.8517 -1.2262
 6844SOL    HW232169   2.036   1.138   5.314  0.6702  1.6445 -0.6581
 6845SOL     OW32170   1.455   4.042   7.440 -0.5574  0.0738  0.6275
 6845SOL    HW132171   1.392   4.060   7.370  0.9439  0.2589 -0.6654
 6845SOL    HW232172   1.407   4.079   7.515 -0.8072 -1.8706  1.4385
 6846SOL     OW32173   2.108   2.965   9.112 -0.2202  0.7321  0.2820
 6846SOL    HW132174   2.134   2.957   9.203  0.8529 -2.0543 -0.2649
 6846SOL    HW232175   2.109   2.872   9.089 -0.4203  0.9660 -0.6883
 6847SOL     OW32176   2.937   3.146  16.131 -0.5606 -0.2984  0.4804
 6847SOL    HW132177   2.931   3.145  16.035  1.5740 -1.4319  0.3491
 6847SOL    HW232178   2.887   3.066  16.146  0.2321 -0.7100  0.9445
 6848SOL     OW32179   0.642   1.757   7.692 -0.6417 -0.1734  0.0391
 6848SOL    HW132180   0.719   1.803   7.655  0.8603 -1.5173  1.5279
 6848SOL    HW232181   0.682   1.715   7.768  1.5610  1.1584 -0.3471
 6849SOL     OW32182   0.427   4.213   8.235 -0.0568 -0.8808  0.4196
 6849SOL    HW132183   0.471   4.231   8.151 -2.6409  2.1034 -0.2859
 6849SOL    HW232184   0.451   4.120   8.240  1.6736 -0.4709 -0.1767
 6850SOL     OW32185   2.995   0.926   6.624 -0.4122  0.3508  0.1161
 6850SOL    HW132186   2.955   0.864   6.563  1.4589 -0.5588 -0.1777
 6850SOL    HW232187   3.083   0.893   6.638  0.0863  0.6886 -2.2049
 6851SOL     OW32188   4.366   3.433  17.274 -0.4836  0.0788  0.0447
 6851SOL    HW132189   4.421   3.382  17.334  0.6281  1.4660  0.2212
 6851SOL    HW232190   4.415   3.423  17.193  2.4652 -2.5596  2.1543
 6852SOL     OW32191   2.157   4.367   9.673  0.7587 -0.8921  0.1621
 6852SOL    HW132192   2.115   4.284   9.692  0.3762 -0.9271 -0.8528
 6852SOL    HW232193   2.184   4.344   9.584  1.3011 -0.8424  0.3089
 6853SOL     OW32194   4.362   0.367   0.878  0.3211 -0.1207 -0.9072
 6853SOL    HW132195   4.426   0.439   0.877  0.9584 -0.6373  2.2728
 6853SOL    HW232196   4.291   0.408   0.830 -0.5841  0.3060  0.7934
 6854SOL     OW32197   1.553   3.673   6.370  0.2249 -0.2893 -0.4376
 6854SOL    HW132198   1.531   3.764   6.387 -0.1017 -0.1940 -1.3814
 6854SOL    HW232199   1.498   3.654   6.294 -2.3841  2.5993  0.7639
 6855SOL     OW32200   1.971   1.909   3.757  0.1368  0.6409  0.1799
 6855SOL    HW132201   2.041   1.939   3.698 -1.7616  0.5192 -2.0971
 6855SOL    HW232202   1.932   1.844   3.699 -0.0875  0.8959  0.0462
 6856SOL     OW32203   4.217   3.476   5.973  0.6851  0.1378  1.3235
 6856SOL    HW132204   4.188   3.420   6.045 -1.4878 -1.5684 -0.9035
 6856SOL    HW232205   4.167   3.432   5.904  0.8459  1.7639  0.1689
 6857SOL     OW32206   2.573   1.725   3.289 -0.2169 -0.0166 -0.2568
 6857SOL    HW132207   2.506   1.677   3.240 -2.0487  1.2759  0.9568
 6857SOL    HW232208   2.586   1.801   3.232 -0.9869  1.7772  1.9561
 6858SOL     OW32209   1.420   0.701   7.576  0.2121 -0.0783  0.6005
 6858SOL    HW132210   1.479   0.777   7.573  1.2597 -0.9486 -0.4115
 6858SOL    HW232211   1.460   0.643   7.640 -0.3040  1.1914  2.0943
 6859SOL     OW32212   2.037   3.123   2.365 -0.1424 -0.5996  0.2030
 6859SOL    HW132213   2.022   3.210   2.329  3.6286 -0.3964 -0.8919
 6859SOL    HW232214   2.103   3.138   2.434  0.0132 -0.8772  0.1130
 6860SOL     OW32215   0.561   3.971   8.240  0.2944  0.4761  0.2200
 6860SOL    HW132216   0.605   3.949   8.158 -0.0339 -0.4757  0.3041
 6860SOL    HW232217   0.632   4.009   8.292 -0.0877  2.0250 -0.3958
 6861SOL     OW32218   4.694   2.545   1.799 -0.2924 -0.1025  0.0864
 6861SOL    HW132219   0.040   2.508   1.765 -0.6821 -0.3115 -0.6332
 6861SOL    HW232220   4.725   2.631   1.826  0.2863  0.2915 -1.8575
 6862SOL     OW32221   3.893   4.636   7.348 -0.1591  0.9685  0.9010
 6862SOL    HW132222   3.985   4.616   7.333 -0.9449 -0.4699 -2.1749
 6862SOL    HW232223   3.887   4.589   7.431  2.1250 -2.4889 -0.8939
 6863SOL     OW32224   1.164   0.051  13.374  0.5230  1.2226  0.2697
 6863SOL    HW132225   1.093   0.086  13.321 -1.0191 -0.6165  1.1017
 6863SOL    HW232226   1.188   0.129  13.425  0.3388 -0.3546  2.7775
 6864SOL     OW32227   0.417   4.240  15.462  0.0976 -0.2422 -0.1190
 6864SOL    HW132228   0.429   4.304  15.392  1.2187 -1.5979 -1.1753
 6864SOL    HW232229   0.476   4.166  15.445 -2.3075 -2.3240  0.6271
 6865SOL     OW32230   3.861   2.631   3.979 -0.4215 -0.1447 -0.4436
 6865SOL    HW132231   3.876   2.548   4.023  1.7966 -0.4625 -1.7684
 6865SOL    HW232232   3.939   2.639   3.923  0.0466  0.8213  0.3640
 6866SOL     OW32233   3.458   2.953  11.950 -0.0016  0.3617  0.0193
 6866SOL    HW132234   3.370   2.932  11.980  0.1958  0.0603  0.3965
 6866SOL    HW232235   3.482   2.869  11.911 -1.6555 -0.9094  1.7259
 6867SOL     OW32236   2.025   1.432   3.384  0.4812 -0.3849 -0.4886
 6867SOL    HW132237   1.940   1.388   3.390  0.1869  0.5332  2.0572
 6867SOL    HW232238   2.062   1.399   3.466  2.8659 -0.3810 -1.5782
 6868SOL     OW32239   2.524   2.405   7.969  0.0509 -0.1685 -0.2720
 6868SOL    HW132240   2.433   2.428   7.984 -0.0397 -0.4299 -0.4204
 6868SOL    HW232241   2.562   2.492   7.974 -0.2133 -0.0301 -0.7055
 6869SOL     OW32242   2.733   0.010  15.128  0.2972 -0.3674  0.4658
 6869SOL    HW132243   2.687   4.703  15.201  2.2900 -1.9575  0.7937
 6869SOL    HW232244   2.715   4.685  15.056  0.7563 -0.8331  0.7445
 6870SOL     OW32245   1.329   1.700   1.931 -0.0458 -0.0465 -0.2791
 6870SOL    HW132246   1.307   1.680   1.840 -0.3722 -1.9544  0.2115
 6870SOL    HW232247   1.411   1.650   1.931 -0.8189 -1.2972  0.0696
 6871SOL     OW32248   4.613   2.182   0.413  0.1400 -0.3350 -0.5442
 6871SOL    HW132249   4.547   2.116   0.435 -0.8213  1.1156  0.9413
 6871SOL    HW232250   4.635   2.151   0.325 -1.7158 -1.1523 -0.7208
 6872SOL     OW32251   3.075   3.324   9.254 -0.4714  0.3947  0.2495
 6872SOL    HW132252   3.100   3.390   9.318  1.8147  0.9625 -1.2182
 6872SOL    HW232253   3.135   3.259   9.290 -1.3932 -1.1596 -1.0453
 6873SOL     OW32254   1.484   1.127   2.965  0.0609  0.0887  0.0815
 6873SOL    HW132255   1.492   1.031   2.971  0.1949  0.1457  0.7898
 6873SOL    HW232256   1.573   1.157   2.980 -0.1325  0.1989  0.9972
 6874SOL     OW32257   1.986   2.099  12.539  0.1440  0.8210  0.1003
 6874SOL    HW132258   2.030   2.161  12.597 -0.9649  0.9602  0.7955
 6874SOL    HW232259   1.930   2.051  12.601  2.1962 -1.0564  0.4873
 6875SOL     OW32260   3.944   1.018   3.027 -0.4562 -0.2957  0.5267
 6875SOL    HW132261   3.938   1.089   3.091  0.2939  1.4313 -1.3288
 6875SOL    HW232262   4.024   0.975   3.059  1.0305  1.1994 -1.1405
 6876SOL     OW32263   3.547   0.435   3.696 -0.0274 -0.0957 -0.5200
 6876SOL    HW132264   3.605   0.388   3.636 -0.8270 -0.1085 -1.2833
 6876SOL    HW232265   3.532   0.520   3.655  1.2646  0.8349  0.9288
 6877SOL     OW32266   3.654   0.408   6.313 -0.5562 -0.0336 -0.7875
 6877SOL    HW132267   3.627   0.426   6.403  3.8870  1.2954  0.2962
 6877SOL    HW232268   3.607   0.325   6.321 -0.9193  0.0098 -2.4511
 6878SOL     OW32269   2.323   1.262   0.178  0.5154  0.0171  0.1824
 6878SOL    HW132270   2.376   1.223   0.248 -1.1951 -2.5960  0.0197
 6878SOL    HW232271   2.257   1.192   0.181 -0.8872  1.3303 -0.3079
 6879SOL     OW32272   3.738   1.687   7.300 -0.0697  0.1403 -0.1100
 6879SOL    HW132273   3.796   1.679   7.224  1.6851  1.7863  1.0444
 6879SOL    HW232274   3.736   1.781   7.314 -0.6713 -0.0262  0.9996
 6880SOL     OW32275   0.778   2.523  13.331 -0.8510 -0.0182  0.2237
 6880SOL    HW132276   0.847   2.486  13.276 -2.3749 -2.2667 -0.1729
 6880SOL    HW232277   0.700   2.516  13.276 -1.0371  1.2301  0.3166
 6881SOL     OW32278   4.332   1.318  16.347 -0.3738  0.1150 -0.3031
 6881SOL    HW132279   4.261   1.317  16.282 -1.0625 -0.8008  0.4780
 6881SOL    HW232280   4.284   1.318  16.430  3.0867 -0.7121  1.6981
 6882SOL     OW32281   4.352   0.247  15.009  0.2867 -0.2570  0.4742
 6882SOL    HW132282   4.379   0.242  14.917 -0.0998 -0.8635  0.3882
 6882SOL    HW232283   4.391   0.329  15.038  3.2834 -2.0504  1.5740
 6883SOL     OW32284   4.409   3.795   9.813  0.0803  0.2785  0.2856
 6883SOL    HW132285   4.430   3.888   9.802 -0.6629  0.1200 -2.5145
 6883SOL    HW232286   4.464   3.752   9.748 -0.4326 -1.8360  1.2656
 6884SOL     OW32287   3.772   4.629  11.703  0.4425  0.2747  0.4965
 6884SOL    HW132288   3.723   4.657  11.625 -0.8303 -1.6535  0.6032
 6884SOL    HW232289   3.830   4.566  11.659 -0.6281  0.4178 -1.1394
 6885SOL     OW32290   2.420   1.283   4.502 -0.2538 -0.7246 -0.3288
 6885SOL    HW132291   2.443   1.233   4.580  2.0108  0.0534 -0.4932
 6885SOL    HW232292   2.503   1.329   4.492 -0.4656 -0.1740  0.4674
 6886SOL     OW32293   0.229   3.125   8.157 -0.4206  0.1814  1.1072
 6886SOL    HW132294   0.316   3.093   8.179 -1.4340 -2.5321  1.2302
 6886SOL    HW232295   0.234   3.156   8.066  2.8115 -2.9210  0.2580
 6887SOL     OW32296   3.363   2.156   5.084 -0.3889  0.0922  0.4016
 6887SOL    HW132297   3.416   2.231   5.057 -0.3822  0.4479  1.4025
 6887SOL    HW232298   3.281   2.202   5.100  0.0753  1.7010 -1.8249
 6888SOL     OW32299   1.115   3.537   8.729 -0.3285 -0.0621 -0.4102
 6888SOL    HW132300   1.113   3.632   8.717  0.3551 -0.0536 -0.4561
 6888SOL    HW232301   1.186   3.509   8.672 -2.0504  0.0550 -2.6006
 6889SOL     OW32302   2.016   4.488   3.080  0.1872  0.1240  0.1237
 6889SOL    HW132303   2.087   4.430   3.052 -1.3361 -1.2343 -0.9838
 6889SOL    HW232304   1.979   4.511   2.994 -0.2985  1.6670  0.7529
 6890SOL     OW32305   1.152   4.317   3.682 -0.3532  0.0821  0.2295
 6890SOL    HW132306   1.069   4.363   3.673 -2.0478 -2.7116  1.7140
 6890SOL    HW232307   1.135   4.255   3.753  0.2443  1.6473  1.7162
 6891SOL     OW32308   2.157   0.554   1.984 -1.0403  0.6551 -0.2645
 6891SOL    HW132309   2.092   0.548   2.055 -1.0967 -1.3394 -0.4941
 6891SOL    HW232310   2.095   0.590   1.920  0.5913  3.4005 -0.3212
 6892SOL     OW32311   2.068   3.460   3.786  0.2457  0.0630  0.2486
 6892SOL    HW132312   2.020   3.507   3.854  0.2087  0.7025 -0.2151
 6892SOL    HW232313   2.106   3.389   3.837  0.7971  2.7653  3.5951
 6893SOL     OW32314   0.329   2.266   0.682 -0.3398 -0.4907  0.0277
 6893SOL    HW132315   0.287   2.352   0.690 -0.2766 -0.3458 -1.1495
 6893SOL    HW232316   0.250   2.214   0.685 -1.6261  1.5396  1.2765
 6894SOL     OW32317   4.328   0.557   9.928 -0.2787  0.1258 -0.5657
 6894SOL    HW132318   4.352   0.650   9.925 -1.8002  0.5635  1.0559
 6894SOL    HW232319   4.407   0.512   9.960 -0.3936  1.3394  1.4518
 6895SOL     OW32320   2.975   4.051   0.306  0.2469  0.3415  0.1685
 6895SOL    HW132321   3.038   4.026   0.373 -2.4114 -1.1706  2.0915
 6895SOL    HW232322   2.907   3.984   0.316  0.5919 -0.1111 -0.4585
 6896SOL     OW32323   3.129   1.469   5.903 -0.2431  0.5712 -0.1257
 6896SOL    HW132324   3.130   1.385   5.948 -0.5781  1.2948  1.2279
 6896SOL    HW232325   3.220   1.500   5.911 -0.0919  0.1548 -0.2410
 6897SOL     OW32326   4.092   2.633   0.818  0.1440  0.6274  0.1326
 6897SOL    HW132327   4.132   2.562   0.867 -0.8063 -0.1428 -0.2180
 6897SOL    HW232328   4.131   2.627   0.731 -0.7049  1.3610 -0.3015
 6898SOL     OW32329   0.636   2.691   6.762  0.2603  0.2240 -0.0535
 6898SOL    HW132330   0.615   2.628   6.831  5.1017 -1.3540 -0.0485
 6898SOL    HW232331   0.722   2.722   6.787 -0.2875  1.8771 -0.2116
 6899SOL     OW32332   0.535   1.965   1.836  0.3158  0.2889  0.0209
 6899SOL    HW132333   0.618   1.917   1.840 -2.0375 -3.6683  1.6825
 6899SOL    HW232334   0.466   1.904   1.812  0.8111 -0.6183  0.8789
 6900SOL     OW32335   2.698   1.989  13.426 -0.4907 -0.0414  0.1668
 6900SOL    HW132336   2.608   2.010  13.399  0.2642  0.2719 -2.1168
 6900SOL    HW232337   2.701   1.897  13.401 -1.0457 -0.5280  1.9053
 6901SOL     OW32338   0.825   2.990  13.273  0.0259 -0.5205  0.1171
 6901SOL    HW132339   0.891   2.999  13.205  0.7575  1.8816  1.1671
 6901SOL    HW232340   0.874   3.009  13.353  2.1687 -1.8996 -0.8890
 6902SOL     OW32341   2.822   4.719  13.292 -0.5087  0.3633  0.0293
 6902SOL    HW132342   2.914   4.711  13.266 -0.2430 -1.0202  1.4014
 6902SOL    HW232343   2.816   0.078  13.286  0.6656  0.4356 -0.0444
 6903SOL     OW32344   3.145   0.050   8.571 -0.3014  0.1463  0.0297
 6903SOL    HW132345   3.114   0.097   8.494 -0.0419  0.5661  0.1822
 6903SOL    HW232346   3.105   0.104   8.639  0.5295  1.7686 -0.7714
 6904SOL     OW32347   1.409   2.810   9.220  0.1319 -0.2866 -0.1537
 6904SOL    HW132348   1.366   2.858   9.149 -0.0285 -0.0751  0.0892
 6904SOL    HW232349   1.460   2.754   9.161 -0.0762 -0.7990  0.1543
 6905SOL     OW32350   1.340   0.742   6.989  0.1186 -0.1972  0.3597
 6905SOL    HW132351   1.321   0.682   7.061 -0.6456 -1.7077 -1.0914
 6905SOL    HW232352   1.434   0.731   6.981  0.0190 -0.6834 -0.1526
 6906SOL     OW32353   0.461   2.346   6.308  0.4949  0.2612  0.4933
 6906SOL    HW132354   0.442   2.252   6.307  1.1873  0.1485 -1.1436
 6906SOL    HW232355   0.554   2.348   6.286  0.2525  1.3501 -0.4437
 6907SOL     OW32356   3.581   3.007  15.963  0.0746 -0.5311  0.1289
 6907SOL    HW132357   3.644   2.945  15.999  1.9465  0.8015 -0.8375
 6907SOL    HW232358   3.646   3.055  15.913  0.0502  0.7187  1.2824
 6908SOL     OW32359   2.584   4.652   7.904  0.3579  0.2958  0.2360
 6908SOL    HW132360   2.623   4.618   7.985 -0.3718 -0.3842  0.3097
 6908SOL    HW232361   2.516   4.713   7.932  1.0114  0.8002  0.7191
 6909SOL     OW32362   1.728   1.451   6.431 -0.4338  0.4901 -0.6929
 6909SOL    HW132363   1.757   1.368   6.392 -0.7852 -0.6424  1.4311
 6909SOL    HW232364   1.752   1.436   6.523  1.0677  1.2213 -0.9658
 6910SOL     OW32365   4.728   0.561   1.588 -0.0113 -0.3619 -0.3606
 6910SOL    HW132366   0.049   0.628   1.624 -0.3635 -1.0794  1.5169
 6910SOL    HW232367   0.016   0.482   1.637  0.8784 -0.2210 -0.5771
 6911SOL     OW32368   1.259   3.046  17.042  0.1279  0.3358  0.1851
 6911SOL    HW132369   1.290   2.987  16.974 -1.0129  0.4146 -0.3956
 6911SOL    HW232370   1.186   2.988  17.066  0.0544  0.5078  0.3780
 6912SOL     OW32371   0.882   2.022   5.202  0.3965  0.2824  0.1052
 6912SOL    HW132372   0.928   2.104   5.219  0.9140  0.2691 -1.2553
 6912SOL    HW232373   0.819   2.012   5.273 -1.6064  1.0389 -1.5668
 6913SOL     OW32374   1.968   0.725   2.364 -0.2621  0.0279  0.2972
 6913SOL    HW132375   1.933   0.754   2.449 -0.0082  2.3441 -0.3901
 6913SOL    HW232376   2.050   0.773   2.358  0.4386 -1.0765  0.9295
 6914SOL     OW32377   1.362   0.519   3.610  0.1963  0.2220  0.1935
 6914SOL    HW132378   1.276   0.478   3.608  1.2375 -1.9253 -1.0310
 6914SOL    HW232379   1.370   0.545   3.702 -3.1929  0.4329  0.4314
 6915SOL     OW32380   1.350   4.459  14.158 -0.0925  0.1063 -0.5938
 6915SOL    HW132381   1.292   4.535  14.167 -0.6860 -0.5194  1.0369
 6915SOL    HW232382   1.406   4.489  14.086 -1.0505 -1.9604 -2.2096
 6916SOL     OW32383   0.372   0.708   1.382  0.0840 -0.6131 -0.0941
 6916SOL    HW132384   0.336   0.760   1.311 -0.5249 -1.1877 -0.2077
 6916SOL    HW232385   0.294   0.703   1.438  0.5309  2.2121  0.7913
 6917SOL     OW32386   1.454   3.834   8.526 -0.2197 -0.0567  0.1501
 6917SOL    HW132387   1.394   3.906   8.508 -1.2629 -0.9732 -0.0754
 6917SOL    HW232388   1.538   3.878   8.540 -0.1372  0.2784 -1.4160
 6918SOL     OW32389   1.786   2.872  16.545  0.6726 -0.4954 -0.4454
 6918SOL    HW132390   1.837   2.792  16.560  0.6294 -0.4074  0.1398
 6918SOL    HW232391   1.810   2.929  16.618  0.3787  2.5102 -2.6810
 6919SOL     OW32392   2.311   0.081  12.269  0.0578 -0.2708  0.5284
 6919SOL    HW132393   2.291   0.084  12.176  1.8000  0.4091  0.1770
 6919SOL    HW232394   2.383   0.017  12.261  0.6769  0.4003  0.7441
 6920SOL     OW32395   4.146   2.534   5.017 -0.3941  0.2860  0.7171
 6920SOL    HW132396   4.064   2.491   4.991 -0.5456  0.2642  1.2305
 6920SOL    HW232397   4.210   2.467   4.991 -1.5923 -0.4047 -0.4419
 6921SOL     OW32398   4.019   2.237  11.420 -0.2793  0.1002 -0.4404
 6921SOL    HW132399   3.967   2.216  11.498 -0.3187 -0.1851 -0.5472
 6921SOL    HW232400   3.947   2.270  11.367 -0.2102  0.3131 -0.4039
 6922SOL     OW32401   3.838   1.196   4.176 -0.0686 -0.6323  0.0080
 6922SOL    HW132402   3.779   1.123   4.195 -1.4706 -0.4862 -3.7347
 6922SOL    HW232403   3.833   1.251   4.254 -0.8277  0.2275 -0.6494
 6923SOL     OW32404   3.320   4.697   4.883 -0.1465  0.1393  0.2006
 6923SOL    HW132405   3.246   0.017   4.903 -1.2426 -0.5198 -1.9456
 6923SOL    HW232406   3.387   0.028   4.870 -1.8012  1.6103 -0.6855
 6924SOL     OW32407   2.273   3.154   1.018  0.4884  0.3081  0.0297
 6924SOL    HW132408   2.255   3.164   0.925  1.3988 -1.7336 -0.3594
 6924SOL    HW232409   2.364   3.126   1.012  0.2379 -0.3044 -0.7503
 6925SOL     OW32410   1.212   1.934  10.292 -0.4269 -0.1204  0.4920
 6925SOL    HW132411   1.171   1.848  10.284 -0.4914 -0.1564  1.2454
 6925SOL    HW232412   1.199   1.939  10.387  1.8953 -0.8530  0.8526
 6926SOL     OW32413   2.684   1.492   6.763 -0.3765  0.2735  0.2481
 6926SOL    HW132414   2.647   1.417   6.810 -0.6591  1.0651  1.2813
 6926SOL    HW232415   2.743   1.528   6.830 -0.1782  0.2291  0.0975
 6927SOL     OW32416   4.099   1.953   8.618  0.5221 -0.1859 -0.1235
 6927SOL    HW132417   4.022   1.959   8.675  0.9610 -0.2487  0.4800
 6927SOL    HW232418   4.139   2.040   8.613  1.6353 -0.6393  0.7794
 6928SOL     OW32419   3.312   3.573   7.683 -0.4737  0.6566 -0.5234
 6928SOL    HW132420   3.335   3.662   7.711 -1.0530  0.6773 -0.0913
 6928SOL    HW232421   3.262   3.540   7.758  2.6209 -0.6770  0.9332
 6929SOL     OW32422   1.301   0.271   3.188 -0.2099 -0.2728 -0.5226
 6929SOL    HW132423   1.379   0.287   3.135 -1.0235  0.0299 -1.6371
 6929SOL    HW232424   1.325   0.182   3.214  1.1258  0.4820  0.7980
 6930SOL     OW32425   1.238   3.831  16.642 -0.8236 -0.7945  0.2168
 6930SOL    HW132426   1.306   3.851  16.707  1.2832 -0.5015 -2.0788
 6930SOL    HW232427   1.264   3.894  16.575 -0.8261  0.3402  1.2735
 6931SOL     OW32428   3.852   1.962   6.218 -0.6554  0.5233  0.8706
 6931SOL    HW132429   3.873   2.049   6.253 -0.9595 -0.6058  3.8350
 6931SOL    HW232430   3.799   1.990   6.143 -0.6716 -2.6375 -0.2715
 6932SOL     OW32431   1.670   0.548   3.924  0.0578  0.0661 -0.1042
 6932SOL    HW132432   1.724   0.519   3.998 -0.6342  0.6551  0.6435
 6932SOL    HW232433   1.598   0.485   3.929 -1.6337  1.9404 -0.9772
 6933SOL     OW32434   3.517   1.886  10.797 -0.0661  0.4695  0.3449
 6933SOL    HW132435   3.427   1.865  10.822  0.1931  0.0027  0.8932
 6933SOL    HW232436   3.531   1.944  10.873 -2.1935  2.3698 -0.7035
 6934SOL     OW32437   4.312   0.508   4.331 -0.0901 -0.1897 -0.0941
 6934SOL    HW132438   4.235   0.495   4.387 -0.1619 -1.5381 -0.5272
 6934SOL    HW232439   4.390   0.473   4.375  0.3615  1.0540  0.1165
 6935SOL     OW32440   3.265   1.866   3.760 -0.3110 -0.3535 -0.1708
 6935SOL    HW132441   3.331   1.921   3.717 -0.3070 -1.6873 -1.8671
 6935SOL    HW232442   3.215   1.852   3.680  1.5532 -0.2700 -1.3479
 6936SOL     OW32443   4.007   0.512   6.487 -0.1133 -0.2102 -0.1572
 6936SOL    HW132444   3.925   0.471   6.515  0.3938  0.4117  2.2815
 6936SOL    HW232445   3.999   0.496   6.393  0.9573  0.1858 -0.3082
 6937SOL     OW32446   2.029   3.148   6.555 -0.1705  0.3703 -0.6659
 6937SOL    HW132447   1.993   3.232   6.585 -0.2909 -0.5321  1.6985
 6937SOL    HW232448   2.074   3.127   6.637 -0.3496  0.9159 -0.4287
 6938SOL     OW32449   3.972   2.689   8.275  0.1327 -0.0971  0.0097
 6938SOL    HW132450   4.001   2.614   8.223  0.4648 -0.4225  0.6675
 6938SOL    HW232451   4.045   2.750   8.277  0.4618 -0.4131 -2.2526
 6939SOL     OW32452   2.878   3.423  16.086 -0.3532  0.0591 -0.4974
 6939SOL    HW132453   2.955   3.480  16.083 -0.6896  0.5510  0.1445
 6939SOL    HW232454   2.905   3.339  16.123  0.6891  1.5181  2.0306
 6940SOL     OW32455   1.429   0.698  12.460 -0.5884 -0.2958 -0.4297
 6940SOL    HW132456   1.506   0.658  12.502 -0.9079 -0.8932 -0.4019
 6940SOL    HW232457   1.424   0.785  12.500 -0.2628 -0.9740  1.0959
 6941SOL     OW32458   0.764   3.611   2.866  0.7716 -0.3057 -0.0190
 6941SOL    HW132459   0.790   3.677   2.802  1.1788  0.0601  0.5241
 6941SOL    HW232460   0.670   3.627   2.873  0.8843  0.5860 -0.6617
 6942SOL     OW32461   4.552   3.310   4.510  0.0298  0.4137  0.0155
 6942SOL    HW132462   4.565   3.401   4.484  1.2865  0.0684 -0.5730
 6942SOL    HW232463   4.461   3.311   4.539  0.3580  0.3763  1.0810
 6943SOL     OW32464   2.455   3.968   4.890 -0.1272  0.4940  0.6436
 6943SOL    HW132465   2.504   3.893   4.858 -2.0068 -0.0481 -0.9730
 6943SOL    HW232466   2.429   3.938   4.977 -0.7543  0.7291  0.5365
 6944SOL     OW32467   2.319   0.474   9.719  0.4764  0.5978 -0.6213
 6944SOL    HW132468   2.316   0.383   9.689  0.9656  0.0487  0.9865
 6944SOL    HW232469   2.354   0.518   9.642  2.4050 -1.6735 -1.0192
 6945SOL     OW32470   2.436   1.271   7.724  0.8502  0.3742 -0.3503
 6945SOL    HW132471   2.452   1.269   7.630  0.3927  1.8093 -0.4650
 6945SOL    HW232472   2.524   1.284   7.761  1.0356 -0.7331 -0.4181
 6946SOL     OW32473   2.929   1.770   0.574 -0.0976 -0.0533 -0.1148
 6946SOL    HW132474   2.859   1.704   0.580  0.5396 -0.7278 -0.1665
 6946SOL    HW232475   2.995   1.729   0.630 -0.2021  0.6337  0.5211
 6947SOL     OW32476   1.739   4.167   5.670 -0.0944 -0.1762  0.1026
 6947SOL    HW132477   1.748   4.173   5.765 -0.3784 -0.7206  0.1702
 6947SOL    HW232478   1.652   4.125   5.671  0.6603 -1.7819 -0.9695
 6948SOL     OW32479   4.314   3.912   2.529 -0.4005  0.5387 -0.3874
 6948SOL    HW132480   4.395   3.882   2.571 -1.0376 -0.1526  0.3440
 6948SOL    HW232481   4.336   4.006   2.527  0.8418  0.2603 -0.1969
 6949SOL     OW32482   3.194   0.426   6.165 -0.0197 -0.0607 -0.0516
 6949SOL    HW132483   3.161   0.441   6.076  2.7877  0.9177 -0.9210
 6949SOL    HW232484   3.170   0.336   6.185 -1.0809  0.1897 -0.1702
 6950SOL     OW32485   2.207   3.743   7.122  0.4688 -0.5263 -0.4640
 6950SOL    HW132486   2.151   3.800   7.175 -0.1484 -1.1492 -0.4410
 6950SOL    HW232487   2.185   3.658   7.160  1.2936 -0.0407  1.0909
 6951SOL     OW32488   1.909   3.609  16.094  0.2778 -0.5867 -1.0092
 6951SOL    HW132489   1.816   3.619  16.112 -0.0509 -2.4391 -1.7408
 6951SOL    HW232490   1.923   3.522  16.132 -0.5558  0.1905  1.0795
 6952SOL     OW32491   2.960   1.327   7.461  0.7303  0.9474 -0.2462
 6952SOL    HW132492   3.016   1.329   7.383 -1.1352  0.2419 -1.6054
 6952SOL    HW232493   3.034   1.350   7.517  2.3379 -2.2479 -1.0250
 6953SOL     OW32494   2.197   2.285   5.515  0.7901 -0.4093 -0.4457
 6953SOL    HW132495   2.219   2.194   5.537 -0.4786 -0.2297  1.6437
 6953SOL    HW232496   2.230   2.295   5.426 -0.6312 -1.0447 -1.0452
 6954SOL     OW32497   0.906   1.905   8.694  0.3278  0.4157  0.3161
 6954SOL    HW132498   0.869   1.953   8.769  1.2236  0.4496  0.7305
 6954SOL    HW232499   1.000   1.921   8.693  0.2884  0.6741  0.6525
 6955SOL     OW32500   3.796   1.532   7.692  0.3700 -0.5753  0.0524
 6955SOL    HW132501   3.813   1.438   7.687 -0.5899 -0.8205  1.3836
 6955SOL    HW232502   3.722   1.540   7.632 -0.5776  0.3982  1.3339
 6956SOL     OW32503   1.591   3.802   2.917  0.3595  0.4149  0.2809
 6956SOL    HW132504   1.675   3.763   2.941  0.4056  2.2308  3.0258
 6956SOL    HW232505   1.575   3.768   2.829 -1.2199 -1.4743  1.2917
 6957SOL     OW32506   1.558   3.185   2.039 -0.8086 -0.1914  0.6865
 6957SOL    HW132507   1.489   3.240   2.075 -2.0539 -1.2862 -0.0169
 6957SOL    HW232508   1.632   3.246   2.036 -0.5914 -0.3625  2.7719
 6958SOL     OW32509   4.676   0.400   1.001 -0.1229 -0.4609  0.3989
 6958SOL    HW132510   4.670   0.330   1.065  0.9346 -1.1845 -0.2865
 6958SOL    HW232511   0.034   0.412   0.990 -0.5169  0.3995 -2.2455
 6959SOL     OW32512   4.197   2.117  17.242 -0.3134  0.0658  0.1667
 6959SOL    HW132513   4.196   2.025  17.266 -0.6983  0.0821  0.2182
 6959SOL    HW232514   4.266   2.117  17.176 -1.0519 -1.5048 -0.6159
 6960SOL     OW32515   0.833   1.313   3.493 -0.5510 -0.7650  0.0004
 6960SOL    HW132516   0.777   1.258   3.437 -3.4945  1.9870  0.2118
 6960SOL    HW232517   0.899   1.246   3.509  0.5655  0.0819 -1.0459
 6961SOL     OW32518   0.598   0.185   3.376 -0.1926  0.2394 -0.0396
 6961SOL    HW132519   0.508   0.165   3.400  0.5201 -0.9647  1.6455
 6961SOL    HW232520   0.646   0.109   3.342  1.6445  1.0277  0.7790
 6962SOL     OW32521   1.864   1.992  13.038 -0.5810  0.0947  0.4082
 6962SOL    HW132522   1.897   2.045  13.110  1.3036 -0.7420  0.1745
 6962SOL    HW232523   1.786   1.947  13.071 -0.6189 -0.4068 -0.3701
 6963SOL     OW32524   3.292   0.154  11.068 -0.0496  0.2982 -0.1082
 6963SOL    HW132525   3.276   0.163  10.974 -0.8713  0.7312  0.0759
 6963SOL    HW232526   3.379   0.193  11.075  0.2981 -0.4834 -0.0576
 6964SOL     OW32527   0.130   2.623   1.479  0.1272 -0.5207  0.3142
 6964SOL    HW132528   0.218   2.595   1.506  0.1464 -2.8957 -2.2228
 6964SOL    HW232529   0.135   2.608   1.385  2.5931 -0.8718  0.4861
 6965SOL     OW32530   0.237   3.099   3.331  0.0918 -0.0516  0.4492
 6965SOL    HW132531   0.327   3.105   3.297 -0.3981 -2.4607 -1.2792
 6965SOL    HW232532   0.237   3.147   3.414 -0.1377  1.7146 -0.5633
 6966SOL     OW32533   1.582   1.177   8.677  0.1776  0.2591  0.0944
 6966SOL    HW132534   1.489   1.164   8.659 -0.0570  1.1958  0.6633
 6966SOL    HW232535   1.575   1.244   8.744  1.6979  1.0778 -0.5532
 6967SOL     OW32536   3.842   4.155   5.550 -0.4692 -0.0247 -0.4320
 6967SOL    HW132537   3.925   4.165   5.503  0.1029 -1.4978  0.2638
 6967SOL    HW232538   3.879   4.151   5.638 -0.5581 -0.5382 -0.4188
 6968SOL     OW32539   3.540   4.056   7.824  0.6292  0.0314 -0.0404
 6968SOL    HW132540   3.530   4.058   7.920 -1.4783  0.2375 -0.2525
 6968SOL    HW232541   3.635   4.044   7.821  0.7274  1.0851 -1.1625
 6969SOL     OW32542   4.681   1.003  14.502 -0.3025  0.3158 -0.1499
 6969SOL    HW132543   4.592   0.976  14.482  0.4164 -0.5854 -2.1371
 6969SOL    HW232544   4.673   1.097  14.520 -0.0856  0.3318 -0.1349
 6970SOL     OW32545   2.220   3.377   3.531  0.0426  0.0088  0.2900
 6970SOL    HW132546   2.241   3.454   3.477  0.9085  0.0255  0.6433
 6970SOL    HW232547   2.212   3.407   3.621  2.3655 -1.5521  1.0184
 6971SOL     OW32548   1.278   0.033   2.694  0.3637 -0.1305  0.1993
 6971SOL    HW132549   1.205   0.089   2.721  0.9196 -0.3127  2.0916
 6971SOL    HW232550   1.288   4.715   2.772 -1.4076 -2.5666 -1.2703
 6972SOL     OW32551   3.837   2.660   5.299  0.0249  0.6860  0.3934
 6972SOL    HW132552   3.794   2.628   5.379  0.3930 -1.3376 -0.2173
 6972SOL    HW232553   3.927   2.631   5.312  0.0901 -0.1559 -1.9195
 6973SOL     OW32554   4.282   3.025   5.459  0.1302  0.3221  0.3470
 6973SOL    HW132555   4.254   3.102   5.409 -0.8200  0.3034  0.8341
 6973SOL    HW232556   4.374   3.047   5.475 -0.1690  0.1293  2.3867
 6974SOL     OW32557   2.676   4.638  16.651  0.1048 -0.7753 -0.5519
 6974SOL    HW132558   2.748   4.698  16.636 -0.0382 -0.4559  0.0192
 6974SOL    HW232559   2.672   4.633  16.747  0.8480  3.1389 -0.3265
 6975SOL     OW32560   0.079   1.639   7.897 -0.0361 -0.0233  0.0265
 6975SOL    HW132561   0.146   1.642   7.965 -0.5443  2.8543  0.3950
 6975SOL    HW232562   0.084   1.544   7.881  1.2734 -0.2914  2.1039
 6976SOL     OW32563   0.035   1.896   0.690 -0.3490  0.3498 -0.3902
 6976SOL    HW132564   0.075   1.869   0.773  1.2364  1.1574 -0.8978
 6976SOL    HW232565   0.046   1.817   0.636  2.6251  0.0890  0.5879
 6977SOL     OW32566   2.870   4.007   3.542 -0.2015 -0.3273  0.3100
 6977SOL    HW132567   2.950   3.977   3.500 -1.6858 -0.9248 -2.0686
 6977SOL    HW232568   2.882   4.102   3.535  0.7368 -0.4803 -0.1278
 6978SOL     OW32569   4.464   0.412   8.666  0.3238 -0.2364  0.7664
 6978SOL    HW132570   4.415   0.477   8.615  0.4000 -0.6217  0.2108
 6978SOL    HW232571   4.410   0.336   8.645  1.3874 -1.3478  2.0781
 6979SOL     OW32572   1.606   0.675   5.397 -0.0205  0.2598 -0.2544
 6979SOL    HW132573   1.635   0.694   5.486 -1.4982 -2.6742  0.8845
 6979SOL    HW232574   1.542   0.605   5.411  0.6256 -0.9575 -3.3863
 6980SOL     OW32575   3.256   3.684   5.099 -0.3607  0.5821 -0.2018
 6980SOL    HW132576   3.328   3.722   5.049  0.7525 -0.5415  0.5360
 6980SOL    HW232577   3.199   3.657   5.027 -0.3534  1.2608 -0.4689
 6981SOL     OW32578   0.657   2.861   6.452 -0.3272  0.7645  0.2988
 6981SOL    HW132579   0.750   2.837   6.450  0.4407  3.6869  1.1346
 6981SOL    HW232580   0.614   2.778   6.473 -1.8119  1.4071 -0.2303
 6982SOL     OW32581   0.627   0.807   7.120  0.9093 -0.3103 -0.2688
 6982SOL    HW132582   0.707   0.764   7.151 -0.2350 -0.1186  2.9336
 6982SOL    HW232583   0.670   0.858   7.051 -0.5860 -0.7919 -1.5556
 6983SOL     OW32584   0.443   4.697   9.078  0.2866 -0.1324 -0.0627
 6983SOL    HW132585   0.368   0.014   9.049  0.3547  0.2838  0.5096
 6983SOL    HW232586   0.434   4.680   9.172 -1.4893 -0.1822 -0.2323
 6984SOL     OW32587   0.479   1.358  15.344 -0.2910  0.5994 -0.3196
 6984SOL    HW132588   0.519   1.282  15.302 -0.7317  0.4278 -0.4198
 6984SOL    HW232589   0.502   1.353  15.437  1.6700 -1.1157 -0.9051
 6985SOL     OW32590   1.678   2.956   3.486  0.2728  0.4577  0.0045
 6985SOL    HW132591   1.668   3.012   3.563 -1.0662  2.4439 -1.6341
 6985SOL    HW232592   1.638   2.870   3.504  0.3454  0.3231 -0.4826
 6986SOL     OW32593   1.398   3.219   2.370 -0.5115 -0.5179  0.1041
 6986SOL    HW132594   1.460   3.205   2.442 -0.8175 -0.5010  0.3713
 6986SOL    HW232595   1.439   3.280   2.309 -1.1804 -0.2289 -0.0589
 6987SOL     OW32596   4.196   2.509  16.043  0.6744 -0.1062 -0.5334
 6987SOL    HW132597   4.201   2.414  16.036 -0.9341 -0.1235 -1.4156
 6987SOL    HW232598   4.138   2.528  16.118  2.3633  0.2677  0.6815
 6988SOL     OW32599   2.453   2.141   8.239  0.3902 -0.1626 -0.2752
 6988SOL    HW132600   2.495   2.226   8.251 -1.9208  0.9046  0.3704
 6988SOL    HW232601   2.361   2.163   8.256  0.4610 -0.7688  0.8568
 6989SOL     OW32602   2.450   0.628   6.210  0.5148 -0.0294  0.3850
 6989SOL    HW132603   2.448   0.582   6.294 -1.4367 -1.2071 -0.3006
 6989SOL    HW232604   2.545   0.643   6.207  0.4224 -0.1301 -3.1198
 6990SOL     OW32605   2.747   2.018   7.434  0.2590 -0.1981 -0.2891
 6990SOL    HW132606   2.775   1.946   7.491 -1.7624 -1.1814 -0.5355
 6990SOL    HW232607   2.652   2.008   7.444 -0.3945  2.7062 -3.6950
 6991SOL     OW32608   0.426   4.643   6.762  0.0302  0.3110  0.0060
 6991SOL    HW132609   0.494   4.653   6.695  2.0866 -0.8434  1.9104
 6991SOL    HW232610   0.395   4.555   6.742 -0.4095 -0.2507  3.2208
 6992SOL     OW32611   4.539   2.299  15.467  0.1505 -0.2278 -0.4782
 6992SOL    HW132612   4.502   2.344  15.391 -1.4463 -0.4611  0.1602
 6992SOL    HW232613   4.491   2.343  15.537 -0.1048  1.5782 -1.8065
 6993SOL     OW32614   2.263   1.568   7.350 -0.0412 -0.2744 -0.0316
 6993SOL    HW132615   2.359   1.567   7.355  0.0010 -4.5374 -1.5415
 6993SOL    HW232616   2.240   1.475   7.352 -1.2684  0.0451  0.6376
 6994SOL     OW32617   1.603   0.728   1.911  0.3333 -0.9947  0.5105
 6994SOL    HW132618   1.698   0.719   1.908  0.3835 -0.3967  0.3685
 6994SOL    HW232619   1.595   0.803   1.852 -1.0875 -1.8249 -0.3432
 6995SOL     OW32620   0.678   1.225   0.783  0.1238  0.2353 -0.3257
 6995SOL    HW132621   0.629   1.257   0.858  2.4676 -0.5258  1.5097
 6995SOL    HW232622   0.761   1.270   0.797  1.1018 -1.6924  0.1333
 6996SOL     OW32623   2.118   1.184   2.879 -0.0832 -0.6197  0.0865
 6996SOL    HW132624   2.026   1.160   2.870  0.7490 -3.6144 -0.4631
 6996SOL    HW232625   2.111   1.237   2.959  0.8842 -0.3910  0.0232
 6997SOL     OW32626   4.504   2.147  13.610  0.3433  0.2357  0.5048
 6997SOL    HW132627   4.596   2.175  13.609 -0.1206  1.7374 -2.1830
 6997SOL    HW232628   4.522   2.056  13.585 -2.3590  0.6891 -3.0918
 6998SOL     OW32629   4.469   3.750  13.985  0.2302  0.4687  0.4874
 6998SOL    HW132630   4.484   3.819  14.049 -0.9375  0.5945  0.6112
 6998SOL    HW232631   4.408   3.790  13.923  0.9158  0.9566  0.1118
 6999SOL     OW32632   2.175   2.121   6.035 -0.0002 -0.5181 -0.3437
 6999SOL    HW132633   2.227   2.160   5.964 -1.4840  0.9151 -0.6419
 6999SOL    HW232634   2.235   2.134   6.109 -0.9912  0.4671  0.2883
 7000SOL     OW32635   2.701   0.905   8.289 -0.6761  0.2109 -0.2202
 7000SOL    HW132636   2.756   0.906   8.367  0.1135  1.3300 -0.7790
 7000SOL    HW232637   2.618   0.881   8.328 -0.4589  0.9520  0.6741
 7001SOL     OW32638   1.567   3.393  14.041  0.4384 -0.0762  0.5809
 7001SOL    HW132639   1.647   3.438  14.068 -0.0687  0.2299  1.5837
 7001SOL    HW232640   1.563   3.315  14.098 -1.2756 -1.1038 -0.9550
 7002SOL     OW32641   3.871   2.370  11.210  0.7583 -0.2849  0.4945
 7002SOL    HW132642   3.843   2.426  11.136 -2.4558 -0.0974  1.8341
 7002SOL    HW232643   3.821   2.289  11.200  0.3427 -0.0522  0.6833
 7003SOL     OW32644   2.436   4.054   5.753 -0.1967  0.1922 -0.0301
 7003SOL    HW132645   2.393   4.108   5.819  1.7828  0.8629  0.7132
 7003SOL    HW232646   2.525   4.053   5.788  0.0094  0.3603 -0.5378
 7004SOL     OW32647   0.752   2.289   6.180  0.2853 -0.0604  0.2758
 7004SOL    HW132648   0.721   2.380   6.173 -0.1389 -0.2525 -0.3751
 7004SOL    HW232649   0.801   2.276   6.261 -0.0123  0.7344  0.5840
 7005SOL     OW32650   1.653   1.224   4.670  0.0271  0.0508  0.0073
 7005SOL    HW132651   1.742   1.257   4.662 -0.3024  1.0580  0.5176
 7005SOL    HW232652   1.608   1.289   4.724 -0.0687  1.0621 -1.2769
 7006SOL     OW32653   4.716   0.244   8.242  0.4451 -0.1092  0.1777
 7006SOL    HW132654   4.640   0.286   8.204  0.7195  0.4718  0.2731
 7006SOL    HW232655   0.036   0.247   8.165 -1.3492 -0.2140 -1.1116
 7007SOL     OW32656   1.753   0.208   3.410  0.3018  0.2333  0.0137
 7007SOL    HW132657   1.795   0.122   3.397  1.1514  0.3839  1.7477
 7007SOL    HW232658   1.685   0.181   3.472 -0.8983  0.7775 -1.0857
 7008SOL     OW32659   0.309   3.312   1.719  0.1572 -0.4244 -0.3111
 7008SOL    HW132660   0.327   3.402   1.745 -0.0596 -0.3742 -0.3323
 7008SOL    HW232661   0.255   3.322   1.641 -0.4590  0.7450  0.2588
 7009SOL     OW32662   3.977   0.520   7.752 -0.2201 -0.0135  0.0848
 7009SOL    HW132663   4.049   0.497   7.811 -1.0556 -0.9477  0.7416
 7009SOL    HW232664   3.927   0.590   7.793  1.2328  0.3876  1.1495
 7010SOL     OW32665   2.187   3.927   0.348 -0.0729  0.2877 -0.0777
 7010SOL    HW132666   2.169   3.974   0.430 -0.2207 -0.0504  0.0843
 7010SOL    HW232667   2.256   3.864   0.371 -0.1806  0.0941 -0.2880
 7011SOL     OW32668   1.354   1.288   9.054  0.5627  0.0283 -0.0367
 7011SOL    HW132669   1.405   1.306   9.133 -1.8900  1.9454  1.1134
 7011SOL    HW232670   1.299   1.216   9.088  0.2929 -0.8184 -2.2328
 7012SOL     OW32671   4.607   2.634   0.264  1.1325  0.2880 -0.4111
 7012SOL    HW132672   4.599   2.597   0.176 -1.5776 -1.5374  0.6269
 7012SOL    HW232673   4.585   2.726   0.249  2.2301  0.0322 -3.5532
 7013SOL     OW32674   2.007   1.441  14.165  0.4098 -0.1631  0.2081
 7013SOL    HW132675   2.021   1.473  14.254  1.7178 -0.3418  0.0801
 7013SOL    HW232676   2.055   1.504  14.111  1.1685 -0.8260  0.1052
 7014SOL     OW32677   3.601   2.637   6.208  0.4810  0.3455 -0.2152
 7014SOL    HW132678   3.531   2.687   6.249 -1.3984 -1.6940 -0.9699
 7014SOL    HW232679   3.554   2.587   6.141  0.3551  0.4230 -0.1846
 7015SOL     OW32680   1.044   3.295   8.393  0.1365 -0.0740  0.6247
 7015SOL    HW132681   0.974   3.333   8.340  1.7841  0.0386 -1.4788
 7015SOL    HW232682   1.122   3.340   8.363  0.3243 -1.1175 -0.4917
 7016SOL     OW32683   4.019   2.888   5.056 -0.0996 -0.0125  0.5721
 7016SOL    HW132684   4.031   2.975   5.017  1.1736 -0.0211  0.9423
 7016SOL    HW232685   4.103   2.872   5.100  1.0475 -0.0111 -1.5916
 7017SOL     OW32686   2.339   2.056   5.549  0.2520 -0.3294 -0.5550
 7017SOL    HW132687   2.351   1.969   5.512  0.2062 -0.8222  0.5877
 7017SOL    HW232688   2.361   2.038   5.641  1.4069 -0.2601 -0.8100
 7018SOL     OW32689   2.375   2.553   9.191 -0.1436  0.5402  0.1909
 7018SOL    HW132690   2.425   2.581   9.114 -0.9443  0.9153 -0.1940
 7018SOL    HW232691   2.409   2.464   9.201  2.1891  1.1731 -2.0217
 7019SOL     OW32692   2.880   1.068  16.882  0.3332 -0.1740  0.2712
 7019SOL    HW132693   2.912   1.081  16.793 -3.6034  0.3089 -1.0837
 7019SOL    HW232694   2.830   0.988  16.865 -1.4575  0.7086  1.3193
 7020SOL     OW32695   3.087   2.222   3.585  0.6790 -0.1149 -0.2048
 7020SOL    HW132696   3.104   2.312   3.556  3.1570  0.2338  2.2591
 7020SOL    HW232697   3.171   2.198   3.625  0.2344  0.2590  0.9733
 7021SOL     OW32698   1.624   2.075   7.413  0.2698  0.5821  0.4287
 7021SOL    HW132699   1.666   2.029   7.341 -0.4588  0.9178 -0.2082
 7021SOL    HW232700   1.556   2.017   7.447  2.2408 -0.8370  1.9100
 7022SOL     OW32701   3.894   4.389  13.397 -0.6510  0.1692 -0.6365
 7022SOL    HW132702   3.872   4.405  13.306 -1.0644 -0.9616 -0.7383
 7022SOL    HW232703   3.948   4.311  13.387  0.7013  1.0411 -0.2193
 7023SOL     OW32704   3.942   0.708   3.538 -0.6249  0.2074  0.4513
 7023SOL    HW132705   3.899   0.644   3.594 -0.1951 -1.2818 -0.9329
 7023SOL    HW232706   4.021   0.662   3.511 -1.1107 -0.4981  0.2323
 7024SOL     OW32707   0.876   0.898   6.955  0.2755  0.2171  0.8539
 7024SOL    HW132708   0.842   0.836   6.892  1.8619 -0.2138  0.4058
 7024SOL    HW232709   0.958   0.859   6.986  1.7314  0.3422 -2.8722
 7025SOL     OW32710   2.976   1.347   9.422  0.5360 -0.1917 -0.5099
 7025SOL    HW132711   2.880   1.353   9.423  0.5446 -0.2137  0.4540
 7025SOL    HW232712   2.997   1.311   9.335 -1.4039  2.8997 -2.2855
 7026SOL     OW32713   1.872   1.455   8.655 -0.6502 -0.7094 -0.1867
 7026SOL    HW132714   1.945   1.427   8.601 -0.6627  0.1826 -0.6660
 7026SOL    HW232715   1.910   1.432   8.740 -0.2237  0.3891 -0.0710
 7027SOL     OW32716   0.366   3.298   4.477  0.0825  0.3265  0.4635
 7027SOL    HW132717   0.291   3.292   4.419  0.7152  1.1661 -0.4533
 7027SOL    HW232718   0.334   3.375   4.524  0.9880  1.1749 -0.2799
 7028SOL     OW32719   0.735   4.422   5.286  0.3707  0.6146 -0.3918
 7028SOL    HW132720   0.710   4.333   5.308  1.5218  0.1735 -0.8485
 7028SOL    HW232721   0.721   4.415   5.191  1.3268 -2.3426 -0.2904
 7029SOL     OW32722   4.274   2.934  16.334 -0.1858  0.3249 -0.2316
 7029SOL    HW132723   4.314   2.925  16.420 -0.1108 -0.0595 -0.3056
 7029SOL    HW232724   4.305   2.852  16.295 -0.9802 -0.6171  1.1280
 7030SOL     OW32725   2.035   2.109  12.152 -0.5745  0.0520 -0.0197
 7030SOL    HW132726   2.084   2.130  12.072  0.8340 -1.9144  0.3199
 7030SOL    HW232727   2.053   2.192  12.198  0.5709  1.2833 -2.6512
 7031SOL     OW32728   1.902   3.316   3.311 -0.1822 -0.8634 -0.1499
 7031SOL    HW132729   1.927   3.349   3.397  0.2481  0.7355 -0.8875
 7031SOL    HW232730   1.839   3.381   3.280  0.4069 -0.2039  0.0367
 7032SOL     OW32731   2.764   1.276   0.280 -0.0569 -0.0762  0.0099
 7032SOL    HW132732   2.737   1.332   0.207 -0.5079  0.2160  0.3985
 7032SOL    HW232733   2.677   1.239   0.290  0.0728 -1.1145 -2.8821
 7033SOL     OW32734   1.161   0.803  14.717  0.5000 -0.2138 -0.2277
 7033SOL    HW132735   1.206   0.881  14.686 -1.1598  1.5817  1.9254
 7033SOL    HW232736   1.154   0.756  14.633 -2.3018 -0.3686  0.0852
 7034SOL     OW32737   2.427   3.850  16.744  0.2442  0.4461 -0.1530
 7034SOL    HW132738   2.486   3.789  16.787 -0.2153  0.5792  0.6590
 7034SOL    HW232739   2.473   3.924  16.704  0.7995 -1.3648 -2.8665
 7035SOL     OW32740   4.204   1.701   3.008 -0.4846  0.5557 -0.2700
 7035SOL    HW132741   4.143   1.767   2.975 -3.1123 -2.0312 -0.6610
 7035SOL    HW232742   4.264   1.762   3.050  0.4612 -0.3898 -0.2412
 7036SOL     OW32743   0.154   2.898   3.148 -0.3507 -0.3854  0.4249
 7036SOL    HW132744   0.156   2.965   3.216  0.5476 -1.1498  1.1474
 7036SOL    HW232745   0.205   2.824   3.180  0.0761  0.1140  0.8939
 7037SOL     OW32746   1.794   1.405   7.335 -0.2760 -0.4606 -0.4736
 7037SOL    HW132747   1.794   1.487   7.285 -0.4766 -0.7974 -1.0199
 7037SOL    HW232748   1.761   1.335   7.278  0.2690 -1.4871  0.4764
 7038SOL     OW32749   0.115   1.376   1.924 -0.6061  0.4118 -0.0514
 7038SOL    HW132750   0.075   1.455   1.961  0.2556  1.3309 -1.0881
 7038SOL    HW232751   0.181   1.366   1.993 -2.0034 -1.5938  0.9934
 7039SOL     OW32752   3.499   1.190   1.703  0.0418  0.3531  0.0714
 7039SOL    HW132753   3.457   1.245   1.638  0.8193  1.5677  0.5866
 7039SOL    HW232754   3.587   1.222   1.684 -0.3157  0.9177 -0.6169
 7040SOL     OW32755   1.074   3.933  13.674  0.0605 -0.0298  0.0699
 7040SOL    HW132756   1.065   3.889  13.590 -0.7521 -2.2081  1.3121
 7040SOL    HW232757   1.074   4.025  13.649  0.7376 -0.7318 -2.4643
 7041SOL     OW32758   0.707   4.620   7.828 -0.5201 -0.1985 -0.4425
 7041SOL    HW132759   0.791   4.599   7.786 -0.7419 -0.4169 -0.7791
 7041SOL    HW232760   0.662   4.648   7.748  0.6712  2.6216 -0.1470
 7042SOL     OW32761   1.253   1.038   6.591 -0.7132 -0.1127  0.1973
 7042SOL    HW132762   1.264   0.962   6.648  0.0593  1.5288  2.2308
 7042SOL    HW232763   1.190   1.011   6.523  0.2454  0.7744 -1.0505
 7043SOL     OW32764   1.299   1.281   7.647  0.4571 -0.1907 -0.3502
 7043SOL    HW132765   1.212   1.242   7.645  0.1838  0.4356 -0.4361
 7043SOL    HW232766   1.332   1.277   7.557  0.7053 -3.5843 -0.1115
 7044SOL     OW32767   0.748   3.132   9.346 -0.6227 -0.0576  0.2229
 7044SOL    HW132768   0.762   3.038   9.336  0.1038  0.0971 -0.2097
 7044SOL    HW232769   0.839   3.159   9.359 -0.8533  2.2196 -2.8587
 7045SOL     OW32770   0.128   0.668  17.382 -0.3109  0.0853 -0.4863
 7045SOL    HW132771   0.120   0.635  17.472 -1.2000 -0.7563 -0.8685
 7045SOL    HW232772   0.172   0.751  17.397 -0.4820 -0.1471  1.2579
 7046SOL     OW32773   2.946   2.527   3.197 -0.7198 -0.0342 -0.0590
 7046SOL    HW132774   2.851   2.516   3.200 -0.9014  1.3998 -0.7212
 7046SOL    HW232775   2.961   2.618   3.171  3.1757 -0.7209 -0.2525
 7047SOL     OW32776   0.955   3.683   4.538 -0.3095 -0.9744 -0.5780
 7047SOL    HW132777   0.935   3.775   4.522  0.4916 -1.1599 -2.6555
 7047SOL    HW232778   0.875   3.643   4.506 -0.3748 -0.5349 -0.9661
 7048SOL     OW32779   3.056   0.832   5.771 -0.6035  0.3173  0.2530
 7048SOL    HW132780   2.983   0.895   5.775 -0.7649  0.2639 -1.6674
 7048SOL    HW232781   3.136   0.885   5.779  0.5787 -1.8558  2.7479
 7049SOL     OW32782   3.932   4.565   6.152  0.7868 -0.6568 -0.1575
 7049SOL    HW132783   3.837   4.567   6.165  0.6251  1.3105 -1.7427
 7049SOL    HW232784   3.960   4.540   6.240  0.9065  2.5669  0.7173
 7050SOL     OW32785   4.149   3.879   5.812 -0.2977  0.2512 -0.1068
 7050SOL    HW132786   4.220   3.839   5.861 -0.2723  1.3969  0.8024
 7050SOL    HW232787   4.089   3.805   5.807 -1.5308  1.2837 -0.7756
 7051SOL     OW32788   1.760   3.882  12.964 -0.0161  0.2876  0.1623
 7051SOL    HW132789   1.715   3.956  13.006  0.5618  0.8413 -0.1994
 7051SOL    HW232790   1.805   3.841  13.039  0.1050 -1.4750 -0.8676
 7052SOL     OW32791   0.363   0.421   6.896 -0.0405  0.7762  0.3468
 7052SOL    HW132792   0.429   0.483   6.863  0.3008  1.0692  1.5951
 7052SOL    HW232793   0.357   0.369   6.816  2.5102  1.1398 -0.0958
 7053SOL     OW32794   3.773   0.134   6.095 -0.6172  0.4757  0.5056
 7053SOL    HW132795   3.850   0.143   6.151  1.1820 -0.8845 -1.7628
 7053SOL    HW232796   3.805   0.120   6.006 -1.7439  1.9745 -0.1379
 7054SOL     OW32797   0.449   2.978   3.650  0.9518 -0.6993 -0.2409
 7054SOL    HW132798   0.463   3.038   3.577  0.6637 -1.5963 -1.0340
 7054SOL    HW232799   0.491   3.038   3.711  1.5878 -0.5343 -0.8461
 7055SOL     OW32800   1.441   1.887   3.551 -0.1796 -0.4149 -0.2380
 7055SOL    HW132801   1.421   1.805   3.505  0.1293  0.0348 -1.1592
 7055SOL    HW232802   1.438   1.849   3.639 -0.1817 -0.2161 -0.1533
 7056SOL     OW32803   2.393   4.491   5.682  0.2309  0.1385 -0.0143
 7056SOL    HW132804   2.436   4.539   5.753 -0.1709  0.1602  0.2142
 7056SOL    HW232805   2.395   4.558   5.613 -2.3578 -0.3809 -0.5795
 7057SOL     OW32806   0.336   0.548   3.771  0.0479  0.4997  0.7654
 7057SOL    HW132807   0.319   0.488   3.844 -1.6254  1.6864  1.3646
 7057SOL    HW232808   0.245   0.563   3.744  0.3552  1.5737  0.3123
 7058SOL     OW32809   2.910   1.249   4.081 -0.4287  0.3639 -0.2194
 7058SOL    HW132810   2.880   1.254   4.172  2.0031 -2.0464  0.7049
 7058SOL    HW232811   2.869   1.165   4.062 -1.0347  0.0372  2.5378
 7059SOL     OW32812   0.043   2.053   7.321  1.1513  0.7202 -0.3837
 7059SOL    HW132813   0.014   2.068   7.411  2.8072  1.2497  0.0599
 7059SOL    HW232814   4.712   1.991   7.292  2.2549  0.1026 -1.6580
 7060SOL     OW32815   0.696   1.071  11.706 -0.6322 -0.1772 -0.0787
 7060SOL    HW132816   0.774   1.123  11.687  0.5682 -1.8398  0.3198
 7060SOL    HW232817   0.735   1.003  11.761 -1.2565 -0.4099  0.0810
 7061SOL     OW32818   2.087   4.505   6.705  0.2738  0.1935  0.9663
 7061SOL    HW132819   2.106   4.555   6.627  0.1618 -0.0695  0.7689
 7061SOL    HW232820   2.071   4.576   6.767  1.0010 -0.2374  1.6487
 7062SOL     OW32821   1.139   3.050  10.609  0.3488 -0.2620  0.5249
 7062SOL    HW132822   1.053   3.091  10.605 -0.5420 -2.1438  0.3210
 7062SOL    HW232823   1.145   3.017  10.699 -0.6175  1.5729  1.2566
 7063SOL     OW32824   1.915   3.665  12.581 -0.0169 -0.8315  0.4719
 7063SOL    HW132825   1.988   3.644  12.638 -0.8920 -2.6094  0.9332
 7063SOL    HW232826   1.915   3.761  12.580  1.9084 -0.8474 -1.7485
 7064SOL     OW32827   2.755   1.229   4.674 -0.3902 -0.0296  0.0929
 7064SOL    HW132828   2.808   1.157   4.641  2.8200  1.9032  1.0753
 7064SOL    HW232829   2.732   1.191   4.759 -0.0806  1.0280  0.6527
 7065SOL     OW32830   3.941   0.184   5.633  0.0966 -0.0751  0.1707
 7065SOL    HW132831   3.868   0.150   5.685 -0.4715 -0.8438 -1.1286
 7065SOL    HW232832   3.938   0.279   5.642 -1.2947 -0.3467  2.5124
 7066SOL     OW32833   2.359   4.097   7.321  0.2572 -0.2113 -0.7902
 7066SOL    HW132834   2.291   4.035   7.346  0.1368 -0.3732 -1.5081
 7066SOL    HW232835   2.392   4.125   7.406  0.9337  2.4766 -1.9144
 7067SOL     OW32836   0.399   3.878  14.361  0.3758 -0.4355 -0.5574
 7067SOL    HW132837   0.476   3.823  14.373  0.3423 -0.6587 -1.3745
 7067SOL    HW232838   0.414   3.953  14.419 -3.3244  0.3486 -0.6084
 7068SOL     OW32839   1.135   0.647   9.020  0.1160  0.1840  0.1573
 7068SOL    HW132840   1.064   0.639   8.956 -0.1955 -0.2409  0.5635
 7068SOL    HW232841   1.100   0.724   9.065  2.2183  0.5003  1.2377
 7069SOL     OW32842   0.890   1.675   6.154  0.5087 -0.0309  0.4090
 7069SOL    HW132843   0.915   1.631   6.235 -1.9188 -0.4228  0.9336
 7069SOL    HW232844   0.831   1.746   6.179  0.3005 -0.9086  2.3912
 7070SOL     OW32845   3.915   1.146   5.944  0.2424  0.0807  0.2117
 7070SOL    HW132846   3.904   1.055   5.973  0.3301 -0.2523 -0.7873
 7070SOL    HW232847   3.936   1.191   6.025  1.6618 -0.9025  0.3955
 7071SOL     OW32848   3.272   3.069   7.789  0.4237  0.0083 -0.6757
 7071SOL    HW132849   3.310   3.121   7.719  0.3172  1.4504  0.3483
 7071SOL    HW232850   3.238   2.997   7.736 -1.0344  1.9761 -2.3952
 7072SOL     OW32851   0.725   1.403   7.730  0.0090 -0.1697  0.1647
 7072SOL    HW132852   0.659   1.335   7.718  1.5560 -1.3781 -1.4254
 7072SOL    HW232853   0.772   1.389   7.648  0.9093 -2.0155  0.9954
 7073SOL     OW32854   1.837   2.878   9.347  0.5696 -0.1565  0.0168
 7073SOL    HW132855   1.929   2.878   9.373  0.2669  0.8327  1.0430
 7073SOL    HW232856   1.841   2.944   9.278  0.5202 -0.5700 -0.3824
 7074SOL     OW32857   2.744   0.424  11.312 -0.0592 -0.0368  0.1539
 7074SOL    HW132858   2.655   0.400  11.338 -0.1777 -1.2814 -1.3958
 7074SOL    HW232859   2.739   0.489  11.242 -0.7254 -0.7055 -0.4189
 7075SOL     OW32860   3.877   3.444   3.467 -0.3887 -0.1013 -0.1723
 7075SOL    HW132861   3.971   3.427   3.474 -0.5043 -0.4310  0.6150
 7075SOL    HW232862   3.857   3.460   3.559 -0.3587 -0.0990 -0.1661
 7076SOL     OW32863   0.333   3.651  10.737 -0.1444  0.1049  0.1166
 7076SOL    HW132864   0.363   3.641  10.827  0.2437 -1.5600 -0.1880
 7076SOL    HW232865   0.420   3.658  10.697 -0.3287 -1.3514 -0.5716
 7077SOL     OW32866   2.308   1.119  13.273 -0.6156  0.1058  0.1923
 7077SOL    HW132867   2.342   1.061  13.205 -0.6185 -0.3987  0.6243
 7077SOL    HW232868   2.284   1.066  13.349  0.0265  0.0020  0.3187
 7078SOL     OW32869   3.218   0.532   9.129 -0.6853  0.1711 -0.4150
 7078SOL    HW132870   3.272   0.490   9.196 -0.7295 -1.2205 -1.2402
 7078SOL    HW232871   3.262   0.616   9.115  1.7346 -1.3696 -2.0978
 7079SOL     OW32872   1.446   2.713  10.212 -0.0003 -0.2912  0.3747
 7079SOL    HW132873   1.493   2.797  10.217  2.1451 -1.5178  0.6117
 7079SOL    HW232874   1.517   2.652  10.233 -0.5346 -1.0599 -0.0649
 7080SOL     OW32875   2.380   1.728   0.458  0.7030 -0.2356  0.3440
 7080SOL    HW132876   2.339   1.779   0.528 -0.7306  0.9797 -1.3899
 7080SOL    HW232877   2.333   1.758   0.381 -0.6930  1.7763  1.9763
 7081SOL     OW32878   0.080   1.167  14.126 -0.3426  0.3824 -0.7272
 7081SOL    HW132879   0.169   1.156  14.093 -0.1568 -1.9550  0.5554
 7081SOL    HW232880   0.099   1.192  14.216  1.6128 -0.1533 -0.9846
 7082SOL     OW32881   1.016   4.516   7.276 -0.4919 -0.5693 -0.3305
 7082SOL    HW132882   1.059   4.557   7.351  0.0205 -1.8403  0.0757
 7082SOL    HW232883   1.007   4.424   7.300  2.2090 -0.7544  0.0562
 7083SOL     OW32884   2.369   0.153  15.400  0.1969  0.3648 -0.5962
 7083SOL    HW132885   2.307   0.211  15.443 -1.9220 -1.8535 -0.7010
 7083SOL    HW232886   2.416   0.229  15.364  2.5228 -0.6035  0.4243
 7084SOL     OW32887   1.980   2.693   6.455  0.3085  0.2784 -0.1665
 7084SOL    HW132888   1.966   2.685   6.361  0.9316  4.2391 -0.6068
 7084SOL    HW232889   2.045   2.763   6.455  1.3888 -0.7189 -0.9430
 7085SOL     OW32890   2.689   0.825   2.240  0.3199 -0.1586 -0.0331
 7085SOL    HW132891   2.687   0.809   2.146  3.5312 -1.9524  0.2220
 7085SOL    HW232892   2.784   0.815   2.252  0.7726  1.2822 -2.6191
 7086SOL     OW32893   3.092   0.337   8.979  0.5022  0.0477  0.0975
 7086SOL    HW132894   3.047   0.304   9.057  0.1235  0.0996 -0.0976
 7086SOL    HW232895   3.127   0.416   9.019  0.4031 -0.2703  0.8114
 7087SOL     OW32896   3.925   1.567   9.694 -0.2553  0.1192 -0.8204
 7087SOL    HW132897   3.974   1.487   9.717  0.6241  0.6477 -0.8515
 7087SOL    HW232898   3.833   1.543   9.691 -0.6830  1.8280 -1.2965
 7088SOL     OW32899   0.040   1.521   0.068 -0.0645 -0.2632 -0.0254
 7088SOL    HW132900   4.701   1.501   0.124  0.7493 -1.5536  0.5937
 7088SOL    HW232901   0.020   1.457  17.743 -0.4041 -0.5353  0.3251
 7089SOL     OW32902   2.142   3.739  13.845 -0.4688 -0.1355  0.7087
 7089SOL    HW132903   2.134   3.684  13.767  1.4600 -1.6262  1.5403
 7089SOL    HW232904   2.160   3.673  13.913  1.4299  0.2487  0.5763
 7090SOL     OW32905   1.326   0.373   7.142 -0.3155  0.8966  0.1619
 7090SOL    HW132906   1.333   0.292   7.193  0.6941  0.3539 -0.8648
 7090SOL    HW232907   1.263   0.426   7.192 -0.8126 -1.0697  1.6408
 7091SOL     OW32908   3.613   2.158   1.627 -0.0097 -0.3136 -0.2160
 7091SOL    HW132909   3.688   2.214   1.648 -0.1220 -0.1970 -0.1194
 7091SOL    HW232910   3.628   2.134   1.535  0.8493  2.0564 -0.6992
 7092SOL     OW32911   1.481   0.901   5.287 -0.2233 -0.3772  0.2131
 7092SOL    HW132912   1.537   0.847   5.344 -1.5547  0.4338  2.3042
 7092SOL    HW232913   1.453   0.965   5.352  1.7216  1.7410 -1.0599
 7093SOL     OW32914   1.682   3.376   1.836 -0.5434  0.0665 -0.3569
 7093SOL    HW132915   1.733   3.446   1.796  1.3217 -0.5611  0.9279
 7093SOL    HW232916   1.713   3.378   1.927 -0.0452  0.2438 -0.5299
 7094SOL     OW32917   2.625   2.605   6.455  0.2711 -0.2499 -0.1107
 7094SOL    HW132918   2.664   2.518   6.456 -0.9825 -0.8375 -1.6475
 7094SOL    HW232919   2.592   2.602   6.545  0.0014  1.0344 -0.1642
 7095SOL     OW32920   0.651   0.068   5.859 -0.6619  0.0381 -0.1514
 7095SOL    HW132921   0.732   0.115   5.877 -0.6615  0.2375 -0.6729
 7095SOL    HW232922   0.651   0.067   5.764 -3.6380  0.0848 -0.1822
 7096SOL     OW32923   0.025   0.661  15.973 -0.1242  0.3487 -0.3495
 7096SOL    HW132924   0.061   0.638  15.887  2.1653  0.3296  0.6211
 7096SOL    HW232925   0.094   0.714  16.013 -1.1000  1.2736  0.0865
 7097SOL     OW32926   2.835   0.091  17.066 -0.3889 -0.2116  0.1786
 7097SOL    HW132927   2.819   0.089  16.972 -0.1299  0.8206  0.1108
 7097SOL    HW232928   2.918   0.045  17.079 -1.1488 -1.7282 -0.4767
 7098SOL     OW32929   0.023   1.360   4.131 -0.2587 -0.0768 -0.3477
 7098SOL    HW132930   4.707   1.439   4.142 -1.0340 -0.4632 -1.3389
 7098SOL    HW232931   4.702   1.309   4.189 -1.0876  0.8254 -0.3809
 7099SOL     OW32932   1.213   1.487   4.637 -0.1995  0.2771  0.2652
 7099SOL    HW132933   1.269   1.559   4.664 -2.2368  2.1881 -0.5586
 7099SOL    HW232934   1.254   1.467   4.553 -0.1319  0.4196  0.2643
 7100SOL     OW32935   0.681   4.055   8.666  0.2909  0.4438  0.1582
 7100SOL    HW132936   0.626   4.093   8.735 -0.6717 -1.7310  0.5912
 7100SOL    HW232937   0.640   3.969   8.653  1.4657 -0.1191  0.2103
 7101SOL     OW32938   3.045   3.434   6.021  0.1111  0.2596  0.1156
 7101SOL    HW132939   2.963   3.415   6.067  1.0427 -0.1487  1.6146
 7101SOL    HW232940   3.062   3.348   5.983  0.7152 -0.0056  0.9857
 7102SOL     OW32941   3.045   3.575   7.099 -0.0562  0.1441  0.1868
 7102SOL    HW132942   3.031   3.602   7.190 -0.4107  3.8267 -0.9838
 7102SOL    HW232943   2.953   3.563   7.074  0.0628 -2.0491  0.8040
 7103SOL     OW32944   3.671   1.726   4.661  0.1744  0.0223 -0.1210
 7103SOL    HW132945   3.614   1.802   4.658  1.4761  0.9195 -1.8892
 7103SOL    HW232946   3.754   1.763   4.631 -0.2945  1.0637 -0.1114
 7104SOL     OW32947   4.399   1.343   8.266  0.3201  0.2540 -0.3095
 7104SOL    HW132948   4.382   1.322   8.357  0.5437 -0.5351 -0.4553
 7104SOL    HW232949   4.404   1.438   8.276  0.8963  0.1359  0.4279
 7105SOL     OW32950   0.556   2.377   1.669 -0.8285  0.0119 -0.1383
 7105SOL    HW132951   0.520   2.321   1.738 -2.1950  1.4246  0.2963
 7105SOL    HW232952   0.636   2.402   1.714  0.0777 -1.1363 -1.1190
 7106SOL     OW32953   4.152   3.294   5.614  0.5078  0.4115 -0.1971
 7106SOL    HW132954   4.172   3.384   5.587  0.0754  0.5178 -0.1656
 7106SOL    HW232955   4.237   3.271   5.651  0.5581 -0.7375 -1.0358
 7107SOL     OW32956   3.610   2.983  14.591 -0.4848 -0.3378  0.6080
 7107SOL    HW132957   3.629   2.891  14.571  1.2485  0.2226 -0.3385
 7107SOL    HW232958   3.674   3.031  14.539  1.3688 -0.3286  2.9041
 7108SOL     OW32959   1.845   3.191   5.387 -0.3012  0.7050 -0.4758
 7108SOL    HW132960   1.901   3.117   5.412  0.5929  1.9388  1.1878
 7108SOL    HW232961   1.849   3.172   5.293 -0.3134 -0.1231 -0.3148
 7109SOL     OW32962   3.699   0.802   2.825  0.1482  0.5226  0.4306
 7109SOL    HW132963   3.622   0.835   2.872  1.1544  2.4931  0.7021
 7109SOL    HW232964   3.759   0.780   2.897  0.4852  0.4605  0.1281
 7110SOL     OW32965   1.315   0.476  14.349  0.2714 -0.1041  0.5251
 7110SOL    HW132966   1.388   0.422  14.378  0.3712 -0.8458 -1.0919
 7110SOL    HW232967   1.254   0.409  14.318 -0.3685  1.0951 -0.8331
 7111SOL     OW32968   0.979   2.440   5.070 -0.0778  0.2453 -0.0217
 7111SOL    HW132969   1.023   2.524   5.082  0.6329  0.1085 -1.7513
 7111SOL    HW232970   0.979   2.412   4.978  1.2182 -0.0531  0.0734
 7112SOL     OW32971   2.387   1.545  14.864  0.1832 -0.2427 -0.4104
 7112SOL    HW132972   2.472   1.525  14.824 -0.2728 -1.6971 -0.6601
 7112SOL    HW232973   2.412   1.632  14.895 -0.7087 -0.3800  0.7084
 7113SOL     OW32974   1.481   1.233   7.381 -0.7609  0.5903 -0.1471
 7113SOL    HW132975   1.534   1.220   7.303  0.7842  2.2047  0.6204
 7113SOL    HW232976   1.551   1.223   7.446  1.4726  1.2459 -2.4388
 7114SOL     OW32977   2.479   0.136  11.520 -0.8400 -0.3074  0.2577
 7114SOL    HW132978   2.543   0.071  11.491 -0.4735  0.8460 -1.4747
 7114SOL    HW232979   2.517   0.218  11.489  1.6146 -1.7111 -0.4812
 7115SOL     OW32980   2.574   4.480   5.399  0.1545  0.2599 -0.5209
 7115SOL    HW132981   2.651   4.436   5.435 -0.4664  0.0337  0.5328
 7115SOL    HW232982   2.504   4.415   5.404  1.7179 -1.4923 -1.3313
 7116SOL     OW32983   1.460   0.480   4.998  0.4258 -0.2362  0.2260
 7116SOL    HW132984   1.509   0.410   5.042  1.6488 -0.5697 -1.6595
 7116SOL    HW232985   1.528   0.545   4.980  1.8292 -1.9980 -0.9242
 7117SOL     OW32986   2.087   4.589   9.835 -0.1609  0.1516 -0.3478
 7117SOL    HW132987   2.108   4.648   9.762 -1.1622  0.8243 -0.0929
 7117SOL    HW232988   2.104   4.507   9.789  0.3621  0.2781 -0.3853
 7118SOL     OW32989   2.920   0.136   2.965 -0.3183 -0.5968  0.2207
 7118SOL    HW132990   2.943   0.168   3.052  2.1683 -0.5750 -0.4340
 7118SOL    HW232991   2.962   0.203   2.912 -0.1378  0.8291  2.1945
 7119SOL     OW32992   1.499   0.395   8.338  0.0744  0.4623  0.0475
 7119SOL    HW132993   1.427   0.401   8.401 -1.7343 -1.7561 -1.7866
 7119SOL    HW232994   1.482   0.473   8.285  1.4236  0.1391 -0.8531
 7120SOL     OW32995   3.623   2.601   7.662 -0.6856 -0.1990 -0.4787
 7120SOL    HW132996   3.659   2.609   7.751 -1.1253 -1.7699 -0.1586
 7120SOL    HW232997   3.669   2.670   7.614  0.3222 -0.7759 -0.3350
 7121SOL     OW32998   4.229   2.781   2.586 -0.1095 -0.0162  0.3162
 7121SOL    HW132999   4.254   2.749   2.500 -0.2266 -1.1701  0.7062
 7121SOL    HW233000   4.138   2.754   2.599 -0.2812  0.6503  0.4582
 7122SOL     OW33001   1.245   3.165   7.343  0.5542 -0.0980  0.0036
 7122SOL    HW133002   1.189   3.092   7.369 -2.5016  1.3764 -2.4501
 7122SOL    HW233003   1.233   3.172   7.249 -0.8054 -0.4706  0.1568
 7123SOL     OW33004   2.440   4.244   3.962  0.3434  0.0630  0.8373
 7123SOL    HW133005   2.351   4.215   3.942 -0.5085  3.0476  0.2905
 7123SOL    HW233006   2.475   4.160   3.934 -1.7826 -0.2321 -0.9263
 7124SOL     OW33007   1.673   2.061   6.117  0.1774  0.5225 -0.3014
 7124SOL    HW133008   1.670   2.101   6.030 -1.1166 -2.1638 -1.4863
 7124SOL    HW233009   1.768   2.058   6.130 -0.1138 -2.7825  1.1598
 7125SOL     OW33010   4.188   1.705  11.667 -0.5110 -0.1569  0.1409
 7125SOL    HW133011   4.264   1.689  11.611 -0.3470 -0.5806  0.4855
 7125SOL    HW233012   4.230   1.779  11.712  0.6198 -0.3415 -0.6174
 7126SOL     OW33013   0.420   1.572   3.212 -0.6809  0.2657 -0.2934
 7126SOL    HW133014   0.407   1.665   3.232  0.9921  0.3728  0.2534
 7126SOL    HW233015   0.486   1.569   3.143 -1.1983  0.7289 -0.8099
 7127SOL     OW33016   3.206   3.354  15.641  0.0441 -0.2662 -0.2067
 7127SOL    HW133017   3.271   3.414  15.605  1.0088 -1.0286  0.2520
 7127SOL    HW233018   3.233   3.280  15.587 -1.1832 -1.1160  0.3468
 7128SOL     OW33019   0.455   3.320   9.753  0.5590 -0.5741 -0.3835
 7128SOL    HW133020   0.487   3.280   9.672 -3.3946 -0.7065 -1.8950
 7128SOL    HW233021   0.411   3.400   9.723  0.6290 -0.5482 -0.4185
 7129SOL     OW33022   4.379   1.031  10.180 -0.3472 -0.1415 -0.6274
 7129SOL    HW133023   4.284   1.022  10.166 -0.6582  1.5762  0.3896
 7129SOL    HW233024   4.386   0.953  10.235  1.5689  0.5305  0.0637
 7130SOL     OW33025   1.985   2.248   9.540 -0.0905 -0.3991  0.2211
 7130SOL    HW133026   1.987   2.274   9.448 -2.3575 -0.6353  0.1104
 7130SOL    HW233027   1.890   2.240   9.545 -0.1943  1.9771  1.5105
 7131SOL     OW33028   1.248   2.967   3.393 -0.1072  0.3050  0.2135
 7131SOL    HW133029   1.332   2.979   3.350 -0.7005 -2.3949 -1.7061
 7131SOL    HW233030   1.201   2.930   3.319  0.3918  1.0113 -0.4551
 7132SOL     OW33031   3.868   1.029   2.441  0.0061 -0.4834  0.4734
 7132SOL    HW133032   3.824   0.944   2.440 -0.7082 -0.0695 -3.6139
 7132SOL    HW233033   3.798   1.082   2.479  0.2302 -0.6277  1.0886
 7133SOL     OW33034   1.228   0.547  14.823 -0.1246 -0.3092  0.3964
 7133SOL    HW133035   1.236   0.641  14.838  0.7962 -0.0560 -1.7917
 7133SOL    HW233036   1.316   0.519  14.798 -0.0246  1.0114 -0.7251
 7134SOL     OW33037   1.772   3.559  14.100 -0.7011 -0.3210 -0.3323
 7134SOL    HW133038   1.763   3.629  14.165  2.4619 -0.5188  0.3023
 7134SOL    HW233039   1.819   3.609  14.034 -1.2403  0.7749  0.0941
 7135SOL     OW33040   4.711   1.814  15.419 -0.2409 -0.3807 -0.3094
 7135SOL    HW133041   4.702   1.902  15.456 -0.4938 -0.2351 -0.7192
 7135SOL    HW233042   0.013   1.827  15.333 -0.1734 -0.0467 -0.2267
 7136SOL     OW33043   0.024   1.927  10.849  0.3405 -0.1376  0.3595
 7136SOL    HW133044   4.673   1.938  10.885 -0.3623  0.0287 -1.3995
 7136SOL    HW233045   0.063   1.911  10.935 -1.4838 -0.6607  1.0877
 7137SOL     OW33046   2.231   4.325   0.865 -0.4417 -0.7946 -0.0680
 7137SOL    HW133047   2.143   4.319   0.829 -0.0789 -0.5615 -0.9799
 7137SOL    HW233048   2.259   4.405   0.820 -0.1296 -0.5477  0.5540
 7138SOL     OW33049   1.471   4.651   1.222 -0.6793  0.2642  0.2424
 7138SOL    HW133050   1.510   4.686   1.302 -1.0146 -3.0484  1.8493
 7138SOL    HW233051   1.413   4.723   1.196 -0.6371 -0.4110 -1.7028
 7139SOL     OW33052   3.283   3.889   1.789 -0.3230  0.0873  0.3974
 7139SOL    HW133053   3.254   3.960   1.732  3.3693  1.3132  0.0770
 7139SOL    HW233054   3.323   3.830   1.725 -1.5919 -0.4614  0.1010
 7140SOL     OW33055   3.258   0.465   5.255  0.0773  0.2679  0.0917
 7140SOL    HW133056   3.228   0.553   5.235  0.7197  0.7946  1.4147
 7140SOL    HW233057   3.344   0.449   5.216 -0.1243  1.8561 -1.0118
 7141SOL     OW33058   4.583   1.941   9.566  0.3670 -0.0031 -0.5244
 7141SOL    HW133059   4.513   1.960   9.628  1.2266  2.1185 -0.2172
 7141SOL    HW233060   4.528   1.899   9.501 -2.8716  2.0822  0.8732
 7142SOL     OW33061   0.895   1.550   8.833 -0.3653 -0.2153  0.0053
 7142SOL    HW133062   0.981   1.518   8.861  0.5152 -1.1035 -3.6690
 7142SOL    HW233063   0.915   1.566   8.741  1.5715 -3.2475 -0.1249
 7143SOL     OW33064   0.283   1.496  16.948 -0.3549 -0.4621 -0.3319
 7143SOL    HW133065   0.278   1.583  16.908  0.0655 -0.1487  0.2972
 7143SOL    HW233066   0.238   1.448  16.879 -2.3319  0.1203  0.5613
 7144SOL     OW33067   4.119   1.044  11.661 -0.1844 -0.1035  0.2118
 7144SOL    HW133068   4.083   1.000  11.583  1.3867  1.1801 -1.2370
 7144SOL    HW233069   4.135   0.966  11.713 -0.6879  0.0558  0.6029
 7145SOL     OW33070   3.604   3.028  10.321 -0.2234  0.6492  0.6249
 7145SOL    HW133071   3.681   2.972  10.326 -0.8955 -0.3329  0.2488
 7145SOL    HW233072   3.634   3.111  10.356 -4.3916  0.6716  4.2355
 7146SOL     OW33073   0.340   0.437  12.131 -0.0605 -0.1010  0.3198
 7146SOL    HW133074   0.303   0.432  12.219  1.5240  3.4673  1.2049
 7146SOL    HW233075   0.262   0.475  12.089 -0.3484 -0.1415  0.8222
 7147SOL     OW33076   0.189   1.171  11.412 -0.4557 -0.2100  0.2711
 7147SOL    HW133077   0.111   1.139  11.459  0.0496 -1.5064  0.2416
 7147SOL    HW233078   0.267   1.128  11.447  0.2592  1.7045  1.0233
 7148SOL     OW33079   3.095   1.652  17.667 -0.1414 -0.2759 -0.1545
 7148SOL    HW133080   3.125   1.732  17.711  3.2617  0.0169 -3.0784
 7148SOL    HW233081   3.148   1.649  17.587 -1.8572  0.3724 -1.3045
 7149SOL     OW33082   1.798   2.073   3.101  0.0628  0.3323 -0.2587
 7149SOL    HW133083   1.802   2.150   3.044  1.7768 -1.2262 -2.2739
 7149SOL    HW233084   1.847   2.117   3.170 -0.9432 -0.0673  0.7104
 7150SOL     OW33085   3.698   1.229   4.683  0.3228  0.9235 -0.1662
 7150SOL    HW133086   3.627   1.172   4.713  0.5496 -0.4314 -2.1737
 7150SOL    HW233087   3.773   1.170   4.677 -0.5797 -0.1983 -0.5725
 7151SOL     OW33088   4.259   2.544   8.861 -0.0100 -0.2601  0.4493
 7151SOL    HW133089   4.216   2.505   8.784 -1.8169 -0.3483  1.4878
 7151SOL    HW233090   4.190   2.571   8.922  0.6495 -0.2761  1.1964
 7152SOL     OW33091   0.866   3.193   6.249 -0.0380 -0.4697  0.6658
 7152SOL    HW133092   0.880   3.212   6.156 -1.9591  0.1805  0.4970
 7152SOL    HW233093   0.892   3.101   6.243  3.4114  0.5399  0.5059
 7153SOL     OW33094   2.881   3.829   8.730  0.4188  0.4287  0.6667
 7153SOL    HW133095   2.911   3.918   8.749  1.2744 -0.2928  2.7749
 7153SOL    HW233096   2.869   3.789   8.817 -0.5811 -0.2734  0.2115
 7154SOL     OW33097   1.288   0.547   3.173  0.2701  0.4734 -0.6020
 7154SOL    HW133098   1.358   0.611   3.161  0.5982  0.6157  2.1658
 7154SOL    HW233099   1.334   0.489   3.234 -2.9962  1.1055  2.4557
 7155SOL     OW33100   4.261   0.482  16.177  0.3428  0.5017 -0.4214
 7155SOL    HW133101   4.297   0.531  16.103 -0.4905  1.5762 -0.1288
 7155SOL    HW233102   4.275   0.552  16.241  1.9413  2.1757 -2.6176
 7156SOL     OW33103   0.744   2.829   3.973  0.3900 -0.0490  0.1134
 7156SOL    HW133104   0.701   2.778   4.042  1.0218 -0.1501  0.4339
 7156SOL    HW233105   0.680   2.800   3.907  1.3276 -1.6137 -0.1152
 7157SOL     OW33106   2.026   4.625  10.143 -0.0420 -0.0651  0.2226
 7157SOL    HW133107   1.964   4.552  10.141  1.7630 -1.6770  1.9472
 7157SOL    HW233108   2.031   4.654  10.052  0.4519 -2.3602 -0.4958
 7158SOL     OW33109   4.271   2.509   2.582  0.4913  0.2144 -0.0759
 7158SOL    HW133110   4.288   2.580   2.644 -0.7037 -0.5292  1.0995
 7158SOL    HW233111   4.343   2.450   2.603 -1.7066 -1.5632  2.5311
 7159SOL     OW33112   4.381   1.417   3.893 -0.3132  0.2530 -0.1596
 7159SOL    HW133113   4.332   1.474   3.952 -1.1750  1.6413 -2.1748
 7159SOL    HW233114   4.307   1.364   3.861 -0.5303 -0.0241  0.8139
 7160SOL     OW33115   3.144   1.491   9.064  0.4646  0.0736  0.3887
 7160SOL    HW133116   3.231   1.469   9.096 -0.5045  1.1799  3.7511
 7160SOL    HW233117   3.124   1.583   9.080 -2.9477 -1.3772  4.4175
 7161SOL     OW33118   4.058   3.766  16.753 -0.2945 -0.1232 -0.1675
 7161SOL    HW133119   4.041   3.754  16.846 -1.8399  0.4063 -0.3919
 7161SOL    HW233120   4.098   3.853  16.755  0.6008 -0.5517  1.1298
 7162SOL     OW33121   4.576   1.171   3.497 -0.0654 -0.2435  0.3098
 7162SOL    HW133122   4.535   1.257   3.504 -0.7372 -0.6545  1.4866
 7162SOL    HW233123   4.646   1.187   3.560  0.4715  0.5821 -0.5054
 7163SOL     OW33124   0.136   4.165  16.541 -0.4523 -0.0497 -0.4381
 7163SOL    HW133125   0.053   4.158  16.494 -1.0434  2.5637  0.2328
 7163SOL    HW233126   0.169   4.075  16.549 -0.3175 -0.0479 -1.0225
 7164SOL     OW33127   3.377   1.397   4.848  0.2443 -0.5770 -0.6901
 7164SOL    HW133128   3.451   1.456   4.851 -0.4186  0.2347 -0.3030
 7164SOL    HW233129   3.415   1.323   4.800 -1.1906 -1.1557 -0.9374
 7165SOL     OW33130   2.264   2.008   4.765  0.2789  0.5249 -0.1416
 7165SOL    HW133131   2.275   1.913   4.760 -1.5905  0.2491  0.7211
 7165SOL    HW233132   2.169   2.019   4.771  0.2936  1.4269 -1.8066
 7166SOL     OW33133   1.211   1.340   1.733 -0.0814 -0.1839  0.0816
 7166SOL    HW133134   1.230   1.314   1.823  0.4520  1.2735  0.3882
 7166SOL    HW233135   1.127   1.299   1.710  1.4148 -0.8688 -4.1926
 7167SOL     OW33136   1.503   2.940   1.984  0.1078  0.4746  0.1911
 7167SOL    HW133137   1.484   3.028   2.015 -3.4367  0.5544 -2.1548
 7167SOL    HW233138   1.593   2.924   2.011 -0.0128 -0.6181 -0.0338
 7168SOL     OW33139   2.121   0.301  10.257  0.2654 -0.4360 -0.2506
 7168SOL    HW133140   2.094   0.392  10.269  1.6066 -0.1630  0.7068
 7168SOL    HW233141   2.199   0.312  10.202 -0.1666  0.1313 -0.7411
 7169SOL     OW33142   0.978   1.835   4.372 -0.1016  0.9451 -0.9603
 7169SOL    HW133143   0.962   1.860   4.463  1.8787  0.0473 -0.3759
 7169SOL    HW233144   0.944   1.747   4.360  0.0920  0.9002 -1.1641
 7170SOL     OW33145   1.743   0.452  14.648 -1.2154  0.3861 -0.1850
 7170SOL    HW133146   1.704   0.538  14.664 -1.8162 -0.2483  1.6492
 7170SOL    HW233147   1.813   0.460  14.712  1.0371 -2.1161 -2.3310
 7171SOL     OW33148   0.889   0.200   5.829  0.4452 -0.8087 -0.2439
 7171SOL    HW133149   0.915   0.289   5.805 -3.4061  1.1541  2.9016
 7171SOL    HW233150   0.969   0.152   5.808  0.3821 -0.8577 -0.3690
 7172SOL     OW33151   1.850   3.894   3.414  0.4277 -0.0985 -0.1054
 7172SOL    HW133152   1.937   3.908   3.375 -0.5968  2.2656 -1.6132
 7172SOL    HW233153   1.883   3.872   3.501 -0.5899 -2.3239 -0.2848
 7173SOL     OW33154   1.128   0.296   5.369 -0.6300 -0.3239  0.1392
 7173SOL    HW133155   1.090   0.375   5.330  0.1279  0.5587  1.1931
 7173SOL    HW233156   1.061   0.227   5.365 -0.0689 -0.9401  1.7568
 7174SOL     OW33157   2.209   4.568   7.465  0.2470 -0.4074  0.2048
 7174SOL    HW133158   2.133   4.564   7.407  0.1106 -0.7992  0.4119
 7174SOL    HW233159   2.174   4.561   7.553  1.9619  0.9113  0.9971
 7175SOL     OW33160   3.460   0.849   8.920  0.0628 -0.2257  0.3118
 7175SOL    HW133161   3.454   0.758   8.891 -2.8201  0.2655 -0.6156
 7175SOL    HW233162   3.386   0.858   8.980  0.7046  0.8473  0.9608
 7176SOL     OW33163   0.279   2.775  14.488  0.2984  0.4657 -0.1250
 7176SOL    HW133164   0.195   2.808  14.456  0.1228  1.0767  0.9477
 7176SOL    HW233165   0.333   2.816  14.420  1.5280  0.8098  1.0458
 7177SOL     OW33166   0.702   3.674   7.609  0.6668  0.0332 -0.2634
 7177SOL    HW133167   0.730   3.590   7.646  0.9226 -0.9226 -2.6572
 7177SOL    HW233168   0.740   3.662   7.523  1.1948 -3.5316  0.4733
 7178SOL     OW33169   1.863   4.661   3.423 -0.5355 -0.1216 -0.1695
 7178SOL    HW133170   1.913   4.637   3.501 -1.6958  2.8280  1.4842
 7178SOL    HW233171   1.931   4.689   3.362 -0.9090  1.3796  0.1015
 7179SOL     OW33172   2.016   0.523  10.380 -0.1898  0.1354 -0.4329
 7179SOL    HW133173   1.967   0.546  10.459  0.9950 -1.4306  0.7566
 7179SOL    HW233174   1.948   0.473  10.336  0.0873 -0.0138 -0.6870
 7180SOL     OW33175   2.032   0.931   4.256  0.5544  0.2003 -0.0530
 7180SOL    HW133176   1.950   0.883   4.250  0.8866 -0.5118  0.9740
 7180SOL    HW233177   2.082   0.859   4.217 -1.2275 -0.4709 -1.0877
 7181SOL     OW33178   1.746   0.474   6.281 -0.4531  0.0952 -0.1700
 7181SOL    HW133179   1.658   0.505   6.300  0.0805 -0.4570  3.2031
 7181SOL    HW233180   1.756   0.514   6.195  2.8745 -0.6119 -0.1415
 7182SOL     OW33181   2.533   1.973  11.675  0.0843 -0.2088 -0.1564
 7182SOL    HW133182   2.548   2.042  11.739 -2.1513 -0.5402  0.7235
 7182SOL    HW233183   2.618   1.930  11.678  0.9743  1.6081  0.7696
 7183SOL     OW33184   0.435   2.419   3.862  0.1797 -0.6770  0.3167
 7183SOL    HW133185   0.459   2.478   3.791 -1.7647  2.4235  2.2122
 7183SOL    HW233186   0.413   2.339   3.815 -1.6243  2.0734 -3.4740
 7184SOL     OW33187   1.201   0.997   2.322 -0.1873 -0.1775  0.3109
 7184SOL    HW133188   1.155   1.047   2.254  1.5642 -0.5599 -1.1632
 7184SOL    HW233189   1.205   1.061   2.393 -0.6045  3.2613 -2.7440
 7185SOL     OW33190   3.249   1.145  14.272 -0.1523 -0.3162 -0.3008
 7185SOL    HW133191   3.172   1.201  14.277 -2.5575 -3.7853  1.9211
 7185SOL    HW233192   3.209   1.060  14.290  1.3895 -0.7226  1.2429
 7186SOL     OW33193   3.799   1.934   2.283  0.5893 -0.3476 -0.1367
 7186SOL    HW133194   3.775   2.003   2.221  0.0039 -0.6854 -0.2854
 7186SOL    HW233195   3.803   1.862   2.221  0.1327  0.2033 -0.8136
 7187SOL     OW33196   0.164   3.756  14.388  0.8810  0.1060  0.1171
 7187SOL    HW133197   0.242   3.811  14.385 -0.3629  1.8580 -0.4697
 7187SOL    HW233198   0.144   3.745  14.481  3.8790  0.8519  0.8302
 7188SOL     OW33199   4.599   2.047   5.257 -0.5222  0.2008  0.2756
 7188SOL    HW133200   4.570   2.136   5.236 -1.2655 -0.5833 -2.0669
 7188SOL    HW233201   4.549   2.006   5.186 -0.1552 -0.0201  0.1404
 7189SOL     OW33202   3.679   3.250   0.567  0.1878 -0.1463  0.0059
 7189SOL    HW133203   3.675   3.346   0.571 -0.0209 -0.2286  1.8997
 7189SOL    HW233204   3.768   3.235   0.597  0.8551  1.6800 -1.0580
 7190SOL     OW33205   0.674   4.619  10.319  0.2099 -0.1159 -0.7413
 7190SOL    HW133206   0.674   4.525  10.335  0.9423 -0.0253 -0.2213
 7190SOL    HW233207   0.768   4.638  10.319  0.0989  0.4286 -0.4178
 7191SOL     OW33208   1.409   3.911   7.959 -0.3595  0.0296  0.1009
 7191SOL    HW133209   1.412   3.815   7.954 -0.3518 -0.0712  1.7593
 7191SOL    HW233210   1.474   3.923   8.028 -0.9314  0.5105  0.5561
 7192SOL     OW33211   4.147   1.928  14.644 -0.5501  0.2581 -0.0506
 7192SOL    HW133212   4.198   1.900  14.568  1.8843  1.7117  1.0504
 7192SOL    HW233213   4.111   2.011  14.612 -0.5641  0.1241 -0.3837
 7193SOL     OW33214   3.569   2.129   7.841  0.0127 -0.1554  0.0698
 7193SOL    HW133215   3.640   2.065   7.843  0.7271  0.6353  0.1750
 7193SOL    HW233216   3.525   2.100   7.762  1.6775  2.3333 -1.7919
 7194SOL     OW33217   3.296   4.359   7.552 -0.2477 -0.1211  0.5057
 7194SOL    HW133218   3.224   4.309   7.513 -1.5996  2.6432 -0.5554
 7194SOL    HW233219   3.363   4.291   7.557 -1.0813 -0.9875 -0.2237
 7195SOL     OW33220   1.930   1.820  13.922  0.3617 -0.0369  0.5667
 7195SOL    HW133221   1.908   1.875  13.997  2.2106  0.1251  0.9840
 7195SOL    HW233222   1.990   1.758  13.963 -3.0263 -2.1735  2.3048
 7196SOL     OW33223   2.341   1.462   2.909 -0.1118 -0.2252 -0.3523
 7196SOL    HW133224   2.303   1.374   2.908  0.5716 -0.5118 -1.2590
 7196SOL    HW233225   2.270   1.510   2.952  0.6207 -0.8894  1.6210
 7197SOL     OW33226   0.771   0.361  13.288  0.2430 -0.3658  0.1506
 7197SOL    HW133227   0.858   0.334  13.257  0.6564  1.0441  0.0805
 7197SOL    HW233228   0.784   0.315  13.371  3.1846 -0.4760 -0.3751
 7198SOL     OW33229   0.689   3.414  16.476 -0.1539 -0.2311  0.5827
 7198SOL    HW133230   0.629   3.391  16.405  0.8307 -0.4759 -0.1518
 7198SOL    HW233231   0.763   3.445  16.424 -0.8374 -0.8057 -0.7291
 7199SOL     OW33232   3.815   0.324   2.706 -0.5036  0.1184  0.5924
 7199SOL    HW133233   3.889   0.383   2.721 -0.9935  1.0909 -0.7690
 7199SOL    HW233234   3.798   0.336   2.613 -2.1385 -0.2787  0.8326
 7200SOL     OW33235   4.103   1.062  16.497  0.7112 -0.2328 -0.5220
 7200SOL    HW133236   4.013   1.094  16.495 -0.0976 -2.4882 -0.1155
 7200SOL    HW233237   4.136   1.152  16.499 -0.4949  0.1668  2.0525
 7201SOL     OW33238   0.536   1.910   3.180 -0.4687 -0.2154  0.1844
 7201SOL    HW133239   0.601   1.873   3.120 -0.3767 -1.6150  1.1242
 7201SOL    HW233240   0.575   1.908   3.268 -1.0774 -0.3032  0.4551
 7202SOL     OW33241   2.350   4.588  11.489  0.0243 -1.0043 -0.0959
 7202SOL    HW133242   2.267   4.543  11.473 -0.7582  0.3433  0.0979
 7202SOL    HW233243   2.372   4.633  11.408 -2.9012 -1.4929 -1.1748
 7203SOL     OW33244   2.782   3.506   4.745  0.2896  0.7010  0.0103
 7203SOL    HW133245   2.735   3.547   4.672  1.8328 -2.2720 -2.6273
 7203SOL    HW233246   2.824   3.586   4.776  0.7496  1.1096 -1.6469
 7204SOL     OW33247   0.157   2.730   4.409  0.0576  0.4552  0.3142
 7204SOL    HW133248   0.251   2.732   4.423  0.2603  1.6206 -1.1763
 7204SOL    HW233249   0.128   2.690   4.491 -1.0101  1.6486  0.5211
 7205SOL     OW33250   2.888   2.052  10.026 -0.2557  0.2374 -0.7007
 7205SOL    HW133251   2.797   2.037   9.997 -0.3901 -0.7915  0.2544
 7205SOL    HW233252   2.911   1.959  10.025  0.9224  0.5462 -1.9977
 7206SOL     OW33253   2.120   2.162   4.410 -0.0693  0.0261  0.1353
 7206SOL    HW133254   2.082   2.075   4.422 -2.4198  1.1641  1.0552
 7206SOL    HW233255   2.194   2.152   4.350 -0.1996  1.2081 -0.2269
 7207SOL     OW33256   4.571   4.687   4.934 -0.2103  0.7655  0.8411
 7207SOL    HW133257   4.537   4.608   4.975 -0.4664  1.9020  2.8190
 7207SOL    HW233258   4.643   4.642   4.889  0.3384  0.3216  2.1420
 7208SOL     OW33259   3.646   3.336   7.504 -0.6774  0.5912  0.3159
 7208SOL    HW133260   3.739   3.354   7.515  0.4404 -4.5501 -0.8155
 7208SOL    HW233261   3.614   3.360   7.591 -0.8369 -0.3303  0.5141
 7209SOL     OW33262   3.534   4.151   2.842 -0.0139 -0.7512 -0.1238
 7209SOL    HW133263   3.556   4.079   2.783 -0.9239 -0.5070 -0.7655
 7209SOL    HW233264   3.563   4.224   2.787 -2.4377  0.9556  0.8719
 7210SOL     OW33265   3.290   4.450   4.516 -0.1449  0.1982  0.0791
 7210SOL    HW133266   3.275   4.414   4.428 -2.2454 -1.8237  1.2577
 7210SOL    HW233267   3.203   4.482   4.541  0.2340  0.8511  0.5688
 7211SOL     OW33268   1.993   3.865   4.413 -0.3478 -0.4846  0.0970
 7211SOL    HW133269   1.956   3.951   4.392 -2.3213 -0.4438  3.6836
 7211SOL    HW233270   2.083   3.868   4.382 -0.9300  1.0910 -1.4113
 7212SOL     OW33271   0.126   1.884   2.277 -0.0288 -0.4655 -0.1518
 7212SOL    HW133272   0.068   1.889   2.353  0.6856 -1.2444  0.4517
 7212SOL    HW233273   0.140   1.790   2.266 -2.0247 -0.8625  0.7924
 7213SOL     OW33274   1.483   4.050   5.735  0.2570  0.4557  0.4029
 7213SOL    HW133275   1.424   3.976   5.719  0.1340  0.5959  0.2029
 7213SOL    HW233276   1.452   4.067   5.824  0.9379 -1.8163  1.0649
 7214SOL     OW33277   3.303   0.946   4.958 -0.0836  0.3009 -0.4123
 7214SOL    HW133278   3.288   0.985   5.044  0.6954 -2.4228  0.9763
 7214SOL    HW233279   3.398   0.957   4.959  0.1824 -1.7681 -2.9717
 7215SOL     OW33280   0.275   2.039   9.658 -0.8329  0.1888 -0.5582
 7215SOL    HW133281   0.250   1.998   9.741 -0.9691  2.0290  0.2932
 7215SOL    HW233282   0.315   2.121   9.685  0.0546 -0.5139  0.2502
 7216SOL     OW33283   0.482   2.639  16.197 -0.7544 -0.3367 -0.4966
 7216SOL    HW133284   0.544   2.625  16.269 -1.1826 -1.8564 -0.4245
 7216SOL    HW233285   0.486   2.558  16.146  1.5732 -0.0677 -0.7146
 7217SOL     OW33286   4.259   4.143   4.528 -0.4285 -0.2917 -0.3969
 7217SOL    HW133287   4.349   4.110   4.534 -1.1317 -2.0936  0.0680
 7217SOL    HW233288   4.246   4.147   4.433  0.5868  3.6745 -0.3761
 7218SOL     OW33289   2.773   3.227  12.035  1.0360 -0.5753 -0.0645
 7218SOL    HW133290   2.779   3.163  12.105 -2.2247 -1.1032 -0.2641
 7218SOL    HW233291   2.688   3.266  12.056  0.4469 -1.0453 -1.5447
 7219SOL     OW33292   0.268   4.634   2.079  0.5826 -0.1399  0.3993
 7219SOL    HW133293   0.255   4.550   2.124  0.0529  0.5587  1.5597
 7219SOL    HW233294   0.343   4.617   2.022 -0.3256 -3.0549  0.0767
 7220SOL     OW33295   3.843   3.898   7.267  0.0720 -0.0911 -0.3970
 7220SOL    HW133296   3.913   3.957   7.297 -0.1513  0.4710 -0.9561
 7220SOL    HW233297   3.879   3.810   7.264  0.7332  0.1079  2.1011
 7221SOL     OW33298   1.771   1.111   3.002 -0.0803 -0.7066  0.6942
 7221SOL    HW133299   1.781   1.032   2.948  3.3509 -0.6844  1.2972
 7221SOL    HW233300   1.833   1.078   3.067  0.1021 -0.0573  0.8458
 7222SOL     OW33301   1.159   4.081   6.164  0.4442  0.2717  0.3198
 7222SOL    HW133302   1.103   4.112   6.092  0.7519  1.9711  0.8111
 7222SOL    HW233303   1.176   4.160   6.214  1.0162  0.0319  0.4952
 7223SOL     OW33304   3.656   3.111   2.245  0.2211  0.1154 -0.1370
 7223SOL    HW133305   3.643   3.048   2.174  0.8014 -0.0445 -0.1011
 7223SOL    HW233306   3.746   3.135   2.223  0.1806  2.1084  1.8760
 7224SOL     OW33307   2.694   3.021   6.924  0.0403  0.1026  0.2860
 7224SOL    HW133308   2.692   3.114   6.950  1.1227  0.4290 -0.8476
 7224SOL    HW233309   2.698   2.977   7.009  0.0254  0.9771  0.7462
 7225SOL     OW33310   1.232   2.122   2.971 -0.3664  0.0748  0.4173
 7225SOL    HW133311   1.303   2.060   2.986 -0.6682 -0.3951 -0.0806
 7225SOL    HW233312   1.235   2.187   3.041 -2.8992  1.0489 -0.3711
 7226SOL     OW33313   0.002   1.872   4.145  0.7642  0.1415  0.0543
 7226SOL    HW133314   0.010   1.843   4.236 -1.4147 -0.2293  0.1156
 7226SOL    HW233315   0.004   1.967   4.145  2.0799  0.1170 -0.5767
 7227SOL     OW33316   1.119   0.710   8.015 -0.0542 -0.1737  0.4438
 7227SOL    HW133317   1.100   0.698   7.921 -1.4708  1.8360  0.4804
 7227SOL    HW233318   1.191   0.773   8.014 -0.3637  0.1612 -2.8813
 7228SOL     OW33319   2.615   4.704   3.103 -0.3772 -0.6982 -0.7787
 7228SOL    HW133320   2.551   0.039   3.109 -1.1342 -1.4303 -0.3046
 7228SOL    HW233321   2.549   4.640   3.076 -0.4641 -0.4072 -1.2709
 7229SOL     OW33322   4.095   3.525   0.323  0.3835 -0.0837 -0.4948
 7229SOL    HW133323   4.055   3.545   0.407 -0.8669 -1.5877 -0.7392
 7229SOL    HW233324   4.042   3.451   0.294  1.8071 -1.3714  0.2009
 7230SOL     OW33325   1.118   1.198  12.773 -0.6579 -0.1692 -0.1412
 7230SOL    HW133326   1.064   1.236  12.704  0.2186  0.7357 -0.3438
 7230SOL    HW233327   1.110   1.262  12.844  0.2971  0.0400 -0.2154
 7231SOL     OW33328   3.811   1.356   6.184 -0.4828 -0.0359 -0.2811
 7231SOL    HW133329   3.811   1.449   6.164  1.5384  0.3931  1.7475
 7231SOL    HW233330   3.784   1.350   6.276  2.0769 -4.6979  0.1902
 7232SOL     OW33331   2.323   4.039   8.865 -0.7525  0.5787 -0.6989
 7232SOL    HW133332   2.365   3.964   8.824  0.9275  2.5647 -2.6183
 7232SOL    HW233333   2.399   4.094   8.886 -1.5432  1.5628 -0.3745
 7233SOL     OW33334   0.052   4.114  16.827 -0.4085 -0.2511  0.4183
 7233SOL    HW133335   0.126   4.151  16.874 -1.6444  2.2043  0.4172
 7233SOL    HW233336   0.066   4.165  16.747 -0.9247  0.5290  0.8231
 7234SOL     OW33337   1.912   4.240   4.574  0.4157 -0.0237 -0.0292
 7234SOL    HW133338   1.935   4.163   4.627 -1.4901 -1.0697 -0.7228
 7234SOL    HW233339   1.829   4.269   4.611  1.0514  1.8667 -0.1044
 7235SOL     OW33340   3.585   1.653   6.255 -0.1451  0.5940 -0.5293
 7235SOL    HW133341   3.655   1.655   6.191 -0.1496  1.9761 -0.4889
 7235SOL    HW233342   3.536   1.726   6.217  0.1564  1.2017  0.2509
 7236SOL     OW33343   3.083   0.421  11.095  0.1966 -0.6476 -0.5665
 7236SOL    HW133344   3.021   0.362  11.053 -1.3675 -0.2790  1.2845
 7236SOL    HW233345   3.061   0.501  11.047 -2.8538 -0.2793  1.4519
 7237SOL     OW33346   1.925   2.028   0.968  0.2791 -0.9926  0.0920
 7237SOL    HW133347   1.993   2.044   0.903 -0.1228 -1.6037 -0.4781
 7237SOL    HW233348   1.874   2.109   0.973  1.7758 -0.1131  1.0201
 7238SOL     OW33349   4.474   2.103   4.057  0.9082 -0.3754  0.6398
 7238SOL    HW133350   4.478   2.081   4.150 -1.1927  0.7589  1.0035
 7238SOL    HW233351   4.566   2.121   4.039  1.1285 -0.7959  1.3466
 7239SOL     OW33352   3.244   4.266   2.569 -0.5869  0.4083  0.2382
 7239SOL    HW133353   3.286   4.254   2.484  0.1956  2.5554  0.3188
 7239SOL    HW233354   3.157   4.236   2.545 -1.3988  1.1180  2.3296
 7240SOL     OW33355   4.360   3.985   9.218 -0.2159 -0.2742  0.6155
 7240SOL    HW133356   4.290   4.031   9.173  0.6300  0.7523  0.3557
 7240SOL    HW233357   4.357   3.902   9.170 -1.9188  0.6973 -0.9690
 7241SOL     OW33358   4.729   1.145   6.867  0.5485 -0.0910  0.3077
 7241SOL    HW133359   0.020   1.230   6.902  0.5953 -1.3252  3.2797
 7241SOL    HW233360   0.042   1.152   6.785 -0.0314  2.2416  0.1474
 7242SOL     OW33361   2.500   0.890   9.033  0.2975  0.2791 -0.2193
 7242SOL    HW133362   2.517   0.894   8.939 -0.2197  0.0302 -0.3224
 7242SOL    HW233363   2.564   0.952   9.067 -0.8232  1.2158  0.1873
 7243SOL     OW33364   0.065   4.364  17.159  0.3822 -0.6291 -0.0187
 7243SOL    HW133365   0.152   4.404  17.162 -0.9788  2.1419  3.4800
 7243SOL    HW233366   0.022   4.425  17.099  0.4271 -1.2016 -0.6279
 7244SOL     OW33367   4.230   1.003   2.752 -0.5465 -0.2190  0.7536
 7244SOL    HW133368   4.264   0.971   2.668 -0.4795  2.5786 -0.3000
 7244SOL    HW233369   4.291   0.964   2.814  1.2504  1.9643  0.3902
 7245SOL     OW33370   3.308   4.684   5.987  0.3640 -0.2991 -0.2158
 7245SOL    HW133371   3.378   4.663   5.926  0.1445  2.0526 -1.2836
 7245SOL    HW233372   3.229   4.643   5.951  0.8726 -0.7404 -0.8210
 7246SOL     OW33373   1.594   4.612   3.629 -0.0273  0.0457 -0.2882
 7246SOL    HW133374   1.563   4.521   3.631 -0.0167  0.0244 -1.0695
 7246SOL    HW233375   1.609   4.619   3.535  0.4404  1.7728 -0.0780
 7247SOL     OW33376   0.921   2.810   6.536  0.1573 -0.1225 -0.5010
 7247SOL    HW133377   1.001   2.769   6.503  0.4582  1.1382 -1.3479
 7247SOL    HW233378   0.943   2.851   6.620 -1.7380  0.3450 -0.2402
 7248SOL     OW33379   4.164   3.039   6.756  0.2242  0.1926 -0.3161
 7248SOL    HW133380   4.185   3.014   6.846  0.6698 -0.0064 -0.4758
 7248SOL    HW233381   4.069   3.025   6.763  0.3496 -0.7210 -0.4705
 7249SOL     OW33382   2.865   3.827   3.849 -0.8347  0.1774 -0.0784
 7249SOL    HW133383   2.850   3.889   3.920 -1.6266 -0.1777  0.0620
 7249SOL    HW233384   2.887   3.894   3.784 -1.3976 -0.6575 -1.1336
 7250SOL     OW33385   2.013   4.643   7.283  0.1699  0.3164  0.7352
 7250SOL    HW133386   1.972   4.695   7.352 -0.3886  1.9799 -0.8460
 7250SOL    HW233387   1.935   4.622   7.233  0.1778  2.7637 -0.2833
 7251SOL     OW33388   1.127   0.564  15.315 -0.3531  0.3006 -0.9241
 7251SOL    HW133389   1.171   0.519  15.243  0.4384  2.4769 -1.7891
 7251SOL    HW233390   1.176   0.516  15.383 -1.0396 -0.9133 -1.2842
 7252SOL     OW33391   4.328   2.949  14.984  0.1345 -0.1729  0.2846
 7252SOL    HW133392   4.254   2.893  15.007  0.4347 -0.9858 -0.7991
 7252SOL    HW233393   4.395   2.881  14.980  1.0583  0.7688 -0.4111
 7253SOL     OW33394   2.106   3.523   6.763  0.0523 -0.7058 -0.5705
 7253SOL    HW133395   2.183   3.465   6.759  1.7917  1.4594  1.3080
 7253SOL    HW233396   2.154   3.599   6.797  0.7961 -1.9852  1.3001
 7254SOL     OW33397   0.331   1.179   5.109 -0.4897 -0.1856  0.4254
 7254SOL    HW133398   0.310   1.204   5.019  0.5983 -3.3875 -0.7136
 7254SOL    HW233399   0.425   1.197   5.113 -0.2457 -1.7559  1.8295
 7255SOL     OW33400   0.806   3.105   8.353 -0.6394  0.0795  0.1807
 7255SOL    HW133401   0.879   3.141   8.404 -0.0040 -0.1936 -0.5427
 7255SOL    HW233402   0.835   3.129   8.265 -1.3202  1.9467  0.4626
 7256SOL     OW33403   0.881   0.346   9.052 -0.3475 -0.7248 -0.1134
 7256SOL    HW133404   0.850   0.318   8.966  2.0516 -0.8232 -0.9621
 7256SOL    HW233405   0.843   0.433   9.064  1.0686 -0.1232  0.0111
 7257SOL     OW33406   3.551   2.487   8.707 -0.2468  0.2959 -0.2995
 7257SOL    HW133407   3.582   2.398   8.723  1.1221  0.6368 -1.1165
 7257SOL    HW233408   3.556   2.490   8.611  1.2043  0.8307 -0.2071
 7258SOL     OW33409   2.481   2.185   4.806  0.9723  0.0493 -0.0168
 7258SOL    HW133410   2.487   2.263   4.860 -1.4552 -1.0278  1.7875
 7258SOL    HW233411   2.409   2.143   4.854  1.6662 -1.5448 -0.3850
 7259SOL     OW33412   2.693   1.319  15.400 -0.0006  0.5560 -0.1456
 7259SOL    HW133413   2.676   1.386  15.334 -1.6858 -1.8476 -2.1613
 7259SOL    HW233414   2.748   1.359  15.467 -0.9276  1.7651 -0.1246
 7260SOL     OW33415   3.411   3.623  11.028  0.2479 -0.3512 -0.5649
 7260SOL    HW133416   3.421   3.717  11.036  0.1146 -0.4569  0.8517
 7260SOL    HW233417   3.462   3.597  11.104  0.5339 -0.8913 -0.9389
 7261SOL     OW33418   0.523   1.190  14.239 -0.3624  0.1507  0.4376
 7261SOL    HW133419   0.528   1.283  14.262  2.3190 -0.1404  1.0246
 7261SOL    HW233420   0.617   1.170  14.247  0.1544  0.8927 -3.9219
 7262SOL     OW33421   1.285   0.021   2.179  0.0717  0.2726 -0.1727
 7262SOL    HW133422   1.261   0.021   2.271 -2.0169 -0.0219 -0.7094
 7262SOL    HW233423   1.292   0.117   2.177  2.2672  0.1159 -0.2186
 7263SOL     OW33424   3.733   0.961   3.469  0.1889 -0.0396 -0.2478
 7263SOL    HW133425   3.674   1.028   3.502  0.8120  0.8674 -0.9862
 7263SOL    HW233426   3.809   0.958   3.527  0.7546 -1.8997 -1.0798
 7264SOL     OW33427   2.122   3.480   8.263 -0.2704 -0.3935  0.9153
 7264SOL    HW133428   2.164   3.423   8.328 -2.0138 -2.0241  0.6016
 7264SOL    HW233429   2.191   3.512   8.205 -1.3520  1.6193  0.7641
 7265SOL     OW33430   3.697   1.519   1.814 -0.4929  0.0512  0.7659
 7265SOL    HW133431   3.715   1.453   1.746 -1.0518  0.1062  0.5655
 7265SOL    HW233432   3.742   1.483   1.890  0.9142  0.4777  0.1314
 7266SOL     OW33433   1.377   2.880   9.891 -0.1503  0.4744 -0.3968
 7266SOL    HW133434   1.356   2.794   9.854  1.0415 -1.1294  2.6169
 7266SOL    HW233435   1.381   2.931   9.810 -0.3160 -1.3138 -1.5308
 7267SOL     OW33436   2.169   2.422   1.531  0.4480 -0.0149  0.2887
 7267SOL    HW133437   2.092   2.413   1.586  0.6678 -0.6540  0.4789
 7267SOL    HW233438   2.242   2.431   1.592  0.6705 -3.4589  0.4920
 7268SOL     OW33439   2.855   4.088  17.583  0.0836 -0.8509 -0.4891
 7268SOL    HW133440   2.950   4.076  17.584  0.4487  2.3769  4.0851
 7268SOL    HW233441   2.848   4.103  17.489 -1.8251  1.9377  0.0935
 7269SOL     OW33442   1.730   2.629  10.497  0.0653 -0.0313  0.0103
 7269SOL    HW133443   1.701   2.670  10.578 -0.9194  0.1922 -0.4607
 7269SOL    HW233444   1.811   2.582  10.518 -0.7259 -1.3585  0.0938
 7270SOL     OW33445   0.394   2.268  13.607 -0.1721 -0.3037  0.0790
 7270SOL    HW133446   0.315   2.262  13.660 -0.1634 -0.8963  0.0259
 7270SOL    HW233447   0.372   2.348  13.559  0.9664  1.1590  1.9958
 7271SOL     OW33448   0.610   3.250   9.547  0.2310  0.4479 -0.0064
 7271SOL    HW133449   0.671   3.324   9.552  1.0258 -0.0889 -1.5067
 7271SOL    HW233450   0.654   3.193   9.483 -0.0369  0.3287 -0.0819
 7272SOL     OW33451   1.444   1.494  10.603 -0.4571 -0.7069  0.0252
 7272SOL    HW133452   1.355   1.530  10.596 -0.1095 -0.0273 -0.9830
 7272SOL    HW233453   1.486   1.490  10.517 -1.6284  0.3632 -0.6137
 7273SOL     OW33454   3.785   3.933   8.063 -0.4109  0.5318  0.0934
 7273SOL    HW133455   3.783   3.837   8.053 -2.5308  0.4911  0.8360
 7273SOL    HW233456   3.694   3.961   8.063 -0.2327  1.0829  1.9869
 7274SOL     OW33457   3.003   4.674   6.044  0.9123 -0.0484  0.6258
 7274SOL    HW133458   2.989   4.602   5.982  0.9671 -0.6766  1.3398
 7274SOL    HW233459   2.996   4.636   6.132  2.5863  0.2222  0.8721
 7275SOL     OW33460   2.180   4.519  10.348 -0.5513 -0.1124  0.3218
 7275SOL    HW133461   2.119   4.549  10.281  1.2449  0.9431 -0.8069
 7275SOL    HW233462   2.126   4.458  10.399 -0.3814 -0.0706  0.5559
 7276SOL     OW33463   0.153   2.274  11.786  0.6315  0.0794  0.1215
 7276SOL    HW133464   0.114   2.283  11.873  2.2729 -1.4419  1.0154
 7276SOL    HW233465   0.194   2.188  11.797  0.6984  0.3219  1.6340
 7277SOL     OW33466   2.507   3.323   7.871  0.2408  0.3467  0.9177
 7277SOL    HW133467   2.471   3.351   7.787 -0.5820 -0.8977  0.8595
 7277SOL    HW233468   2.496   3.229   7.866  0.1458  0.4914 -1.6593
 7278SOL     OW33469   1.196   1.251   2.452 -0.1736 -0.5850  0.5344
 7278SOL    HW133470   1.237   1.319   2.399 -0.1931 -1.5591 -0.7310
 7278SOL    HW233471   1.253   1.260   2.528 -1.0203  1.9498  0.8662
 7279SOL     OW33472   3.001   3.366   2.905 -0.5245 -0.3535 -0.6329
 7279SOL    HW133473   2.971   3.432   2.967  0.1383 -0.8348  0.1888
 7279SOL    HW233474   2.982   3.287   2.954 -1.1417  0.1548 -0.0657
 7280SOL     OW33475   3.347   3.577   2.920 -0.2936  0.3428  0.2292
 7280SOL    HW133476   3.398   3.505   2.957 -0.9156  1.0917  2.5241
 7280SOL    HW233477   3.282   3.591   2.989 -1.7664 -1.5678 -0.7640
 7281SOL     OW33478   3.127   3.926   0.780  0.2035 -0.1372  0.2463
 7281SOL    HW133479   3.085   3.927   0.695 -0.6148  0.3949  0.6564
 7281SOL    HW233480   3.064   3.955   0.846  0.6666 -0.6508  0.9118
 7282SOL     OW33481   0.280   4.054  17.525  0.2478 -0.0877 -0.5463
 7282SOL    HW133482   0.352   4.039  17.464 -1.5269 -2.7154 -1.9736
 7282SOL    HW233483   0.296   3.974  17.575 -4.2007 -1.2239 -0.9221
 7283SOL     OW33484   2.121   2.866   1.955  0.1314 -0.1827 -0.2251
 7283SOL    HW133485   2.208   2.840   1.926  1.2892  1.8308  1.4052
 7283SOL    HW233486   2.073   2.864   1.872 -0.8492 -1.6547  0.3818
 7284SOL     OW33487   4.112   0.083   4.039  0.1527 -0.7443 -0.6536
 7284SOL    HW133488   4.052   0.012   4.059 -2.3349  1.4299 -0.3887
 7284SOL    HW233489   4.074   0.154   4.091 -0.5288  0.6379 -3.0577
 7285SOL     OW33490   4.244   0.289   6.397 -1.3079  0.4715 -0.4680
 7285SOL    HW133491   4.181   0.258   6.462  1.3715 -1.0950  1.3963
 7285SOL    HW233492   4.309   0.220   6.414 -2.7257 -0.7056  0.0933
 7286SOL     OW33493   0.104   1.862  12.604 -0.3124  0.4642 -0.3574
 7286SOL    HW133494   0.040   1.796  12.577  0.4152 -0.5471  0.4134
 7286SOL    HW233495   0.098   1.848  12.698  0.5168  0.6757 -0.2700
 7287SOL     OW33496   1.041   0.810  13.894 -1.2058  0.3775  0.6298
 7287SOL    HW133497   1.084   0.757  13.962 -0.4814 -1.5162 -1.2921
 7287SOL    HW233498   1.108   0.877  13.885 -1.4079  0.4057 -0.6413
 7288SOL     OW33499   3.038   0.463  10.695  0.3489  0.4999  0.2074
 7288SOL    HW133500   3.061   0.517  10.620  2.0204  1.5422  1.4748
 7288SOL    HW233501   2.943   0.467  10.686  0.2019 -1.0400  1.0336
 7289SOL     OW33502   0.157   4.416  15.258  0.7974  0.0596 -0.5397
 7289SOL    HW133503   0.164   4.472  15.181  2.1476 -0.6515 -0.9233
 7289SOL    HW233504   0.155   4.484  15.325  0.1495  0.9627 -1.4561
 7290SOL     OW33505   3.481   3.086   4.622  0.0845  0.2152 -0.1307
 7290SOL    HW133506   3.458   3.178   4.635 -0.0174  0.0182  1.0230
 7290SOL    HW233507   3.522   3.084   4.535  0.5931 -2.1575  0.1723
 7291SOL     OW33508   3.903   1.787  10.561  0.5063  0.2874  0.8462
 7291SOL    HW133509   3.939   1.872  10.538  1.9489  0.0270  2.1246
 7291SOL    HW233510   3.924   1.740  10.481 -0.8607  2.7348 -0.9216
 7292SOL     OW33511   3.624   1.479   8.202 -0.2822 -0.8487 -0.6671
 7292SOL    HW133512   3.565   1.541   8.244  0.1426 -0.9728  0.1160
 7292SOL    HW233513   3.625   1.407   8.265  2.8563  1.2678  1.6918
 7293SOL     OW33514   2.665   3.054   8.326 -0.6774  0.2015  0.7463
 7293SOL    HW133515   2.752   3.040   8.363 -0.4558  1.7811  0.8328
 7293SOL    HW233516   2.640   3.131   8.377 -3.5946 -0.1787 -0.1283
 7294SOL     OW33517   3.087   2.646   2.439 -0.1315 -0.4875  0.0726
 7294SOL    HW133518   3.119   2.671   2.525  0.5685  0.0680 -0.3459
 7294SOL    HW233519   3.161   2.673   2.384  0.3656  0.5140  1.2374
 7295SOL     OW33520   1.926   2.581   5.902  0.0648  0.5113  0.2088
 7295SOL    HW133521   1.915   2.502   5.955 -0.3085 -0.7172 -1.6834
 7295SOL    HW233522   1.984   2.549   5.833 -2.0215 -0.9431 -0.8774
 7296SOL     OW33523   2.384   0.899   2.828 -0.1734 -0.4350  0.0131
 7296SOL    HW133524   2.346   0.827   2.878  1.6555 -0.5205  1.2917
 7296SOL    HW233525   2.446   0.940   2.888  2.1562  0.6565 -3.1778
 7297SOL     OW33526   3.718   2.197   2.580 -0.2134  0.1903 -0.5332
 7297SOL    HW133527   3.635   2.244   2.567 -1.6444 -2.2862 -0.2697
 7297SOL    HW233528   3.702   2.124   2.521  2.1269  1.2836 -2.5225
 7298SOL     OW33529   4.443   2.969   1.658  0.8078 -0.1167  0.3386
 7298SOL    HW133530   4.411   2.901   1.717 -2.0871 -0.1458 -1.2715
 7298SOL    HW233531   4.508   3.013   1.712 -0.5689  0.6863  1.3205
 7299SOL     OW33532   4.186   1.123   3.387 -0.7036 -0.2763 -0.3548
 7299SOL    HW133533   4.253   1.160   3.445  0.2698 -1.0606 -0.9656
 7299SOL    HW233534   4.123   1.195   3.383 -1.1584 -0.7155 -0.9699
 7300SOL     OW33535   3.496   1.796   1.536 -0.2494 -0.1195 -0.4910
 7300SOL    HW133536   3.474   1.709   1.570 -1.8384 -0.2695 -1.8794
 7300SOL    HW233537   3.445   1.845   1.600 -1.8258 -0.2022 -1.6798
 7301SOL     OW33538   3.799   4.598   3.161 -0.3171 -0.0226 -0.1890
 7301SOL    HW133539   3.852   4.595   3.240  0.7077  2.2942 -0.8042
 7301SOL    HW233540   3.712   4.574   3.193 -0.0174 -0.9085 -0.0398
 7302SOL     OW33541   1.875   3.473   5.148 -0.2792 -0.5313  0.2359
 7302SOL    HW133542   1.833   3.549   5.188 -0.4795 -0.5661  0.0954
 7302SOL    HW233543   1.911   3.421   5.219 -4.2842 -1.2496  1.7434
 7303SOL     OW33544   2.956   4.116   8.739  0.4170  0.3338  0.1918
 7303SOL    HW133545   3.010   4.156   8.671 -1.2109  0.3169 -1.1070
 7303SOL    HW233546   2.910   4.190   8.778  1.7541  0.8215  0.8375
 7304SOL     OW33547   3.287   0.129   2.535  0.1905  0.1861 -0.1547
 7304SOL    HW133548   3.295   0.050   2.483 -0.3969 -0.9423  1.4730
 7304SOL    HW233549   3.381   0.146   2.541  0.1928  0.2426 -0.3876
 7305SOL     OW33550   0.042   4.578   1.868  0.0573  0.0144 -0.3246
 7305SOL    HW133551   0.056   4.542   1.780  2.6926 -1.3662  0.6644
 7305SOL    HW233552   0.120   4.542   1.910 -0.1416  0.8681  0.7829
 7306SOL     OW33553   1.833   1.080   8.637 -0.1394 -0.2484  0.1826
 7306SOL    HW133554   1.743   1.112   8.643  0.3394  1.0303  0.5833
 7306SOL    HW233555   1.886   1.157   8.658 -0.2709  0.0496 -0.5593
 7307SOL     OW33556   4.319   0.399   3.349  0.3315 -0.3284 -0.6676
 7307SOL    HW133557   4.382   0.442   3.291 -0.7400  1.2806 -0.6644
 7307SOL    HW233558   4.363   0.370   3.428  0.4368  1.0182 -0.2245
 7308SOL     OW33559   0.986   0.688   6.267 -0.0504 -0.2044  0.3967
 7308SOL    HW133560   0.917   0.733   6.316 -1.1658 -2.2648  0.7230
 7308SOL    HW233561   1.025   0.632   6.333 -1.8034 -0.2701  1.3767
 7309SOL     OW33562   0.526   1.585  16.729  0.0200 -0.3739  0.7429
 7309SOL    HW133563   0.448   1.640  16.740  0.2502 -0.3286  2.1307
 7309SOL    HW233564   0.494   1.552  16.645  1.6753  0.0810 -0.0695
 7310SOL     OW33565   1.306   4.276   7.254  0.2184  0.3240 -0.2275
 7310SOL    HW133566   1.212   4.265   7.240  0.6426 -0.9906 -2.0856
 7310SOL    HW233567   1.333   4.211   7.189 -2.3141 -0.9282  0.0047
 7311SOL     OW33568   3.243   2.079   6.870  0.3289  0.1235  0.0490
 7311SOL    HW133569   3.295   2.080   6.950 -0.4924  2.0791  0.5602
 7311SOL    HW233570   3.216   2.171   6.873  1.9963  0.7205 -3.5522
 7312SOL     OW33571   2.371   0.733   7.318 -0.1680  0.1068 -0.1420
 7312SOL    HW133572   2.292   0.738   7.372  0.0255  2.0241 -0.0524
 7312SOL    HW233573   2.406   0.647   7.340  1.8526  0.1223 -3.2033
 7313SOL     OW33574   2.298   3.686   5.976 -0.7122  0.0669  0.1857
 7313SOL    HW133575   2.391   3.662   5.972 -0.8166 -0.4227  0.6077
 7313SOL    HW233576   2.263   3.635   5.903 -1.3126 -1.1480  1.3147
 7314SOL     OW33577   0.493   0.821   0.557  0.2918 -0.1324 -0.1657
 7314SOL    HW133578   0.554   0.895   0.560  1.0255 -0.6629 -1.8123
 7314SOL    HW233579   0.537   0.751   0.606  1.2017 -0.9000 -2.0857
 7315SOL     OW33580   1.181   3.217   6.244 -0.3456  0.5148 -0.1072
 7315SOL    HW133581   1.264   3.234   6.198 -1.5301  1.8717 -1.7388
 7315SOL    HW233582   1.133   3.295   6.217 -0.1669  0.3990 -0.7724
 7316SOL     OW33583   2.491   4.033   0.388  0.0283 -0.3703 -0.8224
 7316SOL    HW133584   2.568   4.071   0.430 -0.0813 -1.4402  0.3460
 7316SOL    HW233585   2.531   4.013   0.304  1.5719  0.4554 -0.2761
 7317SOL     OW33586   4.166   4.451   6.326 -0.3695 -0.4650  0.4002
 7317SOL    HW133587   4.220   4.375   6.348 -2.2576 -2.0147 -0.3246
 7317SOL    HW233588   4.209   4.483   6.247  0.4184  1.3106  1.5334
 7318SOL     OW33589   4.620   1.556   9.071  0.2911 -0.5062 -0.6833
 7318SOL    HW133590   4.587   1.546   9.160  0.0356  2.9502 -0.3943
 7318SOL    HW233591   4.542   1.546   9.017 -0.8548  0.5577  0.7701
 7319SOL     OW33592   0.080   2.679   2.119  0.0662  0.1049 -0.3662
 7319SOL    HW133593   0.065   2.725   2.036  2.5026  0.2082 -0.7513
 7319SOL    HW233594   0.175   2.679   2.135 -0.0232 -2.1350  0.2792
 7320SOL     OW33595   1.436   1.696   1.582  0.6356  0.4666  0.4929
 7320SOL    HW133596   1.477   1.778   1.553 -0.0267  0.5412 -0.2276
 7320SOL    HW233597   1.514   1.641   1.566  1.0424  1.2520 -0.2301
 7321SOL     OW33598   1.239   2.705  17.602 -0.2615 -0.4454 -0.0786
 7321SOL    HW133599   1.330   2.680  17.592  0.1500  0.1124  2.1120
 7321SOL    HW233600   1.199   2.682  17.518  3.5041  0.3708 -2.0797
 7322SOL     OW33601   3.858   1.529   3.765 -0.0419  0.7625  0.1632
 7322SOL    HW133602   3.834   1.445   3.803 -0.1518  0.0806 -1.4210
 7322SOL    HW233603   3.781   1.580   3.790 -0.5449 -0.9230  2.0278
 7323SOL     OW33604   0.874   2.098   3.066  0.4576 -0.0467  0.5664
 7323SOL    HW133605   0.911   2.178   3.104  1.0973  0.2168 -0.6118
 7323SOL    HW233606   0.935   2.032   3.098 -0.6388 -1.7013 -0.8230
 7324SOL     OW33607   1.768   2.551  12.229  0.4094  0.5629 -0.4482
 7324SOL    HW133608   1.697   2.488  12.215  0.3261  0.5254  0.1636
 7324SOL    HW233609   1.823   2.492  12.281 -0.0256  0.2729 -0.3103
 7325SOL     OW33610   0.764   0.896  15.066 -0.0208  0.4444 -0.6431
 7325SOL    HW133611   0.812   0.871  15.145 -1.2454 -0.5119 -0.1986
 7325SOL    HW233612   0.818   0.863  14.995  2.5903 -1.5935  2.2820
 7326SOL     OW33613   4.128   0.191   3.324  0.0679  0.1867  0.0333
 7326SOL    HW133614   4.163   0.129   3.387  1.4501  0.4500 -0.4761
 7326SOL    HW233615   4.189   0.262   3.348  0.1673 -0.1616  0.8228
 7327SOL     OW33616   0.605   2.836   7.107  0.5143 -0.4007  0.1579
 7327SOL    HW133617   0.622   2.930   7.101 -1.6472  0.0168  0.4786
 7327SOL    HW233618   0.572   2.829   7.017  0.5803  0.8003  0.0401
 7328SOL     OW33619   0.677   4.157   3.552 -0.1166 -0.5797  0.2127
 7328SOL    HW133620   0.669   4.129   3.461 -0.2455 -0.0592  0.0612
 7328SOL    HW233621   0.585   4.171   3.575 -0.3224  0.7636 -1.4602
 7329SOL     OW33622   1.777   0.779   0.516  0.5207 -0.5869 -0.0852
 7329SOL    HW133623   1.863   0.799   0.553  0.0257 -0.5014  1.0309
 7329SOL    HW233624   1.803   0.719   0.446  2.1865  0.4713 -0.3626
 7330SOL     OW33625   0.089   1.664   0.549 -0.2273  0.0498  0.1735
 7330SOL    HW133626   0.184   1.664   0.545 -0.2758 -2.9790 -0.4786
 7330SOL    HW233627   0.074   1.720   0.473 -2.3166  1.9144  1.9029
 7331SOL     OW33628   2.812   1.059  10.378  0.5994 -0.5469  0.5581
 7331SOL    HW133629   2.775   1.130  10.431 -0.1766 -0.4163 -0.1574
 7331SOL    HW233630   2.813   1.092  10.288  1.8477  0.3007  0.8772
 7332SOL     OW33631   2.722   1.447   7.554 -0.3889  0.4796 -0.0105
 7332SOL    HW133632   2.708   1.410   7.641 -1.6054  1.3770  0.1605
 7332SOL    HW233633   2.798   1.396   7.523  0.0849 -0.6381  3.0097
 7333SOL     OW33634   0.601   3.767  13.707  0.4442 -0.0706  0.8610
 7333SOL    HW133635   0.571   3.751  13.617  0.2210  2.0813  0.5468
 7333SOL    HW233636   0.523   3.732  13.750 -0.0323  0.5036  0.4760
 7334SOL     OW33637   4.006   4.446   5.395  0.5826  0.2889 -0.2952
 7334SOL    HW133638   4.049   4.508   5.453 -3.2711  1.4037  1.3600
 7334SOL    HW233639   4.087   4.406   5.363  0.1734  0.2057 -1.2258
 7335SOL     OW33640   2.106   3.395  12.619 -0.0603  0.1700 -0.1675
 7335SOL    HW133641   2.107   3.491  12.614  1.1820  0.1807  0.3918
 7335SOL    HW233642   2.049   3.369  12.546 -0.0643  0.2136 -0.1803
 7336SOL     OW33643   2.073   1.108   4.606 -0.2453 -0.6591 -0.1921
 7336SOL    HW133644   2.152   1.060   4.580 -0.5479 -1.8438  1.0667
 7336SOL    HW233645   2.015   1.041   4.642  2.2480 -1.9739  1.3694
 7337SOL     OW33646   2.684   4.107   5.831  0.4517 -0.0077 -0.4865
 7337SOL    HW133647   2.688   4.202   5.835  0.4623  0.0416 -1.9924
 7337SOL    HW233648   2.774   4.092   5.861  0.6892 -2.2662 -2.3347
 7338SOL     OW33649   1.891   0.740   1.913 -0.2163 -0.2956  0.1325
 7338SOL    HW133650   1.898   0.807   1.981  2.4724  0.3478 -0.7765
 7338SOL    HW233651   1.864   0.667   1.969  1.4963  0.0059  1.3549
 7339SOL     OW33652   2.521   3.218   5.688  1.0589 -0.0378  0.1855
 7339SOL    HW133653   2.453   3.275   5.652  0.5512  2.0282  4.4252
 7339SOL    HW233654   2.596   3.274   5.668  0.4324  0.2633 -1.3192
 7340SOL     OW33655   4.606   0.632   6.376 -0.5332 -0.2051 -0.2770
 7340SOL    HW133656   4.668   0.598   6.311 -2.7229 -0.0894 -2.4353
 7340SOL    HW233657   4.558   0.550   6.391 -0.2369 -0.1577  0.8879
 7341SOL     OW33658   2.134   3.655   0.525  0.3836  0.7900  0.5996
 7341SOL    HW133659   2.209   3.709   0.499  1.1678 -1.5669 -2.0991
 7341SOL    HW233660   2.182   3.594   0.581  0.2546 -0.6245 -0.8261
 7342SOL     OW33661   2.097   2.956  10.622  0.2711 -0.0594  0.0909
 7342SOL    HW133662   2.115   3.044  10.655 -0.6779  0.3430 -0.4789
 7342SOL    HW233663   2.182   2.914  10.638  0.7324  0.0792 -1.9142
 7343SOL     OW33664   1.065   0.972   6.413  0.2977 -0.1299 -0.0750
 7343SOL    HW133665   1.049   0.974   6.318  1.7016 -1.3123 -0.3458
 7343SOL    HW233666   0.983   1.015   6.434 -0.5535 -1.6719 -0.2822
 7344SOL     OW33667   2.865   3.146   9.846  0.1709 -0.3857 -0.9253
 7344SOL    HW133668   2.856   3.215   9.781 -0.4498 -2.8009 -3.3963
 7344SOL    HW233669   2.892   3.074   9.789 -2.4239 -0.8735 -1.5419
 7345SOL     OW33670   0.897   3.899   3.937  0.1330 -0.4464  0.6863
 7345SOL    HW133671   0.873   3.990   3.954 -1.7417 -0.4014 -2.1562
 7345SOL    HW233672   0.833   3.868   3.872 -0.5629  1.1166  0.6372
 7346SOL     OW33673   4.011   4.171   0.732 -0.1721 -0.6046 -0.2513
 7346SOL    HW133674   3.944   4.117   0.689  0.5251 -1.6343 -0.0353
 7346SOL    HW233675   3.965   4.254   0.748 -0.7349 -0.9444 -0.1126
 7347SOL     OW33676   0.978   0.804  15.231  0.1171  0.0268 -0.0885
 7347SOL    HW133677   1.016   0.717  15.248  2.5192  1.4645  1.8860
 7347SOL    HW233678   1.058   0.857  15.240 -0.5660  0.9522  0.4671
 7348SOL     OW33679   3.584   0.022   8.633 -0.3594 -0.2328 -0.1066
 7348SOL    HW133680   3.567   4.711   8.714 -1.8480  0.9908  0.2971
 7348SOL    HW233681   3.562   0.112   8.655  0.1207 -0.0907 -0.2238
 7349SOL     OW33682   0.208   2.345   7.747 -0.0838  0.0248  0.2238
 7349SOL    HW133683   0.206   2.278   7.816  2.0935  0.0157  0.2822
 7349SOL    HW233684   0.164   2.296   7.678 -3.1603  1.0959  1.3877
 7350SOL     OW33685   0.750   4.039   2.501  0.3688 -0.1091  0.3248
 7350SOL    HW133686   0.773   3.946   2.499 -0.6809 -0.3511 -0.2599
 7350SOL    HW233687   0.808   4.071   2.571  1.7555 -2.5551  0.3118
 7351SOL     OW33688   2.577   4.416   3.631 -0.2140 -0.1494 -0.6730
 7351SOL    HW133689   2.555   4.451   3.717 -2.1141  1.3442 -1.7550
 7351SOL    HW233690   2.516   4.461   3.572 -2.3107 -2.3979 -0.2507
 7352SOL     OW33691   0.310   2.394   2.859  0.6939  0.3812 -0.7091
 7352SOL    HW133692   0.327   2.321   2.918  0.5298  1.1995  0.3551
 7352SOL    HW233693   0.309   2.349   2.775  0.6539 -0.6469 -0.1511
 7353SOL     OW33694   1.815   0.809   8.540  0.9345  1.0589 -0.4254
 7353SOL    HW133695   1.900   0.771   8.518  1.9565  2.5676  0.8440
 7353SOL    HW233696   1.841   0.894   8.576  2.1673 -0.0446  1.3201
 7354SOL     OW33697   3.258   1.901   4.965 -0.1496  0.4462 -0.2552
 7354SOL    HW133698   3.331   1.839   4.971  0.6879  1.5442  0.9024
 7354SOL    HW233699   3.303   1.985   4.972 -0.8670  0.6484  1.8207
 7355SOL     OW33700   2.995   4.669  12.666  0.6492 -0.0649  0.3400
 7355SOL    HW133701   3.029   4.685  12.578 -1.5939  1.3135 -0.2674
 7355SOL    HW233702   3.046   4.590  12.683  2.2158  1.5799  3.3363
 7356SOL     OW33703   2.734   2.292   8.336 -0.1036 -0.6329  0.2206
 7356SOL    HW133704   2.820   2.333   8.350  0.2371 -0.8542 -1.2548
 7356SOL    HW233705   2.724   2.273   8.243 -3.8873  0.9270  0.3092
 7357SOL     OW33706   1.850   3.778   3.008 -0.3211  0.0726  0.0059
 7357SOL    HW133707   1.925   3.764   2.950 -0.9401  2.1260 -1.2987
 7357SOL    HW233708   1.846   3.871   3.027  0.9070  0.6495 -2.4933
 7358SOL     OW33709   1.606   2.554   4.174  0.4424 -0.3644  0.5781
 7358SOL    HW133710   1.643   2.600   4.249  0.4674 -0.0436  0.3705
 7358SOL    HW233711   1.533   2.499   4.202 -0.6018  0.6894 -0.0772
 7359SOL     OW33712   0.574   2.687  12.124 -0.4469  0.1091  0.1700
 7359SOL    HW133713   0.563   2.603  12.168  0.3111  0.5822  1.2634
 7359SOL    HW233714   0.669   2.686  12.112 -0.2846  1.0566  1.3706
 7360SOL     OW33715   0.917   2.062   0.989  0.0795  0.0904  0.6488
 7360SOL    HW133716   0.933   2.155   1.008 -0.9140  0.0641  1.5684
 7360SOL    HW233717   0.998   2.024   1.022  1.3999  3.3459  1.2419
 7361SOL     OW33718   0.995   2.265   1.180  0.1017 -0.6278 -0.3604
 7361SOL    HW133719   1.088   2.275   1.200  0.1833 -2.4163  0.1821
 7361SOL    HW233720   0.968   2.249   1.270 -0.1237  1.1721 -0.1222
 7362SOL     OW33721   0.452   0.333  17.179  0.0660  0.0625 -0.7176
 7362SOL    HW133722   0.519   0.399  17.199 -0.3029 -0.3869  2.0484
 7362SOL    HW233723   0.373   0.381  17.203  0.6506  0.3335  0.7298
 7363SOL     OW33724   3.468   2.783   6.392 -0.0863  0.4449 -0.0855
 7363SOL    HW133725   3.387   2.760   6.437  0.1465 -1.6492 -0.7674
 7363SOL    HW233726   3.530   2.804   6.462  2.3118  0.7644 -2.3070
 7364SOL     OW33727   2.626   4.592  11.171  0.3825  0.4097 -0.3953
 7364SOL    HW133728   2.614   4.544  11.253  0.3831 -3.0904 -2.4469
 7364SOL    HW233729   2.541   4.635  11.162  1.4961  2.5192 -0.6551
 7365SOL     OW33730   3.325   0.147   0.808 -0.1386 -0.1230 -0.5090
 7365SOL    HW133731   3.292   0.232   0.837 -4.0102 -1.3535 -1.2295
 7365SOL    HW233732   3.272   0.135   0.729 -1.2216  1.5935 -0.0477
 7366SOL     OW33733   0.139   3.287   2.763  0.5160 -0.3909 -0.2481
 7366SOL    HW133734   0.143   3.218   2.830  1.1421 -1.2530 -1.1763
 7366SOL    HW233735   0.148   3.234   2.685  0.2676 -2.3681  1.0611
 7367SOL     OW33736   3.883   2.126   5.009  0.0800 -0.3656  0.1809
 7367SOL    HW133737   3.978   2.127   5.025 -0.3008 -0.2818  2.5279
 7367SOL    HW233738   3.861   2.208   4.966 -0.3219  0.1309  1.3527
 7368SOL     OW33739   1.942   0.127  17.454 -0.7994  0.7116 -0.1070
 7368SOL    HW133740   1.860   0.168  17.483  0.0587  1.6787  0.9580
 7368SOL    HW233741   1.937   0.039  17.492  1.2578  0.3500 -0.6743
 7369SOL     OW33742   4.235   3.856   3.438  0.1672  0.0969  0.7235
 7369SOL    HW133743   4.205   3.807   3.361 -0.6244 -1.4404  2.0024
 7369SOL    HW233744   4.247   3.783   3.499  0.3843  0.1543  0.7477
 7370SOL     OW33745   4.478   4.000   4.973 -0.6603  0.6249 -0.4465
 7370SOL    HW133746   4.571   3.991   4.995 -0.9821  1.2618  1.1476
 7370SOL    HW233747   4.445   3.913   4.996  2.2962  0.3781  2.9189
 7371SOL     OW33748   0.060   3.826  17.675 -0.5277  0.1875  0.0655
 7371SOL    HW133749   0.139   3.799  17.628  0.9539  1.1240  2.0320
 7371SOL    HW233750   0.038   3.909  17.633  2.4088  0.2091 -1.4468
 7372SOL     OW33751   0.696   4.322  12.652  0.4319 -0.7349 -0.3841
 7372SOL    HW133752   0.707   4.340  12.745  1.2009  0.2248 -0.6615
 7372SOL    HW233753   0.776   4.272  12.634  1.3460  0.6757 -0.2346
 7373SOL     OW33754   0.336   2.649   2.103 -0.2579 -0.2424  0.3830
 7373SOL    HW133755   0.421   2.689   2.086  0.9965 -2.1558  2.1555
 7373SOL    HW233756   0.369   2.561   2.119  0.1595 -0.0717  0.4515
 7374SOL     OW33757   1.946   2.626   6.719  0.4863  0.2794 -0.4080
 7374SOL    HW133758   1.922   2.642   6.627  2.4063  0.1012 -0.9424
 7374SOL    HW233759   1.957   2.531   6.721 -0.9431  0.1513  0.8003
 7375SOL     OW33760   3.210   0.809   7.013  0.3280  0.3779 -0.0155
 7375SOL    HW133761   3.290   0.831   7.062 -0.2159 -0.2494  1.1574
 7375SOL    HW233762   3.167   0.888   6.981 -1.4339 -1.4600 -2.0683
 7376SOL     OW33763   1.967   4.443   5.540 -0.3863  0.1888 -0.2044
 7376SOL    HW133764   1.874   4.462   5.536 -0.8012 -1.3056  2.3898
 7376SOL    HW233765   2.001   4.530   5.559 -0.5111  0.1247  0.2972
 7377SOL     OW33766   2.242   3.298   2.200  0.1960 -0.4484 -0.3384
 7377SOL    HW133767   2.160   3.261   2.166  0.0856 -0.3744 -0.1520
 7377SOL    HW233768   2.216   3.387   2.222 -2.3624 -1.4043  0.5000
 7378SOL     OW33769   4.443   0.857   6.442  0.0744  0.4907 -0.9273
 7378SOL    HW133770   4.505   0.792   6.410  0.6415  1.1812 -1.2338
 7378SOL    HW233771   4.372   0.849   6.379 -1.8427  0.4686  1.2167
 7379SOL     OW33772   0.116   1.382   9.026  0.1018  0.1481  0.2253
 7379SOL    HW133773   0.035   1.422   8.993  1.3231  0.6145 -2.2438
 7379SOL    HW233774   0.151   1.466   9.057 -1.8751  1.2612 -0.5399
 7380SOL     OW33775   1.932   0.670   2.641  0.1588 -0.0327  0.3572
 7380SOL    HW133776   2.013   0.633   2.607  0.2409 -0.4858  1.0404
 7380SOL    HW233777   1.964   0.719   2.717 -1.5749  0.5367  0.7164
 7381SOL     OW33778   1.350   2.968   4.983  0.1796  0.3548  0.1044
 7381SOL    HW133779   1.295   2.950   4.906  0.5830  1.4229 -0.4392
 7381SOL    HW233780   1.282   2.957   5.049 -1.8752 -1.4398 -2.3163
 7382SOL     OW33781   2.510   4.462  10.734  0.2432  0.4650 -0.4802
 7382SOL    HW133782   2.521   4.381  10.785 -1.5549  0.4616 -0.0929
 7382SOL    HW233783   2.516   4.524  10.807 -2.7780  0.1620  0.0261
 7383SOL     OW33784   1.665   1.191   7.173 -0.1387 -0.2503  0.1601
 7383SOL    HW133785   1.675   1.205   7.079 -1.2051  0.3767  0.1506
 7383SOL    HW233786   1.677   1.097   7.188  1.0472 -0.4675 -2.1981
 7384SOL     OW33787   1.783   2.881   2.006 -0.4929 -0.3408  0.2906
 7384SOL    HW133788   1.861   2.889   2.059  1.2919 -1.0109 -2.2359
 7384SOL    HW233789   1.801   2.800   1.958 -0.2523  0.9960 -1.8756
 7385SOL     OW33790   3.536   3.828   6.057  0.0588 -0.3398 -0.1440
 7385SOL    HW133791   3.608   3.887   6.035  0.8205 -0.9537  0.6960
 7385SOL    HW233792   3.542   3.819   6.152 -3.1859  0.8957  0.1532
 7386SOL     OW33793   4.677   2.049   8.981  0.0270 -0.0681 -0.7815
 7386SOL    HW133794   0.003   1.979   8.959 -0.9303 -0.5897 -1.7980
 7386SOL    HW233795   4.660   2.023   9.071 -0.3398  0.2905 -0.7493
 7387SOL     OW33796   3.107   1.083   4.481 -0.3471 -0.1368 -0.3520
 7387SOL    HW133797   3.168   1.055   4.549  1.1191  1.3876 -1.0297
 7387SOL    HW233798   3.127   1.176   4.473  1.0183 -0.4407 -0.5748
 7388SOL     OW33799   4.304   2.958   2.991  0.2734 -0.4788  0.6436
 7388SOL    HW133800   4.385   2.984   2.947 -0.4730  0.3035 -0.2723
 7388SOL    HW233801   4.333   2.880   3.039  0.4740 -0.8996 -0.1632
 7389SOL     OW33802   1.226   0.036   3.842 -0.3301 -0.0275 -0.3874
 7389SOL    HW133803   1.319   0.026   3.861 -0.3595 -0.7501 -0.6423
 7389SOL    HW233804   1.193   0.084   3.918  0.2226 -2.7091  1.5578
 7390SOL     OW33805   2.307   1.903   8.532  0.2565  0.0444  0.1250
 7390SOL    HW133806   2.250   1.826   8.538 -1.0505  0.7618 -2.9414
 7390SOL    HW233807   2.335   1.914   8.623  0.6301  1.6597 -0.1994
 7391SOL     OW33808   3.585   3.131   0.825 -0.3617 -0.1356 -0.4552
 7391SOL    HW133809   3.626   3.160   0.743 -0.5253  2.2647  0.3199
 7391SOL    HW233810   3.667   3.123   0.873 -0.1958 -2.3844 -1.1297
 7392SOL     OW33811   3.797   1.319   3.918 -0.1901 -0.1295  0.1015
 7392SOL    HW133812   3.813   1.239   3.867  0.3992 -0.0677  0.1931
 7392SOL    HW233813   3.771   1.273   3.998 -0.0689  0.5794  0.5439
 7393SOL     OW33814   3.308   0.933   4.610  0.6587  0.2724  0.0140
 7393SOL    HW133815   3.287   0.855   4.663 -0.1432  2.5836  3.1089
 7393SOL    HW233816   3.376   0.894   4.556  1.2277  0.3440  0.6853
 7394SOL     OW33817   0.242   3.309   6.649 -0.1205 -0.3733 -0.1302
 7394SOL    HW133818   0.213   3.372   6.716  1.2704 -0.1395  0.2388
 7394SOL    HW233819   0.261   3.375   6.582 -1.6868 -1.1904 -1.3823
 7395SOL     OW33820   0.684   3.500   3.590 -0.0298 -0.8024  0.2031
 7395SOL    HW133821   0.713   3.431   3.531 -3.1533 -2.1681  0.2437
 7395SOL    HW233822   0.672   3.572   3.528  0.6868  0.8069  1.9105
 7396SOL     OW33823   0.146   0.646   8.074 -0.4044  0.3859  0.0281
 7396SOL    HW133824   0.119   0.730   8.110 -0.2232  0.4670 -0.0231
 7396SOL    HW233825   0.133   0.595   8.154 -2.2732  0.6621 -0.1035
 7397SOL     OW33826   0.372   1.188  15.080  0.4267 -0.2328 -0.3718
 7397SOL    HW133827   0.332   1.261  15.127  1.5395  0.6981 -0.8653
 7397SOL    HW233828   0.328   1.210  14.998  3.4328 -0.3561 -2.0340
 7398SOL     OW33829   0.506   4.205   4.246 -0.8886 -0.8519 -0.1003
 7398SOL    HW133830   0.481   4.141   4.179  1.2024  0.7811 -2.4099
 7398SOL    HW233831   0.499   4.147   4.321 -0.9671  0.2882  0.7711
 7399SOL     OW33832   1.350   2.167   4.563  0.0308 -0.4893 -0.1506
 7399SOL    HW133833   1.285   2.238   4.565 -2.6144 -2.8748 -0.9105
 7399SOL    HW233834   1.303   2.086   4.584  0.0114 -0.1659  1.0016
 7400SOL     OW33835   2.989   1.507  13.038  0.7315 -0.2831  0.3790
 7400SOL    HW133836   2.994   1.485  13.131 -1.9061  1.2098  0.8890
 7400SOL    HW233837   3.017   1.424  12.999 -0.8302  0.1600 -1.6611
 7401SOL     OW33838   1.451   2.273   7.509  0.4313 -0.1100 -0.1886
 7401SOL    HW133839   1.363   2.245   7.483  1.2398 -0.9977 -1.9595
 7401SOL    HW233840   1.507   2.213   7.461  0.2918  0.0944 -0.6074
 7402SOL     OW33841   3.555   2.681   3.928 -0.3620  0.0071 -0.3487
 7402SOL    HW133842   3.564   2.684   3.833 -0.0201 -0.0473 -0.3172
 7402SOL    HW233843   3.506   2.758   3.957 -0.3490  0.3540 -1.2703
 7403SOL     OW33844   1.683   0.228  10.623 -0.4146 -0.2356  0.4096
 7403SOL    HW133845   1.710   0.195  10.537 -1.1708  0.6007 -0.1473
 7403SOL    HW233846   1.765   0.250  10.667 -0.1149 -0.7099  0.0879
 7404SOL     OW33847   2.291   3.667   5.395  0.5106  0.0769  0.4482
 7404SOL    HW133848   2.261   3.631   5.312  0.3705  1.2611 -0.0197
 7404SOL    HW233849   2.249   3.753   5.387  1.9615  0.9428  2.0774
 7405SOL     OW33850   1.603   2.468   6.996  0.1984 -0.5145  0.5676
 7405SOL    HW133851   1.513   2.500   7.001  0.0233 -0.8270 -0.5795
 7405SOL    HW233852   1.588   2.387   7.045  0.6555  0.4544  2.2782
 7406SOL     OW33853   3.382   4.396  11.109 -0.0060 -0.1329  0.5131
 7406SOL    HW133854   3.366   4.465  11.045 -0.9473 -0.4541  0.4015
 7406SOL    HW233855   3.403   4.440  11.191  0.8764 -1.5581  1.0467
 7407SOL     OW33856   2.825   0.626   7.908  0.5681 -0.2214  0.4374
 7407SOL    HW133857   2.851   0.534   7.899  0.6372 -0.0454 -1.2850
 7407SOL    HW233858   2.809   0.639   7.814 -0.3553  1.0684  0.7788
 7408SOL     OW33859   3.609   4.115   0.804  0.0844  0.8419 -0.6087
 7408SOL    HW133860   3.531   4.065   0.828  2.5382 -1.5151  2.4611
 7408SOL    HW233861   3.582   4.206   0.814  0.0537  0.9321 -1.5105
 7409SOL     OW33862   2.328   0.367   1.852  0.1563 -0.1822 -0.3841
 7409SOL    HW133863   2.283   0.332   1.775  0.1791 -0.7182 -0.1584
 7409SOL    HW233864   2.266   0.427   1.893 -0.6286 -1.3702  0.1714
 7410SOL     OW33865   1.790   3.646   2.421 -0.4650 -0.1757 -0.0741
 7410SOL    HW133866   1.743   3.574   2.463 -1.3972 -0.2587 -1.2848
 7410SOL    HW233867   1.720   3.709   2.406 -0.0476  0.2100 -0.3962
 7411SOL     OW33868   0.339   0.475  10.598 -0.3847 -0.2219  0.2567
 7411SOL    HW133869   0.309   0.550  10.650  2.1298  1.0549 -0.1207
 7411SOL    HW233870   0.413   0.453  10.654  0.0830  1.2775  0.2406
 7412SOL     OW33871   1.101   1.334  16.508 -0.2740 -0.0989 -0.4773
 7412SOL    HW133872   1.155   1.412  16.498  0.7492 -1.2119 -3.6380
 7412SOL    HW233873   1.097   1.301  16.418 -1.7381  0.7311 -0.7073
 7413SOL     OW33874   4.193   1.498   8.603 -0.1173  0.1153  0.1700
 7413SOL    HW133875   4.214   1.591   8.613 -1.7697  0.5260 -0.3167
 7413SOL    HW233876   4.180   1.479   8.696  0.1888 -2.1933 -0.2593
 7414SOL     OW33877   0.618   2.106   3.021  0.1298 -0.4444 -0.1047
 7414SOL    HW133878   0.714   2.106   3.019  0.1599 -0.1746  1.3890
 7414SOL    HW233879   0.608   2.028   3.076  2.0632  0.3470  1.3722
 7415SOL     OW33880   4.566   2.027   5.510 -0.4578 -0.3010 -0.0252
 7415SOL    HW133881   4.491   1.970   5.526  1.1972 -2.6486 -0.5163
 7415SOL    HW233882   4.575   2.029   5.415 -0.4195  0.2564 -0.0072
 7416SOL     OW33883   0.468   0.320   4.077  0.1095  0.1700 -0.4560
 7416SOL    HW133884   0.479   0.226   4.093 -0.8528  0.0646 -0.3863
 7416SOL    HW233885   0.520   0.348   4.152  0.1932  0.5103 -0.6420
 7417SOL     OW33886   1.747   1.220  12.122  0.5214 -0.1298  0.0086
 7417SOL    HW133887   1.670   1.172  12.152 -0.3284 -0.0067 -1.9639
 7417SOL    HW233888   1.793   1.150  12.076  0.9832 -1.5483  2.5934
 7418SOL     OW33889   1.447   2.495   6.692  0.0066  0.1371  0.2439
 7418SOL    HW133890   1.418   2.515   6.781 -4.1505 -1.3419 -0.7814
 7418SOL    HW233891   1.362   2.457   6.670 -0.2729  1.4126 -0.8823
 7419SOL     OW33892   4.346   2.297   2.788 -0.1544  0.4383  0.0774
 7419SOL    HW133893   4.314   2.226   2.732 -1.4800  1.0512  0.0390
 7419SOL    HW233894   4.441   2.291   2.783 -0.2367 -1.2609  0.7731
 7420SOL     OW33895   1.608   1.352   3.956 -0.0177  0.4572  0.2108
 7420SOL    HW133896   1.532   1.298   3.981  0.6542 -0.7360 -0.3308
 7420SOL    HW233897   1.675   1.311   4.010  0.2896  0.1529 -0.4045
 7421SOL     OW33898   4.330   2.354   6.784  0.2211 -0.2472  0.2479
 7421SOL    HW133899   4.331   2.368   6.879  0.1640  0.2318  0.1767
 7421SOL    HW233900   4.401   2.291   6.775 -0.0979 -0.5520 -0.1089
 7422SOL     OW33901   4.412   3.729   5.074 -0.0999  0.0965 -0.2699
 7422SOL    HW133902   4.434   3.637   5.091 -2.1209  0.0600  2.0691
 7422SOL    HW233903   4.405   3.763   5.163 -0.6819  0.1637 -0.3432
 7423SOL     OW33904   4.125   1.693   3.656  0.3055 -0.2338 -0.8454
 7423SOL    HW133905   4.108   1.750   3.731 -0.6857 -0.7688 -0.6640
 7423SOL    HW233906   4.052   1.713   3.598  0.3494  2.4741  0.0115
 7424SOL     OW33907   1.546   4.065   3.223  0.1509 -0.3848 -0.1484
 7424SOL    HW133908   1.490   4.022   3.159  0.3158 -1.7832  0.6603
 7424SOL    HW233909   1.515   4.155   3.216 -1.3630 -0.7991  1.1935
 7425SOL     OW33910   0.255   2.281   5.995  0.0960  0.0556  0.2206
 7425SOL    HW133911   0.349   2.284   5.979  0.4033 -0.4107  2.0067
 7425SOL    HW233912   0.220   2.325   5.917  1.3922  0.8887  0.1064
 7426SOL     OW33913   1.010   0.154  17.174 -0.1224 -0.3536 -0.4239
 7426SOL    HW133914   1.005   0.158  17.078 -0.6219  0.4216 -0.3657
 7426SOL    HW233915   1.072   0.226  17.188 -1.1977  0.3925  0.4914
 7427SOL     OW33916   0.379   1.407  12.433  0.0195 -0.2000 -0.2265
 7427SOL    HW133917   0.452   1.367  12.482 -0.0926  0.0990  0.1852
 7427SOL    HW233918   0.308   1.344  12.443  0.8282 -0.6497  2.7045
 7428SOL     OW33919   4.031   2.356   7.153  0.1012  0.8370  0.6915
 7428SOL    HW133920   3.990   2.296   7.091  1.8294 -0.2268  0.5579
 7428SOL    HW233921   3.961   2.346   7.218  1.3693 -0.9704  1.7918
 7429SOL     OW33922   0.871   1.255   4.095  0.0912 -0.0667  0.0809
 7429SOL    HW133923   0.957   1.237   4.056  0.5116 -1.5086  1.6928
 7429SOL    HW233924   0.813   1.208   4.036 -0.9345  2.8845 -1.2742
 7430SOL     OW33925   2.047   0.407   8.091  0.3545  0.1964 -0.4213
 7430SOL    HW133926   2.135   0.435   8.066  0.1019 -0.0080 -1.5324
 7430SOL    HW233927   2.039   0.453   8.174  1.1870 -0.7739  0.2005
 7431SOL     OW33928   2.483   0.345  13.792 -0.1905 -0.0676  0.3122
 7431SOL    HW133929   2.417   0.317  13.856 -1.1530 -0.3730 -0.8029
 7431SOL    HW233930   2.433   0.366  13.713 -1.0838 -0.6994  0.7125
 7432SOL     OW33931   4.692   2.537   7.515 -0.3365 -0.0948 -0.0308
 7432SOL    HW133932   4.600   2.526   7.490  0.1713  0.7025 -2.2694
 7432SOL    HW233933   4.718   2.613   7.464 -0.3428  1.0450  1.6402
 7433SOL     OW33934   2.452   3.570   2.052 -0.4637  0.3422  0.1680
 7433SOL    HW133935   2.404   3.561   1.969 -0.0457 -0.3196 -0.0081
 7433SOL    HW233936   2.539   3.607   2.033  0.0857  0.3272  2.7339
 7434SOL     OW33937   0.745   0.645   7.691  0.1759 -0.0366  0.1835
 7434SOL    HW133938   0.758   0.680   7.604  1.2955  2.0231  1.1776
 7434SOL    HW233939   0.742   0.553   7.664  1.4313  1.0915 -3.7106
 7435SOL     OW33940   2.448   3.107   9.128  0.5135  0.2591  0.4506
 7435SOL    HW133941   2.500   3.029   9.149  0.4536  0.0972  0.0102
 7435SOL    HW233942   2.506   3.183   9.134 -0.1172  1.0488 -3.1191
 7436SOL     OW33943   4.696   2.690   3.106 -0.2753  0.3372  0.0441
 7436SOL    HW133944   0.008   2.769   3.130 -1.6559  0.9844  0.6909
 7436SOL    HW233945   4.608   2.725   3.122  0.1706  1.6719 -0.4452
 7437SOL     OW33946   4.181   2.516   5.864 -0.1619 -0.0986  0.1009
 7437SOL    HW133947   4.181   2.584   5.931  1.4912  0.7806 -0.7895
 7437SOL    HW233948   4.142   2.555   5.785  1.1977 -2.0344 -1.5497
 7438SOL     OW33949   3.651   2.877  17.098  0.0003  0.1392 -0.3256
 7438SOL    HW133950   3.580   2.874  17.162  0.3421 -1.0009  0.0129
 7438SOL    HW233951   3.591   2.870  17.024  1.4592 -0.5182 -1.4578
 7439SOL     OW33952   0.786   1.102   6.798 -0.7388 -0.1762  0.2515
 7439SOL    HW133953   0.848   1.046   6.845 -0.2859 -1.6349 -2.1183
 7439SOL    HW233954   0.730   1.137   6.867  0.8643  2.3006  0.2949
 7440SOL     OW33955   2.874   1.459   5.289 -0.0554 -0.4312  0.2848
 7440SOL    HW133956   2.878   1.554   5.277 -1.3439 -0.5417 -1.0713
 7440SOL    HW233957   2.790   1.452   5.335  0.2220 -2.5305  0.4787
 7441SOL     OW33958   2.005   3.012   5.521 -0.1083  0.8387  0.5000
 7441SOL    HW133959   2.080   3.031   5.577 -0.2141 -1.3950  1.4004
 7441SOL    HW233960   1.984   2.927   5.561  3.6126 -1.0723 -1.5789
 7442SOL     OW33961   0.642   4.475   3.487  0.0819 -0.0475  1.0307
 7442SOL    HW133962   0.670   4.408   3.549  1.7178 -0.7672 -0.4813
 7442SOL    HW233963   0.615   4.548   3.542  3.7247  1.4553  0.8774
 7443SOL     OW33964   1.325   0.013   1.915 -0.3406  0.3496 -0.1976
 7443SOL    HW133965   1.302   4.729   2.005  2.9937 -0.5602  0.4199
 7443SOL    HW233966   1.379   0.092   1.921 -1.6759  1.2526 -0.0089
 7444SOL     OW33967   2.455   1.091   3.573 -0.4222 -0.0426  0.3833
 7444SOL    HW133968   2.474   1.043   3.492 -1.6556 -0.7866  0.5319
 7444SOL    HW233969   2.487   1.178   3.551 -0.7979 -0.1199 -0.4609
 7445SOL     OW33970   3.755   3.909  10.978 -0.0336 -0.0562  0.6563
 7445SOL    HW133971   3.769   4.003  10.991  2.8214 -0.5507  1.1310
 7445SOL    HW233972   3.679   3.880  11.029 -0.8348 -1.4165 -1.3235
 7446SOL     OW33973   4.226   4.468   8.893 -0.5399 -0.0147 -0.4261
 7446SOL    HW133974   4.308   4.426   8.918 -0.3203  1.0083  0.5712
 7446SOL    HW233975   4.178   4.482   8.974 -0.0850  1.8079 -0.4791
 7447SOL     OW33976   1.183   2.363  12.761  0.0564  0.2119 -0.3495
 7447SOL    HW133977   1.215   2.441  12.806  2.3901 -0.6338 -0.5601
 7447SOL    HW233978   1.103   2.360  12.815  0.9283 -1.7006  0.8527
 7448SOL     OW33979   4.197   2.199   8.778  0.3935  0.5275  0.5929
 7448SOL    HW133980   4.166   2.285   8.748  0.8091 -0.2026 -1.9962
 7448SOL    HW233981   4.288   2.191   8.749  0.4645  0.1393  0.9306
 7449SOL     OW33982   3.716   2.355   1.424  0.2018 -0.4331  0.3114
 7449SOL    HW133983   3.720   2.269   1.381  0.3989 -0.1350 -0.2698
 7449SOL    HW233984   3.737   2.335   1.515  0.3343 -1.5729  0.0344
 7450SOL     OW33985   0.223   0.493   2.382  0.3974 -0.5787 -0.4640
 7450SOL    HW133986   0.301   0.438   2.369  1.2490  0.7361 -0.9664
 7450SOL    HW233987   0.155   0.428   2.398 -0.4287  0.1902 -0.8962
 7451SOL     OW33988   1.460   4.476  14.991  0.2911 -0.0108  0.7191
 7451SOL    HW133989   1.378   4.447  15.031  0.1092  2.8914  2.5021
 7451SOL    HW233990   1.504   4.392  14.987 -1.0921 -0.7000 -0.2892
 7452SOL     OW33991   2.335   4.426   6.962  0.1089 -0.3824  0.5201
 7452SOL    HW133992   2.365   4.517   6.965  1.9383 -1.0318  1.6933
 7452SOL    HW233993   2.354   4.410   7.054  3.6700 -2.4819 -0.5708
 7453SOL     OW33994   1.793   1.917   6.794  0.3260 -0.4298  0.5241
 7453SOL    HW133995   1.722   1.973   6.763  1.6038  0.3507 -1.0064
 7453SOL    HW233996   1.765   1.826   6.795 -0.6086 -0.1645 -0.9766
 7454SOL     OW33997   3.697   2.110   0.971 -0.7532 -0.5993  0.0579
 7454SOL    HW133998   3.706   2.085   1.063 -1.7058  1.0272  0.5936
 7454SOL    HW233999   3.664   2.200   0.976 -2.9432 -1.3418 -1.1961
 7455SOL     OW34000   3.313   0.416   2.791  0.2462  0.5145 -0.0390
 7455SOL    HW134001   3.224   0.382   2.793  0.6674 -0.7024 -1.5531
 7455SOL    HW234002   3.309   0.478   2.717  0.2576  0.9031  0.2889
 7456SOL     OW34003   1.014   0.956  10.265  0.8280  0.2917 -0.0051
 7456SOL    HW134004   1.039   1.013  10.338 -0.9900  1.6543 -0.4419
 7456SOL    HW234005   1.048   0.873  10.297 -1.3596 -0.1386  1.1920
 7457SOL     OW34006   4.584   0.730   3.993  0.0300 -0.0344  0.1067
 7457SOL    HW134007   4.493   0.725   4.023  0.1785  1.9387  0.9062
 7457SOL    HW234008   4.571   0.803   3.932  1.1177 -0.6457 -0.8394
 7458SOL     OW34009   2.861   3.704   6.583  0.3985  0.6915 -0.0520
 7458SOL    HW134010   2.859   3.749   6.498 -1.1208 -0.1773 -0.4656
 7458SOL    HW234011   2.942   3.653   6.579  2.1288  3.3639  0.1417
 7459SOL     OW34012   1.172   2.821   2.907 -0.0420  0.1717 -0.5618
 7459SOL    HW134013   1.133   2.738   2.879 -2.4630  0.8447  0.8518
 7459SOL    HW234014   1.231   2.851   2.837 -1.3269 -0.5903 -1.9645
 7460SOL     OW34015   4.227   1.192   4.192  0.4679  0.7399 -0.1337
 7460SOL    HW134016   4.177   1.180   4.111  2.7483  2.1847 -1.7426
 7460SOL    HW234017   4.159   1.185   4.258  0.1017 -1.6407 -0.7395
 7461SOL     OW34018   0.363   4.679   3.544 -0.7770 -0.1914  0.0645
 7461SOL    HW134019   0.321   0.020   3.506  0.2619  0.9020  1.1469
 7461SOL    HW234020   0.410   4.730   3.610 -1.4456  1.9927 -1.1546
 7462SOL     OW34021   3.505   3.751   4.946  0.5535  0.3730 -0.3084
 7462SOL    HW134022   3.599   3.739   4.934  0.3915 -0.2104 -0.9598
 7462SOL    HW234023   3.470   3.671   4.907  3.1191 -0.1196 -1.5867
 7463SOL     OW34024   1.439   2.332   5.883 -0.3323  0.1286 -0.3534
 7463SOL    HW134025   1.439   2.391   5.807 -1.5259 -1.4050 -1.5482
 7463SOL    HW234026   1.413   2.250   5.842  1.1403 -0.0427 -0.9576
 7464SOL     OW34027   0.764   4.363  12.087  0.5417 -0.2445 -0.1443
 7464SOL    HW134028   0.797   4.277  12.061 -0.0633 -0.3089 -0.7230
 7464SOL    HW234029   0.735   4.401  12.003 -1.1124  0.1739  0.6092
 7465SOL     OW34030   1.078   4.490   2.728  0.0031  0.0073  0.8240
 7465SOL    HW134031   1.026   4.569   2.744  0.2505 -0.1633  2.4753
 7465SOL    HW234032   1.019   4.425   2.689  0.8876 -0.2177 -0.1424
 7466SOL     OW34033   4.658   3.914  16.682  0.0755 -0.4312 -0.4941
 7466SOL    HW134034   4.704   3.976  16.739 -0.8758 -0.2160  0.0511
 7466SOL    HW234035   4.663   3.835  16.736 -0.9670  0.9396  1.6058
 7467SOL     OW34036   0.239   1.220   6.722 -0.7212  0.0362 -0.0151
 7467SOL    HW134037   0.272   1.171   6.647  0.6535 -1.8503  1.8134
 7467SOL    HW234038   0.222   1.305   6.682 -0.1278  1.1575  2.0653
 7468SOL     OW34039   1.570   2.974  10.216 -0.4541 -0.1518  0.0371
 7468SOL    HW134040   1.634   3.041  10.191 -1.1636  0.0428 -1.2332
 7468SOL    HW234041   1.511   3.012  10.280 -1.7359 -0.2424 -1.1055
 7469SOL     OW34042   0.287   1.322   2.839  0.8166  0.0215  0.5864
 7469SOL    HW134043   0.345   1.291   2.908 -0.9870 -0.3026  1.9630
 7469SOL    HW234044   0.204   1.311   2.884 -0.7333 -0.9466 -2.5018
 7470SOL     OW34045   1.872   1.564   0.986 -0.3260  0.3734 -0.5605
 7470SOL    HW134046   1.925   1.506   0.932  1.4588  0.2037  1.3809
 7470SOL    HW234047   1.810   1.501   1.024  1.5360 -0.1316  1.6430
 7471SOL     OW34048   0.098   3.461  12.540 -0.2935  0.0040  0.0971
 7471SOL    HW134049   0.019   3.513  12.522  1.1710  1.9374 -0.7888
 7471SOL    HW234050   0.064   3.385  12.493  1.1608 -1.4535  1.4331
 7472SOL     OW34051   3.903   3.620   1.378 -0.6181 -0.4636 -0.5955
 7472SOL    HW134052   3.965   3.693   1.375 -1.8719  0.7161  1.6593
 7472SOL    HW234053   3.830   3.671   1.342 -0.4884  0.5323  0.5485
 7473SOL     OW34054   1.210   0.397   4.454 -0.1484  0.3969 -0.2470
 7473SOL    HW134055   1.223   0.341   4.531 -0.9069 -0.8404 -1.0197
 7473SOL    HW234056   1.292   0.447   4.452 -0.1619  0.4194 -0.2256
 7474SOL     OW34057   1.746   0.212   5.976  0.3030  0.0763  0.3068
 7474SOL    HW134058   1.654   0.239   5.978  0.6632  1.2373  1.6023
 7474SOL    HW234059   1.759   0.223   5.882 -0.0478  0.1534  0.2667
 7475SOL     OW34060   0.760   3.059  10.646  0.3548  0.0139 -0.6300
 7475SOL    HW134061   0.706   3.091  10.718  0.1268  1.1121 -1.3016
 7475SOL    HW234062   0.747   3.112  10.568 -0.7731  0.2236 -0.2959
 7476SOL     OW34063   3.940   3.187   6.967 -0.0211 -0.5806  0.0300
 7476SOL    HW134064   3.854   3.158   6.936  1.2944 -1.6814 -2.5773
 7476SOL    HW234065   3.963   3.236   6.889  1.4132 -1.6706 -0.2211
 7477SOL     OW34066   3.147   1.107   7.231 -0.1366 -0.0320  0.1121
 7477SOL    HW134067   3.155   1.152   7.315  0.1722  0.2692 -0.0796
 7477SOL    HW234068   3.240   1.084   7.222 -0.0660 -0.6755  2.4363
 7478SOL     OW34069   1.923   2.358   6.728 -0.0894 -0.0108 -0.3082
 7478SOL    HW134070   1.967   2.304   6.663  2.4810 -1.6815  2.8021
 7478SOL    HW234071   1.832   2.330   6.721  0.0999 -1.4624  2.9074
 7479SOL     OW34072   4.390   2.929   6.992  0.3671  0.2936 -0.5521
 7479SOL    HW134073   4.386   2.835   7.013 -0.6824  0.6095  0.6991
 7479SOL    HW234074   4.297   2.944   6.980  0.1608 -1.3296 -1.0355
 7480SOL     OW34075   4.151   2.786   8.707  0.4087  0.0085  0.0214
 7480SOL    HW134076   4.081   2.741   8.659 -1.4676 -0.0059  2.8061
 7480SOL    HW234077   4.227   2.746   8.664  0.2555 -0.8316  0.5348
 7481SOL     OW34078   1.315   4.244   1.988 -0.5342 -0.1454 -0.0627
 7481SOL    HW134079   1.269   4.291   1.919 -0.3306  1.5114  0.9317
 7481SOL    HW234080   1.349   4.162   1.952 -1.8881 -1.5246  1.7652
 7482SOL     OW34081   1.986   2.015  17.471  0.6083  0.6496 -0.8559
 7482SOL    HW134082   2.030   2.028  17.555  0.3723  1.0917 -0.8050
 7482SOL    HW234083   2.051   2.040  17.404 -0.5374  1.2873 -1.7339
 7483SOL     OW34084   0.448   1.485   9.197 -0.1554 -0.4740  0.0557
 7483SOL    HW134085   0.517   1.421   9.178  0.4329  0.4469 -0.9760
 7483SOL    HW234086   0.415   1.450   9.279 -0.2777  0.5470  0.4478
 7484SOL     OW34087   0.633   3.454   3.114 -0.0550  0.2319  0.1330
 7484SOL    HW134088   0.611   3.512   3.042  0.2474  1.3730  0.9645
 7484SOL    HW234089   0.672   3.383   3.062 -0.3165  0.1965 -0.0142
 7485SOL     OW34090   0.345   2.202  12.080 -0.0941  0.6162 -0.6789
 7485SOL    HW134091   0.422   2.211  12.135  0.1242 -1.2442 -0.6702
 7485SOL    HW234092   0.306   2.287  12.101  1.0334  0.9828 -0.0936
 7486SOL     OW34093   4.050   4.521   3.682  0.3439  0.6740  0.1027
 7486SOL    HW134094   4.111   4.484   3.746 -0.8662  0.7388  1.2898
 7486SOL    HW234095   4.037   4.440   3.633  1.2424  1.4050 -1.3750
 7487SOL     OW34096   4.142   4.025  17.582  0.0318  0.1621 -0.3044
 7487SOL    HW134097   4.105   3.964  17.646 -0.6605 -0.3867 -1.2296
 7487SOL    HW234098   4.210   3.974  17.537 -1.4186 -0.0581 -2.2677
 7488SOL     OW34099   2.035   4.673  12.725  0.4171  0.1615 -0.6347
 7488SOL    HW134100   1.990   4.588  12.720  0.3047  0.1311  0.8394
 7488SOL    HW234101   2.120   4.647  12.690  0.9515 -0.2776  1.0106
 7489SOL     OW34102   4.221   1.540   4.067 -0.7801 -0.0392 -0.3602
 7489SOL    HW134103   4.150   1.520   4.127 -0.6034 -0.6770 -0.3702
 7489SOL    HW234104   4.200   1.633   4.055 -0.8648  0.0587  0.6147
 7490SOL     OW34105   0.693   2.751   1.451  0.6364 -0.0711 -0.1042
 7490SOL    HW134106   0.601   2.730   1.467  0.6706 -1.9421 -2.4834
 7490SOL    HW234107   0.688   2.781   1.361 -2.3721 -0.1059  0.0284
 7491SOL     OW34108   3.343   1.518   2.792 -0.0750  0.2576  0.1709
 7491SOL    HW134109   3.365   1.434   2.751 -0.9276 -1.1130  2.5284
 7491SOL    HW234110   3.433   1.547   2.807 -0.1490  0.3948  0.3403
 7492SOL     OW34111   4.696   0.534   1.974  0.1905 -0.0289 -0.8046
 7492SOL    HW134112   4.605   0.530   1.946 -0.5412  0.5066  1.4692
 7492SOL    HW234113   0.002   0.478   1.909  1.3434 -0.6040  0.4280
 7493SOL     OW34114   1.845   0.536   7.078 -0.0689 -0.1728  0.4574
 7493SOL    HW134115   1.861   0.507   6.988 -1.4671  0.5260 -0.0195
 7493SOL    HW234116   1.893   0.469   7.127  2.1596  1.8279  1.0298
 7494SOL     OW34117   0.471   1.789   8.069  0.0940  0.1856  0.9359
 7494SOL    HW134118   0.557   1.753   8.093  1.6691  2.0494 -1.9941
 7494SOL    HW234119   0.484   1.883   8.079 -1.2496  0.1522  3.0014
 7495SOL     OW34120   0.950   2.281  12.917 -0.2602  0.2035 -0.8379
 7495SOL    HW134121   0.868   2.309  12.875 -1.0251 -2.9847 -1.4840
 7495SOL    HW234122   0.933   2.188  12.903  0.1257 -0.0001  0.0714
 7496SOL     OW34123   1.671   2.449  17.284 -0.2455  0.9331  0.2187
 7496SOL    HW134124   1.634   2.382  17.226 -1.1171  1.2644  0.3987
 7496SOL    HW234125   1.618   2.434  17.362  2.3460 -2.8379  1.2658
 7497SOL     OW34126   1.964   1.686   4.038 -0.8484 -0.1752  0.1060
 7497SOL    HW134127   2.030   1.741   3.996  1.9135 -2.9823  0.7779
 7497SOL    HW234128   2.013   1.604   4.043 -3.1477 -1.5257  0.1935
 7498SOL     OW34129   2.970   4.151   8.265  0.2724  0.2678 -0.4626
 7498SOL    HW134130   3.045   4.124   8.317  0.8659 -2.8926 -2.9475
 7498SOL    HW234131   2.906   4.126   8.332 -0.4204  0.7954 -0.9315
 7499SOL     OW34132   4.183   3.190   5.259  0.8159  0.7182 -0.5857
 7499SOL    HW134133   4.204   3.157   5.172 -0.4044  0.4928 -0.8018
 7499SOL    HW234134   4.166   3.284   5.248 -0.9320  0.3853 -0.7579
 7500SOL     OW34135   1.881   3.022   4.597  0.3951  0.1151  0.0745
 7500SOL    HW134136   1.953   3.072   4.558 -0.9088  1.9747  0.0846
 7500SOL    HW234137   1.920   2.951   4.648 -1.1032  0.3005  1.4804
 7501SOL     OW34138   3.049   3.120   3.238 -0.8514 -0.6434 -0.0898
 7501SOL    HW134139   3.129   3.112   3.290 -1.0582 -1.0443  0.1664
 7501SOL    HW234140   3.060   3.073   3.155  0.4981  0.4170 -0.5085
 7502SOL     OW34141   1.086   3.190  12.692  0.4724  0.3573 -0.2394
 7502SOL    HW134142   1.054   3.106  12.658  1.8063 -0.3378  0.1945
 7502SOL    HW234143   1.058   3.199  12.784  3.4271  0.1779  0.6719
 7503SOL     OW34144   2.663   4.321   9.152 -0.0649 -0.3594  0.3642
 7503SOL    HW134145   2.642   4.414   9.154  1.3824 -0.0608  1.8132
 7503SOL    HW234146   2.726   4.308   9.081 -1.4297  0.2619 -0.9560
 7504SOL     OW34147   3.616   4.287   3.633  0.1065 -0.4462  0.0061
 7504SOL    HW134148   3.586   4.365   3.678 -0.2501 -0.1716 -0.7080
 7504SOL    HW234149   3.569   4.284   3.550 -0.2612  0.5186  0.1846
 7505SOL     OW34150   0.782   0.575   9.134 -0.7461 -0.3290  0.1374
 7505SOL    HW134151   0.714   0.615   9.079 -0.6597 -2.6037 -1.5973
 7505SOL    HW234152   0.782   0.627   9.214  0.2029  0.3977 -0.3459
 7506SOL     OW34153   2.362   1.927   3.756 -0.1013 -0.2630 -0.7830
 7506SOL    HW134154   2.345   2.021   3.768  0.6973 -0.4607  1.8514
 7506SOL    HW234155   2.406   1.919   3.671  1.3665 -1.1300  0.0688
 7507SOL     OW34156   2.189   1.367  17.679 -0.6917 -0.5244 -0.0787
 7507SOL    HW134157   2.244   1.291  17.700  3.6874  2.9917  1.0523
 7507SOL    HW234158   2.145   1.377   0.020  0.9191 -0.6877  0.7739
 7508SOL     OW34159   0.375   2.233   3.050 -0.4830 -0.5708  0.2308
 7508SOL    HW134160   0.449   2.180   3.020  2.0038  2.9862  0.0392
 7508SOL    HW234161   0.333   2.168   3.106  0.1818  1.9951  3.6882
 7509SOL     OW34162   3.368   4.379   5.504  0.1227  0.2015  0.3408
 7509SOL    HW134163   3.439   4.314   5.510 -2.0801 -2.3212 -0.6210
 7509SOL    HW234164   3.385   4.413   5.416  0.8261 -2.9754 -0.7818
 7510SOL     OW34165   3.355   1.850   4.194  0.4107 -0.4986  0.1545
 7510SOL    HW134166   3.369   1.756   4.185 -0.6148 -0.6410 -0.0289
 7510SOL    HW234167   3.423   1.891   4.140 -0.2574 -2.4470 -2.2109
 7511SOL     OW34168   2.659   2.713   6.991 -0.1169  0.2635 -0.9602
 7511SOL    HW134169   2.692   2.774   6.925 -1.3484  1.4927 -0.4364
 7511SOL    HW234170   2.721   2.641   6.980 -1.1966 -0.9396  0.9048
 7512SOL     OW34171   2.483   4.541   7.469 -0.6545  0.4314 -0.0612
 7512SOL    HW134172   2.512   4.605   7.534  2.6265  0.6867 -1.7490
 7512SOL    HW234173   2.389   4.554   7.465 -0.6492  0.2951 -0.6776
 7513SOL     OW34174   1.963   4.487  14.178  0.5729 -0.2931  0.2138
 7513SOL    HW134175   2.049   4.509  14.142  0.3457 -2.0007 -1.3392
 7513SOL    HW234176   1.959   4.522  14.267  2.1708  0.5188 -0.0242
 7514SOL     OW34177   4.352   1.121  14.157 -0.8418 -0.0715  0.5561
 7514SOL    HW134178   4.370   1.027  14.157 -1.4327 -0.1879 -0.6198
 7514SOL    HW234179   4.372   1.132  14.064  1.4368  1.7171  1.2546
 7515SOL     OW34180   0.431   3.469   7.996 -0.1168 -0.3187 -0.0357
 7515SOL    HW134181   0.341   3.467   8.031  0.0413  0.8098  0.4333
 7515SOL    HW234182   0.434   3.551   7.947 -3.6617 -1.9899 -3.1479
 7516SOL     OW34183   1.124   2.634   5.647  0.2098 -0.0830 -0.3028
 7516SOL    HW134184   1.085   2.720   5.665  0.9570  0.0243  0.7992
 7516SOL    HW234185   1.108   2.592   5.731  0.6126 -1.1519 -0.7535
 7517SOL     OW34186   2.806   1.177   0.645 -0.0847  0.3122  0.1055
 7517SOL    HW134187   2.874   1.221   0.696 -0.5536  0.1338  0.8844
 7517SOL    HW234188   2.763   1.258   0.617 -0.5866  0.2180  0.5939
 7518SOL     OW34189   0.886   0.043   2.420 -0.0706 -0.6808 -0.0789
 7518SOL    HW134190   0.959   0.105   2.432  0.2620 -1.1520  0.3557
 7518SOL    HW234191   0.825   0.105   2.381 -1.3623 -0.8632  1.6636
 7519SOL     OW34192   3.820   4.345   0.823  0.1686  0.0911 -0.0483
 7519SOL    HW134193   3.726   4.359   0.827  0.3795  1.1433  0.9855
 7519SOL    HW234194   3.852   4.421   0.774  1.0577 -0.5006 -0.3934
 7520SOL     OW34195   3.166   3.595  15.318 -0.6599 -0.1066  0.2854
 7520SOL    HW134196   3.140   3.672  15.368 -0.4012  2.0909 -2.9703
 7520SOL    HW234197   3.085   3.564  15.277 -2.1606  3.9114  0.2461
 7521SOL     OW34198   0.114   1.153   4.623  0.6402 -0.1407 -0.2663
 7521SOL    HW134199   0.181   1.121   4.562 -0.3789 -0.5014 -1.2108
 7521SOL    HW234200   0.105   1.242   4.588 -0.7189 -0.5361 -0.9101
 7522SOL     OW34201   4.681   4.522  16.945  0.1040 -0.1832  0.6389
 7522SOL    HW134202   4.647   4.451  16.891 -0.7581  0.4618  0.3302
 7522SOL    HW234203   0.008   4.560  16.885  0.3584 -0.5538  0.6714
 7523SOL     OW34204   4.722   2.219  16.906 -0.3220  0.0086 -0.0725
 7523SOL    HW134205   4.667   2.282  16.953  1.2363  2.0548 -0.9613
 7523SOL    HW234206   4.654   2.185  16.847  0.5373 -1.1161 -0.4240
 7524SOL     OW34207   3.680   0.896   6.601 -0.3843  0.1420 -0.0426
 7524SOL    HW134208   3.630   0.819   6.574 -0.1249  0.3659 -1.1368
 7524SOL    HW234209   3.718   0.851   6.677  1.4285  3.2314  0.8836
 7525SOL     OW34210   2.184   0.910   6.421  0.9249 -0.2131  0.7071
 7525SOL    HW134211   2.226   0.873   6.498 -3.3615 -2.5923  1.9392
 7525SOL    HW234212   2.202   0.835   6.365 -1.0138  0.8749 -1.3961
 7526SOL     OW34213   2.876   3.833   4.256  0.4796 -0.0550 -0.4423
 7526SOL    HW134214   2.959   3.810   4.297  1.2198  1.6228 -0.9844
 7526SOL    HW234215   2.821   3.756   4.275  0.2585 -0.2167 -1.7408
 7527SOL     OW34216   0.221   0.562   4.647 -0.4033  0.0572 -0.2144
 7527SOL    HW134217   0.203   0.647   4.605  0.4125  0.0418 -0.5913
 7527SOL    HW234218   0.196   0.588   4.736  1.9225  1.0309  0.1589
 7528SOL     OW34219   1.074   2.537   2.526  0.1144 -0.0442  0.3061
 7528SOL    HW134220   1.161   2.576   2.531 -0.9195  2.2872 -0.1699
 7528SOL    HW234221   1.042   2.567   2.611 -0.2915  2.3849 -0.7083
 7529SOL     OW34222   0.133   4.262   2.559  0.4561  0.1369 -0.2103
 7529SOL    HW134223   0.150   4.342   2.609 -0.1449  0.4692 -0.5410
 7529SOL    HW234224   0.217   4.259   2.514  0.6574  0.1356  0.1606
 7530SOL     OW34225   0.432   1.939   4.808  0.1008 -0.2505 -0.7559
 7530SOL    HW134226   0.416   1.965   4.899  0.8836 -1.9998 -0.1058
 7530SOL    HW234227   0.472   1.852   4.810  0.7478  0.0170 -2.0626
 7531SOL     OW34228   1.604   3.987   2.215  0.0021  0.1558 -0.5882
 7531SOL    HW134229   1.613   3.976   2.121  4.1835  1.8383 -0.3786
 7531SOL    HW234230   1.515   4.023   2.220  0.1504  0.5693 -1.0288
 7532SOL     OW34231   1.414   1.545   7.925 -0.0436 -0.1243  0.3406
 7532SOL    HW134232   1.483   1.574   7.985 -0.0403  0.0305  0.2598
 7532SOL    HW234233   1.383   1.462   7.962 -1.0015 -0.6080 -1.5548
 7533SOL     OW34234   4.387   3.031   8.712  0.5096  0.4109 -0.8671
 7533SOL    HW134235   4.378   3.050   8.806  0.8877  2.4332 -1.2475
 7533SOL    HW234236   4.474   2.994   8.727  0.5406  0.7123 -0.2826
 7534SOL     OW34237   0.230   1.157   9.997  0.2563 -0.0024 -0.1127
 7534SOL    HW134238   0.192   1.075  10.028  1.0233 -1.0589 -2.0482
 7534SOL    HW234239   0.316   1.172  10.037 -1.1094 -1.1323  3.2563
 7535SOL     OW34240   4.041   1.668   4.356 -0.5106  0.2452  0.0894
 7535SOL    HW134241   4.120   1.615   4.368 -1.6033 -1.7419 -1.5107
 7535SOL    HW234242   4.002   1.620   4.283  1.3975 -1.5767  0.2530
 7536SOL     OW34243   2.920   2.500   0.762  0.4715  0.3672 -0.2994
 7536SOL    HW134244   2.850   2.466   0.817  1.0798 -1.3115 -0.5592
 7536SOL    HW234245   2.881   2.574   0.716 -1.9263 -0.2973  0.6555
 7537SOL     OW34246   2.960   4.263   2.697  0.0383 -0.3390 -0.0805
 7537SOL    HW134247   2.968   4.259   2.602 -0.4189  0.6843 -0.1637
 7537SOL    HW234248   2.875   4.307   2.703  1.4380  2.1361  1.4518
 7538SOL     OW34249   0.175   2.551  15.034  0.2606  0.3322 -0.1457
 7538SOL    HW134250   0.090   2.519  15.005  0.8432 -0.3306 -1.1479
 7538SOL    HW234251   0.241   2.492  14.996 -1.1768 -2.3128  1.5419
 7539SOL     OW34252   4.714   4.080  17.202  0.1020  0.0534  0.2878
 7539SOL    HW134253   4.650   4.044  17.140  1.6523 -0.0001 -1.2862
 7539SOL    HW234254   4.718   4.173  17.182 -1.0842 -0.2907 -1.6470
 7540SOL     OW34255   0.801   0.426   5.104 -0.3005 -0.3021  0.2417
 7540SOL    HW134256   0.706   0.423   5.092 -0.2063  0.0373 -0.5622
 7540SOL    HW234257   0.827   0.335   5.086  0.0018 -0.2265  0.2969
 7541SOL     OW34258   4.012   1.176   1.399  0.5969  0.1384 -0.0469
 7541SOL    HW134259   3.956   1.101   1.418  1.5521 -0.3348  0.9461
 7541SOL    HW234260   4.033   1.203   1.488  0.1377 -0.2732  0.1837
 7542SOL     OW34261   1.327   1.337   3.023 -0.4496  0.2127  0.3444
 7542SOL    HW134262   1.387   1.363   3.093 -1.8484  1.5521  1.0462
 7542SOL    HW234263   1.367   1.252   3.005 -3.4888 -1.5069  1.6602
 7543SOL     OW34264   2.409   1.574  11.072  0.3861 -0.1763  0.3695
 7543SOL    HW134265   2.323   1.534  11.085 -0.4045  1.1091 -0.9280
 7543SOL    HW234266   2.463   1.528  11.136  1.8564  0.5282 -0.3665
 7544SOL     OW34267   4.632   1.079  11.552  0.1059  0.1222  0.3483
 7544SOL    HW134268   4.614   1.058  11.644  0.7729  1.1236  0.6988
 7544SOL    HW234269   4.613   0.995  11.508 -1.4008  0.7486 -0.1931
 7545SOL     OW34270   0.090   3.265   2.435  0.0959 -0.5071 -0.1902
 7545SOL    HW134271   4.731   3.273   2.442  0.0472 -1.1790 -0.1023
 7545SOL    HW234272   0.113   3.182   2.477 -0.3478 -0.5991 -0.1266
 7546SOL     OW34273   3.705   4.645   8.420 -0.5095 -0.4265  0.0054
 7546SOL    HW134274   3.639   4.667   8.487 -0.9168 -1.0970 -0.1756
 7546SOL    HW234275   3.790   4.674   8.453 -0.0900  0.7325 -2.1119
 7547SOL     OW34276   4.307   4.642   2.630  0.6958 -0.4760  0.1356
 7547SOL    HW134277   4.233   4.593   2.666 -1.2566  0.4970 -2.5524
 7547SOL    HW234278   4.268   4.726   2.654 -0.0746 -0.0897 -2.4813
 7548SOL     OW34279   4.619   3.594   7.490  0.2308 -0.3136 -0.0464
 7548SOL    HW134280   4.618   3.524   7.555 -1.5115 -2.5673 -2.4798
 7548SOL    HW234281   4.673   3.660   7.532  0.5081 -0.0118 -0.8796
 7549SOL     OW34282   2.300   0.230   6.191 -0.0048 -0.1216 -0.2401
 7549SOL    HW134283   2.365   0.162   6.175 -1.6791 -2.0988  1.2744
 7549SOL    HW234284   2.335   0.305   6.144  2.5871  0.1757  2.1869
 7550SOL     OW34285   1.993   1.900   4.871  0.5863  1.0742 -0.9834
 7550SOL    HW134286   2.005   1.806   4.858  0.0745  0.7983  0.4897
 7550SOL    HW234287   1.903   1.911   4.840 -0.0126  1.6808  0.9381
 7551SOL     OW34288   1.343   3.328  17.080  0.6494  0.1915 -0.3699
 7551SOL    HW134289   1.299   3.247  17.104  0.4479  0.7726  1.2003
 7551SOL    HW234290   1.382   3.293  16.999  1.4699  1.4351 -0.5158
 7552SOL     OW34291   4.687   1.221   9.536  0.6905 -0.0083 -0.6424
 7552SOL    HW134292   4.713   1.197   9.625  2.1862  2.1908 -0.4615
 7552SOL    HW234293   4.666   1.311   9.560 -1.8469 -0.6673 -0.3979
 7553SOL     OW34294   1.303   4.316   8.477  0.1062 -0.2393 -0.0935
 7553SOL    HW134295   1.335   4.396   8.435 -0.7685  1.7115  2.9695
 7553SOL    HW234296   1.211   4.336   8.493 -0.2604  0.3081 -3.0232
 7554SOL     OW34297   4.124   4.434   7.689 -0.1870 -0.0582 -0.6676
 7554SOL    HW134298   4.150   4.400   7.604  0.3660  0.8480 -0.8543
 7554SOL    HW234299   4.211   4.454   7.722  0.3223  0.1076 -2.1499
 7555SOL     OW34300   3.269   0.032   3.760  0.1244 -0.3821  0.1951
 7555SOL    HW134301   3.268   4.678   3.730 -1.5274  0.4156 -2.1334
 7555SOL    HW234302   3.251   0.072   3.675 -0.2872 -0.4256  0.2616
 7556SOL     OW34303   4.599   1.081  12.806 -0.4811  0.1612  0.2670
 7556SOL    HW134304   4.626   1.109  12.893  0.4375 -1.0956  0.3846
 7556SOL    HW234305   4.554   1.158  12.773 -4.1614 -1.7062  0.7887
 7557SOL     OW34306   0.827   2.956   5.466  0.4796  0.4687 -0.3209
 7557SOL    HW134307   0.813   2.901   5.544 -3.7820  1.0598 -0.6744
 7557SOL    HW234308   0.736   2.963   5.439  0.5756 -0.3017 -0.8418
 7558SOL     OW34309   1.791   1.183   0.741 -0.3911 -0.1656 -0.0872
 7558SOL    HW134310   1.706   1.178   0.698 -1.0613 -0.4954  1.2968
 7558SOL    HW234311   1.802   1.278   0.735 -2.2310  0.1157  0.8642
 7559SOL     OW34312   4.455   1.328   4.187  0.3488 -0.0993 -0.5736
 7559SOL    HW134313   4.439   1.413   4.146 -2.0576 -0.5755 -0.6002
 7559SOL    HW234314   4.375   1.284   4.159  1.0278 -1.1136 -0.9232
 7560SOL     OW34315   4.474   4.249   8.208  0.6803 -0.2972 -0.0162
 7560SOL    HW134316   4.380   4.230   8.217  0.2323  1.1968 -1.4762
 7560SOL    HW234317   4.507   4.159   8.199  3.5140  0.4860  2.6322
 7561SOL     OW34318   0.184   3.343  11.719  0.5310  0.3733  0.6663
 7561SOL    HW134319   0.195   3.263  11.770  2.4993  1.5383  2.0538
 7561SOL    HW234320   0.102   3.381  11.750  0.2357  1.3639 -1.3147
 7562SOL     OW34321   3.070   3.858  17.160  0.1117  0.7978  0.5062
 7562SOL    HW134322   2.996   3.828  17.214 -0.4442  0.1462 -0.6013
 7562SOL    HW234323   3.097   3.775  17.122 -0.6273  0.3218  1.0034
 7563SOL     OW34324   1.157   4.709   7.786  0.1546 -0.0608  0.1614
 7563SOL    HW134325   1.099   0.005   7.856 -2.2333 -3.7293 -0.1560
 7563SOL    HW234326   1.193   0.056   7.757  1.1225  0.2127  2.1227
 7564SOL     OW34327   4.623   4.646  13.033  0.1151 -0.5777 -0.0349
 7564SOL    HW134328   4.555   4.596  13.079 -0.7311 -0.3721 -1.0585
 7564SOL    HW234329   4.576   4.689  12.962  0.2623  1.4181  1.0743
 7565SOL     OW34330   0.679   1.713   8.595  0.5639  0.7175  0.0713
 7565SOL    HW134331   0.689   1.621   8.570  3.4367  1.3745 -1.2048
 7565SOL    HW234332   0.770   1.743   8.598 -0.5216  3.8610  1.1373
 7566SOL     OW34333   4.222   0.019  17.099  0.5330 -0.2999 -0.1255
 7566SOL    HW134334   4.170   4.679  17.124 -1.6765  0.8327 -1.2364
 7566SOL    HW234335   4.267   0.046  17.178 -0.2729  0.8362 -0.0697
 7567SOL     OW34336   3.565   0.313  11.605 -0.1467  0.1332 -0.1057
 7567SOL    HW134337   3.487   0.315  11.660 -1.0180  1.6359 -1.3942
 7567SOL    HW234338   3.535   0.355  11.525  0.0180 -2.9971 -1.8122
 7568SOL     OW34339   1.506   2.352   1.943  0.1709 -0.0598  0.2800
 7568SOL    HW134340   1.599   2.333   1.936 -0.0661 -1.2125  0.2277
 7568SOL    HW234341   1.503   2.439   1.981  0.2816 -0.2211  0.6541
 7569SOL     OW34342   2.791   1.061   2.890 -0.0755  0.4983  0.4627
 7569SOL    HW134343   2.873   1.095   2.928  0.2984  2.1419 -1.7523
 7569SOL    HW234344   2.732   1.135   2.904  0.6835  0.9687  1.2317
 7570SOL     OW34345   2.740   1.076   6.692  0.5146 -0.1265 -0.2564
 7570SOL    HW134346   2.740   1.095   6.785  0.6655  3.2837 -0.9785
 7570SOL    HW234347   2.825   1.034   6.677  0.8161  0.3505  0.1289
 7571SOL     OW34348   3.315   1.686   4.520  0.0232 -0.0466 -0.0913
 7571SOL    HW134349   3.373   1.759   4.544  2.0652 -1.1211 -1.8748
 7571SOL    HW234350   3.233   1.736   4.514  0.3388  0.5353  0.3940
 7572SOL     OW34351   1.131   3.870   2.482  0.8072 -0.0814  0.6341
 7572SOL    HW134352   1.183   3.792   2.500 -1.8289 -2.1725 -0.7197
 7572SOL    HW234353   1.113   3.908   2.568 -0.4152 -0.8070  0.6926
 7573SOL     OW34354   1.149   3.789   4.165  0.4645  0.7726  0.0921
 7573SOL    HW134355   1.192   3.707   4.143 -2.9735 -0.6477 -1.4263
 7573SOL    HW234356   1.084   3.796   4.095  0.6348 -2.0335 -0.3319
 7574SOL     OW34357   0.371   4.213   8.671  0.2887 -1.5666  0.7463
 7574SOL    HW134358   0.409   4.265   8.601  1.5161 -2.0871  1.0138
 7574SOL    HW234359   0.437   4.223   8.740  0.7198  1.3065 -0.0992
 7575SOL     OW34360   4.007   3.688   7.293  0.3944 -0.1866  0.2465
 7575SOL    HW134361   3.971   3.599   7.296  2.8241 -1.0741  3.0848
 7575SOL    HW234362   4.062   3.687   7.372  0.4073  1.8544  0.2638
 7576SOL     OW34363   2.569   3.232   8.519 -0.4703 -0.4702 -0.3212
 7576SOL    HW134364   2.617   3.308   8.553 -2.1603  0.0561  0.9314
 7576SOL    HW234365   2.538   3.279   8.442  0.2813  0.4540 -0.0562
 7577SOL     OW34366   2.068   2.290  16.585 -0.0531 -0.4092  0.1565
 7577SOL    HW134367   2.082   2.351  16.658 -0.8720 -0.2286  0.1589
 7577SOL    HW234368   2.036   2.213  16.632 -0.2608 -0.4465 -0.0511
 7578SOL     OW34369   3.236   1.024   5.939 -0.2981  0.5487  0.9661
 7578SOL    HW134370   3.144   1.016   5.963 -1.0283  1.7454 -1.4381
 7578SOL    HW234371   3.284   0.958   5.989 -2.7616 -3.0891 -1.3861
 7579SOL     OW34372   4.421   0.005   2.042 -0.1254  0.4248  0.2074
 7579SOL    HW134373   4.385   4.696   2.119 -3.7053 -0.5892 -2.0795
 7579SOL    HW234374   4.365   4.710   1.971 -2.5726  0.1209  2.2497
 7580SOL     OW34375   0.332   2.964   9.239  0.2349  0.2562 -0.2365
 7580SOL    HW134376   0.401   2.922   9.289 -0.0697 -0.7364 -0.6464
 7580SOL    HW234377   0.314   2.883   9.190  0.2938 -0.2707  0.6193
 7581SOL     OW34378   1.859   2.784   2.977  0.5406 -0.4639 -0.1151
 7581SOL    HW134379   1.864   2.694   2.944 -1.5054 -0.0510 -1.4712
 7581SOL    HW234380   1.847   2.773   3.072 -0.0593 -0.1850 -0.1650
 7582SOL     OW34381   1.639   4.679   6.425  0.3429 -0.1623 -0.1089
 7582SOL    HW134382   1.665   4.671   6.334 -1.1579 -1.0692 -0.4605
 7582SOL    HW234383   1.578   0.016   6.418 -0.3460 -0.8987 -1.6962
 7583SOL     OW34384   3.655   0.094  11.475 -0.2152 -0.0388  0.0299
 7583SOL    HW134385   3.652   0.171  11.532 -0.3584 -0.9303  1.2465
 7583SOL    HW234386   3.564   0.084  11.446  0.1967 -0.5836 -1.0484
 7584SOL     OW34387   3.701   3.011   8.332 -0.0093  0.7077 -0.1909
 7584SOL    HW134388   3.784   3.056   8.319  1.6226 -2.6206 -1.3779
 7584SOL    HW234389   3.659   3.039   8.250  1.3972  0.7879 -0.8791
 7585SOL     OW34390   0.361   4.267   4.592  0.3880  0.2228 -0.0114
 7585SOL    HW134391   0.393   4.186   4.554 -0.4834 -0.3415  0.4696
 7585SOL    HW234392   0.282   4.285   4.541 -0.1664  1.8147  1.4120
 7586SOL     OW34393   3.796   3.683   9.388  0.2503  0.4622  0.2858
 7586SOL    HW134394   3.777   3.710   9.477  1.7654 -1.8796  1.3269
 7586SOL    HW234395   3.784   3.767   9.345  0.7371  0.9537  1.1119
 7587SOL     OW34396   0.771   0.987  17.470 -0.5238  0.3271  0.1883
 7587SOL    HW134397   0.727   0.993  17.385  1.9406  1.2145 -1.0288
 7587SOL    HW234398   0.690   0.990  17.521  1.2891  1.9925  3.0013
 7588SOL     OW34399   3.124   1.242   4.929 -0.1195  0.2420  0.2197
 7588SOL    HW134400   3.160   1.331   4.923  0.7308 -0.0972  0.3794
 7588SOL    HW234401   3.045   1.266   4.978  0.3466 -0.1387  1.1411
 7589SOL     OW34402   0.203   0.608   4.925  0.1865 -0.0340 -0.0285
 7589SOL    HW134403   0.199   0.653   5.010  0.2528 -1.1322  0.5581
 7589SOL    HW234404   0.123   0.557   4.937 -2.4437  4.0485 -0.2897
 7590SOL     OW34405   3.667   2.806   0.143  0.0232  0.0144  0.4123
 7590SOL    HW134406   3.630   2.771   0.224 -1.4520 -1.9971 -1.1057
 7590SOL    HW234407   3.750   2.844   0.171  0.4297 -0.7875  0.3079
 7591SOL     OW34408   1.177   0.949  12.478  0.1830 -0.4591 -0.5148
 7591SOL    HW134409   1.133   0.938  12.563 -0.3902 -0.4055 -0.8033
 7591SOL    HW234410   1.266   0.946  12.514  0.1618 -0.5807 -0.4723
 7592SOL     OW34411   3.709   4.175   3.311 -0.5472  0.5006 -0.3075
 7592SOL    HW134412   3.662   4.136   3.237 -0.5913  0.7266 -0.3990
 7592SOL    HW234413   3.632   4.204   3.359  0.2810  2.4571 -0.1271
 7593SOL     OW34414   4.620   0.994   9.828 -0.5757  0.5029 -0.1003
 7593SOL    HW134415   4.598   0.946   9.749  1.1212 -0.5945  0.0827
 7593SOL    HW234416   4.693   1.048   9.797 -0.0710  0.5407  1.1286
 7594SOL     OW34417   2.022   4.715  13.811 -0.6339  0.0181  0.1712
 7594SOL    HW134418   2.053   4.649  13.750 -0.4913  0.6215 -0.4118
 7594SOL    HW234419   2.046   0.048  13.750 -1.0686 -0.0516 -0.0735
 7595SOL     OW34420   3.359   4.093  17.341  0.1830  0.5801  0.3539
 7595SOL    HW134421   3.324   4.058  17.423  0.7658  3.1108  1.6710
 7595SOL    HW234422   3.453   4.076  17.352  0.0961  0.4637  0.9034
 7596SOL     OW34423   2.141   2.836  14.211  0.0906  0.4235  0.2499
 7596SOL    HW134424   2.208   2.768  14.220 -2.0320 -1.7720 -0.7311
 7596SOL    HW234425   2.191   2.912  14.181 -2.2538  1.6417 -0.5457
 7597SOL     OW34426   1.806   4.076   6.723 -0.4408  0.3509 -0.9363
 7597SOL    HW134427   1.825   4.047   6.634  0.4921 -1.2893 -0.2062
 7597SOL    HW234428   1.890   4.106   6.757 -1.5776  2.3420  0.1540
 7598SOL     OW34429   0.162   3.142   3.001 -0.1748  0.4795 -0.0806
 7598SOL    HW134430   0.116   3.186   3.073 -0.3118  0.3716 -0.0998
 7598SOL    HW234431   0.131   3.052   3.015 -1.8824  1.1905  0.6761
 7599SOL     OW34432   1.754   1.384   2.893  0.3435 -0.4608 -0.0228
 7599SOL    HW134433   1.734   1.313   2.954 -0.0740 -0.6439 -0.3815
 7599SOL    HW234434   1.847   1.396   2.911  0.6603 -1.3780 -1.0686
 7600SOL     OW34435   4.486   4.659   2.968  0.1900 -0.1849  0.3378
 7600SOL    HW134436   4.446   4.730   2.918  1.0070 -0.7102 -1.0636
 7600SOL    HW234437   4.514   4.696   3.052 -3.3118  0.3054  1.2857
 7601SOL     OW34438   2.001   4.144  16.135  0.2425  0.2572  0.5792
 7601SOL    HW134439   1.960   4.153  16.049  3.6540  3.8616 -0.6476
 7601SOL    HW234440   2.090   4.123  16.107  0.0598 -0.8700  0.8156
 7602SOL     OW34441   3.494   3.405   4.643 -0.2192  0.8416  0.5246
 7602SOL    HW134442   3.491   3.415   4.738 -1.8485  0.4731  0.5095
 7602SOL    HW234443   3.589   3.400   4.633 -0.2937  0.6705 -0.1567
 7603SOL     OW34444   3.549   0.331   9.213  0.4432 -0.0172  0.6631
 7603SOL    HW134445   3.479   0.266   9.222 -1.0398  1.4558 -0.3075
 7603SOL    HW234446   3.517   0.415   9.247 -0.2422  0.5454 -1.4134
 7604SOL     OW34447   0.106   4.499  16.540  0.0627 -0.0872 -0.0401
 7604SOL    HW134448   0.012   4.506  16.528  0.0479 -1.1705 -0.5527
 7604SOL    HW234449   0.107   4.555  16.618 -1.1657 -0.9722  0.5971
 7605SOL     OW34450   0.508   2.650   8.066 -0.3992  0.9055  0.1283
 7605SOL    HW134451   0.559   2.731   8.071  0.8129  0.2152 -1.0003
 7605SOL    HW234452   0.584   2.591   8.060 -2.5974 -1.8084 -0.7264
 7606SOL     OW34453   0.522   4.660   8.309  0.2419  0.2796  0.5212
 7606SOL    HW134454   0.517   4.625   8.220 -1.8462 -0.9360  1.1072
 7606SOL    HW234455   0.437   4.644   8.350  0.0578 -1.8902 -0.7004
 7607SOL     OW34456   2.440   4.524   1.655 -0.7513 -0.1477  0.1002
 7607SOL    HW134457   2.369   4.523   1.719 -0.5974  0.7933  0.2782
 7607SOL    HW234458   2.435   4.444   1.602  1.6144 -0.9513  1.0953
 7608SOL     OW34459   0.632   4.163   2.285 -0.4186  0.2466 -0.1385
 7608SOL    HW134460   0.687   4.123   2.352 -0.0892  1.3947  0.2845
 7608SOL    HW234461   0.646   4.250   2.322  0.0030  0.1302 -0.0208
 7609SOL     OW34462   0.162   1.790  17.207 -0.0284 -0.5887 -0.0929
 7609SOL    HW134463   0.121   1.839  17.137  2.1537 -1.3845 -1.9355
 7609SOL    HW234464   0.250   1.786  17.169 -0.1332  0.3420 -0.4126
 7610SOL     OW34465   4.188   3.579   5.671  0.3854  0.2842  0.6731
 7610SOL    HW134466   4.262   3.637   5.688  1.8939 -1.6171  0.4998
 7610SOL    HW234467   4.131   3.609   5.743 -1.3011 -1.5757  0.1054
 7611SOL     OW34468   2.248   1.362   4.705  0.0049 -0.3915 -0.2543
 7611SOL    HW134469   2.298   1.345   4.625  3.0037 -0.2857  1.6047
 7611SOL    HW234470   2.163   1.327   4.679 -0.6235  0.8440  0.1743
 7612SOL     OW34471   4.586   0.602   4.875  0.3967 -0.0770  0.0390
 7612SOL    HW134472   4.491   0.599   4.864  0.2986 -0.6303  1.0708
 7612SOL    HW234473   4.590   0.688   4.835  1.7811 -0.0246  0.2781
 7613SOL     OW34474   1.828   2.854   5.850  0.0074 -0.5132  0.4085
 7613SOL    HW134475   1.903   2.899   5.888 -1.4252  0.2008  2.3861
 7613SOL    HW234476   1.850   2.762   5.865 -1.5959 -1.1681 -1.1601
 7614SOL     OW34477   1.843   1.624   6.052  0.1968 -0.1817 -0.0085
 7614SOL    HW134478   1.852   1.537   6.012  2.6660 -0.1360  0.4135
 7614SOL    HW234479   1.830   1.681   5.977  1.6601  0.3824  0.1646
 7615SOL     OW34480   2.470   3.991  17.647  0.2353  0.3532  0.0733
 7615SOL    HW134481   2.465   4.021  17.556 -0.6036  1.2832  0.4242
 7615SOL    HW234482   2.472   3.897  17.633  2.2214  0.2903  0.7484
 7616SOL     OW34483   3.983   4.361   8.143  0.4205 -0.1427 -0.6171
 7616SOL    HW134484   3.969   4.450   8.175 -2.2462 -0.2879 -1.3747
 7616SOL    HW234485   3.907   4.343   8.088 -1.7931 -2.7347  3.2076
 7617SOL     OW34486   1.148   2.261  11.883  0.5219  0.1233 -0.3988
 7617SOL    HW134487   1.096   2.324  11.833 -0.3676 -2.2619 -2.4620
 7617SOL    HW234488   1.209   2.311  11.937  1.3965 -0.2184 -1.0723
 7618SOL     OW34489   3.963   1.464   0.665 -0.7214 -0.3154  0.3264
 7618SOL    HW134490   3.962   1.560   0.663  2.3896 -0.3002 -1.2227
 7618SOL    HW234491   3.924   1.454   0.578  0.8033  1.1028 -0.5218
 7619SOL     OW34492   3.022   1.280   5.576  0.7461 -0.0716  0.2978
 7619SOL    HW134493   2.973   1.205   5.610 -0.2714  1.1013  1.4476
 7619SOL    HW234494   2.980   1.360   5.609  1.8100  0.4053  0.5010
 7620SOL     OW34495   2.645   1.986   4.713 -0.2648 -0.7786  0.2786
 7620SOL    HW134496   2.591   2.039   4.771  0.2859 -0.5681  0.5972
 7620SOL    HW234497   2.718   1.960   4.769  0.0440 -2.2166 -0.7857
 7621SOL     OW34498   4.125   4.068   6.505 -0.0790 -0.3940  0.5529
 7621SOL    HW134499   4.124   3.976   6.480 -1.3800 -0.2890  0.1893
 7621SOL    HW234500   4.191   4.100   6.443 -2.9616  2.8651 -0.8467
 7622SOL     OW34501   0.795   1.473   6.012 -0.3640  0.1374  0.4773
 7622SOL    HW134502   0.755   1.516   5.936 -0.7536 -3.8206 -1.5617
 7622SOL    HW234503   0.840   1.546   6.054  0.4241 -0.8865  1.4052
 7623SOL     OW34504   1.593   3.068   0.488  0.2896  0.3221 -0.2721
 7623SOL    HW134505   1.591   3.021   0.404  0.2751 -0.5421  0.2028
 7623SOL    HW234506   1.662   3.132   0.474 -0.4044  1.8792  3.5037
 7624SOL     OW34507   2.727   2.233   9.784  0.5501  0.3632 -0.1237
 7624SOL    HW134508   2.719   2.145   9.747 -1.8633 -0.0088  1.2589
 7624SOL    HW234509   2.666   2.242   9.857 -0.2783  0.0094 -0.7650
 7625SOL     OW34510   0.359   2.443  13.404 -0.3248 -0.8225 -0.0128
 7625SOL    HW134511   0.426   2.510  13.400 -0.7072 -0.3808  1.0107
 7625SOL    HW234512   0.382   2.392  13.326 -1.1717  0.6559 -1.2135
 7626SOL     OW34513   0.381   2.815  11.850  0.0417  0.8852  0.3653
 7626SOL    HW134514   0.310   2.789  11.908 -1.0618 -0.0136 -1.4107
 7626SOL    HW234515   0.417   2.731  11.822 -0.7505  0.4808  0.5616
 7627SOL     OW34516   0.269   3.920   4.852  0.3157  0.1932  0.6304
 7627SOL    HW134517   0.332   3.966   4.907  0.8998  0.7055 -0.4776
 7627SOL    HW234518   0.242   3.840   4.898  0.8312 -1.0970 -1.2673
 7628SOL     OW34519   1.269   4.178   2.840  0.2626 -0.1627  0.3424
 7628SOL    HW134520   1.188   4.175   2.891 -0.3335  1.7366 -0.4863
 7628SOL    HW234521   1.332   4.129   2.892  0.4840  0.4852  0.6828
 7629SOL     OW34522   4.040   4.629   8.146 -0.1885 -0.4282 -0.0115
 7629SOL    HW134523   4.064   4.720   8.130  1.5917 -0.3427  3.2299
 7629SOL    HW234524   4.080   4.606   8.230 -1.0833  0.3362  0.6221
 7630SOL     OW34525   2.481   2.954   6.753 -0.1138 -0.1759 -0.3059
 7630SOL    HW134526   2.555   2.973   6.810 -1.3054  0.7601  0.9386
 7630SOL    HW234527   2.415   2.975   6.819  0.0612  3.2622 -1.1947
 7631SOL     OW34528   2.841   4.218   3.288  0.2013  0.7044  0.1418
 7631SOL    HW134529   2.879   4.131   3.278  1.0679  0.8348  2.2166
 7631SOL    HW234530   2.839   4.260   3.202 -1.1895  1.1885  0.4202
 7632SOL     OW34531   2.668   0.469   1.568  0.3205 -0.3386 -0.6298
 7632SOL    HW134532   2.591   0.525   1.575  0.9662  0.3047  1.1410
 7632SOL    HW234533   2.730   0.528   1.523 -1.0787  2.2492  0.8357
 7633SOL     OW34534   3.478   2.013   5.594  0.0303 -0.1706  0.2653
 7633SOL    HW134535   3.453   2.025   5.503  2.0048  1.1449 -0.0824
 7633SOL    HW234536   3.487   1.918   5.595 -0.1119 -0.1769  1.4391
 7634SOL     OW34537   0.076   3.210  15.460 -0.0191  0.5482 -0.5983
 7634SOL    HW134538   0.041   3.145  15.521  2.0321  0.8836  0.9178
 7634SOL    HW234539   0.043   3.176  15.377  1.0784  1.1413 -1.2808
 7635SOL     OW34540   0.780   0.849   7.894 -0.4864  0.4180  0.2969
 7635SOL    HW134541   0.744   0.819   7.978 -0.4411  0.1395  0.2137
 7635SOL    HW234542   0.732   0.799   7.829  0.9608 -3.9245  2.5582
 7636SOL     OW34543   2.199   0.684   5.640  0.2157  0.0594  0.0520
 7636SOL    HW134544   2.132   0.622   5.612 -0.5697  0.2727  1.4446
 7636SOL    HW234545   2.178   0.758   5.582  1.3325  1.5281  1.5183
 7637SOL     OW34546   2.389   2.452   9.856  0.6756 -0.4710 -0.0445
 7637SOL    HW134547   2.473   2.437   9.901  1.6763  1.1720 -1.3893
 7637SOL    HW234548   2.330   2.467   9.930  1.2690  0.0391  0.3220
 7638SOL     OW34549   4.447   3.761   7.360  0.1103  0.1702 -0.1562
 7638SOL    HW134550   4.510   3.696   7.390 -1.0423 -0.7928  0.1273
 7638SOL    HW234551   4.374   3.708   7.328  2.4226 -2.8708 -0.3901
 7639SOL     OW34552   0.995   2.298  13.402  0.4892 -0.3437  0.1705
 7639SOL    HW134553   0.924   2.244  13.367 -1.3290  1.7629  0.6452
 7639SOL    HW234554   1.015   2.329  13.314 -0.3596  1.6627  0.6875
 7640SOL     OW34555   2.251   0.084  10.728  0.2411  0.1997  0.1875
 7640SOL    HW134556   2.237   0.152  10.662  0.8945 -0.2948 -0.4616
 7640SOL    HW234557   2.255   0.007  10.671  2.8008  0.2573  0.2811
 7641SOL     OW34558   0.236   1.689  16.746  0.0877 -0.0279 -0.5182
 7641SOL    HW134559   0.194   1.773  16.765  1.6038  0.2592  1.6320
 7641SOL    HW234560   0.152   1.646  16.729  0.4836 -0.7924 -0.4891
 7642SOL     OW34561   3.400   2.858  12.803  0.0366  0.3085  0.5590
 7642SOL    HW134562   3.312   2.867  12.766  1.1078  0.3070 -2.0057
 7642SOL    HW234563   3.375   2.874  12.894 -0.2962  2.5497  0.0742
 7643SOL     OW34564   4.310   1.149   1.023  0.2045 -0.0402 -0.5137
 7643SOL    HW134565   4.282   1.139   0.932  0.8210 -0.6887 -0.6246
 7643SOL    HW234566   4.388   1.204   1.014  1.7357 -2.3409 -1.0515
 7644SOL     OW34567   0.677   2.661  15.833  0.2563 -0.0087 -0.5149
 7644SOL    HW134568   0.768   2.683  15.852  0.8296 -0.1798 -3.1248
 7644SOL    HW234569   0.636   2.731  15.885  0.4869 -0.6819  0.5578
 7645SOL     OW34570   4.129   1.631   1.777  0.2298 -0.3353  0.7786
 7645SOL    HW134571   4.105   1.565   1.712 -0.3711  2.2817 -1.6714
 7645SOL    HW234572   4.169   1.576   1.844  2.0296  2.5019  2.0626
 7646SOL     OW34573   3.196   0.399   0.914 -0.4242  0.2544  1.4416
 7646SOL    HW134574   3.137   0.440   0.850  1.4181 -0.6800 -0.8671
 7646SOL    HW234575   3.134   0.337   0.953 -0.7319  0.3712  1.1479
 7647SOL     OW34576   1.517   2.286  13.472  0.2956 -0.0074  0.2068
 7647SOL    HW134577   1.602   2.245  13.491 -0.9616 -2.4356  0.5800
 7647SOL    HW234578   1.460   2.217  13.507 -0.5429  1.4138  1.6124
 7648SOL     OW34579   2.431   1.045  14.406 -0.0843  0.0151  0.1701
 7648SOL    HW134580   2.414   1.062  14.313  2.4860 -2.4869 -0.7644
 7648SOL    HW234581   2.455   1.134  14.432  1.3533  0.1450 -1.5759
 7649SOL     OW34582   0.506   4.001   3.163  0.3957 -0.2392  0.8560
 7649SOL    HW134583   0.457   4.076   3.196 -1.2472 -0.6812 -0.5917
 7649SOL    HW234584   0.445   3.970   3.096  0.1624  1.6533  0.1930
 7650SOL     OW34585   1.317   4.251  13.295  0.0810 -0.0700 -0.3624
 7650SOL    HW134586   1.348   4.293  13.374  3.5544 -3.2197 -0.0213
 7650SOL    HW234587   1.226   4.246  13.325  0.6858  0.7039  1.5556
 7651SOL     OW34588   3.865   0.442  11.704  0.1831  0.1501  0.2474
 7651SOL    HW134589   3.778   0.405  11.694 -0.1483  1.5918 -1.9996
 7651SOL    HW234590   3.854   0.537  11.706 -1.3350 -0.0411  0.4074
 7652SOL     OW34591   0.142   0.882  11.396 -0.7188  0.5318  0.4628
 7652SOL    HW134592   0.158   0.842  11.481 -2.0284  3.0338  1.8981
 7652SOL    HW234593   0.047   0.895  11.398 -0.7946 -0.3190  1.6830
 7653SOL     OW34594   1.357   2.729  15.326 -1.0318 -0.0104 -0.1475
 7653SOL    HW134595   1.314   2.783  15.393  0.5047 -3.1570  3.3854
 7653SOL    HW234596   1.372   2.649  15.377  0.1461  1.5109  1.9149
 7654SOL     OW34597   2.024   4.084  11.265 -0.2404  0.1083 -0.3775
 7654SOL    HW134598   2.088   4.061  11.332  0.3404  2.6487 -0.0577
 7654SOL    HW234599   2.005   4.164  11.315  0.7285  0.3417 -0.3812
 7655SOL     OW34600   1.592   2.684   9.053 -0.1423  0.0975 -0.7386
 7655SOL    HW134601   1.686   2.671   9.069 -0.4731 -0.9912  0.3449
 7655SOL    HW234602   1.596   2.687   8.957  2.1738  2.2873 -0.5791
 7656SOL     OW34603   4.030   4.144  17.358  0.5835 -0.5933 -0.0878
 7656SOL    HW134604   4.063   4.087  17.288 -0.5351  0.1135 -1.2063
 7656SOL    HW234605   4.066   4.096  17.432  1.1380 -0.0851 -0.0245
 7657SOL     OW34606   0.969   3.404   4.347 -0.3764  0.2042 -0.3653
 7657SOL    HW134607   0.919   3.331   4.383  2.0877  0.6487  3.8900
 7657SOL    HW234608   0.904   3.472   4.328  0.0739  0.7208 -0.0511
 7658SOL     OW34609   3.061   1.749   8.245  0.3885 -0.1322  0.5091
 7658SOL    HW134610   3.029   1.660   8.232  1.3860 -0.4843  0.4021
 7658SOL    HW234611   3.080   1.772   8.153  0.3745 -2.2635 -0.0185
 7659SOL     OW34612   1.700   2.450   4.740 -0.5772  0.3178 -0.2588
 7659SOL    HW134613   1.762   2.492   4.800 -1.1873 -0.3357  0.8431
 7659SOL    HW234614   1.754   2.379   4.704 -2.2874  0.8711 -3.7976
 7660SOL     OW34615   3.871   3.929  15.580 -0.4726  0.0862 -0.2269
 7660SOL    HW134616   3.913   3.879  15.650 -0.0226 -0.4321 -0.8686
 7660SOL    HW234617   3.909   3.891  15.501  1.8901  0.3123  0.8075
 7661SOL     OW34618   3.490   3.285   7.054  0.3034 -0.0380  0.2864
 7661SOL    HW134619   3.434   3.362   7.042  1.3209  0.2434 -2.7632
 7661SOL    HW234620   3.576   3.322   7.073 -0.4495  2.2128 -0.7014
 7662SOL     OW34621   1.101   0.414  17.517 -0.3117 -0.1168 -0.2528
 7662SOL    HW134622   1.035   0.433  17.450  0.4037 -1.5908 -1.3827
 7662SOL    HW234623   1.148   0.497  17.524  0.5779 -0.5401 -1.1430
 7663SOL     OW34624   3.461   1.720   5.606  0.2598  0.5246  0.3979
 7663SOL    HW134625   3.445   1.648   5.545  1.3906 -1.6466  2.6173
 7663SOL    HW234626   3.379   1.731   5.655 -0.7098 -0.3796 -1.0315
 7664SOL     OW34627   3.965   3.656   2.634 -1.0933  0.4669 -0.5438
 7664SOL    HW134628   4.020   3.580   2.611  1.2269  2.4214 -1.4740
 7664SOL    HW234629   3.920   3.673   2.551 -0.9650  2.4004 -0.2134
 7665SOL     OW34630   3.752   4.308   0.496 -0.3061 -0.1549  0.0644
 7665SOL    HW134631   3.817   4.369   0.463 -1.3816  0.5401 -0.7704
 7665SOL    HW234632   3.671   4.360   0.497 -0.2541 -0.1134  2.0866
 7666SOL     OW34633   2.921   4.732   8.198 -0.0103 -0.5927 -0.4832
 7666SOL    HW134634   2.968   4.680   8.133  1.2429  3.1100 -2.5263
 7666SOL    HW234635   2.840   0.006   8.149  1.3163 -1.0299 -2.7573
 7667SOL     OW34636   0.163   3.035   7.615  0.0297  0.1992  0.2013
 7667SOL    HW134637   0.069   3.035   7.600  0.3932  1.1651 -2.1284
 7667SOL    HW234638   0.196   2.959   7.566 -3.0590 -0.3864 -0.9702
 7668SOL     OW34639   3.827   0.053  16.192 -0.1450 -0.5595  0.2553
 7668SOL    HW134640   3.841   0.132  16.139 -2.2599 -2.2408 -2.7401
 7668SOL    HW234641   3.918   0.033  16.215 -0.0547  2.3238  2.5196
 7669SOL     OW34642   3.190   3.789  16.695 -0.1668 -0.1784  0.2937
 7669SOL    HW134643   3.272   3.815  16.653 -0.0878  0.0854  0.6094
 7669SOL    HW234644   3.190   3.703  16.654 -0.1569  1.5640 -3.3096
 7670SOL     OW34645   1.313   1.772  15.041  0.2443  0.0565 -0.1004
 7670SOL    HW134646   1.310   1.693  14.987  3.2195  0.3720 -0.7036
 7670SOL    HW234647   1.397   1.758  15.083  0.1945  1.6811  0.5167
 7671SOL     OW34648   4.180   3.346   9.789 -0.4680  0.7719 -0.2303
 7671SOL    HW134649   4.213   3.430   9.756  0.4689  1.1559  1.6582
 7671SOL    HW234650   4.264   3.304   9.807 -0.1197  2.1529  1.4435
 7672SOL     OW34651   3.102   4.561   5.031  0.0380  0.5104 -0.5166
 7672SOL    HW134652   3.189   4.591   5.004 -0.3108  0.3708 -1.7760
 7672SOL    HW234653   3.118   4.515   5.113  0.6401  1.0021 -0.3554
 7673SOL     OW34654   0.805   3.000   9.067 -0.4113  0.3114  0.3928
 7673SOL    HW134655   0.716   2.967   9.076 -0.3324 -0.3477 -1.2262
 7673SOL    HW234656   0.824   2.987   9.160  0.5192 -2.0848 -0.1448
 7674SOL     OW34657   4.702   4.697  11.197  0.1859  0.0085  0.5328
 7674SOL    HW134658   0.060   4.680  11.202 -0.3267 -2.4342  1.8439
 7674SOL    HW234659   4.692   0.055  11.216  0.6950  0.5136 -1.7522
 7675SOL     OW34660   0.477   4.002   4.067 -0.1358 -0.9517 -0.1544
 7675SOL    HW134661   0.498   3.962   3.983 -2.3761 -0.2872 -1.0289
 7675SOL    HW234662   0.533   3.956   4.130  1.2974  0.6558 -0.2373
 7676SOL     OW34663   4.431   3.759  10.076  0.4237  0.2076 -0.5990
 7676SOL    HW134664   4.435   3.756   9.981  0.5076 -1.6170 -0.5367
 7676SOL    HW234665   4.336   3.757  10.082  0.4500 -0.7614 -0.5968
 7677SOL     OW34666   1.268   3.638   3.115 -0.2896  0.2728  0.6527
 7677SOL    HW134667   1.272   3.561   3.058 -1.2514  2.0174 -1.7619
 7677SOL    HW234668   1.340   3.626   3.178  1.3749 -0.6213 -1.3977
 7678SOL     OW34669   2.166   1.832   3.932 -0.8447 -0.4915 -0.0709
 7678SOL    HW134670   2.097   1.873   3.880 -0.2701 -0.0843 -0.5075
 7678SOL    HW234671   2.247   1.847   3.883 -0.6034 -1.3973  0.0423
 7679SOL     OW34672   3.521   1.982   8.809  0.3776  0.0434 -0.2491
 7679SOL    HW134673   3.493   1.892   8.791 -2.3379  1.3557 -2.5519
 7679SOL    HW234674   3.474   1.991   8.892 -1.2294  1.2079 -1.2804
 7680SOL     OW34675   3.940   1.286   9.765  0.5527  0.4395 -0.1945
 7680SOL    HW134676   3.905   1.302   9.853 -1.5925  0.0976 -0.9670
 7680SOL    HW234677   4.013   1.228   9.783  0.6526  0.8789  0.8307
 7681SOL     OW34678   0.440   2.169   3.721 -0.5412  0.2994  0.0393
 7681SOL    HW134679   0.452   2.093   3.778  0.4180  0.2548 -0.2225
 7681SOL    HW234680   0.509   2.167   3.656  0.6122  2.1091  1.2026
 7682SOL     OW34681   4.462   0.140  14.540 -0.2496  0.0950  0.5267
 7682SOL    HW134682   4.440   0.102  14.455 -0.2698  1.1018  0.0893
 7682SOL    HW234683   4.555   0.118  14.543 -1.0774 -3.2195  2.6638
 7683SOL     OW34684   2.435   2.502   1.664 -0.7946 -0.3004 -0.6072
 7683SOL    HW134685   2.530   2.512   1.669 -1.1569  2.4593  0.8002
 7683SOL    HW234686   2.420   2.460   1.749  1.1173  0.3264  0.0519
 7684SOL     OW34687   2.180   3.114   3.512  0.1281  0.0852 -0.1987
 7684SOL    HW134688   2.089   3.115   3.541  0.2543  0.3383  0.1877
 7684SOL    HW234689   2.189   3.209   3.512  1.6366 -0.0486  0.2002
 7685SOL     OW34690   4.401   0.068   6.354  0.2806  0.2481 -0.2577
 7685SOL    HW134691   4.489   0.085   6.387 -0.2425  0.8880  0.8135
 7685SOL    HW234692   4.402   4.713   6.326  0.8537  0.4656 -0.9196
 7686SOL     OW34693   2.990   3.932   7.378 -0.2180  0.2356  0.4647
 7686SOL    HW134694   2.969   3.849   7.337 -0.9459  0.8848 -0.4745
 7686SOL    HW234695   2.905   3.952   7.417  0.3760 -0.0482  1.9270
 7687SOL     OW34696   4.671   3.679   5.584  0.6657 -0.2841 -0.6345
 7687SOL    HW134697   4.684   3.592   5.620  0.6858 -0.6061 -1.4190
 7687SOL    HW234698   4.592   3.709   5.629  0.7855 -0.6821 -0.1603
 7688SOL     OW34699   2.479   2.717   9.388  0.4819  0.9649  0.1275
 7688SOL    HW134700   2.458   2.666   9.309  0.5834  3.2303 -1.3433
 7688SOL    HW234701   2.446   2.659   9.457 -0.5765  0.1531 -1.0723
 7689SOL     OW34702   3.131   1.694  11.530  0.6196  0.2019 -1.0564
 7689SOL    HW134703   3.129   1.706  11.625 -0.4788 -0.4969 -1.0003
 7689SOL    HW234704   3.159   1.603  11.522  1.3589  0.3275  0.1058
 7690SOL     OW34705   0.811   1.549   4.247  0.1570 -0.1789 -0.6257
 7690SOL    HW134706   0.877   1.481   4.259 -0.2739 -0.7192 -1.3090
 7690SOL    HW234707   0.847   1.602   4.176 -0.0426  1.4728  0.5102
 7691SOL     OW34708   3.644   1.128   9.749  0.1282  0.7446  0.3346
 7691SOL    HW134709   3.713   1.142   9.684 -0.2170  2.2538  0.2883
 7691SOL    HW234710   3.576   1.156   9.688 -0.2258 -1.9621 -0.5161
 7692SOL     OW34711   1.441   4.215   1.594 -0.1819 -0.6389 -0.1555
 7692SOL    HW134712   1.429   4.306   1.621 -1.0703 -1.2199  1.3920
 7692SOL    HW234713   1.363   4.177   1.633 -1.7332  1.8648 -0.8030
 7693SOL     OW34714   1.353   2.898   6.878  0.1106  0.1953  0.0759
 7693SOL    HW134715   1.357   2.919   6.785 -2.6111 -2.2751 -0.5952
 7693SOL    HW234716   1.434   2.938   6.910  0.5162  1.9215 -3.1032
 7694SOL     OW34717   0.009   3.911  16.384  0.4690  0.2347  0.3672
 7694SOL    HW134718   4.689   3.984  16.360  0.3519 -0.3670 -1.2328
 7694SOL    HW234719   4.715   3.902  16.474 -0.3279  0.8492  0.1604
 7695SOL     OW34720   3.143   4.600   4.682  0.6573  0.2601  0.2022
 7695SOL    HW134721   3.208   4.610   4.751  0.6498  0.7330  0.1446
 7695SOL    HW234722   3.060   4.608   4.729 -1.0127  0.2859 -2.7610
 7696SOL     OW34723   3.118   1.395   9.624 -0.8016 -0.1991  0.0088
 7696SOL    HW134724   3.103   1.333   9.695 -1.4919  0.4390  0.4266
 7696SOL    HW234725   3.070   1.357   9.551 -0.1536  2.9230 -2.0669
 7697SOL     OW34726   1.669   3.111  16.433 -0.0499 -0.0516 -0.3628
 7697SOL    HW134727   1.738   3.134  16.496  0.4371 -0.3653 -0.7820
 7697SOL    HW234728   1.680   3.016  16.438  1.6760  0.1663  0.0086
 7698SOL     OW34729   3.054   2.543   0.495  0.3765 -0.1358  0.4039
 7698SOL    HW134730   3.043   2.632   0.531 -0.1341  0.0279 -0.1576
 7698SOL    HW234731   3.142   2.548   0.457  0.7227  1.7788  1.4228
 7699SOL     OW34732   3.088   0.700   7.660  0.3277 -1.2614 -0.5948
 7699SOL    HW134733   3.175   0.737   7.647 -0.8644  2.1297  1.0910
 7699SOL    HW234734   3.047   0.732   7.579  1.6185  1.7906 -0.0199
 7700SOL     OW34735   0.889   0.295   4.006 -0.4099  0.1914  0.0056
 7700SOL    HW134736   0.906   0.384   4.038 -1.2915  0.4573 -0.2690
 7700SOL    HW234737   0.891   0.304   3.911  2.1087 -1.6158 -0.1003
 7701SOL     OW34738   1.482   1.906   2.897  0.3326 -0.2387  0.0236
 7701SOL    HW134739   1.532   1.844   2.951 -0.4409  0.4064  1.4827
 7701SOL    HW234740   1.551   1.971   2.882  1.0130 -0.8263  0.6073
 7702SOL     OW34741   0.101   0.526   8.314 -0.1021 -0.0650  0.3579
 7702SOL    HW134742   0.138   0.476   8.387  0.6635 -0.3169 -0.2124
 7702SOL    HW234743   0.012   0.544   8.344 -0.8454 -2.0875 -0.6619
 7703SOL     OW34744   0.300   3.218  10.747 -1.0189 -0.4986 -0.0393
 7703SOL    HW134745   0.223   3.228  10.803 -1.0015 -3.2719  0.5156
 7703SOL    HW234746   0.287   3.128  10.715 -2.2107 -0.3423 -0.0131
 7704SOL     OW34747   0.831   4.118  12.028  0.0555 -0.1485 -0.5123
 7704SOL    HW134748   0.765   4.088  12.091  0.9932 -1.1502 -0.0098
 7704SOL    HW234749   0.915   4.084  12.057 -0.9448 -1.8105  0.4546
 7705SOL     OW34750   2.426   4.227   2.978 -0.0096  0.1779  0.2190
 7705SOL    HW134751   2.511   4.205   3.016 -0.1702 -1.4169 -0.3547
 7705SOL    HW234752   2.437   4.186   2.892  0.3163  0.4025  0.1532
 7706SOL     OW34753   2.262   2.002   2.676  0.3569  0.5835  1.0241
 7706SOL    HW134754   2.254   1.907   2.683 -2.2806  0.7801  0.8404
 7706SOL    HW234755   2.338   2.001   2.618 -0.2455 -1.7386  0.3093
 7707SOL     OW34756   2.747   4.252   5.212 -0.1339 -0.2987  0.0951
 7707SOL    HW134757   2.758   4.199   5.291  0.0542  0.3336  0.4884
 7707SOL    HW234758   2.652   4.247   5.210 -0.3129  2.6742  1.3327
 7708SOL     OW34759   3.802   1.843  17.410 -0.1677  0.7889  0.9161
 7708SOL    HW134760   3.858   1.907  17.455  1.3643  0.0018  0.1360
 7708SOL    HW234761   3.777   1.895  17.334 -2.3055 -1.2661  0.2228
 7709SOL     OW34762   0.481   0.550   3.514 -0.0511  0.5092 -0.6421
 7709SOL    HW134763   0.470   0.515   3.602  2.0715 -0.9589 -0.9686
 7709SOL    HW234764   0.560   0.507   3.482 -0.9714 -0.2434 -1.8794
 7710SOL     OW34765   0.849   0.374   3.694 -0.2285  0.2292  0.2809
 7710SOL    HW134766   0.938   0.381   3.659 -0.0487 -0.4880  0.6026
 7710SOL    HW234767   0.802   0.401   3.614  0.6747  2.1028  0.3843
 7711SOL     OW34768   0.277   1.615   8.138 -0.3606  0.2161 -0.5221
 7711SOL    HW134769   0.240   1.658   8.216 -0.8843 -0.0217 -0.6393
 7711SOL    HW234770   0.350   1.673   8.118  0.7493 -1.2061 -0.5359
 7712SOL     OW34771   0.107   1.247   5.576  0.0638  0.9399  0.0664
 7712SOL    HW134772   0.092   1.211   5.663  1.0821  1.2594  0.3794
 7712SOL    HW234773   0.185   1.199   5.546 -0.8588 -0.0675 -0.7044
 7713SOL     OW34774   4.326   4.462  14.790 -0.0527  0.1650  0.1201
 7713SOL    HW134775   4.354   4.441  14.701 -0.4087  1.9965 -0.4358
 7713SOL    HW234776   4.330   4.386  14.848 -0.2095  1.6693  2.1062
 7714SOL     OW34777   2.176   1.855  14.260  0.3225 -0.2799 -0.3967
 7714SOL    HW134778   2.233   1.784  14.231  1.2532 -0.1780  1.1837
 7714SOL    HW234779   2.106   1.806  14.302  0.1733  2.2472  2.3492
 7715SOL     OW34780   0.933   4.548   5.509  0.2629  0.0108 -0.0087
 7715SOL    HW134781   0.841   4.537   5.486 -0.2834  0.9927  1.7373
 7715SOL    HW234782   0.923   4.527   5.602 -0.1653  0.4364  0.0441
 7716SOL     OW34783   0.640   1.577   0.901  0.1084  0.3589 -0.5829
 7716SOL    HW134784   0.683   1.647   0.950  2.4086 -0.3183 -1.6472
 7716SOL    HW234785   0.642   1.502   0.961 -0.3055  1.3420  0.6677
 7717SOL     OW34786   2.441   4.023   2.694 -0.1827 -0.4717 -0.5053
 7717SOL    HW134787   2.431   3.968   2.617 -3.3903 -1.5600  0.7038
 7717SOL    HW234788   2.503   4.090   2.667  0.2813 -0.7883 -0.2253
 7718SOL     OW34789   1.254   3.871   6.303  0.8669  0.0269 -0.1446
 7718SOL    HW134790   1.341   3.869   6.264  1.2913 -0.5428  0.8315
 7718SOL    HW234791   1.214   3.943   6.254 -0.0551 -1.1835 -1.2222
 7719SOL     OW34792   0.852   0.326   2.887 -1.1358  0.0349  0.0872
 7719SOL    HW134793   0.809   0.276   2.957 -1.1175 -0.4993 -0.2789
 7719SOL    HW234794   0.881   0.400   2.941 -0.4011 -0.3436  0.2249
 7720SOL     OW34795   0.919   3.200   6.718 -0.6030 -0.2941 -0.2077
 7720SOL    HW134796   0.838   3.148   6.717 -0.2983 -0.7270 -2.5072
 7720SOL    HW234797   0.955   3.188   6.630 -1.8327 -2.5403 -0.3897
 7721SOL     OW34798   4.442   2.154   9.341  0.1837  0.3906  0.2087
 7721SOL    HW134799   4.356   2.143   9.301 -0.8164 -0.2875  2.5403
 7721SOL    HW234800   4.436   2.244   9.374  1.7933 -0.0808  1.8041
 7722SOL     OW34801   1.285   2.957   5.979  0.2338 -0.0773 -0.6370
 7722SOL    HW134802   1.238   2.958   6.062 -3.9403 -0.6790 -3.0347
 7722SOL    HW234803   1.352   2.892   6.002  0.7081 -0.0592 -1.9687
 7723SOL     OW34804   0.085   0.740  11.634 -0.1710  0.5282 -0.1909
 7723SOL    HW134805   0.068   0.667  11.693 -2.2412  1.0961 -0.0761
 7723SOL    HW234806   4.736   0.783  11.638 -2.1004 -3.4851  1.4867
 7724SOL     OW34807   1.215   4.453   2.371  0.0615  0.4041  0.0899
 7724SOL    HW134808   1.178   4.455   2.283 -0.3654  2.7405  0.3207
 7724SOL    HW234809   1.294   4.507   2.368  0.4746 -0.1673  0.6105
 7725SOL     OW34810   0.213   4.184   3.960  0.1594 -0.2919 -0.0342
 7725SOL    HW134811   0.244   4.115   3.901 -2.9593 -1.5263 -0.2113
 7725SOL    HW234812   0.289   4.197   4.017 -0.2289  2.5752 -0.1345
 7726SOL     OW34813   1.435   2.316  10.180  0.2405 -0.0605 -0.1962
 7726SOL    HW134814   1.507   2.378  10.194  0.9987 -1.0864  0.4469
 7726SOL    HW234815   1.393   2.364  10.108  1.0375 -0.1430 -0.7217
 7727SOL     OW34816   1.112   1.321   3.362  0.5373 -0.1611  0.6227
 7727SOL    HW134817   1.098   1.252   3.427 -1.9129 -2.2982 -2.2047
 7727SOL    HW234818   1.205   1.316   3.340 -0.0467 -2.3775 -1.3160
 7728SOL     OW34819   0.972   3.968   7.832 -0.1621  0.5195  0.5350
 7728SOL    HW134820   0.967   4.063   7.832  1.0654  0.5884 -0.3758
 7728SOL    HW234821   1.062   3.965   7.864 -0.7082 -0.6340  1.9677
 7729SOL     OW34822   1.050   4.662   8.592 -0.6472 -0.0183 -0.7113
 7729SOL    HW134823   1.090   4.672   8.678  2.2480 -2.2213 -1.7898
 7729SOL    HW234824   1.115   4.711   8.541  0.1125 -0.4981 -0.2064
 7730SOL     OW34825   1.754   1.670   2.064  0.4897  0.0225 -0.5262
 7730SOL    HW134826   1.812   1.702   2.133 -0.4565 -4.0597  2.1366
 7730SOL    HW234827   1.751   1.579   2.093 -2.3655  0.2138 -0.1933
 7731SOL     OW34828   1.717   4.137   8.879 -0.1153 -0.5208  0.0005
 7731SOL    HW134829   1.641   4.091   8.915 -0.3226 -0.3087 -0.1641
 7731SOL    HW234830   1.733   4.203   8.945  1.9881  1.2270 -2.2386
 7732SOL     OW34831   0.130   0.080   7.341  0.5880 -0.6648  0.3852
 7732SOL    HW134832   0.065   0.129   7.291  3.7715  2.1319 -0.9464
 7732SOL    HW234833   0.217   0.106   7.312 -0.1478  0.6552 -0.6051
 7733SOL     OW34834   1.884   2.197   7.133  0.0628  0.2426  0.0820
 7733SOL    HW134835   1.812   2.171   7.076 -0.4474  1.4776  0.1598
 7733SOL    HW234836   1.933   2.116   7.148  0.0486  0.2259  0.0384
 7734SOL     OW34837   2.367   1.932   5.803  0.2242  0.1314  0.5860
 7734SOL    HW134838   2.296   1.875   5.774  0.2863 -0.0414  0.7796
 7734SOL    HW234839   2.392   1.897   5.888 -0.3857  0.5388  0.9305
 7735SOL     OW34840   0.708   1.446   8.433 -0.0863  0.3165 -0.2444
 7735SOL    HW134841   0.743   1.382   8.371  3.1897  1.5883  0.2678
 7735SOL    HW234842   0.737   1.407   8.516 -1.4991 -2.1981 -0.9553
 7736SOL     OW34843   2.669   3.417   6.364 -0.6252 -0.0719  0.2640
 7736SOL    HW134844   2.680   3.427   6.459  1.2452 -0.2727  0.0639
 7736SOL    HW234845   2.577   3.390   6.356  0.3429 -4.0674  2.5787
 7737SOL     OW34846   3.026   1.763   5.043 -0.3766 -0.2118  0.7306
 7737SOL    HW134847   3.090   1.800   4.982 -2.2572  0.7293 -0.6923
 7737SOL    HW234848   3.056   1.674   5.057  2.4511  0.7583  0.8637
 7738SOL     OW34849   2.148   3.019   5.300  0.5260 -0.4237 -0.1565
 7738SOL    HW134850   2.073   3.023   5.359  1.2235  1.3915  0.6026
 7738SOL    HW234851   2.113   3.078   5.234  0.6815  0.5050  0.5948
 7739SOL     OW34852   3.669   1.791   5.792 -0.4208 -0.1651  0.0808
 7739SOL    HW134853   3.750   1.774   5.743 -1.1226 -1.4661 -0.6293
 7739SOL    HW234854   3.609   1.736   5.741 -0.8689  2.3170 -2.0915
 7740SOL     OW34855   3.741   2.005   8.482  0.4243 -0.0120 -0.1978
 7740SOL    HW134856   3.653   2.039   8.467 -0.0568 -1.8244 -1.4498
 7740SOL    HW234857   3.728   1.916   8.514 -0.7657  0.2686  0.0711
 7741SOL     OW34858   4.668   3.356   7.606  0.1315 -0.0229 -0.0717
 7741SOL    HW134859   4.639   3.270   7.575 -0.3450  0.0873  0.0704
 7741SOL    HW234860   4.587   3.371   7.654  0.7835  2.4525  0.2622
 7742SOL     OW34861   3.353   0.279   8.603  0.0877 -0.4017  0.0026
 7742SOL    HW134862   3.289   0.351   8.605  0.3701 -0.1550  0.1670
 7742SOL    HW234863   3.311   0.214   8.546 -1.8040  1.4138 -0.6618
 7743SOL     OW34864   1.723   2.036  17.469 -0.0229 -0.5925  0.7080
 7743SOL    HW134865   1.817   2.020  17.469  0.2778  1.2279 -1.6627
 7743SOL    HW234866   1.728   2.104  17.536 -2.3326  0.4317 -0.1506
 7744SOL     OW34867   3.389   1.335   2.456  0.3700 -0.4433  0.2800
 7744SOL    HW134868   3.406   1.429   2.445 -2.5035  0.4837  3.3735
 7744SOL    HW234869   3.305   1.337   2.410  0.8230 -0.4052 -0.5410
 7745SOL     OW34870   3.346   1.576   3.521  0.4598 -0.2534  0.0744
 7745SOL    HW134871   3.337   1.550   3.613 -0.6335 -0.9288 -0.2170
 7745SOL    HW234872   3.416   1.640   3.534  1.1146 -1.0250  0.3117
 7746SOL     OW34873   0.804   1.755   3.798 -0.1874  0.2681  0.4082
 7746SOL    HW134874   0.862   1.821   3.759 -0.5344 -0.0067 -0.5632
 7746SOL    HW234875   0.874   1.714   3.849 -0.6786 -0.8292  0.2050
 7747SOL     OW34876   2.339   0.084   5.249  0.0034  0.1719 -0.0904
 7747SOL    HW134877   2.249   0.117   5.251 -0.4094 -0.8877 -0.9581
 7747SOL    HW234878   2.385   0.167   5.259  0.5572 -0.1634  0.1618
 7748SOL     OW34879   4.018   1.519   6.775 -0.2687 -0.5962 -0.3270
 7748SOL    HW134880   4.070   1.533   6.855 -1.9091  0.6412  0.5345
 7748SOL    HW234881   4.057   1.591   6.727  1.0061 -0.4090  0.9823
 7749SOL     OW34882   2.343   0.410   3.201 -0.6586 -0.5498 -0.0656
 7749SOL    HW134883   2.279   0.419   3.272  0.8885  0.3398  1.2192
 7749SOL    HW234884   2.341   0.504   3.181 -1.1334 -0.4562  0.4206
 7750SOL     OW34885   2.008   2.721   5.538  0.5299  0.2434 -0.1059
 7750SOL    HW134886   1.938   2.678   5.586  0.4207  2.0803  1.3852
 7750SOL    HW234887   2.073   2.661   5.575  0.4803  0.2036 -0.0840
 7751SOL     OW34888   1.767   3.886  15.928 -0.3013 -0.1544 -0.3395
 7751SOL    HW134889   1.806   3.878  16.016 -1.5124 -3.4131 -0.1026
 7751SOL    HW234890   1.750   3.980  15.920  0.7058  0.1109  0.6344
 7752SOL     OW34891   0.216   0.439   7.539  0.7700  0.7006  0.1297
 7752SOL    HW134892   0.185   0.477   7.457 -2.5827  2.0356  2.0182
 7752SOL    HW234893   0.262   0.359   7.512 -0.0499  0.6313 -1.0573
 7753SOL     OW34894   3.437   2.667   2.588  0.0393  0.0435  0.4877
 7753SOL    HW134895   3.494   2.741   2.608  0.2267  0.6996 -2.5631
 7753SOL    HW234896   3.397   2.693   2.506  0.6301  0.1325  0.2312
 7754SOL     OW34897   0.266   2.405  13.832 -0.3159  0.2911 -0.2525
 7754SOL    HW134898   0.188   2.355  13.857 -0.3049  0.3033 -0.1945
 7754SOL    HW234899   0.216   2.481  13.802  0.6194  0.4828 -1.3236
 7755SOL     OW34900   0.280   4.012   7.138  0.0938  0.1398 -0.3057
 7755SOL    HW134901   0.193   3.972   7.134 -0.6684  1.8606 -0.6455
 7755SOL    HW234902   0.261   4.105   7.128  0.9430  0.4163  0.6156
 7756SOL     OW34903   3.815   1.533   5.237 -0.0624  0.6973  0.5729
 7756SOL    HW134904   3.740   1.479   5.214 -0.1864  2.2988 -2.8637
 7756SOL    HW234905   3.787   1.567   5.321  0.2309 -0.3549  1.0977
 7757SOL     OW34906   0.541   0.726  16.928 -0.1819  0.6457  0.4021
 7757SOL    HW134907   0.549   0.663  16.856  0.2976  1.6207 -0.3908
 7757SOL    HW234908   0.447   0.739  16.920 -0.6413 -2.0316  1.2285
 7758SOL     OW34909   1.234   2.036   4.066 -0.4884  0.4503 -0.2885
 7758SOL    HW134910   1.301   2.103   4.058 -0.7293  0.3543 -3.1788
 7758SOL    HW234911   1.300   1.967   4.076 -0.1100  0.8255 -0.2050
 7759SOL     OW34912   4.284   0.344  17.020  0.1969  0.2577 -0.2147
 7759SOL    HW134913   4.261   0.349  17.113 -2.0228 -2.2171 -0.6424
 7759SOL    HW234914   4.211   0.385  16.975  1.1541  0.0847 -1.9288
 7760SOL     OW34915   2.895   2.073   5.435 -0.5560  0.3677 -0.5868
 7760SOL    HW134916   2.867   1.987   5.402 -0.1796 -0.3295  0.9318
 7760SOL    HW234917   2.897   2.122   5.353 -4.9398  0.3749 -0.7164
 7761SOL     OW34918   1.452   2.029   3.310 -0.3977  0.0918  0.0165
 7761SOL    HW134919   1.445   1.954   3.250 -1.8192  0.7626 -0.6453
 7761SOL    HW234920   1.489   1.988   3.388  1.2448 -0.6427 -1.1380
 7762SOL     OW34921   3.842   2.495   0.552 -0.3846  0.0343  0.3723
 7762SOL    HW134922   3.788   2.464   0.624 -0.3969 -0.0565  0.3231
 7762SOL    HW234923   3.931   2.463   0.563 -0.8333 -0.2503  3.0981
 7763SOL     OW34924   1.284   2.535   1.594  0.4435 -0.1632 -0.0151
 7763SOL    HW134925   1.281   2.547   1.689 -0.0390 -1.4298  0.1350
 7763SOL    HW234926   1.377   2.532   1.571  0.1803  1.6977 -1.2684
 7764SOL     OW34927   4.736   4.347   4.031 -0.1472 -0.1799 -0.1899
 7764SOL    HW134928   4.727   4.400   3.952 -0.8789  0.0450  0.0454
 7764SOL    HW234929   0.050   4.273   3.996 -2.2488 -1.7401  0.1169
 7765SOL     OW34930   0.631   0.970  10.375 -0.0916  0.3120 -0.2060
 7765SOL    HW134931   0.569   0.910  10.335 -0.4849  1.3688 -1.1804
 7765SOL    HW234932   0.664   0.900  10.431 -2.2437 -1.3804 -1.0761
 7766SOL     OW34933   3.300   3.028  10.619 -0.2669 -0.4711 -0.0439
 7766SOL    HW134934   3.318   3.118  10.593  0.9841 -1.3747 -2.3434
 7766SOL    HW234935   3.288   2.998  10.529  3.3417 -0.7250 -0.4060
 7767SOL     OW34936   3.660   1.572   5.988 -0.6127  0.0853 -0.0979
 7767SOL    HW134937   3.691   1.659   5.962 -1.5812  0.5578  0.3170
 7767SOL    HW234938   3.693   1.511   5.922  1.4446  0.8165  0.2680
 7768SOL     OW34939   3.372   4.357   4.832 -0.0730 -0.3922 -0.2825
 7768SOL    HW134940   3.332   4.270   4.840 -1.0265 -0.0430 -1.3444
 7768SOL    HW234941   3.324   4.411   4.769 -0.1231  0.7807  0.7461
 7769SOL     OW34942   3.928   1.287  14.433 -0.3180 -0.0244  0.3150
 7769SOL    HW134943   3.937   1.335  14.515  2.0635  1.8312 -1.0386
 7769SOL    HW234944   3.834   1.278  14.418 -0.5825 -1.1734  2.6770
 7770SOL     OW34945   1.499   4.516   4.062 -0.1762 -0.0545 -0.5210
 7770SOL    HW134946   1.428   4.451   4.061 -0.2594  0.0179  0.2712
 7770SOL    HW234947   1.580   4.467   4.075 -0.1043  0.3200  0.4739
 7771SOL     OW34948   4.322   4.222   2.502 -0.1238  0.5221  0.0395
 7771SOL    HW134949   4.416   4.203   2.502 -0.5723 -1.6619 -2.2897
 7771SOL    HW234950   4.322   4.265   2.588  1.0514  0.8402 -0.1186
 7772SOL     OW34951   0.054   1.570  14.696  0.0851 -0.6327 -0.1415
 7772SOL    HW134952   0.051   1.638  14.763  2.4060 -1.2247  0.5522
 7772SOL    HW234953   0.047   1.620  14.615 -2.9079 -2.6711 -1.1426
 7773SOL     OW34954   3.824   1.619  14.469  0.1117  0.1074  0.2365
 7773SOL    HW134955   3.862   1.648  14.385  0.0066 -0.2467  0.0668
 7773SOL    HW234956   3.895   1.575  14.514  1.4902  0.9516 -1.0859
 7774SOL     OW34957   4.117   1.167   2.502 -0.2289  0.6158  0.2332
 7774SOL    HW134958   4.089   1.105   2.434 -1.8881  2.2790 -0.6061
 7774SOL    HW234959   4.045   1.157   2.564 -1.4682 -2.6716 -1.6727
 7775SOL     OW34960   4.030   2.217   0.281 -0.3401 -0.3698  0.4227
 7775SOL    HW134961   3.984   2.291   0.321 -2.5603 -1.4994 -0.0409
 7775SOL    HW234962   4.053   2.258   0.198  0.4580 -0.4064  0.6249
 7776SOL     OW34963   4.628   3.458   5.768  0.0698  0.0900 -0.6109
 7776SOL    HW134964   4.607   3.368   5.795 -1.3589  0.8015  0.6039
 7776SOL    HW234965   4.536   3.483   5.770  0.0847  0.1829 -0.9838
 7777SOL     OW34966   4.731   1.270   7.321  0.3056  0.1820  0.3037
 7777SOL    HW134967   0.053   1.230   7.256 -0.7273  0.7957 -1.0069
 7777SOL    HW234968   0.054   1.338   7.353 -0.7073  1.1569  0.1084
 7778SOL     OW34969   0.602   1.050   0.608 -0.1461 -0.1080  0.7535
 7778SOL    HW134970   0.644   1.112   0.667 -1.4630  0.3715  1.2005
 7778SOL    HW234971   0.513   1.085   0.606 -0.2893 -0.4267  1.4655
 7779SOL     OW34972   0.944   4.015   3.246  0.4785 -0.7160  0.7203
 7779SOL    HW134973   0.933   3.928   3.286  1.0834 -0.9824  0.3173
 7779SOL    HW234974   0.940   4.067   3.326  0.1733 -0.7866  0.7525
 7780SOL     OW34975   2.246   1.283   4.292 -0.1127 -0.3659 -0.3867
 7780SOL    HW134976   2.284   1.288   4.380  2.3209 -1.1039 -1.3932
 7780SOL    HW234977   2.324   1.259   4.242 -0.1953 -0.1838 -0.6018
 7781SOL     OW34978   2.937   1.412   6.472  0.1339 -0.5766  0.1737
 7781SOL    HW134979   3.021   1.383   6.438  1.7155  3.5018  0.5622
 7781SOL    HW234980   2.955   1.401   6.566  1.8223 -0.2227 -0.1080
 7782SOL     OW34981   1.406   2.839   3.736 -0.1827  0.3655 -0.2994
 7782SOL    HW134982   1.462   2.915   3.719  1.4222 -0.3657  1.6112
 7782SOL    HW234983   1.320   2.875   3.754 -1.3525 -1.6114 -2.0256
 7783SOL     OW34984   1.227   2.196   3.299  0.4270  0.1365  0.1965
 7783SOL    HW134985   1.302   2.138   3.310 -0.6406 -1.4505 -0.9432
 7783SOL    HW234986   1.263   2.254   3.232 -0.4082  1.6167  1.0357
 7784SOL     OW34987   0.175   2.964   6.127  0.2767  0.2376  0.1318
 7784SOL    HW134988   0.241   3.025   6.161  1.1008 -0.4485 -0.2231
 7784SOL    HW234989   0.224   2.886   6.103  0.4848  0.2544  0.5046
 7785SOL     OW34990   0.191   4.292   4.358  0.1578 -0.4316 -0.0908
 7785SOL    HW134991   0.212   4.221   4.297  0.2381  0.2595 -0.8685
 7785SOL    HW234992   0.186   4.365   4.297 -1.1754 -2.1623 -2.0637
 7786SOL     OW34993   2.022   0.073  10.338 -0.1535  0.2936  0.3474
 7786SOL    HW134994   2.037   0.157  10.295  1.2663  0.5255  1.2794
 7786SOL    HW234995   2.053   0.013  10.270 -0.4360  1.2729 -0.6395
 7787SOL     OW34996   0.213   1.608   9.142  0.5211 -0.1715 -0.1640
 7787SOL    HW134997   0.199   1.692   9.184 -0.3174 -0.4288  0.0688
 7787SOL    HW234998   0.305   1.588   9.162  0.1464 -2.7109 -0.9250
 7788SOL     OW34999   2.767   4.601   9.388 -0.4248 -0.1484  0.0863
 7788SOL    HW135000   2.715   4.574   9.312 -2.1370 -0.2031  1.2734
 7788SOL    HW235001   2.699   4.640   9.444 -0.4075 -1.3723  0.9502
 7789SOL     OW35002   0.320   2.791   7.518  0.1736  0.0583 -0.3186
 7789SOL    HW135003   0.396   2.775   7.461  1.0191 -0.8933  1.0902
 7789SOL    HW235004   0.365   2.809   7.600  0.0639  0.5506 -0.3668
 7790SOL     OW35005   2.142   3.486   7.204  0.1396 -0.1873 -0.1977
 7790SOL    HW135006   2.054   3.487   7.166  0.0211 -3.5323 -0.0444
 7790SOL    HW235007   2.119   3.448   7.289 -1.1383  5.0704  1.8170
 7791SOL     OW35008   1.045   0.719   2.776  0.1678  0.6370  0.2648
 7791SOL    HW135009   1.070   0.647   2.718  2.2413  0.1633  1.7390
 7791SOL    HW235010   1.010   0.680   2.856 -1.0255  1.1456 -0.0096
 7792SOL     OW35011   4.498   4.349   3.033 -0.1490 -0.4453 -0.2693
 7792SOL    HW135012   4.491   4.444   3.041 -1.6597 -0.5065 -0.7571
 7792SOL    HW235013   4.405   4.327   3.023 -0.4813  1.1698 -0.8026
 7793SOL     OW35014   2.258   1.242   2.065  0.2375  0.3853 -0.7283
 7793SOL    HW135015   2.258   1.224   2.159 -2.2295  3.1370 -0.2298
 7793SOL    HW235016   2.345   1.209   2.042 -0.0077 -0.6638 -0.1577
 7794SOL     OW35017   1.544   0.362   8.674  0.8086  0.3302 -0.3562
 7794SOL    HW135018   1.571   0.454   8.682 -0.2572  0.5720  0.5162
 7794SOL    HW235019   1.631   0.322   8.673  0.6646 -0.0207  1.2625
 7795SOL     OW35020   1.256   4.176   3.463  0.3512 -0.4519  0.1070
 7795SOL    HW135021   1.270   4.085   3.489  1.0924  0.1240  1.7114
 7795SOL    HW235022   1.219   4.218   3.540 -2.1846 -2.1368 -0.1909
 7796SOL     OW35023   3.019   3.106   1.028  0.4400 -0.0933 -0.4104
 7796SOL    HW135024   3.060   3.097   1.114  0.1241 -0.3018 -0.2833
 7796SOL    HW235025   2.933   3.066   1.035  0.3178  0.5569  1.8197
 7797SOL     OW35026   1.121   2.820   1.980 -0.0494 -0.1685 -0.3702
 7797SOL    HW135027   1.051   2.864   2.028  0.7295 -0.5455  1.1385
 7797SOL    HW235028   1.193   2.877   2.007  0.9716 -1.2721 -0.7806
 7798SOL     OW35029   2.770   0.080  10.524  0.0920  0.0506 -0.3657
 7798SOL    HW135030   2.750   4.726  10.551  0.5935  0.7566  2.3697
 7798SOL    HW235031   2.864   0.070  10.513  0.5007 -0.3212  3.5569
 7799SOL     OW35032   3.407   2.604  12.886  0.3391 -0.1142  0.6943
 7799SOL    HW135033   3.429   2.555  12.806 -2.4450 -0.6745  0.2756
 7799SOL    HW235034   3.429   2.693  12.858  0.5882 -0.3886  0.0104
 7800SOL     OW35035   1.571   0.292   3.220  0.2872 -0.1232  0.0687
 7800SOL    HW135036   1.630   0.260   3.287  1.2537 -0.5669 -0.9925
 7800SOL    HW235037   1.545   0.366   3.275 -0.6859  0.3230 -0.9672
 7801SOL     OW35038   1.901   3.567   7.039  0.1350 -0.5082  0.4631
 7801SOL    HW135039   1.925   3.525   6.956  2.4986  1.3288  0.2387
 7801SOL    HW235040   1.866   3.653   7.015  2.1818 -0.3706 -2.0425
 7802SOL     OW35041   2.235   2.363   9.508  0.3788 -0.2369  0.4109
 7802SOL    HW135042   2.198   2.424   9.445  3.7967  1.2648 -0.1524
 7802SOL    HW235043   2.156   2.326   9.548  0.4086 -0.4792  0.2404
 7803SOL     OW35044   2.139   2.953   6.412  0.2375  0.4381 -0.4323
 7803SOL    HW135045   2.224   2.971   6.453  0.1353  1.4484 -0.6824
 7803SOL    HW235046   2.083   3.023   6.445 -0.8079 -0.7912  0.4180
 7804SOL     OW35047   1.870   3.033   1.121  0.3849 -0.3495 -0.5879
 7804SOL    HW135048   1.886   2.939   1.133 -2.8586 -0.5634  2.0531
 7804SOL    HW235049   1.954   3.072   1.143 -0.8861  1.5189  0.9111
 7805SOL     OW35050   3.695   3.506   8.235 -0.4497  0.0498 -0.4847
 7805SOL    HW135051   3.652   3.429   8.197  0.6775 -1.7465  1.8978
 7805SOL    HW235052   3.686   3.557   8.155 -0.2266  0.9778  0.0919
 7806SOL     OW35053   3.168   1.877   1.848  0.1196 -0.5292 -0.0563
 7806SOL    HW135054   3.257   1.871   1.813  0.3009 -1.8251  0.5995
 7806SOL    HW235055   3.166   1.794   1.896  1.1296  0.2050  1.2581
 7807SOL     OW35056   0.284   0.028   2.899  0.1401  0.1034 -0.0844
 7807SOL    HW135057   0.354   4.702   2.920 -0.6029  0.0614  2.2160
 7807SOL    HW235058   0.324   0.113   2.886  2.0515 -0.9604 -1.1276
 7808SOL     OW35059   0.266   3.062   2.561 -0.0705  0.6986  0.0308
 7808SOL    HW135060   0.360   3.069   2.547  0.1929 -1.5624  0.5082
 7808SOL    HW235061   0.242   2.976   2.525  0.0005  0.1923  1.1902
 7809SOL     OW35062   4.123   4.319  15.295 -0.3103  0.5192  0.7133
 7809SOL    HW135063   4.056   4.282  15.238  0.6692 -2.4704  1.5034
 7809SOL    HW235064   4.139   4.408  15.266 -1.9646  1.1210  1.6515
 7810SOL     OW35065   4.313   4.088   7.065 -0.0812  1.2747 -0.6108
 7810SOL    HW135066   4.387   4.070   7.123  1.2080  0.7872 -2.3809
 7810SOL    HW235067   4.259   4.012   7.086 -0.4239  1.9857  1.0760
 7811SOL     OW35068   2.748   4.179   7.153  0.1234  1.1257 -0.0979
 7811SOL    HW135069   2.827   4.142   7.114 -0.1486  2.9880 -2.3489
 7811SOL    HW235070   2.789   4.245   7.210 -0.5006  0.4533  1.1445
 7812SOL     OW35071   2.948   0.337   1.726  0.0639 -0.3782  0.0346
 7812SOL    HW135072   3.022   0.276   1.730 -0.9910 -1.6517 -0.2127
 7812SOL    HW235073   2.985   0.416   1.687  1.8196 -1.3480 -0.2407
 7813SOL     OW35074   2.529   4.611   6.382 -0.2913 -0.4969 -0.4115
 7813SOL    HW135075   2.599   4.546   6.379 -0.7583 -1.0600  0.9091
 7813SOL    HW235076   2.573   4.674   6.326 -1.1416  0.8775  0.4669
 7814SOL     OW35077   0.742   2.335   8.904 -0.1526  0.6819 -0.0329
 7814SOL    HW135078   0.800   2.405   8.934 -0.1675  0.5880  0.2158
 7814SOL    HW235079   0.753   2.268   8.972 -1.1586 -0.5213 -1.0658
 7815SOL     OW35080   0.854   0.182   7.688  0.3339 -0.3534  0.1185
 7815SOL    HW135081   0.880   0.130   7.764  1.7753 -1.3344 -1.0437
 7815SOL    HW235082   0.842   0.112   7.623 -1.0982  1.2705 -1.3453
 7816SOL     OW35083   2.587   0.063   9.459 -0.2033 -0.0413  0.0681
 7816SOL    HW135084   2.576   0.155   9.435 -0.8106 -0.0226  0.4062
 7816SOL    HW235085   2.502   0.027   9.434 -1.0379  1.5776  0.5594
 7817SOL     OW35086   2.502   3.012   7.285 -0.3739  0.2751  0.1010
 7817SOL    HW135087   2.409   3.000   7.306 -0.3523 -1.0611 -0.5956
 7817SOL    HW235088   2.524   2.925   7.253 -0.6111  0.2290  0.0570
 7818SOL     OW35089   4.584   3.558   4.204  0.1896  0.6449 -0.3233
 7818SOL    HW135090   4.629   3.576   4.121  0.8729 -1.3545 -0.3782
 7818SOL    HW235091   4.576   3.463   4.200 -1.3870  0.7392  0.5503
 7819SOL     OW35092   1.830   2.420   4.046  0.5452  0.1134  0.3658
 7819SOL    HW135093   1.900   2.482   4.064 -0.9231  1.9764 -0.4053
 7819SOL    HW235094   1.752   2.461   4.083  0.6151 -0.4549  1.1591
 7820SOL     OW35095   3.349   0.364   7.484  0.1205 -0.4860 -0.6816
 7820SOL    HW135096   3.327   0.433   7.422 -1.9270  0.0512  0.6774
 7820SOL    HW235097   3.395   0.302   7.426  0.9307 -1.6870  1.2281
 7821SOL     OW35098   1.770   2.172   3.932  0.2977 -0.2541  0.5769
 7821SOL    HW135099   1.813   2.230   3.995  1.8055 -1.5683  0.7587
 7821SOL    HW235100   1.804   2.086   3.953 -1.0780 -1.4514 -2.0685
 7822SOL     OW35101   1.571   2.492  12.543  0.1069  0.1794  0.1597
 7822SOL    HW135102   1.508   2.438  12.497  0.5261  0.0695 -0.2792
 7822SOL    HW235103   1.619   2.434  12.602  0.6392  0.0950 -0.3717
 7823SOL     OW35104   3.330   1.286   0.710  0.3972  0.0552  0.0537
 7823SOL    HW135105   3.404   1.342   0.734  1.3871 -1.1377 -0.2013
 7823SOL    HW235106   3.295   1.343   0.642 -0.1231 -1.2915 -0.8063
 7824SOL     OW35107   0.807   4.431   2.073 -1.0160  0.2440 -0.0723
 7824SOL    HW135108   0.717   4.401   2.062 -0.7635 -0.4689 -0.1594
 7824SOL    HW235109   0.853   4.349   2.059 -0.5473  0.4393  0.3202
 7825SOL     OW35110   0.432   1.623   7.784  0.3878  0.0716 -0.0576
 7825SOL    HW135111   0.467   1.625   7.873 -0.9840  2.4966  0.4237
 7825SOL    HW235112   0.497   1.684   7.747  1.0748  0.1361  1.2826
 7826SOL     OW35113   0.493   4.506   1.885  0.2421 -0.5230 -0.0296
 7826SOL    HW135114   0.586   4.524   1.874  0.7842 -3.1951  0.0421
 7826SOL    HW235115   0.491   4.434   1.949  0.7971 -0.2610  0.2808
 7827SOL     OW35116   3.549   3.809   6.947  0.4247 -0.2655 -0.3228
 7827SOL    HW135117   3.602   3.886   6.968  1.0381 -0.2819 -1.8321
 7827SOL    HW235118   3.465   3.821   6.992  1.1044  1.8316  0.3783
 7828SOL     OW35119   0.384   1.062   3.805  0.1992 -0.3747  0.2941
 7828SOL    HW135120   0.310   1.089   3.750  1.6636 -1.1792 -2.0497
 7828SOL    HW235121   0.376   0.967   3.805 -0.3749 -0.3209  2.2183
 7829SOL     OW35122   2.645   4.188   0.966  0.1462  0.0446 -0.5156
 7829SOL    HW135123   2.553   4.206   0.985  0.7615  1.3834  1.1586
 7829SOL    HW235124   2.640   4.223   0.877  2.2256  1.6313 -0.0129
 7830SOL     OW35125   0.918   0.455   5.709 -0.0928 -0.2455 -0.1978
 7830SOL    HW135126   0.879   0.437   5.623  1.0341 -2.2686 -0.2863
 7830SOL    HW235127   0.955   0.542   5.695 -1.7336  0.4093 -0.5197
 7831SOL     OW35128   4.729   2.433  14.770  0.0601  0.7914  0.0651
 7831SOL    HW135129   4.729   2.419  14.676  1.3891  2.1130 -0.1245
 7831SOL    HW235130   0.041   2.516  14.769  0.3063  0.6329 -1.3944
 7832SOL     OW35131   4.099   1.130  14.788  0.2490  0.1101 -0.1892
 7832SOL    HW135132   4.079   1.036  14.794 -2.9482  0.9379  1.7763
 7832SOL    HW235133   4.057   1.154  14.705 -0.2109  0.0871  0.0361
 7833SOL     OW35134   0.998   1.128   2.216  0.2928  0.0175 -0.1652
 7833SOL    HW135135   0.977   1.109   2.308  0.2773 -1.3287 -0.4524
 7833SOL    HW235136   0.944   1.204   2.196 -0.7273 -1.0416 -1.3932
 7834SOL     OW35137   1.099   1.952   7.678  0.3744 -0.6328 -0.1307
 7834SOL    HW135138   1.128   2.011   7.747 -0.4060  1.0409 -1.2334
 7834SOL    HW235139   1.146   1.873   7.705  2.8738  0.4405 -1.3256
 7835SOL     OW35140   4.017   2.935  16.190 -0.3504  0.2132  0.0022
 7835SOL    HW135141   4.035   3.014  16.242 -1.8150 -0.0530  0.9126
 7835SOL    HW235142   4.096   2.935  16.136  0.1333 -0.8752  0.7048
 7836SOL     OW35143   2.734   4.271  13.971 -0.1462 -0.1314 -0.9291
 7836SOL    HW135144   2.789   4.221  13.911  2.0536  1.6321 -0.3868
 7836SOL    HW235145   2.649   4.245  13.935 -0.5386  0.3197 -0.3423
 7837SOL     OW35146   3.091   0.099   2.253  0.0902 -0.2224 -0.2921
 7837SOL    HW135147   3.134   0.180   2.227 -1.8085  0.7396 -0.4168
 7837SOL    HW235148   3.046   0.129   2.332  1.3944 -0.0170  0.3875
 7838SOL     OW35149   0.117   1.480   1.364  0.1514 -0.8389  0.4459
 7838SOL    HW135150   0.075   1.527   1.436 -0.8284  0.3210 -0.8875
 7838SOL    HW235151   0.189   1.446   1.416 -0.4392  0.8966  2.3705
 7839SOL     OW35152   2.906   2.879   7.779  0.2192 -0.5853 -0.3529
 7839SOL    HW135153   2.918   2.793   7.740  1.9912 -0.9864  1.0660
 7839SOL    HW235154   2.923   2.862   7.872 -1.2364 -1.6657 -0.2880
 7840SOL     OW35155   4.645   1.911  15.776 -0.0119  0.0557 -0.3329
 7840SOL    HW135156   4.646   1.973  15.703  1.8272  1.4579  0.8856
 7840SOL    HW235157   4.582   1.845  15.748  0.7607 -0.9669  0.3821
 7841SOL     OW35158   3.873   4.327  13.137  0.5486 -0.5919  0.3301
 7841SOL    HW135159   3.900   4.401  13.082 -0.1503 -0.5794  0.0012
 7841SOL    HW235160   3.917   4.254  13.093  1.1859 -2.0824  3.4998
 7842SOL     OW35161   3.297   2.665   2.901  0.4158 -0.0106 -0.5670
 7842SOL    HW135162   3.248   2.588   2.871 -0.6006  0.1116  0.7883
 7842SOL    HW235163   3.390   2.650   2.884  0.0091 -1.7643 -1.2719
 7843SOL     OW35164   3.528   2.259  15.394 -0.3873 -0.1099  0.4623
 7843SOL    HW135165   3.491   2.222  15.475  1.9187  0.8427  1.9630
 7843SOL    HW235166   3.604   2.200  15.390 -1.5516 -1.6477  1.0873
 7844SOL     OW35167   0.133   1.135   8.686  0.6778 -0.1674  0.0929
 7844SOL    HW135168   0.108   1.049   8.652  1.7979 -0.1171 -0.8790
 7844SOL    HW235169   0.178   1.175   8.611  1.8112  2.4156  2.1841
 7845SOL     OW35170   2.537   2.163  11.871  0.3744  0.1820 -0.1596
 7845SOL    HW135171   2.489   2.134  11.949 -0.5369  0.8460 -0.4581
 7845SOL    HW235172   2.562   2.251  11.899  2.7413 -0.4282 -0.4224
 7846SOL     OW35173   1.302   3.279   4.613 -0.3441  0.0126  0.9028
 7846SOL    HW135174   1.333   3.328   4.689 -0.5443  0.7983  0.4740
 7846SOL    HW235175   1.212   3.309   4.605 -0.3275 -0.4222 -0.8884
 7847SOL     OW35176   0.576   1.344   1.020  0.3957  0.1755  0.6450
 7847SOL    HW135177   0.617   1.337   1.106  0.2719 -3.0892  0.4224
 7847SOL    HW235178   0.484   1.323   1.036  0.0216  1.6926  0.5074
 7848SOL     OW35179   1.846   1.971  11.199 -0.1040  0.2378 -0.2740
 7848SOL    HW135180   1.910   1.902  11.218 -1.7026 -0.8175  1.3889
 7848SOL    HW235181   1.765   1.950  11.247 -0.7486  0.9850 -1.0419
 7849SOL     OW35182   2.353   0.512   7.120 -0.4095 -0.3025 -0.2764
 7849SOL    HW135183   2.293   0.585   7.127  0.8610  0.5470  1.8050
 7849SOL    HW235184   2.435   0.562   7.126 -1.2274  0.6921  2.3064
 7850SOL     OW35185   3.515   4.453   2.697 -0.4006  0.1301  0.4997
 7850SOL    HW135186   3.460   4.458   2.618 -1.7437 -0.5108  1.3876
 7850SOL    HW235187   3.599   4.460   2.652 -0.9232 -1.8174 -0.7467
 7851SOL     OW35188   0.649   2.964   7.546  0.0307 -0.0871  0.1378
 7851SOL    HW135189   0.603   2.882   7.531 -2.2420  1.4279 -1.1806
 7851SOL    HW235190   0.588   3.027   7.507  0.8133  0.9373  0.5638
 7852SOL     OW35191   0.324   2.805  14.793  0.1624  0.1643  0.0491
 7852SOL    HW135192   0.371   2.797  14.876  1.0270  0.8192 -0.3809
 7852SOL    HW235193   0.397   2.813  14.731  0.7693 -0.3339  0.6919
 7853SOL     OW35194   4.366   0.009  12.276 -0.2359 -0.0833 -0.4523
 7853SOL    HW135195   4.452   4.718  12.309  0.9162  2.7301 -1.1070
 7853SOL    HW235196   4.316   4.666  12.294  2.0276 -1.3093  0.4359
 7854SOL     OW35197   0.418   3.724   6.074 -0.5175  0.0036  0.3520
 7854SOL    HW135198   0.386   3.643   6.113 -0.0969  0.0527  0.8080
 7854SOL    HW235199   0.506   3.729   6.111 -0.1619 -2.3088 -0.1987
 7855SOL     OW35200   1.682   2.579   2.711  0.1569 -0.0572 -0.0884
 7855SOL    HW135201   1.611   2.569   2.648 -2.0241  0.4028  2.3269
 7855SOL    HW235202   1.751   2.582   2.644  0.8319 -1.7069  0.5291
 7856SOL     OW35203   1.818   1.402  11.527 -0.0893 -0.1121  0.1414
 7856SOL    HW135204   1.725   1.398  11.509  0.2745  0.5424 -1.9073
 7856SOL    HW235205   1.836   1.476  11.468 -2.9057 -0.5401 -1.2571
 7857SOL     OW35206   0.601   0.038  17.414  0.2900  0.6035  0.4318
 7857SOL    HW135207   0.675   0.095  17.434  0.9518  0.3985 -1.3805
 7857SOL    HW235208   0.540   0.080  17.474  1.6059 -1.2049  3.0348
 7858SOL     OW35209   1.106   1.794   5.155 -0.8609  0.0853  0.0811
 7858SOL    HW135210   1.168   1.859   5.121 -0.0772 -1.2572 -1.0770
 7858SOL    HW235211   1.079   1.838   5.235 -0.6650 -2.4440  1.5200
 7859SOL     OW35212   0.109   1.782   5.579 -0.0033 -0.0894  0.3050
 7859SOL    HW135213   0.048   1.793   5.506 -0.4718 -0.2946  0.6688
 7859SOL    HW235214   0.188   1.755   5.531  0.1762 -1.7493  1.5313
 7860SOL     OW35215   0.597   3.148   5.474 -0.1171  0.8426  0.0012
 7860SOL    HW135216   0.541   3.219   5.506 -0.4120  0.0554  1.2310
 7860SOL    HW235217   0.574   3.134   5.382 -1.0800  1.8661  0.0721
 7861SOL     OW35218   0.375   3.740   3.248  0.2083 -0.0966 -0.1364
 7861SOL    HW135219   0.323   3.812   3.284  0.9603  1.9811 -3.2248
 7861SOL    HW235220   0.369   3.767   3.156  0.7727 -0.0269 -0.1544
 7862SOL     OW35221   1.033   2.485  16.850  0.1381 -0.1724  0.3152
 7862SOL    HW135222   1.013   2.441  16.933 -3.8226  3.1054  1.0978
 7862SOL    HW235223   0.970   2.557  16.842 -0.0265 -0.2341  1.1024
 7863SOL     OW35224   2.563   0.664   5.832  0.2019 -0.4066 -0.1520
 7863SOL    HW135225   2.616   0.648   5.909  1.0664  0.4531 -0.5672
 7863SOL    HW235226   2.625   0.687   5.763  0.0419  0.7368  0.0718
 7864SOL     OW35227   0.732   0.770  14.608  0.5139  0.3338  0.0698
 7864SOL    HW135228   0.663   0.796  14.547  0.2559 -1.0238 -0.2135
 7864SOL    HW235229   0.697   0.698  14.661 -2.5387  3.8853  2.9093
 7865SOL     OW35230   1.956   4.627   5.831  0.6922  0.1335  0.4556
 7865SOL    HW135231   1.981   4.666   5.747 -0.2905 -1.2971 -0.4880
 7865SOL    HW235232   2.035   4.580   5.859 -0.0037 -0.9741  0.5045
 7866SOL     OW35233   0.682   3.186  14.936 -0.0220 -0.0081  0.6348
 7866SOL    HW135234   0.707   3.094  14.945 -1.1937 -0.5550 -1.5827
 7866SOL    HW235235   0.685   3.211  15.028 -0.2871 -1.4866  1.0432
 7867SOL     OW35236   0.766   1.474  16.676 -0.0800  0.6221 -0.4792
 7867SOL    HW135237   0.703   1.512  16.737 -1.1861 -1.0779 -0.5678
 7867SOL    HW235238   0.819   1.550  16.653  0.0850  0.8110  0.5319
 7868SOL     OW35239   4.583   0.456  10.887  0.2267  0.0717 -0.4311
 7868SOL    HW135240   4.546   0.540  10.913  2.1548  0.7127  0.2186
 7868SOL    HW235241   4.677   0.469  10.899  0.2266  0.7487 -1.1669
 7869SOL     OW35242   4.563   1.215   9.287 -0.1045  0.2570  0.6865
 7869SOL    HW135243   4.602   1.301   9.299  1.2310 -0.3006  0.3886
 7869SOL    HW235244   4.597   1.184   9.371  2.9297 -1.4572 -1.1711
 7870SOL     OW35245   4.291   1.265   8.534 -0.4184 -0.2326 -0.2905
 7870SOL    HW135246   4.267   1.355   8.557  1.5204 -0.1053  1.2675
 7870SOL    HW235247   4.207   1.224   8.553 -0.1995 -0.1898  0.7716
 7871SOL     OW35248   3.964   3.041   7.454 -0.1167 -0.7688 -0.2313
 7871SOL    HW135249   4.006   2.980   7.515 -0.8765 -0.1410  0.9119
 7871SOL    HW235250   4.001   3.021   7.367  0.0556 -0.3711 -0.2503
 7872SOL     OW35251   1.654   3.642   8.376  0.0833  0.4883  0.6113
 7872SOL    HW135252   1.729   3.688   8.413  1.3087 -1.7935  0.9144
 7872SOL    HW235253   1.585   3.709   8.373 -1.6233 -1.2157  2.0165
 7873SOL     OW35254   3.343   0.164   9.192 -0.6593 -1.0190  0.2081
 7873SOL    HW135255   3.314   0.156   9.101  1.5654  2.1225 -0.7836
 7873SOL    HW235256   3.266   0.140   9.245 -0.2182 -0.5528  1.0649
 7874SOL     OW35257   0.537   1.166   8.432  1.0182 -0.0408 -0.4852
 7874SOL    HW135258   0.564   1.203   8.516  0.6913 -1.7492  0.3714
 7874SOL    HW235259   0.459   1.218   8.412 -0.4334 -1.5379  1.2012
 7875SOL     OW35260   4.409   1.070  11.021 -0.2020 -0.3655  0.2093
 7875SOL    HW135261   4.402   1.034  11.110  1.5198  1.1882  0.9812
 7875SOL    HW235262   4.495   1.111  11.025 -0.0715 -0.8784  2.7772
 7876SOL     OW35263   1.515   1.207   7.843  0.0273  1.3076 -0.5845
 7876SOL    HW135264   1.438   1.265   7.842 -0.3969  0.7345 -1.1883
 7876SOL    HW235265   1.547   1.201   7.933  0.2481  0.3702 -0.7299
 7877SOL     OW35266   1.299   2.470   7.927 -0.5341  0.1619 -0.6031
 7877SOL    HW135267   1.344   2.421   7.859  1.7877 -1.0976  1.8732
 7877SOL    HW235268   1.366   2.535   7.951 -0.9890  0.3375  0.1930
 7878SOL     OW35269   3.662   3.602   3.346 -0.9849  0.5917 -0.1170
 7878SOL    HW135270   3.739   3.578   3.399 -0.0262  0.8518 -1.3960
 7878SOL    HW235271   3.706   3.612   3.261 -1.9906 -1.0619 -0.8226
 7879SOL     OW35272   0.175   3.049   4.612  0.1599  0.3297 -0.4448
 7879SOL    HW135273   0.265   3.019   4.599  0.4323  0.4941  1.0653
 7879SOL    HW235274   0.159   3.067   4.519  1.0125 -0.3644 -0.7374
 7880SOL     OW35275   1.473   1.953   8.175 -0.0589  0.9260 -0.0701
 7880SOL    HW135276   1.516   1.935   8.092  0.2810 -1.6254  0.6701
 7880SOL    HW235277   1.380   1.962   8.155 -0.4972 -3.2932  0.0629
 7881SOL     OW35278   4.664   0.972   4.444 -0.6062 -0.3404 -0.2850
 7881SOL    HW135279   4.611   1.029   4.388  1.7715  2.2116  0.0152
 7881SOL    HW235280   4.703   1.029   4.511  0.0378  0.2732 -1.1782
 7882SOL     OW35281   1.109   1.302   5.732 -0.3020  0.6994 -0.1783
 7882SOL    HW135282   1.133   1.318   5.823 -0.6199  0.0086  0.0334
 7882SOL    HW235283   1.029   1.250   5.745 -0.7748  0.9696 -1.9995
 7883SOL     OW35284   3.990   1.597   5.737 -0.0184  0.1636  0.2463
 7883SOL    HW135285   4.062   1.647   5.774 -0.7812  2.2806 -1.1724
 7883SOL    HW235286   4.014   1.507   5.760 -1.0903  0.2643  1.7355
 7884SOL     OW35287   0.419   2.388   4.588 -0.5960 -0.5710 -0.1245
 7884SOL    HW135288   0.510   2.376   4.562 -1.3306  0.1510 -3.0770
 7884SOL    HW235289   0.399   2.295   4.593  1.2329 -0.8566  1.8685
 7885SOL     OW35290   3.410   1.017  17.061 -0.9023 -0.0486  0.0348
 7885SOL    HW135291   3.387   1.090  17.118 -2.3664 -0.6603  0.2381
 7885SOL    HW235292   3.358   1.044  16.984 -0.2703 -2.2088 -1.1530
 7886SOL     OW35293   2.224   0.266  10.511  0.0690 -0.0839  0.4122
 7886SOL    HW135294   2.175   0.336  10.554 -0.7963 -0.1222 -0.5061
 7886SOL    HW235295   2.189   0.271  10.422 -2.0379 -0.1738  1.2312
 7887SOL     OW35296   3.596   3.095   4.362  0.5558  0.0074 -0.9963
 7887SOL    HW135297   3.512   3.058   4.336  0.8195 -0.8297 -0.6493
 7887SOL    HW235298   3.615   3.145   4.282 -1.9157 -0.4283 -1.8678
 7888SOL     OW35299   3.121   0.178   7.549 -0.3230  0.2954  0.1256
 7888SOL    HW135300   3.205   0.223   7.536 -1.2962  2.6073  1.6663
 7888SOL    HW235301   3.135   0.126   7.628  2.3755  0.0092 -0.5380
 7889SOL     OW35302   4.012   1.670  11.249  0.0727  0.3092  0.4366
 7889SOL    HW135303   3.930   1.638  11.287  0.4682  0.2676  1.2399
 7889SOL    HW235304   3.973   1.696  11.165  0.2656 -0.4408  0.1142
 7890SOL     OW35305   3.147   2.472  16.540 -0.0611 -0.2411  0.5025
 7890SOL    HW135306   3.202   2.449  16.465  1.0084  0.9779  0.9069
 7890SOL    HW235307   3.058   2.471  16.505  0.4232  3.2711 -0.7809
 7891SOL     OW35308   3.977   3.770  10.984 -0.0615 -0.4426  0.2026
 7891SOL    HW135309   3.902   3.830  10.986  0.2666 -0.1090  2.8388
 7891SOL    HW235310   3.946   3.722  11.062  0.5431 -1.9346 -0.4691
 7892SOL     OW35311   2.463   4.572   9.719 -0.3507 -0.1119  0.4437
 7892SOL    HW135312   2.398   4.524   9.668 -0.0224 -1.8819  1.6905
 7892SOL    HW235313   2.514   4.497   9.750  1.2707  1.0250  0.5292
 7893SOL     OW35314   2.211   0.964   0.038  0.3038  0.0670  0.3798
 7893SOL    HW135315   2.258   1.002  17.707 -2.6874 -0.1647 -1.6498
 7893SOL    HW235316   2.120   0.970   0.009  0.3662 -1.0098 -0.0433
 7894SOL     OW35317   1.037   3.785  14.674 -0.2965 -0.3802 -0.4334
 7894SOL    HW135318   1.019   3.696  14.643  0.5870 -1.0698  1.0122
 7894SOL    HW235319   1.108   3.813  14.617  0.6780 -0.3218  0.8113
 7895SOL     OW35320   3.715   1.483  10.920  0.1983 -0.1122 -0.0799
 7895SOL    HW135321   3.803   1.495  10.955  1.2116 -1.5642 -2.1413
 7895SOL    HW235322   3.706   1.546  10.849  1.0029 -1.6516 -1.5510
 7896SOL     OW35323   1.600   1.928  13.435 -0.1133 -0.2080 -0.1130
 7896SOL    HW135324   1.643   1.995  13.489  2.2629 -0.0112 -2.2681
 7896SOL    HW235325   1.518   1.912  13.482 -0.2157  1.0648  0.1432
 7897SOL     OW35326   1.317   3.927   3.577 -0.5486  0.2648 -0.0104
 7897SOL    HW135327   1.356   3.840   3.568 -1.2424 -0.1248  0.7687
 7897SOL    HW235328   1.242   3.913   3.635 -0.1299 -0.1937  0.4192
 7898SOL     OW35329   3.382   4.386   7.211 -0.1445 -0.2912 -0.4576
 7898SOL    HW135330   3.441   4.357   7.280  0.8511 -1.2616 -1.7139
 7898SOL    HW235331   3.414   4.340   7.134 -1.9163 -0.6284 -0.9917
 7899SOL     OW35332   3.752   3.384   2.096  0.1250  0.2135  0.1019
 7899SOL    HW135333   3.775   3.316   2.033 -0.0144 -1.4206  1.7950
 7899SOL    HW235334   3.806   3.360   2.171 -1.9254 -0.0602  1.5204
 7900SOL     OW35335   3.112   1.326   1.959  0.5593 -0.1889  0.3756
 7900SOL    HW135336   3.049   1.271   2.006  0.4308 -1.0008 -0.7369
 7900SOL    HW235337   3.190   1.304   2.009 -0.3818 -4.6567 -0.0575
 7901SOL     OW35338   1.901   2.681   7.147  0.0991  0.0880 -0.3199
 7901SOL    HW135339   1.922   2.588   7.148 -0.9410 -0.1452  0.4887
 7901SOL    HW235340   1.829   2.697   7.085  0.8070 -1.4349 -1.5279
 7902SOL     OW35341   0.867   2.132   9.677 -0.0319  0.0899  0.3481
 7902SOL    HW135342   0.834   2.205   9.729  1.0859  0.2672  0.8216
 7902SOL    HW235343   0.923   2.082   9.736  2.0343  0.6931 -1.1069
 7903SOL     OW35344   3.327   2.240   1.525 -0.0209 -0.1612 -0.1468
 7903SOL    HW135345   3.359   2.305   1.462 -2.4860  1.1518 -0.0311
 7903SOL    HW235346   3.399   2.246   1.588 -0.7018  0.4208  0.5774
 7904SOL     OW35347   2.131   0.338   7.141  0.1458  0.7379 -0.3833
 7904SOL    HW135348   2.166   0.262   7.095  2.3196  0.6015  1.4550
 7904SOL    HW235349   2.213   0.389   7.149  0.1994  0.4622  0.7945
 7905SOL     OW35350   0.906   3.547   8.478 -0.2617 -0.5353  0.2367
 7905SOL    HW135351   0.988   3.589   8.454 -0.5334  1.1073  2.1738
 7905SOL    HW235352   0.884   3.514   8.391 -0.5536 -1.9561  0.8451
 7906SOL     OW35353   3.406   3.627   9.766 -0.3856  0.2248 -0.3900
 7906SOL    HW135354   3.375   3.544   9.730  1.6152 -0.8488  0.3067
 7906SOL    HW235355   3.490   3.590   9.793 -0.5587  1.3056  1.6290
 7907SOL     OW35356   0.565   4.415  17.263 -0.0531  0.8522 -0.2323
 7907SOL    HW135357   0.571   4.444  17.353  1.6428  0.0107 -0.0527
 7907SOL    HW235358   0.654   4.380  17.258 -0.3010  0.4203 -1.8375
 7908SOL     OW35359   0.168   3.349   4.269  0.5829  0.0910 -0.5518
 7908SOL    HW135360   0.119   3.305   4.199 -0.5395  0.9704 -0.3198
 7908SOL    HW235361   0.173   3.441   4.242  0.9235  0.0806 -0.5286
 7909SOL     OW35362   1.198   2.297  10.519 -0.2630 -0.5217  0.0957
 7909SOL    HW135363   1.225   2.206  10.537  0.9038 -0.4071 -1.0396
 7909SOL    HW235364   1.125   2.310  10.580 -0.4553 -0.6013 -0.1211
 7910SOL     OW35365   1.430   2.187   9.262 -0.3146 -0.4625 -0.0425
 7910SOL    HW135366   1.422   2.220   9.172  0.1042  0.5915  0.3061
 7910SOL    HW235367   1.489   2.251   9.302 -3.2506  1.1302  1.6614
 7911SOL     OW35368   0.446   4.045   7.796 -0.1597  0.0907  0.4448
 7911SOL    HW135369   0.376   4.013   7.739  0.9556  0.2051 -0.9835
 7911SOL    HW235370   0.516   3.984   7.774 -0.9812 -1.1990  1.3852
 7912SOL     OW35371   0.105   0.496  10.904  0.0405  0.0765 -0.4351
 7912SOL    HW135372   0.163   0.439  10.955 -0.3502 -0.4891 -0.6253
 7912SOL    HW235373   0.172   0.550  10.863  0.4632  0.2388  0.4607
 7913SOL     OW35374   4.603   0.624   2.766  0.1376  0.2520  0.7046
 7913SOL    HW135375   4.686   0.672   2.763  0.9345 -1.1204  1.1780
 7913SOL    HW235376   4.605   0.580   2.681  2.4815  0.5185  0.6170
 7914SOL     OW35377   3.830   3.662   8.422  0.1744  0.1611 -0.1033
 7914SOL    HW135378   3.897   3.701   8.366  0.1658  1.4062  0.7406
 7914SOL    HW235379   3.795   3.590   8.370  0.5078  1.6572 -2.3926
 7915SOL     OW35380   0.765   2.594   4.681  0.3023 -0.4161  0.1636
 7915SOL    HW135381   0.769   2.508   4.639  0.0406 -1.1312  1.6181
 7915SOL    HW235382   0.856   2.596   4.711 -0.7012 -1.9199  3.2722
 7916SOL     OW35383   2.442   4.648   2.510  0.1979 -0.3044  0.2214
 7916SOL    HW135384   2.372   4.682   2.454  0.4895 -0.4744 -0.2459
 7916SOL    HW235385   2.488   4.581   2.459  0.4088  1.0780 -1.3999
 7917SOL     OW35386   1.209   2.574   1.877  0.5815 -0.1700 -0.2552
 7917SOL    HW135387   1.173   2.652   1.919 -1.4669  1.7539 -5.5454
 7917SOL    HW235388   1.238   2.517   1.948  1.7272 -0.4492 -0.9511
 7918SOL     OW35389   0.148   4.705   5.385  0.1638  0.5025  0.1495
 7918SOL    HW135390   0.075   4.643   5.392  1.5835 -1.3959 -1.8391
 7918SOL    HW235391   0.177   4.701   5.294  1.1439  3.3893  0.3584
 7919SOL     OW35392   3.965   0.133   0.540 -0.1273  0.3769 -0.3151
 7919SOL    HW135393   4.042   0.169   0.496 -0.0481 -0.8656 -1.1994
 7919SOL    HW235394   3.979   0.154   0.632 -0.6057 -2.9484  0.5165
 7920SOL     OW35395   2.838   3.338   6.146  0.1271  0.2836  0.5281
 7920SOL    HW135396   2.785   3.271   6.102  1.5968  0.8358 -2.0528
 7920SOL    HW235397   2.770   3.367   6.207 -0.0051  0.7211  0.1779
 7921SOL     OW35398   3.439   1.112   8.736  0.4206 -0.2720  0.2430
 7921SOL    HW135399   3.441   1.060   8.817 -3.1492 -0.9402 -0.1171
 7921SOL    HW235400   3.361   1.086   8.689  1.2523 -0.4274 -1.0581
 7922SOL     OW35401   4.003   1.620  10.355 -0.5063  0.2992 -0.0875
 7922SOL    HW135402   4.066   1.644  10.287 -2.4169  2.9546 -0.9047
 7922SOL    HW235403   3.953   1.549  10.315 -0.5218  0.1580  0.1770
 7923SOL     OW35404   2.342   1.958   3.250 -0.7737 -0.4786  0.2988
 7923SOL    HW135405   2.378   1.966   3.161 -0.8564  1.1338  0.4092
 7923SOL    HW235406   2.252   1.975   3.221 -0.4951  1.2622  0.4442
 7924SOL     OW35407   3.466   2.846  16.525 -0.3914  0.3947  0.8848
 7924SOL    HW135408   3.481   2.837  16.619  0.7149 -0.9475  0.5738
 7924SOL    HW235409   3.371   2.835  16.522  0.1038 -3.8093  0.2298
 7925SOL     OW35410   2.053   2.665  15.919  0.0840  0.1057  0.2494
 7925SOL    HW135411   2.080   2.724  15.850  1.3657  2.6858  2.9483
 7925SOL    HW235412   2.055   2.710  16.004  1.8413  0.6313 -0.0657
 7926SOL     OW35413   3.922   4.308   4.622  0.2049 -0.0359  0.5503
 7926SOL    HW135414   3.941   4.215   4.629 -2.6961 -0.3925  3.5598
 7926SOL    HW235415   3.835   4.302   4.583  0.8641 -2.9554 -0.4318
 7927SOL     OW35416   1.541   0.169   2.962 -0.3167 -0.3942 -0.3830
 7927SOL    HW135417   1.573   0.079   2.972 -0.2692 -0.2015  1.2237
 7927SOL    HW235418   1.543   0.197   3.054 -0.2883 -0.0675 -0.4861
 7928SOL     OW35419   3.977   1.055   2.750  0.3643 -0.6374  0.1721
 7928SOL    HW135420   3.945   1.040   2.839  1.4223  0.2308  0.7034
 7928SOL    HW235421   4.065   1.020   2.766  0.5985  0.0766  0.4686
 7929SOL     OW35422   1.984   3.443   0.413  0.0725 -0.4344  0.4164
 7929SOL    HW135423   2.012   3.462   0.324 -1.3296  0.2257  0.1309
 7929SOL    HW235424   2.027   3.519   0.453  1.3932 -1.0140  0.1038
 7930SOL     OW35425   4.465   1.954   6.903  0.7163 -0.6943 -0.2758
 7930SOL    HW135426   4.551   1.928   6.936  1.5694  2.9279  0.3582
 7930SOL    HW235427   4.444   1.866   6.871 -0.0764 -0.7050  0.2588
 7931SOL     OW35428   1.781   4.113   3.969 -0.4772 -0.2708  0.3408
 7931SOL    HW135429   1.714   4.071   3.915  0.6460 -2.3498  0.5853
 7931SOL    HW235430   1.848   4.127   3.903 -2.4879  1.0601 -1.4271
 7932SOL     OW35431   1.200   0.258   6.431  0.3095 -0.1234  0.0797
 7932SOL    HW135432   1.134   0.211   6.382 -1.6038  0.7873  1.7860
 7932SOL    HW235433   1.143   0.324   6.471  0.9777 -0.2247  1.1925
 7933SOL     OW35434   3.378   2.722   7.664  0.2468 -0.0700  0.0194
 7933SOL    HW135435   3.439   2.649   7.675 -2.4173 -2.1707  1.0465
 7933SOL    HW235436   3.429   2.784   7.612 -0.1909 -0.2755 -0.6537
 7934SOL     OW35437   1.403   1.443   6.173  0.5971  0.1563 -0.1065
 7934SOL    HW135438   1.383   1.438   6.266  0.2748 -1.0588 -0.2442
 7934SOL    HW235439   1.481   1.497   6.182 -0.5540  1.5539  1.5386
 7935SOL     OW35440   3.239   2.517   4.683  0.3695  0.3271  0.6911
 7935SOL    HW135441   3.167   2.454   4.675 -0.3010  0.9597  1.7546
 7935SOL    HW235442   3.251   2.532   4.777 -0.3377  0.6956  0.7218
 7936SOL     OW35443   3.690   3.040   5.385  0.1576 -0.0341 -0.3334
 7936SOL    HW135444   3.766   3.061   5.332 -0.1527 -1.2379 -1.2702
 7936SOL    HW235445   3.726   3.042   5.474  0.1024 -0.0888 -0.3091
 7937SOL     OW35446   3.636   1.224   3.589 -0.1956 -0.0376  0.0063
 7937SOL    HW135447   3.712   1.273   3.618 -0.2781  0.2751 -0.3157
 7937SOL    HW235448   3.610   1.169   3.664 -1.3632 -1.0773 -1.1550
 7938SOL     OW35449   3.917   2.773   4.393 -0.0273  0.1012 -0.0673
 7938SOL    HW135450   3.899   2.777   4.299 -0.9193  2.1363  0.2079
 7938SOL    HW235451   4.007   2.741   4.389 -1.0372 -2.6966 -0.7868
 7939SOL     OW35452   3.880   2.958  12.427  0.1112  0.2533 -0.1717
 7939SOL    HW135453   3.831   3.028  12.382 -0.4155  0.2529  0.4010
 7939SOL    HW235454   3.914   2.905  12.355  1.9170 -0.1714  0.9956
 7940SOL     OW35455   4.612   4.473   4.615 -0.0334 -0.5419  0.4758
 7940SOL    HW135456   4.625   4.420   4.694 -0.1387  2.8089  2.7303
 7940SOL    HW235457   4.680   4.539   4.631 -0.6304 -0.0151  0.8483
 7941SOL     OW35458   2.337   0.053  17.242  0.9895  0.2432  0.7008
 7941SOL    HW135459   2.311   0.113  17.312 -2.6244  0.8665 -1.1339
 7941SOL    HW235460   2.352   0.124  17.181 -1.0247  0.5210  0.5091
 7942SOL     OW35461   1.276   0.811   6.716  0.3789 -0.3545  0.2126
 7942SOL    HW135462   1.358   0.764   6.701  0.3922 -0.4477  0.5710
 7942SOL    HW235463   1.276   0.803   6.811 -0.3255  2.1278  0.4232
 7943SOL     OW35464   2.265   1.116   6.921  0.4648 -0.4677  0.7590
 7943SOL    HW135465   2.325   1.046   6.945 -0.7315 -1.7491  0.0135
 7943SOL    HW235466   2.264   1.111   6.826  0.5949  0.9309  0.6919
 7944SOL     OW35467   3.616   3.418  16.744 -0.1525 -0.3188  0.2218
 7944SOL    HW135468   3.528   3.383  16.752  0.9659 -3.1364  0.1108
 7944SOL    HW235469   3.631   3.437  16.651  0.5616 -1.6969  0.0579
 7945SOL     OW35470   0.130   3.206  14.493  0.1878  0.3524 -0.0174
 7945SOL    HW135471   0.152   3.299  14.497 -1.4683  0.7669 -0.8449
 7945SOL    HW235472   0.100   3.184  14.581 -0.4812 -1.9868 -0.8450
 7946SOL     OW35473   3.258   0.977   3.225 -0.1450 -0.6926 -0.1774
 7946SOL    HW135474   3.348   0.948   3.239 -0.0775 -0.7426 -0.7195
 7946SOL    HW235475   3.267   1.004   3.134  0.0363 -0.4145 -0.0759
 7947SOL     OW35476   2.353   0.956   8.568 -0.3109 -0.4285 -0.1647
 7947SOL    HW135477   2.384   0.935   8.480  4.1561  1.5318  0.9082
 7947SOL    HW235478   2.376   1.048   8.582 -1.0449 -0.0012 -1.7550
 7948SOL     OW35479   2.183   3.910   5.391 -0.4520  0.1076 -0.1875
 7948SOL    HW135480   2.134   3.969   5.334 -1.8893 -0.3467  0.5843
 7948SOL    HW235481   2.152   3.930   5.479  2.3046  0.8164  0.6200
 7949SOL     OW35482   3.688   2.123   2.118 -0.0668 -0.8668 -0.0459
 7949SOL    HW135483   3.767   2.166   2.085  0.4960 -1.9302 -0.0990
 7949SOL    HW235484   3.618   2.186   2.102 -0.1645 -0.8259  0.5218
 7950SOL     OW35485   0.864   1.362   4.547 -0.2689 -0.1045 -0.2907
 7950SOL    HW135486   0.859   1.267   4.558  0.2804  0.0316  1.0918
 7950SOL    HW235487   0.913   1.376   4.466  0.5427  0.5982  0.3153
 7951SOL     OW35488   1.687   2.310   5.694 -0.1106 -0.4576 -0.2398
 7951SOL    HW135489   1.764   2.322   5.751  0.3389 -2.1872 -0.4920
 7951SOL    HW235490   1.636   2.255   5.753  0.3902 -2.5437 -1.7900
 7952SOL     OW35491   4.250   1.824   4.247  0.1992 -0.2443  0.3081
 7952SOL    HW135492   4.188   1.783   4.308 -1.5846  0.9145 -0.7156
 7952SOL    HW235493   4.328   1.798   4.296 -0.9292 -2.1110  1.1407
 7953SOL     OW35494   4.712   1.909   4.425  1.0692  0.2004 -0.0475
 7953SOL    HW135495   4.638   1.930   4.368  0.8758  0.4812  0.3138
 7953SOL    HW235496   4.685   1.964   4.498 -0.9430  0.2855 -0.8628
 7954SOL     OW35497   0.350   3.124   9.939 -0.1870 -0.4947 -0.3050
 7954SOL    HW135498   0.350   3.212   9.901  0.3675 -0.2036  0.3707
 7954SOL    HW235499   0.258   3.102   9.950 -0.3721  0.9555  1.1484
 7955SOL     OW35500   4.669   0.887   3.056  0.2669 -0.2333  0.2624
 7955SOL    HW135501   4.697   0.909   3.145 -0.7164  0.5447  0.3734
 7955SOL    HW235502   4.575   0.898   3.067  0.2854  1.3901 -1.1451
 7956SOL     OW35503   1.863   1.496  16.054  0.3867  0.2204  0.4243
 7956SOL    HW135504   1.919   1.476  16.129  0.2601  0.3456  0.5519
 7956SOL    HW235505   1.812   1.558  16.105  0.0845 -0.7196  1.2667
 7957SOL     OW35506   3.914   2.379   2.128 -0.4120  0.4707  0.6323
 7957SOL    HW135507   3.840   2.414   2.077 -0.3155  0.2255  0.3266
 7957SOL    HW235508   3.896   2.391   2.221  0.5488 -0.3991  0.9331
 7958SOL     OW35509   3.805   0.852  11.186  0.3992  0.8932  0.0703
 7958SOL    HW135510   3.867   0.786  11.219 -0.4739 -1.1842 -2.4163
 7958SOL    HW235511   3.857   0.929  11.163 -0.2720  1.4387  0.3692
 7959SOL     OW35512   2.090   1.545  14.401 -0.4736 -0.0073  0.0979
 7959SOL    HW135513   2.156   1.477  14.384 -1.2209 -0.7632  0.2223
 7959SOL    HW235514   2.131   1.579  14.481  0.2791 -0.3748 -0.1261
 7960SOL     OW35515   2.822   2.363   0.469  0.1348  0.0881 -0.2977
 7960SOL    HW135516   2.911   2.397   0.481  0.4576 -0.6470 -0.6343
 7960SOL    HW235517   2.793   2.360   0.561 -0.5844 -0.0007 -0.5305
 7961SOL     OW35518   2.249   4.024   1.644  0.2293  0.6627 -0.0143
 7961SOL    HW135519   2.266   3.941   1.599  1.6228  0.9260  0.0335
 7961SOL    HW235520   2.240   3.993   1.734  0.5790 -0.9673 -0.5473
 7962SOL     OW35521   1.702   3.145   8.464  0.2052 -0.9475 -0.1653
 7962SOL    HW135522   1.618   3.188   8.448  0.6385 -0.3439 -0.7993
 7962SOL    HW235523   1.753   3.224   8.479 -2.0686  1.3915 -4.9373
 7963SOL     OW35524   3.184   1.340   4.015  0.0882  0.0478 -0.2199
 7963SOL    HW135525   3.115   1.324   4.079 -0.1320  0.4035 -0.3700
 7963SOL    HW235526   3.244   1.388   4.072 -1.0313  0.7099  0.3952
 7964SOL     OW35527   3.777   3.364   0.997 -0.3642  0.4275  0.1199
 7964SOL    HW135528   3.828   3.395   0.922 -0.0350  1.1533  0.6445
 7964SOL    HW235529   3.830   3.398   1.069 -2.2636 -1.1440  2.2591
 7965SOL     OW35530   2.436   0.159   1.143  0.2679  0.6619  0.2315
 7965SOL    HW135531   2.399   0.098   1.207  0.0666 -0.0605 -0.5807
 7965SOL    HW235532   2.473   0.232   1.194  1.4245  0.8278 -0.8536
 7966SOL     OW35533   3.574   1.870   0.121 -0.3999 -0.4393 -0.5794
 7966SOL    HW135534   3.635   1.827   0.061 -0.7592  0.8401 -1.8666
 7966SOL    HW235535   3.575   1.962   0.093 -0.9777  0.3561  2.0034
 7967SOL     OW35536   3.144   1.362  10.512  0.0851  0.2102  0.3329
 7967SOL    HW135537   3.123   1.315  10.432 -0.1689  0.0691  0.4800
 7967SOL    HW235538   3.235   1.339  10.529  0.1345 -0.8042 -1.2911
 7968SOL     OW35539   3.107   1.285  12.906  0.0764 -0.2020  0.6374
 7968SOL    HW135540   3.077   1.292  12.815 -0.3019 -0.7279  0.7253
 7968SOL    HW235541   3.198   1.258  12.891  0.6102  1.3016  1.1254
 7969SOL     OW35542   2.003   0.331   2.522  0.2509 -0.3347 -0.0397
 7969SOL    HW135543   2.082   0.344   2.470 -0.9455  2.5714 -1.1118
 7969SOL    HW235544   1.929   0.338   2.462  1.8006 -0.1092 -1.9570
 7970SOL     OW35545   3.711   2.332   4.316 -0.0799 -0.1591  0.5199
 7970SOL    HW135546   3.717   2.406   4.376 -1.9301  0.6268 -0.2359
 7970SOL    HW235547   3.687   2.376   4.234  0.6873 -1.3475 -0.3352
 7971SOL     OW35548   1.931   0.152   1.413  0.4165 -0.3580 -0.6846
 7971SOL    HW135549   1.890   0.171   1.329 -1.3441  0.7546  0.4326
 7971SOL    HW235550   2.015   0.198   1.415  0.2265  0.0451 -1.9175
 7972SOL     OW35551   3.170   2.356   7.753 -0.2887  0.1295  0.0892
 7972SOL    HW135552   3.168   2.443   7.792  3.6894  0.2792 -0.0173
 7972SOL    HW235553   3.090   2.314   7.784 -0.2555 -0.2466 -0.3193
 7973SOL     OW35554   1.916   2.629  16.594  0.1957  0.0547  0.8016
 7973SOL    HW135555   2.003   2.599  16.620 -0.1903 -2.6612 -0.9427
 7973SOL    HW235556   1.867   2.588  16.665 -1.5929 -0.3447 -0.6612
 7974SOL     OW35557   4.055   1.503   5.086  0.2064 -0.0228  0.0159
 7974SOL    HW135558   3.980   1.543   5.131  1.0123  0.7641  0.6469
 7974SOL    HW235559   4.019   1.415   5.075 -3.1279  1.6080 -2.3773
 7975SOL     OW35560   3.614   2.110   4.426 -0.3853 -0.3610  0.3498
 7975SOL    HW135561   3.582   2.200   4.436  2.4318  0.7485 -0.8006
 7975SOL    HW235562   3.654   2.120   4.340 -0.6579 -0.5642  0.1999
 7976SOL     OW35563   1.528   0.322  16.429  0.0512 -0.2944  0.5500
 7976SOL    HW135564   1.502   0.281  16.511  0.7153 -0.2308  0.7912
 7976SOL    HW235565   1.471   0.399  16.431  1.7082  0.9052  1.9429
 7977SOL     OW35566   3.683   3.584   6.857  0.0599 -0.7862 -0.3756
 7977SOL    HW135567   3.613   3.648   6.872 -0.4729 -1.2912 -0.7236
 7977SOL    HW235568   3.701   3.563   6.948  0.1842 -2.4011 -0.7635
 7978SOL     OW35569   2.243   4.200  13.433  0.2254 -0.4833  0.5297
 7978SOL    HW135570   2.202   4.221  13.516  1.3006 -0.2651  1.0028
 7978SOL    HW235571   2.220   4.107  13.438  1.2201 -0.8405 -1.2696
 7979SOL     OW35572   0.620   2.625  12.768  0.2888 -0.0875  0.2324
 7979SOL    HW135573   0.547   2.567  12.785  0.5146 -0.3110  0.4298
 7979SOL    HW235574   0.597   2.708  12.809  0.2080  0.6778 -1.3353
 7980SOL     OW35575   0.892   2.780   1.639 -0.3747 -0.0542 -0.0442
 7980SOL    HW135576   0.962   2.745   1.585  0.7178  0.6461  0.9139
 7980SOL    HW235577   0.818   2.773   1.578 -1.4800  1.1524  1.1505
 7981SOL     OW35578   1.850   3.436   6.150  1.0757 -0.6890  0.1904
 7981SOL    HW135579   1.918   3.503   6.147 -0.3847  0.7585 -0.3327
 7981SOL    HW235580   1.844   3.432   6.245  0.2523  0.8163  0.2002
 7982SOL     OW35581   3.459   3.496   3.460  0.1083  0.1180 -0.3115
 7982SOL    HW135582   3.541   3.522   3.418  0.5868  0.7389  1.0122
 7982SOL    HW235583   3.430   3.583   3.485 -1.9450 -0.4403 -0.7624
 7983SOL     OW35584   2.999   0.748   7.169  0.2454  0.7018 -0.1685
 7983SOL    HW135585   3.081   0.767   7.125 -0.6622  0.8566 -1.7804
 7983SOL    HW235586   2.967   0.669   7.126 -0.2396  0.1345  1.2333
 7984SOL     OW35587   2.733   0.544   6.034 -0.4607 -0.0703  0.0958
 7984SOL    HW135588   2.760   0.533   6.125  1.1257 -2.1622 -0.6342
 7984SOL    HW235589   2.780   0.468   6.000 -0.8366 -0.0247 -0.5244
 7985SOL     OW35590   0.437   3.364   3.297  0.0783  0.1405 -0.2298
 7985SOL    HW135591   0.529   3.380   3.274 -0.0570  3.4514  1.4757
 7985SOL    HW235592   0.399   3.366   3.209  0.8021  0.3943 -0.5412
 7986SOL     OW35593   0.168   3.327   1.477 -0.0342 -0.4192 -0.0933
 7986SOL    HW135594   0.112   3.259   1.441  0.5588  0.3492 -2.4705
 7986SOL    HW235595   0.105   3.366   1.537  0.1859 -3.1306  1.8607
 7987SOL     OW35596   2.225   0.598   6.528 -0.5400 -0.2100  0.5745
 7987SOL    HW135597   2.199   0.617   6.619  2.7303 -0.8376  1.6555
 7987SOL    HW235598   2.139   0.612   6.490 -0.4405 -1.8980 -0.2473
 7988SOL     OW35599   0.482   3.787  12.739 -0.0903 -0.2743 -0.5252
 7988SOL    HW135600   0.541   3.743  12.678  0.6493 -0.3277  0.2377
 7988SOL    HW235601   0.406   3.733  12.717 -0.6215  0.3453 -0.2172
 7989SOL     OW35602   0.477   1.385   6.707 -0.4107 -0.1308  0.3071
 7989SOL    HW135603   0.382   1.382   6.698 -0.4045 -0.0215  0.1949
 7989SOL    HW235604   0.486   1.347   6.794 -2.7985 -0.2300  0.4977
 7990SOL     OW35605   0.302   3.866   8.808  0.3193  0.6527  0.0788
 7990SOL    HW135606   0.334   3.785   8.770  1.9876 -0.0467  2.9950
 7990SOL    HW235607   0.369   3.893   8.872  2.0775 -0.9153 -1.1066
 7991SOL     OW35608   3.495   2.156   0.533  0.5658 -0.0384 -0.4071
 7991SOL    HW135609   3.460   2.117   0.613  0.2569  0.2675 -0.3957
 7991SOL    HW235610   3.419   2.195   0.490 -0.4353  0.0142  1.4346
 7992SOL     OW35611   3.222   0.706   3.425  0.8297 -0.3138 -0.1100
 7992SOL    HW135612   3.202   0.798   3.410  1.6107 -0.3359 -1.2732
 7992SOL    HW235613   3.153   0.677   3.485  0.1531 -0.2051 -0.8388
 7993SOL     OW35614   3.122   0.896   1.440  0.1165 -0.2673 -0.0281
 7993SOL    HW135615   3.168   0.976   1.468  0.6070  0.1584 -2.0063
 7993SOL    HW235616   3.037   0.936   1.420  0.5547  0.1194 -1.1413
 7994SOL     OW35617   0.537   3.805   6.406 -0.2939  0.0871 -0.1137
 7994SOL    HW135618   0.578   3.764   6.330  0.0742 -0.4926  0.3986
 7994SOL    HW235619   0.528   3.730   6.465 -0.3020  0.2096  0.0425
 7995SOL     OW35620   0.711   1.143   3.863 -0.3065  0.2875  0.4665
 7995SOL    HW135621   0.630   1.138   3.914 -0.8232  1.2262 -0.2728
 7995SOL    HW235622   0.750   1.062   3.897  1.8253  0.3698 -1.7539
 7996SOL     OW35623   2.296   3.849   5.669  0.2446 -0.0714 -0.2954
 7996SOL    HW135624   2.365   3.789   5.698 -0.2068 -0.8862 -0.9084
 7996SOL    HW235625   2.335   3.928   5.704 -0.5338  0.7410 -1.2491
 7997SOL     OW35626   1.966   2.147  10.988  0.0257 -0.1231  0.4206
 7997SOL    HW135627   1.925   2.086  11.049 -0.9106 -1.3654 -1.4642
 7997SOL    HW235628   2.059   2.141  11.010  0.3186 -0.6930 -1.0059
 7998SOL     OW35629   3.348   0.808   8.654  0.5152  0.2413 -0.2826
 7998SOL    HW135630   3.329   0.738   8.716 -0.1959 -1.0746 -1.9922
 7998SOL    HW235631   3.442   0.806   8.637  0.4457  2.3298 -0.9349
 7999SOL     OW35632   0.784   4.014   8.398  0.0456 -0.1605  0.8008
 7999SOL    HW135633   0.768   3.920   8.400  1.3164 -0.4236 -0.9189
 7999SOL    HW235634   0.756   4.046   8.484  0.0464 -0.1324  0.7908
 8000SOL     OW35635   4.305   1.904   3.139 -0.5184 -0.1940 -0.2471
 8000SOL    HW135636   4.389   1.886   3.097 -0.9474 -2.5757 -0.0829
 8000SOL    HW235637   4.303   1.999   3.131 -3.3636 -0.3418 -1.2908
 8001SOL     OW35638   0.903   0.979   7.452 -0.1609 -0.0601  0.1618
 8001SOL    HW135639   0.974   0.950   7.394  1.5863  1.5761  1.4852
 8001SOL    HW235640   0.941   0.963   7.538  0.0620 -1.3388 -0.1737
 8002SOL     OW35641   3.900   3.832   3.346 -0.3843 -0.7205 -0.4659
 8002SOL    HW135642   3.835   3.798   3.286 -0.8534 -0.3336 -0.1741
 8002SOL    HW235643   3.978   3.799   3.302 -0.3047 -0.7730 -0.2865
 8003SOL     OW35644   1.436   3.307   1.726 -0.1857 -0.8392 -0.7848
 8003SOL    HW135645   1.518   3.325   1.772 -0.2687 -1.6176 -0.3254
 8003SOL    HW235646   1.430   3.212   1.737 -1.0037 -0.5784  0.9179
 8004SOL     OW35647   0.705   4.695   3.728 -0.3208 -0.4164 -0.0482
 8004SOL    HW135648   0.735   0.044   3.695 -3.7530  0.9936  0.4871
 8004SOL    HW235649   0.777   4.663   3.781 -0.7676  0.1928  0.9270
 8005SOL     OW35650   4.428   0.074   8.334 -0.2909 -0.2902  0.1510
 8005SOL    HW135651   4.501   0.109   8.283 -0.2612 -0.1049  0.3190
 8005SOL    HW235652   4.424   4.716   8.320  2.2731 -0.2493 -0.8383
 8006SOL     OW35653   2.612   1.242   2.948  0.2094  0.3764 -0.4155
 8006SOL    HW135654   2.519   1.227   2.967 -0.0901  1.0155 -1.3480
 8006SOL    HW235655   2.640   1.277   3.032 -0.2189 -0.3027  0.0111
 8007SOL     OW35656   3.836   0.945   0.803  0.0159  0.0059 -0.0997
 8007SOL    HW135657   3.909   0.971   0.858 -0.6190 -2.3896  1.8556
 8007SOL    HW235658   3.849   0.859   0.762 -2.7303  0.5725 -2.1799
 8008SOL     OW35659   3.107   0.335   2.458  0.3089  0.6797 -0.3089
 8008SOL    HW135660   3.142   0.389   2.529 -0.7597 -0.6660  1.2571
 8008SOL    HW235661   3.174   0.267   2.458 -0.8592 -0.4908  1.4767
 8009SOL     OW35662   3.654   4.715   7.484  0.1324  0.4188  0.1471
 8009SOL    HW135663   3.718   4.671   7.426 -0.7005  1.3758 -1.4956
 8009SOL    HW235664   3.644   4.662   7.563 -0.7726  0.1998 -0.1121
 8010SOL     OW35665   4.180   3.125  14.786  0.0194 -0.0442  0.1275
 8010SOL    HW135666   4.212   3.077  14.863  0.4710  0.7410  0.4214
 8010SOL    HW235667   4.194   3.217  14.809 -2.7051 -0.7101  4.3798
 8011SOL     OW35668   1.872   3.386   8.197 -0.3322  0.0103  0.5245
 8011SOL    HW135669   1.945   3.445   8.184 -0.6178  0.0829 -0.7398
 8011SOL    HW235670   1.868   3.392   8.293 -0.1059  0.8940  0.4765
 8012SOL     OW35671   2.291   4.130   2.093  0.4690 -0.1278  0.1985
 8012SOL    HW135672   2.222   4.080   2.050 -2.0811  1.9060  1.9653
 8012SOL    HW235673   2.303   4.085   2.177  1.3245  0.4895  0.4110
 8013SOL     OW35674   1.562   2.752   8.490  0.1731  0.1971 -0.4481
 8013SOL    HW135675   1.494   2.802   8.446 -1.4860 -2.0939 -0.5370
 8013SOL    HW235676   1.547   2.671   8.441 -1.8662 -0.6697  1.5968
 8014SOL     OW35677   1.289   2.202   1.140  0.0087  0.0529  0.0408
 8014SOL    HW135678   1.347   2.167   1.073 -0.0319  0.2823 -0.1133
 8014SOL    HW235679   1.336   2.264   1.196 -0.6862  1.5982 -1.0614
 8015SOL     OW35680   1.140   3.616  12.975 -0.4278 -0.1989  0.1806
 8015SOL    HW135681   1.111   3.578  12.892 -0.9809  1.4389 -0.3858
 8015SOL    HW235682   1.213   3.556  12.987 -1.5941 -1.7442 -0.4807
 8016SOL     OW35683   0.253   2.999   6.458 -0.1515  0.2713  0.8445
 8016SOL    HW135684   0.348   3.010   6.454  0.1886 -3.8016 -2.4534
 8016SOL    HW235685   0.237   2.919   6.508  1.4984 -1.0163 -0.7008
 8017SOL     OW35686   4.674   4.395   8.105 -0.2805 -0.5634  0.2594
 8017SOL    HW135687   4.631   4.472   8.068 -0.6323 -1.8428 -2.0405
 8017SOL    HW235688   4.606   4.331   8.127 -1.6753  0.3111 -1.4316
 8018SOL     OW35689   2.284   0.784   9.970  0.2114  0.1957  1.0012
 8018SOL    HW135690   2.294   0.862   9.915  0.4624  0.8511  1.9715
 8018SOL    HW235691   2.372   0.754   9.948 -0.0750 -1.1709  1.7316
 8019SOL     OW35692   0.420   2.990   9.704 -0.7545 -0.3786  0.2142
 8019SOL    HW135693   0.410   3.048   9.779 -2.5416 -1.4519  0.8106
 8019SOL    HW235694   0.459   2.913   9.744 -1.7391 -0.2163  1.4804
 8020SOL     OW35695   0.526   3.890   5.368  0.2603  0.1362 -0.1128
 8020SOL    HW135696   0.471   3.814   5.390  0.9962 -0.5043 -0.4625
 8020SOL    HW235697   0.487   3.950   5.432 -1.1401 -0.3057 -0.5522
 8021SOL     OW35698   4.498   0.908   5.095  0.0950 -0.6069 -0.9103
 8021SOL    HW135699   4.412   0.869   5.105  0.0366  0.1790  1.5776
 8021SOL    HW235700   4.477   1.001   5.086  2.6561  0.1191  0.6439
 8022SOL     OW35701   2.437   3.053  13.122  0.1618  0.3247 -0.0101
 8022SOL    HW135702   2.509   3.074  13.181 -1.2199  0.6182  1.5714
 8022SOL    HW235703   2.462   3.114  13.052  1.2048 -0.6792 -0.5000
 8023SOL     OW35704   2.395   4.671   1.950  0.2737  0.5886  0.8105
 8023SOL    HW135705   2.438   4.658   2.035 -0.0431 -2.2675  0.5530
 8023SOL    HW235706   2.422   0.024   1.929 -2.5062  1.1358 -0.3659
 8024SOL     OW35707   3.140   1.796   3.294 -0.3593  0.5375  0.3121
 8024SOL    HW135708   3.224   1.839   3.279 -0.2220  0.7178  1.6006
 8024SOL    HW235709   3.109   1.784   3.204  2.1295 -0.1456 -0.4653
 8025SOL     OW35710   2.437   3.058   7.873  0.5602 -0.4416 -0.3379
 8025SOL    HW135711   2.416   3.007   7.794 -0.4306  1.3107 -1.2158
 8025SOL    HW235712   2.428   2.988   7.938 -1.1349  0.6966  0.6668
 8026SOL     OW35713   2.064   3.022   1.370 -0.2765  0.6747  0.0806
 8026SOL    HW135714   2.135   3.087   1.365  0.2660  0.2478  2.4139
 8026SOL    HW235715   2.009   3.046   1.444  2.8895  0.0990  2.6021
 8027SOL     OW35716   0.698   3.910   5.584 -0.0197  0.0522 -0.4928
 8027SOL    HW135717   0.656   3.877   5.505 -0.0528 -0.8840 -0.0861
 8027SOL    HW235718   0.719   4.002   5.567 -1.7752  0.4483 -0.5765
 8028SOL     OW35719   0.581   4.487   4.485 -0.2310  0.8507 -0.0858
 8028SOL    HW135720   0.509   4.424   4.481  0.2528  0.2946 -0.1167
 8028SOL    HW235721   0.535   4.569   4.469 -0.3597  1.3076  2.7300
 8029SOL     OW35722   2.047   2.283   2.980  0.6078  0.4463  0.3574
 8029SOL    HW135723   2.089   2.198   2.997 -0.1257  0.2969  1.4201
 8029SOL    HW235724   1.985   2.305   3.049 -1.3272 -0.3080 -1.1575
 8030SOL     OW35725   0.330   0.596  10.026 -0.1787  0.1823 -0.1697
 8030SOL    HW135726   0.298   0.506  10.021 -0.4344  0.2512  0.2185
 8030SOL    HW235727   0.265   0.634  10.084 -0.4424  0.7495 -0.8370
 8031SOL     OW35728   4.665   1.756   4.983 -0.3162  0.2829 -0.5031
 8031SOL    HW135729   4.720   1.714   5.050  1.1170  0.4139 -1.5942
 8031SOL    HW235730   4.736   1.799   4.935  0.7160  0.8605  1.5523
 8032SOL     OW35731   3.745   3.511   6.041  0.7764 -0.2917  0.3471
 8032SOL    HW135732   3.670   3.511   5.980  0.5005 -1.8580  0.7027
 8032SOL    HW235733   3.815   3.469   5.992  0.8876 -0.1099  0.3480
 8033SOL     OW35734   0.517   1.369   1.700 -0.4307  0.2622  1.2258
 8033SOL    HW135735   0.506   1.435   1.769  1.9661 -0.0941  1.9351
 8033SOL    HW235736   0.574   1.303   1.739  0.8720  2.4396  3.0137
 8034SOL     OW35737   0.207   0.311   3.988  0.0481 -0.2120  0.5098
 8034SOL    HW135738   0.172   0.280   4.071 -0.4281 -0.7875  0.0882
 8034SOL    HW235739   0.297   0.334   4.012  0.4728  2.6138 -3.8004
 8035SOL     OW35740   3.627   3.612  15.213  0.1178  0.3791  0.4494
 8035SOL    HW135741   3.652   3.631  15.123 -1.9677  1.8087  0.1700
 8035SOL    HW235742   3.533   3.611  15.195 -0.3398  0.5746  2.8249
 8036SOL     OW35743   2.643   1.632   5.592 -0.0269 -0.1321  0.1470
 8036SOL    HW135744   2.712   1.671   5.645 -0.5305  0.2319  0.5263
 8036SOL    HW235745   2.662   1.671   5.506 -0.5075 -0.3580 -0.0653
 8037SOL     OW35746   1.039   3.200   5.120 -0.7217 -0.4200 -0.1301
 8037SOL    HW135747   1.078   3.115   5.141 -1.3231 -0.7359 -0.2749
 8037SOL    HW235748   1.121   3.247   5.108 -0.0830 -1.1861  1.2064
 8038SOL     OW35749   3.138   3.512  16.124  0.0417  0.4020  0.0963
 8038SOL    HW135750   3.150   3.481  16.034  1.9188 -0.0103  0.4801
 8038SOL    HW235751   3.175   3.599  16.111 -0.3386  0.8237  1.8197
 8039SOL     OW35752   2.254   0.962   9.446  0.3757 -0.4548  0.2363
 8039SOL    HW135753   2.248   1.053   9.474  1.2393 -0.0259 -0.9460
 8039SOL    HW235754   2.272   0.971   9.352 -1.2644 -1.0970 -0.1388
 8040SOL     OW35755   0.857   3.709   6.933  0.2356  0.7111  0.6306
 8040SOL    HW135756   0.875   3.802   6.914  0.4870  0.5491  0.0787
 8040SOL    HW235757   0.838   3.683   6.843  0.0838  1.9895  0.2897
 8041SOL     OW35758   1.782   1.895  13.697 -0.6097 -0.0895  0.2788
 8041SOL    HW135759   1.732   1.828  13.649  3.2030 -1.6983 -1.4240
 8041SOL    HW235760   1.848   1.844  13.744 -0.0743 -1.6193 -2.1500
 8042SOL     OW35761   0.010   3.948   2.864  0.5400  0.3937  0.3607
 8042SOL    HW135762   0.065   3.960   2.787 -0.5859  0.5604 -0.4073
 8042SOL    HW235763   0.006   4.040   2.889 -0.6471  0.1024  1.2456
 8043SOL     OW35764   4.656   1.833   7.822 -0.0798 -0.2459 -0.0763
 8043SOL    HW135765   4.726   1.770   7.840 -1.2710 -0.8494  2.3594
 8043SOL    HW235766   4.594   1.816   7.893 -0.3398 -1.4643 -0.5805
 8044SOL     OW35767   0.539   0.078   5.296  0.5151  0.2877 -0.1722
 8044SOL    HW135768   0.572   0.066   5.208  1.1822  1.6779 -0.1111
 8044SOL    HW235769   0.457   0.124   5.281  1.6257  1.8390 -1.3715
 8045SOL     OW35770   1.264   0.435   9.084 -0.1118  0.2056  0.4246
 8045SOL    HW135771   1.223   0.520   9.069  0.3079  0.1298 -1.2025
 8045SOL    HW235772   1.224   0.399   9.162 -0.5841 -1.3410 -0.5414
 8046SOL     OW35773   0.804   0.525  14.928 -0.1903 -0.2322 -0.5234
 8046SOL    HW135774   0.839   0.608  14.896  1.9114 -0.9919 -0.1846
 8046SOL    HW235775   0.880   0.468  14.913  1.6232  1.6256  1.6670
 8047SOL     OW35776   4.379   2.287  14.359 -0.0451 -0.3649 -0.3260
 8047SOL    HW135777   4.443   2.357  14.369  0.3500 -0.7744 -0.0145
 8047SOL    HW235778   4.308   2.324  14.413  1.3268 -0.2972  1.4179
 8048SOL     OW35779   2.682   0.298  12.360  0.1265 -0.1052  0.7052
 8048SOL    HW135780   2.590   0.309  12.337  0.1683  2.6010  1.7970
 8048SOL    HW235781   2.689   0.203  12.366 -0.9723 -0.2789 -0.8052
 8049SOL     OW35782   3.544   4.203   7.586  0.1356  0.1422  0.4089
 8049SOL    HW135783   3.613   4.142   7.560  0.4800  0.6598  0.1128
 8049SOL    HW235784   3.532   4.188   7.680 -1.4422  1.0780  0.3583
 8050SOL     OW35785   3.788   2.556  11.437  0.5065  0.0195  0.4786
 8050SOL    HW135786   3.853   2.529  11.373  0.3157 -1.0207  0.7239
 8050SOL    HW235787   3.742   2.623  11.386  1.3725  0.3975  0.2035
 8051SOL     OW35788   0.123   3.196  15.864  0.1055  0.2123  0.3031
 8051SOL    HW135789   0.073   3.146  15.800  2.3556  0.7781 -1.8831
 8051SOL    HW235790   0.189   3.235  15.806 -2.0598 -0.3507 -2.5242
 8052SOL     OW35791   0.698   1.602   5.810  0.0282  0.3163  0.0182
 8052SOL    HW135792   0.641   1.543   5.761  2.5350 -1.0849 -1.2383
 8052SOL    HW235793   0.644   1.681   5.815  0.1167  0.2948  1.4477
 8053SOL     OW35794   3.259   1.303   3.437 -0.2690  0.3816 -0.0861
 8053SOL    HW135795   3.324   1.373   3.432 -1.1650  1.2600  0.6556
 8053SOL    HW235796   3.186   1.359   3.462  0.1159  1.4964 -1.5001
 8054SOL     OW35797   2.551   1.210   6.555 -0.4217 -0.2939 -0.0116
 8054SOL    HW135798   2.603   1.141   6.597  0.0709  0.0697 -0.0246
 8054SOL    HW235799   2.606   1.287   6.567  1.2490 -1.3849 -0.7224
 8055SOL     OW35800   2.263   0.142   7.021 -0.2122 -0.4686  0.4895
 8055SOL    HW135801   2.235   0.192   6.945  0.3664 -0.2780  0.4020
 8055SOL    HW235802   2.320   0.085   6.969 -0.7659 -2.6976  2.3117
 8056SOL     OW35803   0.274   4.182  15.187 -0.0921 -0.3210  0.1168
 8056SOL    HW135804   0.208   4.217  15.247  0.9829 -1.6202  2.0660
 8056SOL    HW235805   0.345   4.246  15.189  0.5573 -1.0147 -0.5897
 8057SOL     OW35806   4.168   3.890   5.312  0.0508 -0.0782 -0.1421
 8057SOL    HW135807   4.104   3.884   5.241 -0.0364 -1.0800  0.0115
 8057SOL    HW235808   4.135   3.816   5.363 -1.2351 -1.5159 -3.0231
 8058SOL     OW35809   3.996   1.110  17.472 -0.1596  0.4240 -0.1795
 8058SOL    HW135810   3.939   1.177  17.433  1.2447  1.1238 -1.0162
 8058SOL    HW235811   3.936   1.035  17.471 -0.3837  0.6145 -1.5823
 8059SOL     OW35812   2.691   1.115   9.375 -0.3581  0.8356 -1.1639
 8059SOL    HW135813   2.633   1.099   9.449  0.9636  0.2491 -0.2713
 8059SOL    HW235814   2.621   1.083   9.317  0.2946  1.7045 -2.4377
 8060SOL     OW35815   2.615   3.396  10.093 -0.5732  0.0175  0.2356
 8060SOL    HW135816   2.625   3.483  10.053  0.6190  0.1979  0.9530
 8060SOL    HW235817   2.577   3.342  10.023  1.2096  0.4901 -1.0870
 8061SOL     OW35818   2.002   4.736  11.279  0.2102 -0.0176 -0.3665
 8061SOL    HW135819   1.993   0.020  11.186 -0.7186 -2.5506 -0.8322
 8061SOL    HW235820   2.091   0.029  11.300 -0.4616  0.3374  2.0337
 8062SOL     OW35821   2.431   2.702   7.557  0.0685 -0.3762  0.1671
 8062SOL    HW135822   2.504   2.748   7.515 -0.0139 -1.0903 -0.7744
 8062SOL    HW235823   2.451   2.731   7.645  0.6621 -0.1520 -0.0464
 8063SOL     OW35824   4.134   1.774  15.099 -0.4022  0.7768 -0.0471
 8063SOL    HW135825   4.164   1.783  15.009  0.9768 -0.1639  0.3234
 8063SOL    HW235826   4.132   1.863  15.134  0.0245 -0.1253  2.2688
 8064SOL     OW35827   0.320   3.135  16.285 -0.2633  0.1246 -0.1487
 8064SOL    HW135828   0.264   3.213  16.285  3.1923  2.5745  0.0766
 8064SOL    HW235829   0.406   3.172  16.271  0.6880 -1.6244  1.0317
 8065SOL     OW35830   4.519   4.570   7.946  0.1017 -1.0745  0.1968
 8065SOL    HW135831   4.594   4.626   7.925  1.6113 -2.7890  1.0309
 8065SOL    HW235832   4.451   4.638   7.945  1.4185  0.2345  1.9797
 8066SOL     OW35833   4.072   2.717   0.098 -0.0940 -0.4702 -0.5571
 8066SOL    HW135834   4.079   2.695   0.005  0.9879  2.6823 -1.2423
 8066SOL    HW235835   4.155   2.682   0.132  0.1393  2.1708  1.5794
 8067SOL     OW35836   4.482   0.591   6.035  0.5653 -0.2192  0.0469
 8067SOL    HW135837   4.477   0.515   6.093  2.1775 -0.5459 -0.2458
 8067SOL    HW235838   4.568   0.627   6.057 -0.2189  0.4295  2.0059
 8068SOL     OW35839   1.271   0.197   7.619  0.2871 -0.1719  0.1606
 8068SOL    HW135840   1.332   0.123   7.618  1.0517  0.4495  0.5539
 8068SOL    HW235841   1.304   0.232   7.536 -0.6551  0.8328  0.2047
 8069SOL     OW35842   2.250   1.567  14.626 -0.1573  0.6170 -0.2148
 8069SOL    HW135843   2.339   1.590  14.650  0.5262 -1.0574 -1.1363
 8069SOL    HW235844   2.206   1.594  14.706  1.1326  1.6377  0.1423
 8070SOL     OW35845   2.252   2.774   5.210  0.2919 -0.2703  0.6199
 8070SOL    HW135846   2.186   2.842   5.228 -1.1064 -1.5239  0.2014
 8070SOL    HW235847   2.331   2.825   5.192 -0.5863  0.5780 -0.8219
 8071SOL     OW35848   2.421   3.565   4.284 -0.6084 -0.1749 -0.1725
 8071SOL    HW135849   2.355   3.517   4.234  0.6403 -0.3354 -1.6702
 8071SOL    HW235850   2.478   3.600   4.215 -0.1360  0.3421  0.4764
 8072SOL     OW35851   2.717   0.754   1.951 -0.0892  0.5695 -0.2583
 8072SOL    HW135852   2.659   0.683   1.923  0.2656  0.6488 -1.1922
 8072SOL    HW235853   2.800   0.707   1.962 -1.1614 -1.3015 -0.0646
 8073SOL     OW35854   0.909   2.687   2.737  0.0606 -0.6570 -0.1743
 8073SOL    HW135855   0.931   2.670   2.829  1.5025  0.9685 -0.2116
 8073SOL    HW235856   0.823   2.730   2.733 -0.1376 -1.1453 -1.1193
 8074SOL     OW35857   2.902   4.562  10.117  0.1050 -0.0661 -0.4027
 8074SOL    HW135858   2.842   4.548  10.190  0.2373  0.2441 -0.2362
 8074SOL    HW235859   2.980   4.585  10.166 -1.6770  1.8609  1.4982
 8075SOL     OW35860   0.392   2.408  11.778 -0.1545 -0.5894  0.9759
 8075SOL    HW135861   0.311   2.359  11.764  0.1943 -2.0111  3.7736
 8075SOL    HW235862   0.460   2.341  11.782  0.1750 -0.2515  1.0562
 8076SOL     OW35863   0.324   4.148  12.635  0.3078  0.4871 -0.3041
 8076SOL    HW135864   0.245   4.102  12.665 -0.4176  2.1426  0.3338
 8076SOL    HW235865   0.361   4.182  12.717  0.8109  2.3328 -1.3064
 8077SOL     OW35866   0.273   4.291   7.152 -0.0311 -0.0428 -0.0617
 8077SOL    HW135867   0.221   4.327   7.080  0.5161 -0.4736 -0.6685
 8077SOL    HW235868   0.361   4.328   7.139 -1.0782  2.9126  1.1521
 8078SOL     OW35869   1.668   0.554  11.525  0.1866 -0.1448 -0.4248
 8078SOL    HW135870   1.707   0.640  11.540  1.2258 -0.9631  1.5493
 8078SOL    HW235871   1.652   0.517  11.612 -0.1121 -0.7519 -0.7382
 8079SOL     OW35872   3.465   0.657   3.536 -0.1600 -0.8556  0.4020
 8079SOL    HW135873   3.533   0.673   3.471  1.1764 -0.7846  1.8183
 8079SOL    HW235874   3.382   0.677   3.493 -0.9172 -3.3183  0.7011
 8080SOL     OW35875   4.171   2.918  16.807  0.1814  0.2210 -0.2817
 8080SOL    HW135876   4.207   2.909  16.718 -0.4716 -1.3691 -0.3832
 8080SOL    HW235877   4.079   2.898  16.793  0.1894 -0.3791  0.5512
 8081SOL     OW35878   4.441   1.425   2.319  0.2900  0.1516 -0.2490
 8081SOL    HW135879   4.405   1.342   2.289 -0.0347  0.3411 -0.3839
 8081SOL    HW235880   4.457   1.409   2.412 -0.7504 -0.9851 -0.2686
 8082SOL     OW35881   3.749   0.929   1.397  0.4368  0.8905  0.1888
 8082SOL    HW135882   3.772   0.990   1.327  0.3894 -1.7843 -2.1342
 8082SOL    HW235883   3.833   0.882   1.399 -0.8306 -1.4462 -1.0010
 8083SOL     OW35884   4.454   1.779   4.589  0.4686 -0.0927  0.1337
 8083SOL    HW135885   4.455   1.739   4.502  0.9686  0.0122  0.0909
 8083SOL    HW235886   4.536   1.752   4.632  1.0855  2.3478  0.4945
 8084SOL     OW35887   4.589   0.058   4.229  0.7218  0.3584  0.2197
 8084SOL    HW135888   4.553   0.106   4.154  0.4606 -0.3466 -0.1069
 8084SOL    HW235889   4.659   0.007   4.190 -1.2508 -2.0146 -0.2038
 8085SOL     OW35890   0.128   3.284   5.975 -0.6435  0.6282 -0.0237
 8085SOL    HW135891   0.035   3.259   5.973 -0.7416  0.9372  0.6832
 8085SOL    HW235892   0.162   3.199   6.004  0.7714  1.2617  0.1226
 8086SOL     OW35893   2.316   4.583   9.196 -0.1463 -0.1810 -0.3984
 8086SOL    HW135894   2.272   4.646   9.139 -0.5650 -0.3091 -0.2166
 8086SOL    HW235895   2.245   4.520   9.205 -1.0659  0.4741 -3.3716
 8087SOL     OW35896   4.176   1.983   2.076  0.0274  0.0087 -0.4872
 8087SOL    HW135897   4.136   2.066   2.050  2.0778  0.3124 -2.6869
 8087SOL    HW235898   4.145   1.925   2.006 -0.5273  0.4517 -0.6147
 8088SOL     OW35899   1.626   3.369   7.140 -0.3633  0.5399  0.2948
 8088SOL    HW135900   1.547   3.423   7.135  0.0159  1.2225  1.8326
 8088SOL    HW235901   1.685   3.417   7.198  1.3825 -3.8238  2.1246
 8089SOL     OW35902   3.711   2.021   5.953  0.1201  0.7019  0.4094
 8089SOL    HW135903   3.689   1.942   5.903  0.1110  0.3437  0.9843
 8089SOL    HW235904   3.676   2.094   5.901 -0.0339 -0.3277 -0.9337
 8090SOL     OW35905   0.864   0.004   6.133  0.0082  0.0233 -0.2811
 8090SOL    HW135906   0.780   4.694   6.136  0.4143 -0.6483  0.6782
 8090SOL    HW235907   0.848   0.092   6.101  0.8134 -0.0613 -0.9287
 8091SOL     OW35908   0.607   3.653   3.347 -0.1821  0.0533  0.5099
 8091SOL    HW135909   0.524   3.672   3.305  0.5383  2.2208  0.0541
 8091SOL    HW235910   0.654   3.643   3.263  0.1152  0.3815  0.6349
 8092SOL     OW35911   0.089   2.734   3.552 -0.1923 -0.0014  0.2939
 8092SOL    HW135912   0.165   2.681   3.574  1.8560  2.3241 -1.1925
 8092SOL    HW235913   0.120   2.760   3.465 -2.3999  1.2627 -0.1351
 8093SOL     OW35914   4.724   0.458   2.214  0.7350 -0.1638 -0.1408
 8093SOL    HW135915   4.677   0.378   2.191 -0.3367  0.8290 -1.3788
 8093SOL    HW235916   4.720   0.505   2.131  0.5739  2.9929  1.6539
 8094SOL     OW35917   1.168   1.999  10.540 -0.2189  0.3356 -0.0389
 8094SOL    HW135918   1.189   1.953  10.621 -0.4241  0.2726 -0.0192
 8094SOL    HW235919   1.085   2.041  10.565 -1.1714 -0.4251 -1.9137
 8095SOL     OW35920   4.627   1.955   1.145  0.1982 -0.0693 -0.1181
 8095SOL    HW135921   4.702   1.992   1.097  1.1687 -1.9635 -0.0839
 8095SOL    HW235922   4.673   1.933   1.226  0.1928 -1.1282 -0.4099
 8096SOL     OW35923   3.315   0.561   3.178 -0.1440 -0.3600 -0.3017
 8096SOL    HW135924   3.401   0.604   3.168 -0.3836  0.8489  2.8856
 8096SOL    HW235925   3.280   0.610   3.253 -1.2997 -1.0548 -0.3938
 8097SOL     OW35926   1.105   1.841  17.244 -0.1408  0.1296  0.3256
 8097SOL    HW135927   1.083   1.749  17.230  0.4814  0.1634 -0.9104
 8097SOL    HW235928   1.148   1.861  17.160  2.9218 -0.6120  1.7246
 8098SOL     OW35929   0.399   3.494  11.705 -0.1371 -0.3906  0.4976
 8098SOL    HW135930   0.316   3.446  11.711 -0.0847 -0.6107 -0.4513
 8098SOL    HW235931   0.382   3.568  11.764 -1.0920 -1.2510  1.3012
 8099SOL     OW35932   3.636   2.184   7.406  0.7202  0.2915  0.3505
 8099SOL    HW135933   3.595   2.134   7.335  0.6915 -0.7147  1.0826
 8099SOL    HW235934   3.680   2.116   7.457  1.6557  0.1655 -0.6164
 8100SOL     OW35935   0.862   2.792   6.893  0.3693 -0.0258 -0.4358
 8100SOL    HW135936   0.925   2.821   6.828  0.9352  0.5641  0.3719
 8100SOL    HW235937   0.875   2.851   6.968 -0.4923 -1.0124  0.4959
 8101SOL     OW35938   1.168   0.697   7.732 -0.2101  0.1779  0.1279
 8101SOL    HW135939   1.252   0.696   7.686 -0.0624  1.3288  0.3669
 8101SOL    HW235940   1.160   0.603   7.750 -2.0492  0.0755 -1.2063
 8102SOL     OW35941   2.521   3.878   4.388  0.2760  0.2818 -0.0258
 8102SOL    HW135942   2.461   3.928   4.443  1.0670  0.1525  0.9547
 8102SOL    HW235943   2.465   3.877   4.310  1.9058  0.9381 -1.2157
 8103SOL     OW35944   4.368   0.226   1.450 -0.1326  0.1251  0.2080
 8103SOL    HW135945   4.370   0.247   1.544  2.4053  1.2574 -0.0927
 8103SOL    HW235946   4.461   0.210   1.437 -0.1780 -0.2063  0.2965
 8104SOL     OW35947   4.581   0.895  16.275 -0.5327  0.2371 -0.3376
 8104SOL    HW135948   4.560   0.964  16.212  1.9112  0.4107 -0.9889
 8104SOL    HW235949   4.505   0.906  16.332 -0.9602  1.0249 -1.0682
 8105SOL     OW35950   0.275   4.397   5.696 -0.0449 -0.1277 -0.2821
 8105SOL    HW135951   0.196   4.450   5.707 -0.4980 -1.1061  1.1998
 8105SOL    HW235952   0.233   4.319   5.661 -0.7485 -0.2981  0.9519
 8106SOL     OW35953   0.555   3.145   8.444 -0.0160 -0.1700  0.5203
 8106SOL    HW135954   0.524   3.194   8.368 -0.7744  0.5075  1.2690
 8106SOL    HW235955   0.648   3.134   8.424  0.6931  1.2905  2.9423
 8107SOL     OW35956   2.011   4.143   2.227 -0.0197 -0.3749 -0.3400
 8107SOL    HW135957   2.035   4.078   2.161 -1.0860 -1.6326  0.5191
 8107SOL    HW235958   1.943   4.189   2.176  2.2108  1.5877 -1.5294
 8108SOL     OW35959   3.116   2.436   6.047  0.0610  0.5079 -0.4892
 8108SOL    HW135960   3.023   2.415   6.045  0.6168 -2.0929  0.7573
 8108SOL    HW235961   3.130   2.382   5.970  1.2047 -3.9490  2.8689
 8109SOL     OW35962   0.524   1.659   4.774  0.4666  0.2607 -0.0901
 8109SOL    HW135963   0.459   1.635   4.708  0.0587 -0.0540  0.4308
 8109SOL    HW235964   0.499   1.594   4.839 -1.7891  0.7074 -0.5202
 8110SOL     OW35965   4.094   0.303   2.937  0.4952 -0.0064 -0.3642
 8110SOL    HW135966   4.015   0.272   2.982  0.5701  0.3111 -0.0129
 8110SOL    HW235967   4.057   0.371   2.881 -0.1622 -1.2312 -1.4281
 8111SOL     OW35968   2.077   4.207   5.943  0.2426  0.1825 -0.2944
 8111SOL    HW135969   2.100   4.293   5.907  1.0566 -0.3023 -0.9205
 8111SOL    HW235970   2.116   4.221   6.030  0.4596  1.1720 -0.5463
 8112SOL     OW35971   2.230   2.597   3.778 -0.3432 -0.1881  0.2623
 8112SOL    HW135972   2.160   2.613   3.715  0.6862 -0.6803 -1.0018
 8112SOL    HW235973   2.297   2.585   3.710 -2.2036 -0.7306 -1.4829
 8113SOL     OW35974   0.685   1.874   6.177  0.6050 -0.0527 -0.1656
 8113SOL    HW135975   0.609   1.827   6.143  0.6502  0.2083 -0.6308
 8113SOL    HW235976   0.669   1.902   6.267  0.5045  1.4384 -0.6327
 8114SOL     OW35977   4.602   4.086   7.713  0.1631  0.4006  0.3406
 8114SOL    HW135978   4.660   4.118   7.782  1.5303 -0.1097 -0.5641
 8114SOL    HW235979   4.515   4.086   7.753 -0.0581 -1.0418 -0.1156
 8115SOL     OW35980   0.129   4.472   2.733 -0.1167 -0.0182 -0.7942
 8115SOL    HW135981   0.102   4.526   2.808 -1.3881 -2.8451  0.7967
 8115SOL    HW235982   0.220   4.455   2.755 -0.3093  0.7857  0.6332
 8116SOL     OW35983   2.517   4.558  13.671  0.4244 -0.2331 -0.2237
 8116SOL    HW135984   2.597   4.570  13.723 -0.4054 -1.3454  1.3111
 8116SOL    HW235985   2.550   4.568  13.582  0.3730 -0.0844 -0.2256
 8117SOL     OW35986   0.043   2.951   4.867 -0.1395  0.4126 -0.1261
 8117SOL    HW135987   0.127   2.905   4.863 -0.9828 -1.1189 -0.1458
 8117SOL    HW235988   0.036   2.986   4.778 -3.2434 -1.1901 -0.5248
 8118SOL     OW35989   0.511   4.499  13.023 -0.3367 -0.2761 -0.2116
 8118SOL    HW135990   0.513   4.571  12.961 -1.0844  0.7960  1.0156
 8118SOL    HW235991   0.511   4.544  13.108 -1.2759 -0.8604  0.1041
 8119SOL     OW35992   2.435   3.616   4.951  0.3031  0.1567 -0.1474
 8119SOL    HW135993   2.511   3.636   5.006  0.5104  1.9476 -1.0978
 8119SOL    HW235994   2.370   3.592   5.017 -0.2458  2.4784  0.1634
 8120SOL     OW35995   1.904   2.342   4.395 -0.6604 -0.1370 -0.7003
 8120SOL    HW135996   1.969   2.413   4.396 -0.4793 -0.2983 -1.0486
 8120SOL    HW235997   1.969   2.272   4.394  1.3790  1.7471 -0.7912
 8121SOL     OW35998   3.257   2.823   6.538 -0.1087 -0.7303 -0.3647
 8121SOL    HW135999   3.198   2.791   6.606  1.4164 -1.5121  0.5697
 8121SOL    HW236000   3.193   2.867   6.481 -0.9364  1.8828  2.5796
 8122SOL     OW36001   2.812   0.783  10.397  0.1225  0.4672  0.5301
 8122SOL    HW136002   2.814   0.879  10.388  2.4555  0.3145 -0.5967
 8122SOL    HW236003   2.787   0.750  10.311 -1.4999  1.9001  0.4666
 8123SOL     OW36004   2.447   2.387  12.098  0.3308  0.0762  0.3828
 8123SOL    HW136005   2.440   2.467  12.149  1.4557 -0.2939  1.1317
 8123SOL    HW236006   2.444   2.321  12.168  2.3251 -0.6246 -0.2029
 8124SOL     OW36007   0.216   3.165  14.231 -0.0914  1.1794 -0.5322
 8124SOL    HW136008   0.201   3.249  14.186 -1.0782  0.6264 -1.2297
 8124SOL    HW236009   0.198   3.178  14.324 -0.1233 -1.1555 -0.2155
 8125SOL     OW36010   3.973   2.037   0.633 -0.0766 -0.1449  0.0932
 8125SOL    HW136011   3.879   2.032   0.616  0.3388  3.0978 -3.2391
 8125SOL    HW236012   3.974   2.009   0.724  0.3114  0.6822  0.3373
 8126SOL     OW36013   4.409   0.823  14.426  0.5791 -0.3033  0.0140
 8126SOL    HW136014   4.399   0.835  14.331 -0.4010  0.6241  0.2268
 8126SOL    HW236015   4.390   0.912  14.454 -0.4977 -0.0418 -1.5105
 8127SOL     OW36016   2.475   4.639   2.214  0.0806 -0.2195  0.3193
 8127SOL    HW136017   2.532   4.715   2.227  0.3037 -0.4484  0.6999
 8127SOL    HW236018   2.526   4.567   2.251  0.0301 -0.7434 -0.6325
 8128SOL     OW36019   2.486   2.912  14.350 -0.5684 -0.4712  0.0534
 8128SOL    HW136020   2.459   2.918  14.442 -1.0099 -1.6264 -0.0013
 8128SOL    HW236021   2.400   2.911  14.307  0.3438 -0.0308 -1.8002
 8129SOL     OW36022   3.991   2.698   5.716  0.5156  0.0524 -0.0870
 8129SOL    HW136023   4.053   2.767   5.693 -0.1205  0.2358 -1.2337
 8129SOL    HW236024   3.921   2.751   5.755 -0.9389 -1.9449  0.0374
 8130SOL     OW36025   0.487   0.925   2.668  0.0429  0.2448  0.3720
 8130SOL    HW136026   0.396   0.954   2.661 -0.5539 -1.5859  0.5178
 8130SOL    HW236027   0.518   0.947   2.580 -1.1070  1.1722  0.1829
 8131SOL     OW36028   0.461   1.627   1.365 -0.4314  0.1915 -0.1439
 8131SOL    HW136029   0.405   1.574   1.308  0.8607  0.7059 -1.8589
 8131SOL    HW236030   0.484   1.704   1.314 -0.6914  1.2300  1.3134
 8132SOL     OW36031   2.504   0.154   7.428  0.8168 -0.3871  0.2861
 8132SOL    HW136032   2.510   0.110   7.512  0.5481 -2.1970 -0.6449
 8132SOL    HW236033   2.447   0.095   7.379  0.8800  0.0784 -0.3565
 8133SOL     OW36034   4.720   2.507   4.832  0.3413  0.0629 -0.1625
 8133SOL    HW136035   4.645   2.475   4.882  0.8119 -0.1376  0.4198
 8133SOL    HW236036   4.679   2.559   4.764 -4.5040 -2.6262  0.7310
 8134SOL     OW36037   0.020   2.464  12.310 -0.8087 -0.1001 -0.1687
 8134SOL    HW136038   0.115   2.468  12.310 -0.8311  0.4127 -2.7211
 8134SOL    HW236039   4.734   2.440  12.400  0.6217  3.5421  1.1348
 8135SOL     OW36040   1.727   1.412   2.124  0.5354 -0.4284  0.4192
 8135SOL    HW136041   1.807   1.361   2.123  0.8726  0.1312 -1.6353
 8135SOL    HW236042   1.693   1.392   2.211 -0.3721  1.8782  0.6107
 8136SOL     OW36043   3.015   0.564   4.355  0.0398  0.3781  0.1613
 8136SOL    HW136044   3.110   0.576   4.354  0.3277 -1.9673 -0.0986
 8136SOL    HW236045   3.029   0.470   4.347  0.7382  0.4426  0.5492
 8137SOL     OW36046   1.797   2.176   2.565 -0.0562  0.0431 -0.1104
 8137SOL    HW136047   1.752   2.224   2.635 -2.1136 -0.6751 -0.9302
 8137SOL    HW236048   1.719   2.163   2.511  0.4358 -1.9912 -0.3299
 8138SOL     OW36049   0.183   2.244  12.851 -0.0428  0.5169  0.1981
 8138SOL    HW136050   0.147   2.266  12.765 -2.1182 -2.0463  0.4134
 8138SOL    HW236051   0.185   2.149  12.840 -1.0490  0.1340  3.5570
 8139SOL     OW36052   0.993   2.187   3.446 -0.5353  0.2998 -0.4192
 8139SOL    HW136053   0.984   2.281   3.464 -3.5270  0.3327 -2.0572
 8139SOL    HW236054   1.082   2.180   3.412 -0.0611  2.2511  0.4049
 8140SOL     OW36055   2.439   1.460   6.107 -0.1078 -0.1368 -0.6480
 8140SOL    HW136056   2.348   1.433   6.102  0.1535 -1.3061  0.7976
 8140SOL    HW236057   2.475   1.383   6.153 -0.6139 -1.9145 -3.1933
 8141SOL     OW36058   3.361   2.872   1.766 -0.3284 -0.3506 -0.8363
 8141SOL    HW136059   3.432   2.906   1.711  0.1849 -1.8240 -1.0618
 8141SOL    HW236060   3.365   2.778   1.751  0.1302 -0.1838 -1.7424
 8142SOL     OW36061   3.519   1.824   4.939 -0.0464  0.0635 -0.4070
 8142SOL    HW136062   3.509   1.789   4.850 -0.6723  2.4229 -1.2892
 8142SOL    HW236063   3.614   1.831   4.941 -0.0227  1.3656 -4.6617
 8143SOL     OW36064   3.799   3.724   5.099 -0.2592 -0.0118 -0.6103
 8143SOL    HW136065   3.831   3.641   5.065  3.0056  0.4939  1.2330
 8143SOL    HW236066   3.862   3.792   5.075 -0.9021  1.6485  2.2925
 8144SOL     OW36067   0.713   0.373   8.610  0.0786 -0.0942  0.0394
 8144SOL    HW136068   0.754   0.288   8.624 -1.8769 -1.1267 -0.4231
 8144SOL    HW236069   0.625   0.355   8.644  0.0689  0.3795  0.2750
 8145SOL     OW36070   3.151   1.336   8.558  0.1550  0.0931 -0.0240
 8145SOL    HW136071   3.078   1.277   8.545 -0.2371  0.5404  0.1431
 8145SOL    HW236072   3.134   1.370   8.646  0.5531 -1.6470  0.7156
 8146SOL     OW36073   3.912   0.984  10.046 -0.2428  0.1246  0.3745
 8146SOL    HW136074   3.939   1.062   9.998 -1.0684 -0.6671 -1.3347
 8146SOL    HW236075   3.927   0.910   9.987 -1.9435 -0.8791  1.2142
 8147SOL     OW36076   3.484   2.392   5.014 -0.0826 -0.8049  0.3498
 8147SOL    HW136077   3.548   2.421   5.079  1.5916  0.4487 -1.8822
 8147SOL    HW236078   3.457   2.468   4.963  3.7022  0.6538  0.5096
 8148SOL     OW36079   4.201   0.214  13.923 -0.0834 -0.7937  0.2011
 8148SOL    HW136080   4.211   0.306  13.948  1.9729 -1.0630  0.3165
 8148SOL    HW236081   4.159   0.225  13.838  1.8255 -0.6323 -0.7091
 8149SOL     OW36082   4.055   4.433   8.673 -0.3090 -0.3141 -0.5323
 8149SOL    HW136083   4.094   4.487   8.741 -0.3705 -1.0989  0.1256
 8149SOL    HW236084   4.113   4.358   8.686  0.1286 -0.5539 -3.8077
 8150SOL     OW36085   4.191   2.623   0.575 -0.6626 -0.3958 -0.4472
 8150SOL    HW136086   4.189   2.574   0.493  0.3499 -0.2414 -0.5601
 8150SOL    HW236087   4.257   2.575   0.625  2.1557  0.6188 -3.2076
 8151SOL     OW36088   3.822   2.094   0.077 -0.0110 -0.2793  0.1530
 8151SOL    HW136089   3.900   2.139   0.044  0.9751 -1.2280  1.2312
 8151SOL    HW236090   3.756   2.146   0.030 -0.1607 -0.0071  0.6649
 8152SOL     OW36091   4.732   0.442   5.033 -0.0147 -0.9671 -0.2004
 8152SOL    HW136092   4.676   0.498   4.979 -1.0234 -0.8695  0.9622
 8152SOL    HW236093   4.698   0.357   5.006 -1.3104 -0.4268 -0.2568
 8153SOL     OW36094   2.354   1.393   9.047 -0.3046 -0.1327  0.3083
 8153SOL    HW136095   2.307   1.312   9.025  0.1036 -0.1150 -0.6231
 8153SOL    HW236096   2.290   1.431   9.107 -0.8823  0.2437 -0.5373
 8154SOL     OW36097   2.100   2.849   7.038 -0.7141  0.0943  0.1551
 8154SOL    HW136098   2.123   2.867   7.129  1.2045  1.8463 -0.6890
 8154SOL    HW236099   2.026   2.794   7.062  1.0302 -2.2745  0.1251
 8155SOL     OW36100   3.875   1.754   1.427  0.1747  0.4973 -0.3551
 8155SOL    HW136101   3.906   1.672   1.465 -3.1668  0.0735  1.4315
 8155SOL    HW236102   3.941   1.760   1.358  0.2410 -1.8565 -0.4877
 8156SOL     OW36103   0.067   2.815  12.213  0.4987 -0.5658  0.7599
 8156SOL    HW136104   0.050   2.721  12.212  0.6681 -0.5505 -2.1443
 8156SOL    HW236105   0.160   2.822  12.190  0.6855  1.9964  2.2603
 8157SOL     OW36106   4.248   2.569  17.371  0.6522 -0.0416 -0.2968
 8157SOL    HW136107   4.223   2.560  17.279  0.0946  1.5703 -0.3152
 8157SOL    HW236108   4.311   2.640  17.358 -0.7148  0.8358 -2.3004
 8158SOL     OW36109   2.581   1.201   0.873 -0.9888  0.0759 -0.1856
 8158SOL    HW136110   2.609   1.233   0.787 -3.2351  0.4128 -0.7928
 8158SOL    HW236111   2.666   1.198   0.917  0.1674  0.6746 -2.4027
 8159SOL     OW36112   1.206   0.440  15.069  0.6473 -0.0157 -0.5377
 8159SOL    HW136113   1.235   0.349  15.066  1.1354  0.0808  0.9519
 8159SOL    HW236114   1.223   0.471  14.980 -0.2632 -2.1545 -1.4484
 8160SOL     OW36115   1.573   3.332   9.639 -0.2783  0.1069 -0.3469
 8160SOL    HW136116   1.483   3.350   9.610 -0.0965  0.5945 -0.6053
 8160SOL    HW236117   1.622   3.413   9.626 -0.1532  0.2659  1.1634
 8161SOL     OW36118   1.902   1.964  16.104 -0.5940 -0.4137 -0.4753
 8161SOL    HW136119   1.935   1.959  16.014 -1.9995  2.7755 -1.1418
 8161SOL    HW236120   1.950   2.039  16.141 -0.7010 -1.2629  1.3923
 8162SOL     OW36121   1.208   4.094   1.651 -0.2988  0.0955  0.0228
 8162SOL    HW136122   1.144   4.091   1.579  0.7011 -0.6353 -0.8294
 8162SOL    HW236123   1.142   4.094   1.720 -0.8606 -2.1998 -0.5035
 8163SOL     OW36124   1.263   2.791   7.637 -0.0079  0.3335 -0.0160
 8163SOL    HW136125   1.298   2.702   7.636  1.5006  0.9022  2.3468
 8163SOL    HW236126   1.174   2.764   7.658  0.8611 -2.4821  0.0234
 8164SOL     OW36127   1.633   0.457  12.736  0.3846 -0.3795 -0.0616
 8164SOL    HW136128   1.653   0.494  12.650 -1.3288  1.5689  0.3943
 8164SOL    HW236129   1.571   0.387  12.717  0.1501 -0.4787  1.0318
 8165SOL     OW36130   4.571   4.718  13.494 -0.5798 -0.7177 -0.2579
 8165SOL    HW136131   4.482   4.696  13.522 -1.0006  1.2984  0.0506
 8165SOL    HW236132   4.550   0.043  13.424  0.5915 -0.4950 -0.4131
 8166SOL     OW36133   0.614   3.311   6.578 -0.1070 -0.0038 -0.9428
 8166SOL    HW136134   0.661   3.233   6.607 -0.3155  0.2224  0.0148
 8166SOL    HW236135   0.548   3.315   6.647  2.2337  0.4425  1.2412
 8167SOL     OW36136   2.689   4.319   6.134  0.0222  0.1884  0.3343
 8167SOL    HW136137   2.702   4.388   6.199  0.2102 -0.8741  1.4304
 8167SOL    HW236138   2.689   4.244   6.194 -0.0685 -0.0309  0.0618
 8168SOL     OW36139   1.866   1.849   7.563 -0.3113  0.8755 -0.0538
 8168SOL    HW136140   1.912   1.923   7.604  0.2649  0.0215  0.8397
 8168SOL    HW236141   1.938   1.813   7.511 -1.5295 -1.2195 -0.2730
 8169SOL     OW36142   0.655   1.110   8.928  0.0100 -0.2722 -0.2947
 8169SOL    HW136143   0.738   1.150   8.953 -0.5495  2.0729 -2.1503
 8169SOL    HW236144   0.599   1.149   8.995  0.9019 -1.6773  1.2602
 8170SOL     OW36145   0.084   1.770   9.522  0.0738  0.1988  0.3116
 8170SOL    HW136146   0.026   1.766   9.446 -0.9514  0.5666  1.0719
 8170SOL    HW236147   0.045   1.852   9.553 -1.7237 -0.8740  0.8492
 8171SOL     OW36148   0.643   2.904  13.455  0.0754  0.1705  0.3992
 8171SOL    HW136149   0.678   2.959  13.525  2.0878  0.6433 -0.9975
 8171SOL    HW236150   0.701   2.949  13.393 -2.2743 -1.5006 -3.0437
 8172SOL     OW36151   3.061   2.304   6.581  0.2662  0.0048  0.0145
 8172SOL    HW136152   3.134   2.365   6.594  0.4273 -0.0016 -0.8414
 8172SOL    HW236153   3.115   2.225   6.572  0.7624  0.4185 -0.7364
 8173SOL     OW36154   0.442   2.600   1.173  0.5716  0.1125 -0.3633
 8173SOL    HW136155   0.408   2.662   1.108 -0.0001 -0.7646 -0.9056
 8173SOL    HW236156   0.358   2.582   1.216  0.4190  0.9460 -0.2989
 8174SOL     OW36157   1.882   4.513   4.417 -0.1515 -0.2285 -0.2100
 8174SOL    HW136158   1.787   4.510   4.429 -0.0712 -0.9382  0.2285
 8174SOL    HW236159   1.906   4.434   4.465  3.6325  1.0261 -0.0371
 8175SOL     OW36160   2.982   0.057   6.501  0.1755 -0.0714 -0.1983
 8175SOL    HW136161   2.924   0.055   6.578  0.8416 -1.4661  0.2529
 8175SOL    HW236162   3.020   0.145   6.502  0.5344 -0.2301  0.1112
 8176SOL     OW36163   1.410   0.621   4.686 -0.3432  0.0430 -0.6167
 8176SOL    HW136164   1.458   0.667   4.754  0.4850 -1.5825 -0.0971
 8176SOL    HW236165   1.451   0.535   4.696  2.0331  1.3778  1.0393
 8177SOL     OW36166   4.206   4.632   3.180 -0.2163  0.3067 -0.1026
 8177SOL    HW136167   4.255   4.713   3.162  1.2190 -0.6522 -0.4866
 8177SOL    HW236168   4.269   4.581   3.232  0.4886  0.5567 -0.7108
 8178SOL     OW36169   1.610   4.096   6.914  0.0210  0.2330  0.3149
 8178SOL    HW136170   1.540   4.031   6.907  0.5273  0.0825 -3.1542
 8178SOL    HW236171   1.635   4.101   6.822 -0.3512 -0.7927  0.1624
 8179SOL     OW36172   0.484   1.227  16.410  0.6843 -0.2792  0.0501
 8179SOL    HW136173   0.446   1.307  16.445  1.7534 -0.0819  0.7689
 8179SOL    HW236174   0.574   1.225  16.444  0.8160  1.1994 -0.2132
 8180SOL     OW36175   1.518   2.113  16.234  0.2973 -0.2428  0.2304
 8180SOL    HW136176   1.574   2.054  16.183  0.5780 -0.0396  0.3033
 8180SOL    HW236177   1.430   2.103  16.198 -0.3091 -1.3952  2.0630
 8181SOL     OW36178   0.424   1.682   1.869  0.0533  0.3935 -0.0245
 8181SOL    HW136179   0.388   1.755   1.921 -0.2454  1.0012 -1.0851
 8181SOL    HW236180   0.385   1.698   1.783 -1.2805 -0.4427  0.4242
 8182SOL     OW36181   4.206   2.536  17.109 -0.1077  0.0721  0.5750
 8182SOL    HW136182   4.217   2.628  17.085  0.6466 -0.0746  0.3653
 8182SOL    HW236183   4.267   2.489  17.053 -1.8459  0.0854 -1.3429
 8183SOL     OW36184   0.985   3.781  16.751  0.1239 -0.1800 -0.0309
 8183SOL    HW136185   1.062   3.813  16.704  0.2348 -0.9487 -0.3606
 8183SOL    HW236186   0.978   3.849  16.819  0.0915  0.0690 -0.2818
 8184SOL     OW36187   1.226   4.040   9.159 -0.7176 -0.0939  1.0113
 8184SOL    HW136188   1.237   3.953   9.120 -2.8117  0.7022 -1.3994
 8184SOL    HW236189   1.312   4.059   9.197  0.8041 -0.7999 -2.0461
 8185SOL     OW36190   2.427   0.955  13.035  0.1771  0.1910  0.2497
 8185SOL    HW136191   2.515   0.992  13.028 -0.0162  0.7783  0.9744
 8185SOL    HW236192   2.446   0.864  13.015 -2.1621  0.1001 -1.5982
 8186SOL     OW36193   1.273   1.849   2.730  0.2435 -0.1505 -0.3930
 8186SOL    HW136194   1.239   1.928   2.773  1.1195  0.6068 -1.0772
 8186SOL    HW236195   1.356   1.844   2.777 -0.1736 -1.7929  0.1602
 8187SOL     OW36196   1.146   0.266   4.857  0.2606 -0.2780  0.0336
 8187SOL    HW136197   1.205   0.226   4.792  1.4153 -0.5793  1.2682
 8187SOL    HW236198   1.124   0.351   4.820 -1.3918  0.9083  3.7996
 8188SOL     OW36199   2.418   3.298   6.384 -0.7010 -0.1916  0.1811
 8188SOL    HW136200   2.334   3.317   6.427 -0.8019 -0.3562  0.0564
 8188SOL    HW236201   2.432   3.208   6.415  1.2031 -1.4523 -4.3859
 8189SOL     OW36202   0.393   3.678  13.198  0.1035  0.6721 -0.2062
 8189SOL    HW136203   0.303   3.702  13.176  0.0623  2.4097  1.8126
 8189SOL    HW236204   0.447   3.712  13.127  0.5901  1.2895  0.4496
 8190SOL     OW36205   1.822   2.562   2.247  0.0395  0.1069  0.3557
 8190SOL    HW136206   1.764   2.538   2.175 -1.1692 -0.0449  1.3761
 8190SOL    HW236207   1.860   2.478   2.274 -0.4036  0.0321  0.7553
 8191SOL     OW36208   4.535   2.772  14.945  0.2047 -0.0603 -0.1109
 8191SOL    HW136209   4.577   2.702  14.995  0.3613 -0.9193 -1.4530
 8191SOL    HW236210   4.570   2.764  14.856  1.9416 -0.3268  0.5975
 8192SOL     OW36211   4.721   2.453   7.823  0.4325 -0.1448  0.2354
 8192SOL    HW136212   0.017   2.515   7.888  1.7001 -1.1048  0.5162
 8192SOL    HW236213   0.061   2.414   7.781  2.0051  1.9180  1.1948
 8193SOL     OW36214   4.134   2.795   6.508  0.6844  0.1108 -0.3759
 8193SOL    HW136215   4.131   2.783   6.603  0.7711 -0.7397 -0.4847
 8193SOL    HW236216   4.221   2.835   6.502 -0.2819  1.8488 -2.8136
 8194SOL     OW36217   2.463   3.672   7.040  0.0303  0.1345 -0.1255
 8194SOL    HW136218   2.383   3.710   7.075 -0.7413 -2.0894  0.4739
 8194SOL    HW236219   2.513   3.753   7.025 -1.4587  1.1428  0.3312
 8195SOL     OW36220   2.818   4.519  11.368  0.1540 -0.0347  0.0948
 8195SOL    HW136221   2.881   4.558  11.307 -0.4500  1.5137  0.4598
 8195SOL    HW236222   2.839   4.426  11.374 -1.6627 -0.5251 -1.4152
 8196SOL     OW36223   0.553   4.219   7.987 -0.1436  0.2107 -0.2129
 8196SOL    HW136224   0.513   4.152   7.931  1.5658 -0.3640 -0.7283
 8196SOL    HW236225   0.599   4.277   7.926 -1.6538  0.1420 -1.4201
 8197SOL     OW36226   2.963   1.541   2.667  0.3268 -0.1463 -0.1939
 8197SOL    HW136227   3.017   1.554   2.589  1.5585  0.2707  0.7245
 8197SOL    HW236228   2.877   1.556   2.627 -0.0020 -1.5270  0.0126
 8198SOL     OW36229   1.613   1.245   0.276 -0.0861 -0.0562  0.5679
 8198SOL    HW136230   1.599   1.214   0.186  0.5261  0.0548  0.4350
 8198SOL    HW236231   1.655   1.171   0.319  0.5160 -0.2323 -0.3040
 8199SOL     OW36232   1.619   4.650   2.919  0.3331 -0.1258  0.6847
 8199SOL    HW136233   1.553   4.582   2.931  2.0470 -1.8344  0.3834
 8199SOL    HW236234   1.694   4.596   2.894  0.3832  0.2647 -0.0229
 8200SOL     OW36235   0.682   2.467   7.250  0.6693 -0.3196  0.7830
 8200SOL    HW136236   0.638   2.476   7.335  3.0833  1.1046  1.8656
 8200SOL    HW236237   0.681   2.371   7.245  0.2323 -0.1003 -3.2549
 8201SOL     OW36238   1.927   2.673   2.611  0.1131  0.1629 -0.0801
 8201SOL    HW136239   1.905   2.721   2.531  2.0376 -2.4660 -2.1922
 8201SOL    HW236240   1.990   2.731   2.653  1.0546  0.1331 -1.4378
 8202SOL     OW36241   0.706   3.197   8.878 -0.1085 -0.3107  0.2853
 8202SOL    HW136242   0.779   3.229   8.826 -1.2380 -0.9887 -1.6835
 8202SOL    HW236243   0.758   3.153   8.946  0.6180 -0.9782 -0.7139
 8203SOL     OW36244   4.292   1.153  16.859 -0.1026  0.4567 -0.5656
 8203SOL    HW136245   4.259   1.241  16.878 -0.4430  0.5885 -1.7807
 8203SOL    HW236246   4.208   1.108  16.867  0.7489 -0.9486  0.3551
 8204SOL     OW36247   1.614   0.161  15.999  0.1707  0.1300  0.2532
 8204SOL    HW136248   1.629   0.214  16.077 -1.2805 -0.9300  1.2455
 8204SOL    HW236249   1.586   0.227  15.934 -0.6995 -1.9121 -1.4439
 8205SOL     OW36250   1.767   2.688   6.914 -0.1411  0.2612  0.0101
 8205SOL    HW136251   1.833   2.673   6.846 -1.2543  0.9941 -1.2201
 8205SOL    HW236252   1.722   2.603   6.917  0.7258 -0.1547  1.0779
 8206SOL     OW36253   1.772   2.331   7.848  0.0794 -0.0282 -0.0690
 8206SOL    HW136254   1.819   2.250   7.832 -1.5702 -1.0524  0.3214
 8206SOL    HW236255   1.818   2.382   7.781  1.9009  1.4821  2.3158
 8207SOL     OW36256   4.072   1.523  14.319 -0.8382 -0.4356 -0.0853
 8207SOL    HW136257   4.015   1.447  14.308 -1.6007  0.3914 -1.7263
 8207SOL    HW236258   4.026   1.589  14.267 -0.2304  1.0741  1.3151
 8208SOL     OW36259   2.471   2.642   3.012  0.4476 -0.1052  1.1461
 8208SOL    HW136260   2.481   2.714   2.950 -1.0878  1.5452  2.8094
 8208SOL    HW236261   2.376   2.629   3.009  0.2427  2.0907 -1.0703
 8209SOL     OW36262   2.899   2.651  10.195 -0.5673 -0.1402 -0.0323
 8209SOL    HW136263   2.971   2.588  10.196 -1.4421 -1.1074  0.9786
 8209SOL    HW236264   2.880   2.668  10.102  0.0634  2.0938  0.2338
 8210SOL     OW36265   4.227   3.258   4.133  0.2899 -0.7437  0.2054
 8210SOL    HW136266   4.143   3.270   4.089  0.6035  1.9807  0.3921
 8210SOL    HW236267   4.236   3.350   4.158 -0.6243 -0.7549  0.5731
 8211SOL     OW36268   1.252   0.163   4.617 -0.0059 -0.4793 -0.3871
 8211SOL    HW136269   1.305   0.083   4.616  1.6438  0.6396 -1.8336
 8211SOL    HW236270   1.165   0.124   4.612  0.4004 -1.4462  0.2104
 8212SOL     OW36271   3.568   3.568  12.899  0.2392 -0.0254 -0.2355
 8212SOL    HW136272   3.540   3.574  12.990  2.5325  0.0949  0.4498
 8212SOL    HW236273   3.594   3.658  12.881 -0.3668 -0.0262 -1.1489
 8213SOL     OW36274   4.277   2.029   5.347 -0.4460  0.5363  0.1902
 8213SOL    HW136275   4.249   1.950   5.392  3.2421 -0.6030  0.5057
 8213SOL    HW236276   4.292   2.087   5.422  0.1541  2.0858 -1.1191
 8214SOL     OW36277   3.820   0.611   8.263  0.4648  0.0480 -0.0331
 8214SOL    HW136278   3.880   0.669   8.216 -0.9996  2.7523  1.4161
 8214SOL    HW236279   3.880   0.537   8.253 -0.4481 -0.6682 -0.2544
 8215SOL     OW36280   1.934   3.268   8.836 -0.6007 -0.2327 -0.7144
 8215SOL    HW136281   1.891   3.245   8.918  1.1100  1.9518  0.8011
 8215SOL    HW236282   2.012   3.218   8.857 -0.7804 -0.0628  0.3370
 8216SOL     OW36283   4.539   1.662   6.247 -0.7488  0.3640  0.2971
 8216SOL    HW136284   4.498   1.596   6.302 -1.0605  0.3773  0.0837
 8216SOL    HW236285   4.518   1.636   6.157  1.5619  0.2928 -0.2068
 8217SOL     OW36286   1.691   2.830   1.577  0.4768  0.1739  0.0610
 8217SOL    HW136287   1.667   2.918   1.606  2.4686  1.0988 -1.0856
 8217SOL    HW236288   1.618   2.806   1.520  0.3169  4.0232 -1.3597
 8218SOL     OW36289   2.291   1.768   4.474  0.0112  0.0332 -0.2395
 8218SOL    HW136290   2.381   1.802   4.471  0.6203 -1.7161 -1.8175
 8218SOL    HW236291   2.252   1.826   4.409  0.4473 -1.5266 -1.8969
 8219SOL     OW36292   2.327   0.462   6.027 -0.1574 -0.2629  0.1812
 8219SOL    HW136293   2.379   0.524   6.079 -0.2035 -0.7489  0.8088
 8219SOL    HW236294   2.356   0.476   5.937 -2.8583  2.5972 -0.2663
 8220SOL     OW36295   2.319   0.781   8.035  0.5761 -0.2621 -0.1505
 8220SOL    HW136296   2.389   0.743   7.982 -0.5556 -0.7012 -1.3143
 8220SOL    HW236297   2.285   0.849   7.977  0.2633 -0.5512 -0.3007
 8221SOL     OW36298   2.227   3.355   8.477 -0.1517  0.0298 -0.0250
 8221SOL    HW136299   2.185   3.271   8.497  1.0976 -0.5190  0.2799
 8221SOL    HW236300   2.265   3.382   8.561 -1.7565  2.6838 -0.1383
 8222SOL     OW36301   3.509   2.376   2.474 -0.4153  0.2382 -0.2978
 8222SOL    HW136302   3.529   2.432   2.399  3.0964 -1.2568 -0.4815
 8222SOL    HW236303   3.493   2.441   2.542 -1.6655  0.3796 -0.7273
 8223SOL     OW36304   2.737   1.674   9.685 -0.2617 -0.1554 -0.0639
 8223SOL    HW136305   2.831   1.690   9.685 -0.5334  1.5173  2.1074
 8223SOL    HW236306   2.706   1.715   9.604 -1.4400 -1.9056 -0.4838
 8224SOL     OW36307   1.765   4.435   3.145  0.3393  0.0845  0.4403
 8224SOL    HW136308   1.823   4.358   3.148 -0.8687 -0.7523  2.3479
 8224SOL    HW236309   1.837   4.488   3.112  0.5922  0.8042  2.1284
 8225SOL     OW36310   2.653   0.569  13.805  1.2290  0.0247  0.0900
 8225SOL    HW136311   2.649   0.608  13.893 -1.2633  0.6524 -0.2826
 8225SOL    HW236312   2.577   0.510  13.801 -0.1507  1.8217 -0.2148
 8226SOL     OW36313   1.995   1.666   6.514 -0.0640 -0.6931 -0.3309
 8226SOL    HW136314   2.066   1.657   6.578  0.3738  0.0534 -0.6984
 8226SOL    HW236315   1.912   1.669   6.562 -1.0928  2.2200 -2.3048
 8227SOL     OW36316   1.189   3.103   2.126 -0.4220 -0.3039 -0.1083
 8227SOL    HW136317   1.259   3.164   2.102 -1.2999  0.7602  0.0398
 8227SOL    HW236318   1.211   3.081   2.217 -0.8947 -0.0882  0.0542
 8228SOL     OW36319   2.881   0.733   4.108  1.0012  0.4520  0.8119
 8228SOL    HW136320   2.807   0.719   4.167  0.6329  2.4604  0.8218
 8228SOL    HW236321   2.938   0.802   4.141  1.4075  1.0117 -1.0591
 8229SOL     OW36322   2.745   4.486   0.568 -0.2475 -0.1867  0.5259
 8229SOL    HW136323   2.696   4.539   0.505 -0.4727 -0.7538  0.2242
 8229SOL    HW236324   2.834   4.518   0.551  0.7392 -2.5880  1.0157
 8230SOL     OW36325   0.341   1.383   9.443 -0.1961 -1.0165 -0.4138
 8230SOL    HW136326   0.287   1.334   9.380 -0.6393 -0.6845 -0.2939
 8230SOL    HW236327   0.430   1.349   9.441  0.2454  0.2779 -3.4212
 8231SOL     OW36328   2.853   3.890  13.622 -0.0736  0.4072 -0.5860
 8231SOL    HW136329   2.825   3.903  13.531 -2.5310 -0.3621  0.0551
 8231SOL    HW236330   2.821   3.800  13.628  0.3872  0.2329 -0.7621
 8232SOL     OW36331   2.801   0.911  16.420  0.1732 -0.4753 -0.1077
 8232SOL    HW136332   2.864   0.941  16.484 -1.9684  0.8692  1.3582
 8232SOL    HW236333   2.830   0.820  16.407  2.2253  0.3537 -1.2670
 8233SOL     OW36334   1.147   1.976   8.779  0.0995  0.6284 -0.4631
 8233SOL    HW136335   1.111   2.052   8.825  1.3496 -0.2619  1.9569
 8233SOL    HW236336   1.235   1.976   8.816  0.5184  0.3360 -1.4435
 8234SOL     OW36337   2.124   3.344   6.361 -0.0501  0.2620 -0.2212
 8234SOL    HW136338   2.099   3.261   6.402  0.5426 -0.2307 -0.8518
 8234SOL    HW236339   2.154   3.318   6.274  0.8506  1.1328 -0.1752
 8235SOL     OW36340   4.663   4.250   5.060  0.0888  0.1785  0.6517
 8235SOL    HW136341   4.731   4.302   5.017 -1.8995  1.2803 -1.1638
 8235SOL    HW236342   4.686   4.162   5.029 -0.3003  0.9017 -1.6471
 8236SOL     OW36343   1.564   3.563  15.192  0.0836 -0.7783 -0.4877
 8236SOL    HW136344   1.621   3.545  15.267 -0.8423  0.8365  0.5857
 8236SOL    HW236345   1.513   3.641  15.212 -1.0329 -1.7963  0.6630
 8237SOL     OW36346   1.909   0.772  13.623 -0.2205 -0.3626  0.4170
 8237SOL    HW136347   1.972   0.750  13.555  0.9194  1.3014  0.9419
 8237SOL    HW236348   1.873   0.852  13.584 -1.9843 -0.8266  1.0768
 8238SOL     OW36349   2.352   1.974   6.395 -0.4228 -0.2840 -0.1608
 8238SOL    HW136350   2.437   1.950   6.357  0.4877 -1.3492  2.5254
 8238SOL    HW236351   2.352   1.908   6.464  2.5175  1.8175  1.8247
 8239SOL     OW36352   0.581   0.899   6.260  0.1737  0.0746  0.1948
 8239SOL    HW136353   0.665   0.866   6.293  0.6753  1.5220  0.3970
 8239SOL    HW236354   0.519   0.829   6.276  1.3165 -0.7996  0.7996
 8240SOL     OW36355   1.896   0.176   7.758 -0.2381  0.2526  0.0718
 8240SOL    HW136356   1.962   0.244   7.745 -0.7283  0.9902  1.4331
 8240SOL    HW236357   1.911   0.135   7.843 -1.3672 -0.8173 -0.2452
 8241SOL     OW36358   1.015   3.185   6.473  0.7198 -0.5529  0.1695
 8241SOL    HW136359   1.109   3.183   6.457  0.3693  1.5818 -2.2275
 8241SOL    HW236360   0.967   3.189   6.390 -1.1296  2.1149  1.3633
 8242SOL     OW36361   3.397   2.883  16.138  0.0771  0.4877  0.0549
 8242SOL    HW136362   3.459   2.945  16.100  1.4995 -0.6090  0.5857
 8242SOL    HW236363   3.312   2.913  16.106 -0.2704 -1.2995 -0.6803
 8243SOL     OW36364   0.175   3.254   6.352  0.2758 -0.1389  0.0209
 8243SOL    HW136365   0.229   3.209   6.416 -0.1859 -0.3126  0.2880
 8243SOL    HW236366   0.229   3.237   6.275 -2.3468 -1.7260 -1.4949
 8244SOL     OW36367   3.764   3.321  14.890 -0.4219 -0.1606 -0.2499
 8244SOL    HW136368   3.817   3.276  14.824  0.1449  1.3614 -0.8220
 8244SOL    HW236369   3.811   3.403  14.907  2.1867 -1.1049 -2.9805
 8245SOL     OW36370   1.656   4.093  10.729  0.2375 -0.9097 -0.0171
 8245SOL    HW136371   1.724   4.123  10.668  0.2558  2.0210  1.4661
 8245SOL    HW236372   1.599   4.170  10.729 -1.3347 -2.1038  3.2060
 8246SOL     OW36373   2.555   4.179   6.385  0.4368 -0.2017  0.3865
 8246SOL    HW136374   2.536   4.252   6.443  1.9304  0.1272  0.4616
 8246SOL    HW236375   2.480   4.123   6.402  0.6841 -0.4459  0.6665
 8247SOL     OW36376   1.434   0.499  17.225 -0.5719  0.3001 -0.5481
 8247SOL    HW136377   1.432   0.433  17.293  0.6388  2.4794  1.6328
 8247SOL    HW236378   1.355   0.540  17.259  0.2167  1.3041  0.0815
 8248SOL     OW36379   2.904   3.595  15.812 -0.1060 -0.5866  0.0068
 8248SOL    HW136380   2.940   3.520  15.765 -1.1770 -0.2487 -1.3664
 8248SOL    HW236381   2.841   3.541  15.859  0.0365  0.5624  1.4953
 8249SOL     OW36382   3.411   1.082   7.198  0.2084 -0.1344 -0.4259
 8249SOL    HW136383   3.450   1.162   7.233 -1.3126  1.5937 -2.6322
 8249SOL    HW236384   3.490   1.032   7.177 -0.2427 -1.3314  0.7240
 8250SOL     OW36385   2.148   3.812   2.357  0.3935  0.0832 -0.1230
 8250SOL    HW136386   2.094   3.739   2.386  0.1127  0.5457  0.5120
 8250SOL    HW236387   2.083   3.880   2.370  0.1560 -0.0436 -0.6705
 8251SOL     OW36388   3.355   3.742   3.897 -0.6998  0.9547  0.0549
 8251SOL    HW136389   3.297   3.793   3.841 -1.2889  0.6169  0.3528
 8251SOL    HW236390   3.438   3.789   3.891 -1.5020  2.5035  1.2813
 8252SOL     OW36391   2.667   4.616  14.896  0.2695 -0.5956  0.6082
 8252SOL    HW136392   2.618   4.548  14.943 -0.0578  0.2609  1.4918
 8252SOL    HW236393   2.598   4.656  14.844  0.4128 -0.2520  0.6840
 8253SOL     OW36394   2.985   2.179   7.105  0.0711 -0.1067 -0.3815
 8253SOL    HW136395   2.948   2.261   7.137  1.9611 -0.2407  2.1689
 8253SOL    HW236396   2.944   2.183   7.019 -0.8780 -0.2511  0.0609
 8254SOL     OW36397   3.173   2.821   1.372  0.6920 -0.0033 -0.6124
 8254SOL    HW136398   3.245   2.763   1.400  0.0307 -1.2263 -1.4844
 8254SOL    HW236399   3.159   2.873   1.452  1.3670  0.0637 -0.5357
 8255SOL     OW36400   2.166   1.769  13.607  0.6468  0.4539 -0.0866
 8255SOL    HW136401   2.091   1.710  13.616  1.3143 -0.6005 -1.2829
 8255SOL    HW236402   2.225   1.726  13.669  0.7792 -0.4862 -0.8596
 8256SOL     OW36403   4.276   1.892  11.895  0.1907  0.0498 -0.2448
 8256SOL    HW136404   4.250   1.974  11.936  0.8940 -0.9411  2.1995
 8256SOL    HW236405   4.298   1.843  11.974  3.0842  0.0355 -1.0613
 8257SOL     OW36406   2.460   2.177   2.393  0.5894  0.0771  0.0726
 8257SOL    HW136407   2.474   2.182   2.488 -1.9508  1.7436  0.3714
 8257SOL    HW236408   2.405   2.255   2.377 -0.6081 -0.5131  1.3042
 8258SOL     OW36409   2.239   0.023   7.751  0.0605 -0.1075 -0.2115
 8258SOL    HW136410   2.188   0.099   7.723  4.1605  2.6145 -0.3692
 8258SOL    HW236411   2.193   4.691   7.702 -0.8355  0.0815  0.3837
 8259SOL     OW36412   1.167   4.613   7.481 -0.4465  0.0179 -0.2940
 8259SOL    HW136413   1.199   4.663   7.557 -2.6129 -1.2016  1.4207
 8259SOL    HW236414   1.251   4.590   7.440 -1.2045 -2.2824 -0.5341
 8260SOL     OW36415   2.474   2.799   2.770  0.0467 -0.1383 -0.6630
 8260SOL    HW136416   2.524   2.817   2.690 -0.9321 -0.2149 -1.2975
 8260SOL    HW236417   2.388   2.787   2.729 -0.8079 -1.1468  1.4319
 8261SOL     OW36418   1.512   0.744   0.481  0.4149 -0.8817 -0.2296
 8261SOL    HW136419   1.464   0.826   0.495  2.4068 -0.3138  3.2079
 8261SOL    HW236420   1.605   0.766   0.490 -0.1654  2.1620 -1.5518
 8262SOL     OW36421   1.569   0.742   4.875  0.3789 -0.0902 -0.0769
 8262SOL    HW136422   1.588   0.835   4.860 -3.4926  1.0508  2.1920
 8262SOL    HW236423   1.650   0.704   4.840 -0.1051 -0.1851 -1.0722
 8263SOL     OW36424   4.606   0.182  14.851  0.0548  0.2703 -0.1843
 8263SOL    HW136425   4.527   0.224  14.817  0.4401  1.0811 -0.0859
 8263SOL    HW236426   4.614   0.110  14.788  1.3532 -0.1483  0.4609
 8264SOL     OW36427   2.386   4.639  13.889  0.0947  0.1407 -0.0435
 8264SOL    HW136428   2.448   4.651  13.961  0.4253 -1.6182 -0.0250
 8264SOL    HW236429   2.436   4.590  13.824 -0.3019 -1.5185  0.9029
 8265SOL     OW36430   1.012   1.813   9.258 -0.5545 -0.6134 -0.0616
 8265SOL    HW136431   0.940   1.807   9.322 -0.8733  2.8437 -0.1338
 8265SOL    HW236432   1.075   1.879   9.287 -1.0536  0.1404 -0.7218
 8266SOL     OW36433   2.901   2.554   7.118 -0.6271 -0.5178  0.8759
 8266SOL    HW136434   2.971   2.581   7.058  0.1728  1.8598  2.8661
 8266SOL    HW236435   2.945   2.511   7.191  1.1591  0.8641  0.6267
 8267SOL     OW36436   0.110   3.026   1.579 -0.0229  0.8354 -0.1008
 8267SOL    HW136437   0.071   3.068   1.503  1.0874  2.9191  0.4748
 8267SOL    HW236438   0.066   2.942   1.568  0.2799  0.7353 -0.4999
 8268SOL     OW36439   0.026   3.587   3.951  0.1399 -0.3674 -0.0432
 8268SOL    HW136440   0.090   3.526   3.914  0.3990  0.0774 -0.3300
 8268SOL    HW236441   4.713   3.622   3.877 -1.1065 -0.2415  0.8501
 8269SOL     OW36442   0.203   0.414   8.822 -0.4223 -0.8190  0.9156
 8269SOL    HW136443   0.217   0.504   8.792 -1.2628 -1.0310 -0.1281
 8269SOL    HW236444   0.131   0.397   8.761 -0.5117 -1.2130  1.1328
 8270SOL     OW36445   4.160   2.721   6.821 -0.0835 -0.0521  0.1753
 8270SOL    HW136446   4.182   2.704   6.913 -0.4339  0.6742  0.3948
 8270SOL    HW236447   4.085   2.662   6.820  0.4003 -0.6343 -1.8566
 8271SOL     OW36448   0.196   0.340   9.975  0.6136 -0.1205  0.6886
 8271SOL    HW136449   0.243   0.260  10.000  0.3570  0.0937  1.8619
 8271SOL    HW236450   0.206   0.339   9.880 -0.3320  0.7236  0.5793
 8272SOL     OW36451   0.631   3.453   5.433 -0.1803 -0.0611 -0.2043
 8272SOL    HW136452   0.701   3.414   5.380  2.0555  0.1161  2.6392
 8272SOL    HW236453   0.572   3.485   5.365  1.1030  0.9123 -0.8663
 8273SOL     OW36454   4.074   3.870  17.325  0.3807 -0.2259  0.1013
 8273SOL    HW136455   3.992   3.873  17.375  0.3470 -1.5480  0.1249
 8273SOL    HW236456   4.101   3.778  17.327  0.8416 -0.0901 -0.0388
 8274SOL     OW36457   2.202   4.122   3.878 -0.1176  0.4429 -0.0915
 8274SOL    HW136458   2.143   4.083   3.815  1.3089  0.7847 -1.6218
 8274SOL    HW236459   2.179   4.064   3.951  0.6696  0.7552  0.4071
 8275SOL     OW36460   0.790   4.342   2.905  0.0123  0.0982  0.4084
 8275SOL    HW136461   0.828   4.429   2.918 -0.3659  0.3406 -0.1277
 8275SOL    HW236462   0.797   4.344   2.810  1.6043  0.3527  0.5353
 8276SOL     OW36463   1.541   3.454   8.606  0.3149 -0.0183 -0.1129
 8276SOL    HW136464   1.583   3.449   8.692  1.5059  0.5440 -0.6493
 8276SOL    HW236465   1.467   3.512   8.622  1.9820  1.4699  2.2724
 8277SOL     OW36466   0.189   2.162   2.257  0.2350  0.5695 -0.0698
 8277SOL    HW136467   0.171   2.069   2.274 -2.0158  0.9364 -0.4299
 8277SOL    HW236468   0.119   2.203   2.307 -0.9706  1.2191 -2.2962
 8278SOL     OW36469   4.040   2.405   4.063 -1.0763 -0.4872  0.0232
 8278SOL    HW136470   4.103   2.338   4.091 -0.3484  0.4537  0.6762
 8278SOL    HW236471   4.069   2.420   3.973 -1.1052  1.9282  0.4034
 8279SOL     OW36472   1.482   1.886   1.132  0.2962 -0.0966 -0.4973
 8279SOL    HW136473   1.550   1.839   1.084 -0.1679 -2.0641  0.7291
 8279SOL    HW236474   1.521   1.856   1.214  2.1744 -0.4377 -1.5184
 8280SOL     OW36475   1.575   3.288   5.166  0.2070 -0.1474  0.3686
 8280SOL    HW136476   1.586   3.263   5.074  2.7186  0.8782  0.3945
 8280SOL    HW236477   1.616   3.214   5.211  0.9285  0.9035  1.4130
 8281SOL     OW36478   0.472   3.860   5.710  0.0660  0.4299 -0.4119
 8281SOL    HW136479   0.559   3.895   5.690 -0.3024  1.5864  0.0224
 8281SOL    HW236480   0.478   3.776   5.665 -0.6803  0.8152 -1.2246
 8282SOL     OW36481   3.416   2.659   9.316  0.2274 -0.0332 -0.0357
 8282SOL    HW136482   3.509   2.667   9.294 -0.2003 -0.8319 -2.1031
 8282SOL    HW236483   3.381   2.596   9.253  1.0742 -1.3383  0.8126
 8283SOL     OW36484   2.670   1.755   1.641 -0.3006  0.1195  0.7718
 8283SOL    HW136485   2.759   1.782   1.666 -1.1999  1.5233  2.4510
 8283SOL    HW236486   2.645   1.678   1.692  0.3679 -0.6294 -0.0238
 8284SOL     OW36487   0.006   1.560  16.686 -0.0899 -0.2133  0.7984
 8284SOL    HW136488   0.025   1.466  16.685 -0.5735 -0.2759 -3.2156
 8284SOL    HW236489   4.647   1.554  16.678  0.0933  0.3356 -1.8025
 8285SOL     OW36490   2.311   1.584   3.253  0.1245 -0.0868 -0.5175
 8285SOL    HW136491   2.261   1.652   3.298  0.2049  0.7769 -1.7368
 8285SOL    HW236492   2.275   1.599   3.166 -2.2750  0.9636  0.6617
 8286SOL     OW36493   0.873   2.517   2.046 -0.6604  0.3291 -0.2423
 8286SOL    HW136494   0.870   2.570   2.126 -0.3201  0.0763 -0.0619
 8286SOL    HW236495   0.964   2.487   2.050 -0.9498 -0.5892 -0.7679
 8287SOL     OW36496   4.419   3.338   1.527  0.2737  0.0841  0.3153
 8287SOL    HW136497   4.336   3.302   1.498 -0.2719  2.3200 -0.9431
 8287SOL    HW236498   4.453   3.350   1.438 -0.8546 -1.3208 -0.2899
 8288SOL     OW36499   0.575   1.427   8.111 -0.6998  0.2672  0.1416
 8288SOL    HW136500   0.654   1.388   8.149  0.5546  1.7198 -0.9428
 8288SOL    HW236501   0.598   1.518   8.131 -0.9248  0.5246 -0.7609
 8289SOL     OW36502   4.637   2.964   8.800  0.0654 -0.1482 -0.1905
 8289SOL    HW136503   4.713   2.908   8.792 -0.4665 -0.7221 -1.1485
 8289SOL    HW236504   4.679   3.033   8.853 -0.6155  1.3767 -1.6312
 8290SOL     OW36505   1.291   3.525   1.830  0.6688 -0.2958 -0.1353
 8290SOL    HW136506   1.341   3.454   1.789 -1.8813 -3.2889  1.9457
 8290SOL    HW236507   1.358   3.554   1.893  0.7741 -0.8539  0.0093
 8291SOL     OW36508   4.730   2.243   4.354  0.6493  0.1824 -0.3597
 8291SOL    HW136509   4.732   2.289   4.438  1.6506 -1.8163  0.7056
 8291SOL    HW236510   0.074   2.276   4.314  2.5770 -0.2203  3.1470
 8292SOL     OW36511   1.529   2.545   3.231 -0.8312 -0.4576 -0.4367
 8292SOL    HW136512   1.525   2.453   3.257  1.7169 -1.0974 -2.3835
 8292SOL    HW236513   1.608   2.571   3.279 -1.2911 -0.7210  0.4755
 8293SOL     OW36514   3.070   2.731   6.163  0.3083 -0.0950  0.1418
 8293SOL    HW136515   3.107   2.667   6.224  0.6643 -3.5114 -3.6096
 8293SOL    HW236516   2.976   2.712   6.165 -0.2720  2.8071 -0.0436
 8294SOL     OW36517   4.513   0.095   8.878  0.7660  0.1302 -0.0872
 8294SOL    HW136518   4.516   0.051   8.963 -1.3855  1.9068  0.9404
 8294SOL    HW236519   4.495   0.020   8.822  1.9411  1.1092 -1.7645
 8295SOL     OW36520   1.784   1.187  14.639 -0.3431  0.7617 -0.4086
 8295SOL    HW136521   1.864   1.238  14.620 -0.0167  0.2045 -0.5294
 8295SOL    HW236522   1.737   1.203  14.557 -1.6079 -1.3094 -0.0722
 8296SOL     OW36523   1.695   1.543   3.239 -0.5303 -0.7052 -0.8518
 8296SOL    HW136524   1.711   1.448   3.236 -1.0797 -0.8355  0.6654
 8296SOL    HW236525   1.678   1.556   3.332  1.5166 -2.9181 -0.1653
 8297SOL     OW36526   0.742   1.958   0.756 -0.4275 -0.2326 -0.0512
 8297SOL    HW136527   0.753   2.010   0.835  0.7841 -0.0296 -0.3458
 8297SOL    HW236528   0.826   1.969   0.711 -2.0282 -2.3755 -3.5577
 8298SOL     OW36529   1.468   0.514   2.321 -0.1055 -0.3790 -0.0801
 8298SOL    HW136530   1.509   0.516   2.408  1.9676 -0.4255 -1.0600
 8298SOL    HW236531   1.389   0.568   2.329  0.1003 -0.1028  0.0981
 8299SOL     OW36532   3.257   3.766  14.694 -0.2848  0.6995  0.1645
 8299SOL    HW136533   3.315   3.804  14.629 -0.6846 -1.2515 -1.3297
 8299SOL    HW236534   3.227   3.834  14.755 -1.0072 -2.0159  2.8879
 8300SOL     OW36535   3.745   1.196   2.690 -0.8431  0.1777  0.7507
 8300SOL    HW136536   3.796   1.274   2.712  0.0866 -0.3019  0.3188
 8300SOL    HW236537   3.822   1.140   2.679 -2.0711 -1.0342 -1.5677
 8301SOL     OW36538   1.009   4.704  17.376 -0.4558 -0.3960  0.0629
 8301SOL    HW136539   1.014   0.019  17.295  1.0233  1.9918  1.6557
 8301SOL    HW236540   1.059   0.032  17.426  0.0580 -1.7226  1.2569
 8302SOL     OW36541   2.437   2.401   4.937 -0.3546  0.4225 -0.0085
 8302SOL    HW136542   2.473   2.403   5.026  0.3061  0.2010 -0.2722
 8302SOL    HW236543   2.378   2.476   4.934 -2.9866 -1.5364  1.7975
 8303SOL     OW36544   1.130   2.668   5.082 -0.3428  0.3431 -0.2739
 8303SOL    HW136545   1.102   2.741   5.027  1.4220  0.1844 -1.3968
 8303SOL    HW236546   1.132   2.719   5.163 -0.6326  1.4314 -0.9542
 8304SOL     OW36547   4.285   0.710   2.066  0.2746  0.0020  0.4927
 8304SOL    HW136548   4.367   0.727   2.111  0.2057  2.5903 -0.3161
 8304SOL    HW236549   4.319   0.692   1.978  1.9323 -0.0285  1.1549
 8305SOL     OW36550   1.407   3.146   1.465  0.0839  0.0834  0.4265
 8305SOL    HW136551   1.466   3.105   1.529  0.6906 -0.6565 -0.6044
 8305SOL    HW236552   1.344   3.079   1.440 -0.6020  0.3654  1.3884
 8306SOL     OW36553   2.910   0.423   3.007  0.5134 -0.0246 -0.0128
 8306SOL    HW136554   2.952   0.489   3.062  0.2277  2.0647 -2.3106
 8306SOL    HW236555   2.844   0.398   3.072 -0.6512 -0.0508 -1.2115
 8307SOL     OW36556   3.609   1.567   2.801 -0.5196  0.1253  0.1652
 8307SOL    HW136557   3.650   1.644   2.838 -3.5852  0.9510  1.8544
 8307SOL    HW236558   3.641   1.497   2.858  0.6366 -0.9761 -1.8247
 8308SOL     OW36559   0.713   0.522   1.870  0.1316  0.1034 -0.2404
 8308SOL    HW136560   0.772   0.544   1.798  0.6833 -1.1163 -0.1577
 8308SOL    HW236561   0.771   0.546   1.943  0.8179 -1.7622 -0.1637
 8309SOL     OW36562   4.512   0.432   5.328  0.3167  0.4082 -0.1278
 8309SOL    HW136563   4.591   0.473   5.292  0.5757  0.1837  0.1921
 8309SOL    HW236564   4.471   0.507   5.370  1.3359  0.0173  1.5668
 8310SOL     OW36565   3.552   3.444   7.735 -0.5484  0.2350 -1.1490
 8310SOL    HW136566   3.471   3.481   7.700 -0.6550  0.1278 -1.0150
 8310SOL    HW236567   3.547   3.470   7.827 -1.5557 -1.0328 -0.8332
 8311SOL     OW36568   1.754   1.033  10.736 -0.0005 -0.1943 -0.1835
 8311SOL    HW136569   1.746   1.050  10.642 -2.6577  1.1120  0.2831
 8311SOL    HW236570   1.849   1.019  10.740 -0.0497 -0.3667  0.3878
 8312SOL     OW36571   0.501   3.581   2.907  0.2774 -0.1834 -0.2497
 8312SOL    HW136572   0.459   3.511   2.856 -0.3408  1.0789 -1.4956
 8312SOL    HW236573   0.465   3.658   2.863  3.2237  0.9866 -0.5898
 8313SOL     OW36574   2.181   0.356  12.424 -0.3321  0.0257 -0.3548
 8313SOL    HW136575   2.220   0.291  12.482 -2.0294  3.3901  4.5911
 8313SOL    HW236576   2.126   0.404  12.486  1.3812  1.7164 -0.1258
 8314SOL     OW36577   1.782   3.922   7.978 -0.0511 -0.2928 -0.3997
 8314SOL    HW136578   1.716   3.930   8.047  1.4191  0.9288  0.8791
 8314SOL    HW236579   1.768   3.832   7.947  0.9272 -0.4822 -0.2905
 8315SOL     OW36580   0.419   0.276   5.820  0.5183 -0.6296 -0.0894
 8315SOL    HW136581   0.388   0.301   5.733 -0.5286  0.8974  0.7329
 8315SOL    HW236582   0.488   0.214   5.795 -0.3624 -1.4036 -0.6282
 8316SOL     OW36583   0.982   2.424  13.169  0.1515  0.3342 -0.0601
 8316SOL    HW136584   0.973   2.382  13.083  2.5020  0.8107 -0.5538
 8316SOL    HW236585   1.065   2.472  13.165  0.3629 -0.0719 -0.6698
 8317SOL     OW36586   2.383   1.125  11.577 -0.3782  0.1844 -0.2965
 8317SOL    HW136587   2.399   1.185  11.650 -1.4508 -1.1145  1.0028
 8317SOL    HW236588   2.469   1.131  11.535 -0.2064  1.8209  0.3163
 8318SOL     OW36589   0.433   2.205   9.166  0.2946  0.0926 -0.0870
 8318SOL    HW136590   0.367   2.224   9.233  0.1853 -0.1411 -0.1271
 8318SOL    HW236591   0.463   2.119   9.195 -0.5230  0.8410  2.9794
 8319SOL     OW36592   0.789   1.341   7.128  1.4257  0.6381 -0.2006
 8319SOL    HW136593   0.739   1.291   7.063  0.5164  2.1184 -0.6287
 8319SOL    HW236594   0.869   1.291   7.147  1.6594  0.4164 -1.7773
 8320SOL     OW36595   0.523   2.177  11.697 -0.2211 -0.5613  0.1654
 8320SOL    HW136596   0.466   2.171  11.621  0.3107  0.9108 -0.3474
 8320SOL    HW236597   0.613   2.174  11.666  0.4146  1.7451  1.7955
 8321SOL     OW36598   1.611   0.391   7.196 -0.7235  0.3608  0.5547
 8321SOL    HW136599   1.667   0.335   7.142 -1.9692  0.7023 -1.0601
 8321SOL    HW236600   1.539   0.402   7.135 -1.6747  0.3683  1.6698
 8322SOL     OW36601   3.057   1.444   8.809  0.2743 -0.3585 -0.2940
 8322SOL    HW136602   3.111   1.424   8.886  0.7020 -0.1662 -0.5423
 8322SOL    HW236603   2.973   1.446   8.855 -0.0750 -0.8396 -0.9152
 8323SOL     OW36604   0.888   1.977  14.636  0.3059  0.2885 -0.4367
 8323SOL    HW136605   0.842   1.996  14.718  1.2540  1.2396 -0.1284
 8323SOL    HW236606   0.942   1.907  14.672  0.1132  0.7742  0.7826
 8324SOL     OW36607   4.500   0.365   8.925 -0.2059  0.4031 -0.0167
 8324SOL    HW136608   4.486   0.381   8.832 -0.2454  1.7347  0.2296
 8324SOL    HW236609   4.528   0.274   8.915  1.1132  0.9054 -0.8404
 8325SOL     OW36610   4.086   2.260   5.722  0.5873  0.4065 -0.1062
 8325SOL    HW136611   4.017   2.284   5.784  1.7703  0.5264  1.1515
 8325SOL    HW236612   4.105   2.349   5.693  0.8198  0.1324 -0.7944
 8326SOL     OW36613   1.921   1.102   5.143 -0.2167 -0.5399 -0.1105
 8326SOL    HW136614   1.988   1.095   5.075  2.5023  1.4530  2.3766
 8326SOL    HW236615   1.869   1.177   5.114 -0.5421 -0.7959 -0.1863
 8327SOL     OW36616   1.110   0.532   1.709  0.1465  0.4238  0.3450
 8327SOL    HW136617   1.179   0.585   1.749  0.9539  0.4804 -1.1322
 8327SOL    HW236618   1.173   0.492   1.649 -0.7167  0.2164 -0.4297
 8328SOL     OW36619   4.651   2.969   6.015 -0.0178  0.7883  0.0458
 8328SOL    HW136620   4.679   2.975   5.923 -0.5573  1.2305 -0.0910
 8328SOL    HW236621   4.734   2.981   6.060 -1.1428 -0.1299  2.3533
 8329SOL     OW36622   2.484   4.274  10.501 -0.2745 -0.5684  0.1317
 8329SOL    HW136623   2.494   4.360  10.541  0.2622 -1.3005  1.5738
 8329SOL    HW236624   2.404   4.231  10.533 -2.5039  3.0147 -0.5837
 8330SOL     OW36625   0.764   0.889  14.227 -0.0149 -0.2283  0.5129
 8330SOL    HW136626   0.684   0.847  14.258  0.9845 -1.7064  1.0624
 8330SOL    HW236627   0.827   0.856  14.291 -1.4641 -4.3853 -0.1819
 8331SOL     OW36628   3.653   4.460   8.098  0.0229  0.6312 -0.1621
 8331SOL    HW136629   3.568   4.435   8.136  0.4671 -1.0210 -0.2396
 8331SOL    HW236630   3.660   4.548   8.134 -1.6801 -0.9383  4.0546
 8332SOL     OW36631   1.137   2.010  11.982  0.7799 -0.3351 -0.2696
 8332SOL    HW136632   1.080   2.038  12.052  2.5129 -0.4538  1.1886
 8332SOL    HW236633   1.153   2.093  11.937  0.4355 -0.1406 -0.0314
 8333SOL     OW36634   4.305   2.517   7.607  0.5623 -0.1108  0.7284
 8333SOL    HW136635   4.215   2.547   7.607  1.4970  2.6473 -1.0632
 8333SOL    HW236636   4.282   2.429   7.638 -0.3091  0.0544  0.5286
 8334SOL     OW36637   0.587   0.332   3.733 -0.1043 -0.0593  0.4088
 8334SOL    HW136638   0.682   0.341   3.740  0.1303 -1.1132 -1.3084
 8334SOL    HW236639   0.545   0.376   3.807  1.3305  0.1550  1.1021
 8335SOL     OW36640   2.577   1.538  16.215 -0.5544  0.3464  0.3302
 8335SOL    HW136641   2.505   1.476  16.226 -0.3407 -0.2298 -1.5863
 8335SOL    HW236642   2.592   1.565  16.306  3.2451 -0.7005 -0.0214
 8336SOL     OW36643   1.024   0.570  13.304  0.1600 -0.0053  0.0288
 8336SOL    HW136644   1.031   0.545  13.396 -0.8884  0.4271  0.2235
 8336SOL    HW236645   1.109   0.539  13.271  0.1388 -1.4311  1.2979
 8337SOL     OW36646   0.213   2.485   3.487 -0.2092 -0.3288  0.3087
 8337SOL    HW136647   0.182   2.462   3.399 -1.2432  4.1332 -0.5015
 8337SOL    HW236648   0.157   2.432   3.543  0.5974  1.5367  2.8405
 8338SOL     OW36649   4.244   0.127  12.970 -0.1854  0.0787  0.3614
 8338SOL    HW136650   4.327   0.117  12.925 -1.8998  0.9662 -2.9767
 8338SOL    HW236651   4.235   0.032  12.981  2.3264 -0.2335 -0.3609
 8339SOL     OW36652   0.909   3.522   0.280 -0.1678 -0.2071  0.6080
 8339SOL    HW136653   0.979   3.564   0.231 -0.4578 -1.1991 -0.6392
 8339SOL    HW236654   0.825   3.549   0.243 -0.7174 -2.0212  0.5231
 8340SOL     OW36655   4.206   3.907   4.228  0.0690 -0.0325 -0.8192
 8340SOL    HW136656   4.111   3.898   4.231  0.0591  0.0293 -0.9327
 8340SOL    HW236657   4.217   4.002   4.218  0.8557  0.2301  2.6404
 8341SOL     OW36658   3.734   4.460   5.472  0.4885 -0.0548 -0.3989
 8341SOL    HW136659   3.822   4.432   5.449  0.8115  1.1219 -0.5971
 8341SOL    HW236660   3.682   4.382   5.453  0.1492 -0.1381  0.8149
 8342SOL     OW36661   0.573   2.047   7.176  0.5180 -0.1120  0.0154
 8342SOL    HW136662   0.530   2.036   7.261  2.2398  1.4429  1.0962
 8342SOL    HW236663   0.527   1.992   7.114 -2.6785  2.8501 -0.2128
 8343SOL     OW36664   3.539   0.120   7.838 -0.6304 -0.7232  0.2187
 8343SOL    HW136665   3.601   0.192   7.827  0.4434 -1.6809  0.0076
 8343SOL    HW236666   3.453   0.158   7.822  0.0665  0.5418 -0.5156
 8344SOL     OW36667   1.494   4.522  11.644 -0.1984 -0.2252  0.0312
 8344SOL    HW136668   1.491   4.426  11.651  0.1728 -0.3868 -2.2579
 8344SOL    HW236669   1.554   4.548  11.715 -1.4565  0.9959  0.6431
 8345SOL     OW36670   3.290   2.936  10.346 -0.3933  0.1429 -0.4337
 8345SOL    HW136671   3.361   2.877  10.322 -1.3651 -0.9810 -0.5864
 8345SOL    HW236672   3.215   2.878  10.334 -1.6939  1.6298  0.4989
 8346SOL     OW36673   0.985   2.208   5.738  0.8309  0.6339  0.1241
 8346SOL    HW136674   1.023   2.129   5.700 -0.3180  0.8633 -1.4993
 8346SOL    HW236675   1.024   2.276   5.682  0.6948 -0.6069 -1.4937
 8347SOL     OW36676   3.727   2.574   4.442  1.2593  0.6072 -0.1034
 8347SOL    HW136677   3.784   2.650   4.438 -0.6373  2.0532  0.5992
 8347SOL    HW236678   3.646   2.615   4.412  0.5973 -1.4795 -1.1502
 8348SOL     OW36679   2.854   2.252   3.085  0.4632 -0.6672  0.5936
 8348SOL    HW136680   2.928   2.304   3.054 -0.7935  0.0556 -1.1739
 8348SOL    HW236681   2.887   2.229   3.172  0.4696  2.3139  1.3792
 8349SOL     OW36682   2.343   4.252   0.204 -0.0336  0.6043 -0.4699
 8349SOL    HW136683   2.400   4.209   0.268 -1.2950  0.5217  0.5885
 8349SOL    HW236684   2.269   4.278   0.258 -0.4025 -1.6079  0.0747
 8350SOL     OW36685   1.914   3.544   8.704 -0.4644 -0.5602 -0.2638
 8350SOL    HW136686   1.917   3.450   8.720 -0.5750 -0.6847 -0.9657
 8350SOL    HW236687   1.863   3.572   8.779  1.4210  0.9168  0.4816
 8351SOL     OW36688   1.342   0.759   2.928  0.4765  0.7015 -0.1034
 8351SOL    HW136689   1.285   0.684   2.912  0.1715  1.0719 -0.7317
 8351SOL    HW236690   1.277   0.821   2.960 -1.7987 -0.7453 -1.9182
 8352SOL     OW36691   0.566   0.741  12.549 -0.0587  0.0855 -0.4911
 8352SOL    HW136692   0.556   0.810  12.615 -1.9660 -0.1760 -0.4923
 8352SOL    HW236693   0.657   0.744  12.520  0.5927  0.6196  1.5808
 8353SOL     OW36694   4.710   0.033  14.643 -0.0508  0.0716  0.5110
 8353SOL    HW136695   0.021   0.051  14.561  2.0639  0.5080  1.8385
 8353SOL    HW236696   4.693   4.675  14.637  0.5514 -0.0226  0.2738
 8354SOL     OW36697   0.835   1.238  13.622  0.2457 -0.2509  0.1212
 8354SOL    HW136698   0.894   1.309  13.647 -0.6628  0.6352 -0.2258
 8354SOL    HW236699   0.876   1.157  13.654 -1.9072 -0.6239  2.0026
 8355SOL     OW36700   2.014   2.030  16.732 -0.6590 -0.0054  0.1172
 8355SOL    HW136701   1.950   1.977  16.684 -0.4142 -0.2875  0.0975
 8355SOL    HW236702   1.979   2.027  16.821  1.1463  0.2402  0.8478
 8356SOL     OW36703   3.366   2.055   7.652 -0.2730 -0.4367 -0.8160
 8356SOL    HW136704   3.378   1.963   7.628 -1.6878 -1.0663  0.9670
 8356SOL    HW236705   3.302   2.085   7.587 -1.5481 -0.5741  0.3699
 8357SOL     OW36706   4.070   0.706   2.916  0.1452 -0.1707 -0.2337
 8357SOL    HW136707   3.984   0.739   2.944  0.2090  0.5438 -0.8873
 8357SOL    HW236708   4.048   0.700   2.823  0.3690 -1.5127 -0.1952
 8358SOL     OW36709   0.262   1.039   2.680 -0.0108  0.2270  0.5171
 8358SOL    HW136710   0.225   0.997   2.602  2.2120 -0.1307 -0.3452
 8358SOL    HW236711   0.213   1.121   2.684 -2.1564 -1.0566  0.5564
 8359SOL     OW36712   1.988   3.713  11.583  0.4990  0.0955 -0.2527
 8359SOL    HW136713   1.996   3.693  11.490 -1.5225 -0.0097 -0.4026
 8359SOL    HW236714   1.907   3.664  11.595  0.3389  0.4144 -0.0490
 8360SOL     OW36715   1.745   2.948   8.665 -0.3050  0.4038  0.5178
 8360SOL    HW136716   1.781   3.001   8.594  1.0146 -1.4476 -0.1662
 8360SOL    HW236717   1.655   2.925   8.641 -0.1437 -0.1142  0.4248
 8361SOL     OW36718   3.271   4.544  15.998 -0.0468  0.0179 -0.0175
 8361SOL    HW136719   3.262   4.632  16.033 -1.6032 -0.9769  2.0560
 8361SOL    HW236720   3.366   4.534  15.992 -0.1839 -1.0470 -0.4908
 8362SOL     OW36721   4.231   0.155   0.442 -0.1905 -0.7027  0.3032
 8362SOL    HW136722   4.289   0.150   0.366  0.1237 -0.0772  0.4911
 8362SOL    HW236723   4.294   0.169   0.513 -0.5291  1.7524  0.1195
 8363SOL     OW36724   3.694   2.444   5.187 -0.0858  0.1842 -0.0985
 8363SOL    HW136725   3.763   2.510   5.190  0.4107 -0.4176  1.4406
 8363SOL    HW236726   3.733   2.366   5.227  0.0483 -0.5257 -1.5745
 8364SOL     OW36727   2.455   2.028  10.876 -0.3167 -0.1552  0.1963
 8364SOL    HW136728   2.535   2.076  10.854 -0.3566 -1.5992 -3.1958
 8364SOL    HW236729   2.479   1.935  10.880 -0.5445 -0.2870 -1.1819
 8365SOL     OW36730   0.559   0.112  13.997  0.1823  0.1937  0.2675
 8365SOL    HW136731   0.579   0.175  14.066  1.1653  0.6313 -0.4004
 8365SOL    HW236732   0.507   0.162  13.934  0.1608  1.2067  1.1017
 8366SOL     OW36733   2.547   3.140   3.053  0.1014  0.1711 -0.1147
 8366SOL    HW136734   2.551   3.109   3.144  0.7177 -0.5647 -0.3959
 8366SOL    HW236735   2.464   3.096   3.032 -1.3613  3.2610 -0.8001
 8367SOL     OW36736   0.925   1.904   4.659  0.4882 -0.0887  0.6429
 8367SOL    HW136737   0.915   1.902   4.754 -1.8443  0.4370  0.4025
 8367SOL    HW236738   0.848   1.853   4.634 -0.0734  0.2558  1.6845
 8368SOL     OW36739   1.593   3.114   9.483  0.0263  0.2019  0.8446
 8368SOL    HW136740   1.627   3.187   9.535 -2.7397  2.3212 -0.3194
 8368SOL    HW236741   1.625   3.132   9.395 -1.3178  0.9088  0.5045
 8369SOL     OW36742   4.286   3.024   2.490  0.3186  0.1465  0.0682
 8369SOL    HW136743   4.349   3.061   2.551  1.4522 -1.0000 -0.3910
 8369SOL    HW236744   4.235   2.962   2.542  0.5579 -0.4891 -0.4537
 8370SOL     OW36745   1.311   0.175  15.381  0.0459 -0.1510  0.2691
 8370SOL    HW136746   1.317   0.159  15.475  0.7017  0.7552  0.3767
 8370SOL    HW236747   1.397   0.213  15.366  0.7098 -1.1215  1.6588
 8371SOL     OW36748   0.946   4.051   9.095  0.0041 -0.0343  0.3333
 8371SOL    HW136749   1.021   4.016   9.143 -0.5411 -0.1034  1.1300
 8371SOL    HW236750   0.891   3.974   9.111 -0.0334  0.3545  2.0765
 8372SOL     OW36751   4.711   3.765   7.142  0.2506 -0.0579  0.2554
 8372SOL    HW136752   4.643   3.708   7.106  0.4302  1.3810 -2.3892
 8372SOL    HW236753   4.694   3.849   7.101  2.4057  0.3073  0.0860
 8373SOL     OW36754   1.397   1.141  12.803 -0.2753 -0.5681  0.1384
 8373SOL    HW136755   1.419   1.233  12.817  1.0352 -0.7030 -1.0841
 8373SOL    HW236756   1.313   1.151  12.758 -0.2877 -0.0003  0.2975
 8374SOL     OW36757   2.268   2.550   6.070 -0.1078 -0.3959 -0.3857
 8374SOL    HW136758   2.223   2.623   6.026  1.5865  0.1375 -1.2232
 8374SOL    HW236759   2.222   2.555   6.154  0.0067  1.6804 -0.4307
 8375SOL     OW36760   0.445   2.209   9.752  0.6769  0.0707  0.3945
 8375SOL    HW136761   0.502   2.190   9.826  1.4597 -0.0727 -0.2506
 8375SOL    HW236762   0.435   2.304   9.753  0.4502  0.0554 -0.1315
 8376SOL     OW36763   3.832   2.369  17.719  0.2510  0.0178 -0.1089
 8376SOL    HW136764   3.892   2.403  17.653 -0.3216 -0.7711 -1.0338
 8376SOL    HW236765   3.755   2.361  17.663  0.2784  1.0836 -0.3010
 8377SOL     OW36766   3.386   3.517   8.352  0.2659  0.4291  0.4127
 8377SOL    HW136767   3.363   3.424   8.347 -2.6499  1.1395  1.0275
 8377SOL    HW236768   3.430   3.518   8.437 -0.5012  0.3466  0.8088
 8378SOL     OW36769   2.246   0.359  10.848  0.6715 -0.2836  0.4576
 8378SOL    HW136770   2.305   0.367  10.773  0.2397  0.3020  0.1796
 8378SOL    HW236771   2.169   0.404  10.813  1.1383 -0.5018 -0.8416
 8379SOL     OW36772   1.339   0.849   5.008  0.0434  0.4163 -0.0337
 8379SOL    HW136773   1.357   0.832   5.101 -1.7686 -1.1213  0.0428
 8379SOL    HW236774   1.413   0.801   4.971 -0.3821  2.0846 -3.0185
 8380SOL     OW36775   2.947   2.687   7.535 -0.7892  0.1135  0.7567
 8380SOL    HW136776   2.906   2.751   7.475 -0.4698  0.7401  1.2106
 8380SOL    HW236777   2.876   2.625   7.553 -0.5670  0.2712  2.1299
 8381SOL     OW36778   1.531   0.012   2.640  0.3730 -0.2831  0.3540
 8381SOL    HW136779   1.437   0.028   2.633  0.3153 -0.8386 -0.1765
 8381SOL    HW236780   1.550   0.025   2.733 -1.9197  0.5242  0.7269
 8382SOL     OW36781   1.819   2.110   5.886 -0.0026  0.5233 -0.3979
 8382SOL    HW136782   1.872   2.036   5.913 -0.0995  1.8909  3.5056
 8382SOL    HW236783   1.778   2.062   5.814 -0.9177 -1.1187  1.2203
 8383SOL     OW36784   4.367   2.962   8.157  0.0609 -0.2724 -0.6253
 8383SOL    HW136785   4.407   2.897   8.099  1.0086  1.3522 -1.7987
 8383SOL    HW236786   4.442   3.021   8.167  0.0440 -0.4366  0.5072
 8384SOL     OW36787   4.513   1.448   7.956  0.7040 -0.0998 -0.4820
 8384SOL    HW136788   4.560   1.488   8.029  0.9165 -1.2498  0.0031
 8384SOL    HW236789   4.423   1.466   7.983  0.3770 -2.2983 -0.1295
 8385SOL     OW36790   3.352   3.920  14.490  0.8072  0.7425 -0.8841
 8385SOL    HW136791   3.316   4.003  14.459 -2.6701 -1.4482 -2.6271
 8385SOL    HW236792   3.428   3.961  14.531  0.8258  1.5578 -1.7151
 8386SOL     OW36793   3.275   4.143  15.622  0.2627 -0.0201 -0.0717
 8386SOL    HW136794   3.283   4.051  15.648 -0.8186 -0.3799 -1.0065
 8386SOL    HW236795   3.279   4.195  15.702 -2.0525 -0.6803  0.4982
 8387SOL     OW36796   0.369   1.801  10.457 -0.1761 -0.0359  0.3602
 8387SOL    HW136797   0.320   1.817  10.376  0.5920  2.7506  0.4477
 8387SOL    HW236798   0.313   1.832  10.528 -1.6853  0.5052 -1.0665
 8388SOL     OW36799   1.051   0.099   9.135  0.3689 -0.2728  0.3608
 8388SOL    HW136800   0.990   0.154   9.086 -0.0205  0.4772  1.6707
 8388SOL    HW236801   1.085   0.033   9.074 -1.3168  2.2306 -3.2592
 8389SOL     OW36802   1.757   0.020   3.798  0.2336  0.4662  0.1401
 8389SOL    HW136803   1.845   4.720   3.800 -0.6056 -1.6244 -0.9496
 8389SOL    HW236804   1.711   4.713   3.727  0.1823  1.4297 -0.4161
 8390SOL     OW36805   0.142   2.897  10.206  0.2153  0.6194 -0.2068
 8390SOL    HW136806   0.069   2.938  10.251  1.0712  0.6852  1.1051
 8390SOL    HW236807   0.122   2.938  10.121  2.7149  0.8966 -0.6787
 8391SOL     OW36808   3.200   3.189   6.957 -0.0862  0.0906 -0.2440
 8391SOL    HW136809   3.165   3.224   7.039  0.7427  1.8722 -0.6489
 8391SOL    HW236810   3.294   3.182   6.972  0.0671 -0.7740 -1.6486
 8392SOL     OW36811   1.575   0.037  12.889 -0.0410 -0.0607  0.7845
 8392SOL    HW136812   1.549   0.074  12.974 -2.7574  1.3382 -0.6464
 8392SOL    HW236813   1.569   4.678  12.904  1.6185 -0.0200  1.6571
 8393SOL     OW36814   2.044   3.059   8.237  0.0608  0.1605  0.2752
 8393SOL    HW136815   2.072   3.127   8.175  0.9874  1.6586  2.3469
 8393SOL    HW236816   2.078   3.097   8.318  2.5973  0.7082 -1.0560
 8394SOL     OW36817   1.325   0.176   5.058 -0.1947 -0.0264  0.3667
 8394SOL    HW136818   1.342   0.097   5.006 -0.2981 -0.6827  1.3386
 8394SOL    HW236819   1.258   0.214   5.001 -1.6390 -0.3108  1.8856
 8395SOL     OW36820   2.829   1.698   4.474  0.0327 -0.0304 -0.6343
 8395SOL    HW136821   2.868   1.640   4.409  1.7176  2.4771 -1.8249
 8395SOL    HW236822   2.902   1.750   4.507 -1.2059  1.0324  0.4326
 8396SOL     OW36823   0.064   1.443   4.897  0.3530  0.0634 -0.5314
 8396SOL    HW136824   0.073   1.510   4.829  1.5060 -2.1788 -2.5905
 8396SOL    HW236825   0.051   1.504   4.970 -4.1481 -0.8242 -0.5756
 8397SOL     OW36826   3.605   2.367   0.941 -0.1192  0.4613 -0.0893
 8397SOL    HW136827   3.654   2.434   0.894 -1.2396  0.7024 -0.9296
 8397SOL    HW236828   3.519   2.406   0.959  0.7123  0.5270  3.7215
 8398SOL     OW36829   3.860   3.951   8.658  0.1832  0.2251  0.0535
 8398SOL    HW136830   3.791   4.001   8.701 -1.0539  0.4511 -2.2076
 8398SOL    HW236831   3.810   3.918   8.584 -0.2133  0.1347  0.3644
 8399SOL     OW36832   1.255   1.491   5.607 -0.0652 -0.1100  0.6039
 8399SOL    HW136833   1.185   1.552   5.630  0.4831 -0.0458  2.0742
 8399SOL    HW236834   1.222   1.414   5.654  1.3010 -0.6340  0.6894
 8400SOL     OW36835   4.564   4.063  15.130 -0.0671 -0.2614  0.4429
 8400SOL    HW136836   4.511   4.091  15.055  0.0610  0.4330  0.6061
 8400SOL    HW236837   4.651   4.073  15.090 -0.2453  5.2820  1.3208
 8401SOL     OW36838   2.671   2.514   5.738 -0.2760  0.2394 -0.1346
 8401SOL    HW136839   2.578   2.528   5.717 -0.6487  0.1982  1.4649
 8401SOL    HW236840   2.702   2.472   5.658  1.6999  1.1099  0.1759
 8402SOL     OW36841   1.913   3.778   3.661 -0.2545 -0.5033 -0.0766
 8402SOL    HW136842   2.001   3.764   3.696 -0.7480 -0.8433  1.0320
 8402SOL    HW236843   1.880   3.846   3.719 -0.7034 -1.3738  0.7032
 8403SOL     OW36844   3.633   2.398   3.213 -0.2131  0.4518 -0.1802
 8403SOL    HW136845   3.720   2.435   3.226  0.0983  0.0820 -1.2002
 8403SOL    HW236846   3.577   2.474   3.229 -0.9585 -0.6890  2.5586
 8404SOL     OW36847   3.935   0.954   8.168  0.5343  0.2753 -0.1180
 8404SOL    HW136848   3.963   0.975   8.257  0.6873  1.3158 -0.4230
 8404SOL    HW236849   3.976   1.025   8.120  1.0673 -1.2585 -1.9172
 8405SOL     OW36850   2.663   0.813   6.672 -0.0368 -0.5875  0.0795
 8405SOL    HW136851   2.675   0.902   6.705 -2.1768 -0.7079  1.1996
 8405SOL    HW236852   2.737   0.802   6.613 -0.4625  1.9199 -0.9521
 8406SOL     OW36853   1.326   4.245  15.969  0.1933  0.5787 -0.3585
 8406SOL    HW136854   1.340   4.303  15.895  0.0984  1.2334  0.1347
 8406SOL    HW236855   1.241   4.214  15.938 -0.1079 -0.9294  1.9809
 8407SOL     OW36856   4.295   0.590   2.703 -0.4101 -0.3890 -0.4156
 8407SOL    HW136857   4.331   0.618   2.618  0.6696  0.9628  0.4891
 8407SOL    HW236858   4.370   0.555   2.751  0.8929  1.8696 -0.8094
 8408SOL     OW36859   2.352   1.786  15.919 -0.5158  0.2183 -0.2236
 8408SOL    HW136860   2.447   1.790  15.905 -0.8833  1.5989 -2.2508
 8408SOL    HW236861   2.336   1.711  15.862 -0.7675 -0.9262  1.3334
 8409SOL     OW36862   1.138   3.912  12.413 -0.4359  0.1358 -0.0120
 8409SOL    HW136863   1.198   3.977  12.450 -0.2277  0.8630 -1.6374
 8409SOL    HW236864   1.202   3.841  12.413 -0.7498 -0.1369 -1.2085
 8410SOL     OW36865   3.866   1.071   4.892  0.0452 -0.4864 -0.4126
 8410SOL    HW136866   3.954   1.099   4.868 -0.1415  0.6343  0.2023
 8410SOL    HW236867   3.884   1.003   4.957 -1.5282 -0.5922 -0.0730
 8411SOL     OW36868   1.731   3.451   3.156  0.0039  0.4009 -0.3939
 8411SOL    HW136869   1.716   3.545   3.164  1.1129  0.5351  0.1781
 8411SOL    HW236870   1.669   3.420   3.090 -0.9578  0.2677  0.5761
 8412SOL     OW36871   4.681   3.616   6.399 -0.2807  0.4567 -0.4029
 8412SOL    HW136872   4.608   3.556   6.383  2.6849 -2.8665 -1.5035
 8412SOL    HW236873   4.630   3.697   6.403 -0.6109  0.3687 -2.6492
 8413SOL     OW36874   1.507   1.975  16.491 -0.2512 -0.3201 -0.4629
 8413SOL    HW136875   1.586   2.011  16.531 -0.9297  2.2875 -1.4621
 8413SOL    HW236876   1.506   2.028  16.411  2.1277  1.8789  0.9614
 8414SOL     OW36877   2.425   0.617   2.359 -0.1817 -0.3588 -0.1187
 8414SOL    HW136878   2.409   0.642   2.268  0.5904  0.5663 -0.0085
 8414SOL    HW236879   2.487   0.686   2.384  2.3773 -2.6326 -0.1641
 8415SOL     OW36880   4.230   0.534   3.941  0.5574  0.2068  0.4720
 8415SOL    HW136881   4.271   0.602   3.995  1.0172 -0.5339  1.0492
 8415SOL    HW236882   4.144   0.539   3.983  0.1928 -1.2628 -0.1172
 8416SOL     OW36883   1.444   1.575   7.169 -0.3263  0.3681  0.2421
 8416SOL    HW136884   1.370   1.610   7.119 -0.0301  2.6725  1.4419
 8416SOL    HW236885   1.431   1.620   7.252  1.2732 -1.8129  1.6835
 8417SOL     OW36886   0.417   1.508   8.419 -0.1785 -0.3549  0.6584
 8417SOL    HW136887   0.402   1.534   8.328  0.3413  0.3035  0.7604
 8417SOL    HW236888   0.513   1.504   8.417 -0.0972  2.2674  0.2207
 8418SOL     OW36889   1.719   1.379  14.829 -0.3898 -0.4770 -0.5033
 8418SOL    HW136890   1.754   1.324  14.759 -1.4490 -0.9363 -0.6598
 8418SOL    HW236891   1.683   1.302  14.873  0.3744 -1.8178 -2.2547
 8419SOL     OW36892   3.350   4.691   7.116  0.4544 -0.5510 -0.1397
 8419SOL    HW136893   3.303   4.714   7.196 -0.2248  0.5235 -0.8512
 8419SOL    HW236894   3.359   4.596   7.118 -0.4061 -0.6124  0.6127
 8420SOL     OW36895   2.709   2.556  15.132  0.3825 -0.2759  0.3979
 8420SOL    HW136896   2.782   2.498  15.109  1.3111  0.0123  2.5086
 8420SOL    HW236897   2.757   2.631  15.169 -0.6926  0.0115  1.2103
 8421SOL     OW36898   2.446   4.506   3.033  0.2184 -0.0727 -0.2162
 8421SOL    HW136899   2.392   4.547   2.966  1.3351 -1.1672 -1.7606
 8421SOL    HW236900   2.433   4.416   3.003 -0.5105  0.3114 -1.0234
 8422SOL     OW36901   0.312   1.344   2.133 -0.3653 -0.3724  0.2126
 8422SOL    HW136902   0.395   1.365   2.090  0.1915 -3.0313 -0.0287
 8422SOL    HW236903   0.328   1.399   2.210 -0.7286 -0.7646  0.5669
 8423SOL     OW36904   1.387   3.661   5.286  0.0251  0.5499  0.3417
 8423SOL    HW136905   1.391   3.579   5.335 -1.1983  0.1798 -0.1796
 8423SOL    HW236906   1.436   3.628   5.210 -2.6500  2.6524 -2.2725
 8424SOL     OW36907   2.212   0.696   1.475 -0.6192  0.4989 -0.0504
 8424SOL    HW136908   2.150   0.719   1.406 -1.3662 -0.2445  0.3660
 8424SOL    HW236909   2.152   0.689   1.549 -1.2584 -0.1118 -0.6222
 8425SOL     OW36910   0.238   2.515   0.743  0.0701 -0.1836  0.2967
 8425SOL    HW136911   0.286   2.579   0.795  0.7017 -0.3363 -0.1047
 8425SOL    HW236912   0.169   2.569   0.704  0.5773  0.4691  0.3077
 8426SOL     OW36913   0.644   4.224   6.577  0.2372 -0.4481  0.3047
 8426SOL    HW136914   0.648   4.172   6.496 -0.9671  0.6762 -0.4689
 8426SOL    HW236915   0.673   4.311   6.551  1.2715 -1.4105 -1.8623
 8427SOL     OW36916   0.033   1.574   8.750 -0.0999 -0.4427  0.1564
 8427SOL    HW136917   4.733   1.505   8.693 -1.0203  0.5392 -0.4629
 8427SOL    HW236918   0.124   1.567   8.721 -0.3071  2.2046 -1.1050
 8428SOL     OW36919   3.774   1.805   2.050  0.0028  0.5278  0.7376
 8428SOL    HW136920   3.859   1.815   2.006  0.0542 -0.8627  0.5406
 8428SOL    HW236921   3.709   1.803   1.979  1.5200  0.5036 -0.6658
 8429SOL     OW36922   4.427   1.781   8.000  0.4466  0.0927  0.1950
 8429SOL    HW136923   4.467   1.783   8.087 -2.2239 -1.4826  1.4540
 8429SOL    HW236924   4.351   1.727   8.021  0.8096  0.4319  2.4733
 8430SOL     OW36925   4.664   0.732   1.083  0.4336  0.6089 -0.2265
 8430SOL    HW136926   4.696   0.669   1.147  0.3858  0.7161 -0.0949
 8430SOL    HW236927   0.008   0.782   1.069 -0.0590  1.2886 -0.6528
 8431SOL     OW36928   0.493   0.545   4.846 -0.6511 -0.0878  0.7590
 8431SOL    HW136929   0.411   0.592   4.866 -0.8041  0.5356 -1.3991
 8431SOL    HW236930   0.510   0.527   4.939 -1.1306  2.3313  1.3259
 8432SOL     OW36931   3.518   2.042   7.191 -0.1458 -0.3223  0.4665
 8432SOL    HW136932   3.610   2.018   7.195 -0.5525 -1.1985  4.2989
 8432SOL    HW236933   3.500   2.075   7.102  2.3859  1.9687  0.8220
 8433SOL     OW36934   2.673   3.865   1.817  0.0335  0.3035 -0.5482
 8433SOL    HW136935   2.626   3.948   1.816  0.3819  0.4981 -0.6233
 8433SOL    HW236936   2.617   3.801   1.774  1.9029 -1.9503  0.3759
 8434SOL     OW36937   2.844   3.637  16.342 -0.0430  0.1675  0.0052
 8434SOL    HW136938   2.830   3.623  16.248 -1.9430 -1.2678  0.4967
 8434SOL    HW236939   2.904   3.711  16.330  0.4484 -0.0274  1.2450
 8435SOL     OW36940   4.633   0.147   1.874 -0.6607  0.4208 -0.3522
 8435SOL    HW136941   4.714   0.099   1.894 -2.0247 -0.8590  2.0884
 8435SOL    HW236942   4.571   0.090   1.920 -0.5148  1.5647  1.2357
 8436SOL     OW36943   3.669   3.009   3.608  0.2443  0.6067  0.2235
 8436SOL    HW136944   3.714   2.976   3.685  2.6328 -0.3244 -1.5677
 8436SOL    HW236945   3.673   3.101   3.634 -1.0791  1.3942 -2.3753
 8437SOL     OW36946   1.111   3.189   7.981 -0.4231 -0.8503  0.0079
 8437SOL    HW136947   1.172   3.253   7.944  0.6873 -2.4533 -0.9285
 8437SOL    HW236948   1.131   3.110   7.932 -1.4876 -0.2460 -1.3961
 8438SOL     OW36949   1.016   2.545   7.509 -0.1586 -0.9347 -0.6854
 8438SOL    HW136950   1.041   2.593   7.588 -0.2789 -1.4316 -0.3399
 8438SOL    HW236951   0.978   2.464   7.546  0.7828 -0.0201  2.3125
 8439SOL     OW36952   3.622   4.016  17.363 -0.6444 -0.2187  0.3498
 8439SOL    HW136953   3.671   4.089  17.401  1.7783 -2.5828  1.7558
 8439SOL    HW236954   3.660   3.938  17.402 -2.0938 -1.3457 -0.4816
 8440SOL     OW36955   4.336   0.715   0.519 -0.5068  0.2459  0.4700
 8440SOL    HW136956   4.375   0.728   0.432 -1.4592  1.8539  0.2733
 8440SOL    HW236957   4.292   0.630   0.518  0.2625 -0.1512 -0.0531
 8441SOL     OW36958   0.352   1.787   4.004 -0.2220 -0.4867  0.2062
 8441SOL    HW136959   0.382   1.786   4.095 -0.3489  1.7670  0.2783
 8441SOL    HW236960   0.311   1.701   4.008  0.0466 -0.5290  2.2169
 8442SOL     OW36961   1.430   4.501   1.668 -0.5602  0.3363  0.2133
 8442SOL    HW136962   1.395   4.564   1.606 -1.0994 -0.2362 -0.0654
 8442SOL    HW236963   1.523   4.508   1.646  0.2708 -0.1608  3.6013
 8443SOL     OW36964   1.165   4.161   8.911  0.2112 -0.4358 -0.2558
 8443SOL    HW136965   1.137   4.248   8.939 -2.5970 -0.9825 -1.3207
 8443SOL    HW236966   1.182   4.128   8.999  0.9986  0.7194  0.0244
 8444SOL     OW36967   2.468   1.232   7.477  0.3721  0.2979  0.2218
 8444SOL    HW136968   2.463   1.279   7.394  1.9615  0.0474 -0.0015
 8444SOL    HW236969   2.560   1.206   7.471  0.3289 -0.1174  1.3074
 8445SOL     OW36970   2.939   3.526   5.737  0.4903  0.0329  0.3166
 8445SOL    HW136971   2.941   3.597   5.672  2.8450 -1.6590 -1.4786
 8445SOL    HW236972   3.017   3.483   5.703  1.4445  3.0330 -1.3203
 8446SOL     OW36973   4.127   1.767   2.247  0.1644  0.1210 -0.0699
 8446SOL    HW136974   4.165   1.839   2.195  4.2505 -0.8800  1.5367
 8446SOL    HW236975   4.192   1.702   2.222 -0.5479 -0.9026  0.7999
 8447SOL     OW36976   3.781   0.394   6.611 -0.3973  0.0238  0.3726
 8447SOL    HW136977   3.725   0.426   6.682 -3.7974 -3.2259 -0.8298
 8447SOL    HW236978   3.753   0.303   6.601  1.3580 -0.3793 -0.7240
 8448SOL     OW36979   2.751   3.360   5.637  0.0530  0.1405  0.2214
 8448SOL    HW136980   2.795   3.437   5.675  0.3073 -0.1927  0.5994
 8448SOL    HW236981   2.790   3.298   5.698  0.3521  0.3864  0.2796
 8449SOL     OW36982   0.899   0.066   7.919  0.0438  0.2345 -0.5871
 8449SOL    HW136983   0.814   0.022   7.923 -0.1754  0.8337  1.2633
 8449SOL    HW236984   0.940   0.052   8.004 -0.1495 -1.0996 -0.7214
 8450SOL     OW36985   2.325   2.786   4.836  0.0846 -0.0167 -0.2337
 8450SOL    HW136986   2.356   2.871   4.866  0.6961 -0.7712  1.2881
 8450SOL    HW236987   2.390   2.757   4.771  1.7805  2.2986  0.4306
 8451SOL     OW36988   2.267   1.422  15.064 -0.5944 -0.2952 -0.3571
 8451SOL    HW136989   2.253   1.497  15.123  2.8870  0.8345 -0.9086
 8451SOL    HW236990   2.304   1.462  14.985  2.2853 -3.8405 -0.8074
 8452SOL     OW36991   3.074   4.713  17.091  0.2382 -0.0431 -0.1814
 8452SOL    HW136992   3.127   4.639  17.119 -0.6871 -0.1866  1.2004
 8452SOL    HW236993   3.140   0.044  17.074 -2.3689  2.5551 -0.1274
 8453SOL     OW36994   4.029   1.596   7.392  1.2480 -0.5050  0.1626
 8453SOL    HW136995   4.029   1.502   7.409  0.5499 -0.3306  1.1615
 8453SOL    HW236996   3.999   1.598   7.301  1.6862 -0.6126  0.0152
 8454SOL     OW36997   2.529   2.535   2.224 -0.7099 -0.5297  0.1391
 8454SOL    HW136998   2.444   2.506   2.256 -0.3685  1.5570  2.9368
 8454SOL    HW236999   2.589   2.511   2.295 -1.2981  1.7843  1.4177
 8455SOL     OW37000   1.535   1.078  12.188 -0.2371 -0.4670 -0.1778
 8455SOL    HW137001   1.569   1.064  12.276  0.8463 -1.3757 -0.7418
 8455SOL    HW237002   1.491   0.995  12.171  0.9665 -0.5539 -2.8796
 8456SOL     OW37003   3.305   0.600  13.516 -0.3415  0.1609  0.3416
 8456SOL    HW137004   3.373   0.664  13.535 -0.2475  0.2621 -0.3463
 8456SOL    HW237005   3.342   0.511  13.513 -1.1136 -0.2375  2.5423
 8457SOL     OW37006   4.407   1.803  13.620  0.1140  0.4228  0.0987
 8457SOL    HW137007   4.497   1.803  13.589  0.4384 -2.1812  0.9918
 8457SOL    HW237008   4.411   1.843  13.706  2.2035  1.1457 -0.3392
 8458SOL     OW37009   3.534   1.804   8.537 -0.3998 -0.1396 -0.6577
 8458SOL    HW137010   3.483   1.755   8.473 -0.1671  0.9817 -1.7044
 8458SOL    HW237011   3.495   1.784   8.623  0.9492 -0.0417 -0.0220
 8459SOL     OW37012   3.498   3.259   5.776  0.5297 -0.4254  0.3028
 8459SOL    HW137013   3.547   3.341   5.772  2.5530 -1.6442  0.0591
 8459SOL    HW237014   3.496   3.229   5.685 -0.7036 -0.8756  0.4862
 8460SOL     OW37015   4.335   1.111  15.802 -0.7349  0.3178 -0.2231
 8460SOL    HW137016   4.300   1.175  15.864 -0.1118 -0.7374  1.2371
 8460SOL    HW237017   4.403   1.169  15.767  2.2257 -2.0646  1.5715
 8461SOL     OW37018   4.312   2.683  10.244 -0.1385 -0.2045  0.4306
 8461SOL    HW137019   4.268   2.728  10.316  1.4843 -1.6861  2.3365
 8461SOL    HW237020   4.295   2.746  10.174  0.0573 -3.1881 -2.3393
 8462SOL     OW37021   2.565   3.930   8.203  0.2183  0.1525 -0.2384
 8462SOL    HW137022   2.483   3.886   8.178 -0.0296 -0.8578  2.2721
 8462SOL    HW237023   2.558   3.918   8.298  1.2161  0.0008 -0.1838
 8463SOL     OW37024   2.507   2.883   6.332 -0.3281 -0.1930 -0.1846
 8463SOL    HW137025   2.532   2.791   6.338 -1.4514 -0.5610 -1.3283
 8463SOL    HW237026   2.594   2.922   6.322 -1.0906  2.0686  1.8888
 8464SOL     OW37027   4.111   3.724   3.229 -0.2154 -0.0288  0.0612
 8464SOL    HW137028   4.130   3.774   3.150 -0.5536 -0.5669 -0.3642
 8464SOL    HW237029   4.110   3.633   3.198  1.9785 -0.0752  0.1492
 8465SOL     OW37030   1.571   1.555  16.118  0.2643  0.1758 -0.0921
 8465SOL    HW137031   1.571   1.580  16.025  0.7158 -1.5617 -0.5630
 8465SOL    HW237032   1.592   1.639  16.160 -3.2913  1.1505 -0.2978
 8466SOL     OW37033   0.793   2.451  11.530 -0.2105 -0.6276  0.5551
 8466SOL    HW137034   0.778   2.359  11.511  0.3891 -0.8847  1.3220
 8466SOL    HW237035   0.808   2.442  11.624  0.0904  0.4520  0.6159
 8467SOL     OW37036   3.235   3.566   2.264  0.2989 -0.0310 -0.1733
 8467SOL    HW137037   3.232   3.637   2.328 -1.8691 -0.7494  0.5110
 8467SOL    HW237038   3.175   3.605   2.201  0.4484 -1.6668 -1.3401
 8468SOL     OW37039   2.377   0.368   5.319  0.1816 -0.4010  0.2492
 8468SOL    HW137040   2.449   0.386   5.379 -0.5613  2.9151  0.1100
 8468SOL    HW237041   2.316   0.357   5.391  0.6482 -1.1203  0.5448
 8469SOL     OW37042   2.238   1.492  16.108  0.0314  0.7721  0.0540
 8469SOL    HW137043   2.298   1.485  16.034 -0.0768 -0.8889  0.1204
 8469SOL    HW237044   2.265   1.415  16.159 -0.3571  0.5755 -0.0398
 8470SOL     OW37045   4.655   2.585  11.328  0.1565  0.2201  0.5068
 8470SOL    HW137046   4.687   2.669  11.363 -0.0692  0.7030 -0.4685
 8470SOL    HW237047   4.729   2.525  11.342 -0.2183  0.0866  1.9192
 8471SOL     OW37048   1.057   1.399   8.322  0.2887  0.0446 -0.0724
 8471SOL    HW137049   1.135   1.448   8.351  0.5119 -0.7541  0.6724
 8471SOL    HW237050   1.077   1.307   8.336 -0.0848 -0.0943 -0.4618
 8472SOL     OW37051   0.344   2.854   1.842  0.5880 -0.1529 -0.5693
 8472SOL    HW137052   0.368   2.780   1.899  1.3185  1.4817  1.2717
 8472SOL    HW237053   0.251   2.870   1.857  0.1911 -1.5305 -1.5931
 8473SOL     OW37054   4.373   2.516  11.393 -0.1772 -0.1296 -0.0659
 8473SOL    HW137055   4.366   2.609  11.375 -1.6766 -0.6724 -2.3250
 8473SOL    HW237056   4.463   2.511  11.362  0.4714 -0.7708  1.8857
 8474SOL     OW37057   3.879   1.010   8.834  0.3870  0.3656 -0.5183
 8474SOL    HW137058   3.867   1.035   8.925  1.5720 -1.3972  0.1240
 8474SOL    HW237059   3.831   0.929   8.846 -1.5103  1.0936 -3.1853
 8475SOL     OW37060   1.857   0.090   4.821 -0.3867 -0.3316 -0.0082
 8475SOL    HW137061   1.941   0.043   4.823 -0.1373  0.0152 -1.8799
 8475SOL    HW237062   1.844   0.093   4.726 -1.0645  0.6472  0.1121
 8476SOL     OW37063   1.728   2.182   5.309 -0.6007 -0.1231 -0.0813
 8476SOL    HW137064   1.760   2.099   5.345  2.2529 -0.1296 -2.6417
 8476SOL    HW237065   1.703   2.162   5.218  1.0964 -1.5265 -0.2258
 8477SOL     OW37066   4.360   4.102   7.847 -0.0139 -0.0528 -0.4157
 8477SOL    HW137067   4.333   4.165   7.914  1.8194  0.5176 -0.2029
 8477SOL    HW237068   4.302   4.115   7.772  0.0723 -0.3664 -0.5357
 8478SOL     OW37069   4.518   1.440   0.118  0.1774 -0.3376  0.0888
 8478SOL    HW137070   4.442   1.458   0.174 -0.5424 -0.8453 -0.7252
 8478SOL    HW237071   4.513   1.345   0.132 -2.2767 -0.3079 -0.5914
 8479SOL     OW37072   0.453   3.642   4.866 -0.1005 -0.0056 -0.1054
 8479SOL    HW137073   0.436   3.677   4.953 -0.5233  1.3327 -0.7127
 8479SOL    HW237074   0.430   3.549   4.873  0.0563  0.2257  3.1200
 8480SOL     OW37075   2.000   4.487   8.187  0.0745  0.2984  0.1202
 8480SOL    HW137076   1.959   4.422   8.244  2.0715 -2.2972 -1.4054
 8480SOL    HW237077   1.950   4.564   8.214  0.4487  1.1466 -1.6530
 8481SOL     OW37078   2.203   3.263   1.831  0.3272 -0.2283  0.3873
 8481SOL    HW137079   2.145   3.212   1.774  0.5057  0.8498 -0.7660
 8481SOL    HW237080   2.145   3.261   1.907  2.2126  1.7884  1.8622
 8482SOL     OW37081   0.314   0.680  12.875 -0.2981 -0.3497  0.4057
 8482SOL    HW137082   0.372   0.636  12.937  0.8601  0.0107 -0.4085
 8482SOL    HW237083   0.385   0.703  12.814 -0.5069 -1.4287 -0.2367
 8483SOL     OW37084   4.616   2.128   5.917  0.0011 -0.5765  0.0309
 8483SOL    HW137085   4.644   2.162   5.832 -1.4135  0.8528  0.1448
 8483SOL    HW237086   4.578   2.209   5.951 -1.6691 -1.1467 -0.5039
 8484SOL     OW37087   4.357   1.047  16.406 -0.1998 -0.1943 -0.3919
 8484SOL    HW137088   4.267   1.041  16.437  0.6781 -0.9404  2.0123
 8484SOL    HW237089   4.354   1.128  16.356 -2.0165 -0.0727 -0.0600
 8485SOL     OW37090   0.265   2.443   5.383 -0.2724 -0.3478  0.3228
 8485SOL    HW137091   0.325   2.497   5.332 -0.6867  1.8232  2.1489
 8485SOL    HW237092   0.332   2.389   5.424  0.9818 -0.6475 -2.1093
 8486SOL     OW37093   2.652   2.073   1.411 -0.0463  0.0431  0.5529
 8486SOL    HW137094   2.692   2.122   1.483  0.1809 -0.2476  0.6285
 8486SOL    HW237095   2.562   2.104   1.424 -1.5293 -4.0214 -0.0117
 8487SOL     OW37096   3.933   3.810   4.221 -0.8534  0.5454  0.0848
 8487SOL    HW137097   3.881   3.865   4.163 -3.2743  1.3765  3.0305
 8487SOL    HW237098   3.867   3.756   4.265  0.5753 -1.8370 -0.6716
 8488SOL     OW37099   2.600   0.473   3.746 -0.0070  0.6639  0.1188
 8488SOL    HW137100   2.662   0.407   3.714  0.1850  1.7571 -1.7970
 8488SOL    HW237101   2.566   0.519   3.669 -1.0338  0.9105  0.7282
 8489SOL     OW37102   1.284   3.801   1.750 -0.4141  0.0024  0.2748
 8489SOL    HW137103   1.222   3.824   1.819  2.1406  1.5051  2.1096
 8489SOL    HW237104   1.316   3.718   1.788 -1.1229 -0.6191 -0.4906
 8490SOL     OW37105   2.647   0.950   9.806 -0.6502 -0.0065 -0.5829
 8490SOL    HW137106   2.740   0.961   9.827 -1.1340  1.9198  0.5531
 8490SOL    HW237107   2.637   1.044   9.790 -0.4753  0.0778 -0.1967
 8491SOL     OW37108   0.926   0.409  10.970 -0.4803  0.3948  0.6781
 8491SOL    HW137109   0.844   0.418  11.018 -0.0596  0.2770  1.4202
 8491SOL    HW237110   0.978   0.365  11.037  0.0821  3.0548  1.9472
 8492SOL     OW37111   0.413   0.149   8.517 -0.0270  0.5468 -0.1465
 8492SOL    HW137112   0.430   0.239   8.489  1.5286 -0.0183 -0.9701
 8492SOL    HW237113   0.357   0.120   8.445 -0.8895  1.3245  0.1964
 8493SOL     OW37114   1.423   0.415   6.695 -0.2116  0.9654 -0.0209
 8493SOL    HW137115   1.449   0.497   6.655  0.4676  0.4817 -0.5723
 8493SOL    HW237116   1.492   0.353   6.672  0.2772  0.6991  2.2538
 8494SOL     OW37117   0.737   3.716   1.980 -0.3447 -0.4289 -0.3996
 8494SOL    HW137118   0.740   3.658   1.905 -0.6652 -1.7611  0.6241
 8494SOL    HW237119   0.807   3.684   2.037  2.1389  4.2184 -0.8389
 8495SOL     OW37120   0.099   0.939   8.159  0.1118  0.3921 -0.9492
 8495SOL    HW137121   0.099   1.005   8.090  0.1172  1.8670  0.4509
 8495SOL    HW237122   0.008   0.955   8.181  0.3149 -1.0651  0.9730
 8496SOL     OW37123   4.131   1.198   7.318  0.3767  0.4578 -0.7483
 8496SOL    HW137124   4.092   1.145   7.248  2.1996 -1.1061 -0.5793
 8496SOL    HW237125   4.172   1.135   7.377 -0.2177  1.7146  1.0099
 8497SOL     OW37126   0.377   4.459   2.797  0.1350 -0.0234  0.3617
 8497SOL    HW137127   0.447   4.427   2.739  3.1879  1.8813  3.0084
 8497SOL    HW237128   0.426   4.465   2.879  0.5977 -0.8502  0.1465
 8498SOL     OW37129   0.260   1.024   4.412 -0.1670  0.5026  0.5311
 8498SOL    HW137130   0.320   0.971   4.360 -1.0742  0.4157 -0.4298
 8498SOL    HW237131   0.247   1.099   4.353  1.2756 -1.4160 -2.2287
 8499SOL     OW37132   0.425   0.110  17.620  0.8222  0.0606  0.4418
 8499SOL    HW137133   0.431   0.103  17.716  0.9609  0.8656  0.4955
 8499SOL    HW237134   0.368   0.040  17.590  1.0379 -0.2640  0.7849
 8500SOL     OW37135   3.738   0.797   1.642 -0.3841 -0.2423  0.0084
 8500SOL    HW137136   3.734   0.854   1.565 -1.2649  0.6426  0.7044
 8500SOL    HW237137   3.681   0.843   1.703 -1.9840 -0.3011 -1.4492
 8501SOL     OW37138   3.199   4.672   4.159 -0.0995  0.4490 -0.2659
 8501SOL    HW137139   3.124   4.731   4.171 -0.4409  0.1529 -0.9206
 8501SOL    HW237140   3.242   4.688   4.243  2.7213  0.8591 -1.7837
 8502SOL     OW37141   3.150   2.010  12.609 -0.3305  0.2280  0.3711
 8502SOL    HW137142   3.214   2.073  12.575 -0.2081  0.2451  0.6324
 8502SOL    HW237143   3.198   1.928  12.617 -0.8778 -0.1206  0.0257
 8503SOL     OW37144   1.201   0.157   6.699 -0.2009  0.1677 -0.1696
 8503SOL    HW137145   1.223   0.178   6.608  0.2391 -1.2542 -0.3982
 8503SOL    HW237146   1.228   0.236   6.744 -2.7429  0.9110  0.0506
 8504SOL     OW37147   3.697   4.702  14.041 -0.1360 -0.0781 -1.0794
 8504SOL    HW137148   3.621   4.728  13.989 -1.7510 -1.2787  0.7010
 8504SOL    HW237149   3.653   4.646  14.104 -1.1515  0.5585 -1.2207
 8505SOL     OW37150   3.815   0.268   7.483  0.6928 -0.0832 -0.1064
 8505SOL    HW137151   3.909   0.283   7.474  0.4433  1.0851 -0.6842
 8505SOL    HW237152   3.817   0.184   7.531 -1.2043  0.0818  0.2459
 8506SOL     OW37153   0.032   2.479   2.922  0.1796 -0.1059 -0.7969
 8506SOL    HW137154   0.124   2.450   2.922 -0.5167 -2.3097 -0.2903
 8506SOL    HW237155   0.031   2.531   3.003 -0.9623  0.8218 -1.4167
 8507SOL     OW37156   1.352   4.245   7.629 -0.5896 -0.3280 -0.2955
 8507SOL    HW137157   1.260   4.272   7.622 -0.7768 -0.9178 -0.1278
 8507SOL    HW237158   1.357   4.239   7.724 -0.1117  2.4917 -0.1520
 8508SOL     OW37159   1.462   3.305   7.436  0.0561 -0.2776 -0.5643
 8508SOL    HW137160   1.407   3.290   7.513  2.4090  0.8775  1.3231
 8508SOL    HW237161   1.403   3.263   7.373 -0.3445 -4.1117  2.2927
 8509SOL     OW37162   1.822   0.708   5.911 -0.4448 -0.2765 -0.5465
 8509SOL    HW137163   1.916   0.717   5.896 -0.1708 -0.3357  1.0804
 8509SOL    HW237164   1.789   0.797   5.896 -1.8649 -0.9421 -1.4009
 8510SOL     OW37165   1.011   0.849   8.247 -0.1251 -0.7325  0.2797
 8510SOL    HW137166   1.045   0.904   8.317 -2.1367  0.4431  0.3427
 8510SOL    HW237167   1.088   0.827   8.195 -0.8431 -1.1087 -0.6237
 8511SOL     OW37168   1.903   1.348   4.496 -0.2189  0.4934  0.0885
 8511SOL    HW137169   1.889   1.319   4.406  0.2532  2.6753 -0.7060
 8511SOL    HW237170   1.956   1.274   4.527 -0.3235  1.8541  3.5453
 8512SOL     OW37171   2.194   4.397   7.997 -0.5981 -0.2337 -0.5847
 8512SOL    HW137172   2.149   4.445   8.067 -0.0262 -0.5824  0.0179
 8512SOL    HW237173   2.116   4.350   7.967 -1.6277  0.2733  1.2987
 8513SOL     OW37174   4.602   2.371   0.852  0.1670 -0.4872 -0.2354
 8513SOL    HW137175   4.684   2.328   0.878  0.0554 -0.4028  0.2629
 8513SOL    HW237176   4.542   2.299   0.872  1.1874 -0.7337  2.0351
 8514SOL     OW37177   2.552   0.036   2.742 -0.4434  0.4790 -0.0329
 8514SOL    HW137178   2.472   0.010   2.788 -0.2176  0.2119  0.2116
 8514SOL    HW237179   2.551   4.720   2.662 -2.0887 -1.6862  1.3827
 8515SOL     OW37180   0.288   1.412   5.484  0.2125  0.4190 -0.0435
 8515SOL    HW137181   0.252   1.431   5.397 -0.8699 -2.0873 -0.1314
 8515SOL    HW237182   0.223   1.374   5.542 -0.2591 -2.1036 -2.2141
 8516SOL     OW37183   4.171   2.706  16.578 -0.0946 -0.6121 -0.3139
 8516SOL    HW137184   4.099   2.770  16.579 -1.1637 -1.8328  1.3538
 8516SOL    HW237185   4.236   2.750  16.524  0.0232 -0.0742  0.2695
 8517SOL     OW37186   2.111   0.224   5.257  0.2100  0.2366 -0.1874
 8517SOL    HW137187   2.102   0.280   5.334 -0.5049 -0.1464  0.0055
 8517SOL    HW237188   2.074   0.286   5.195 -1.0562  0.3483  0.6904
 8518SOL     OW37189   4.220   2.970   1.470  0.3294 -0.4541  0.0046
 8518SOL    HW137190   4.285   2.981   1.539  0.9997  1.6420 -0.9682
 8518SOL    HW237191   4.142   2.951   1.523  1.9684 -0.7849  2.2490
 8519SOL     OW37192   4.714   3.546  14.560 -0.0887  0.3345 -0.1569
 8519SOL    HW137193   0.046   3.530  14.494  1.2217 -2.0304  1.7715
 8519SOL    HW237194   4.733   3.474  14.620  2.5299  1.5091  0.4312
 8520SOL     OW37195   3.374   4.002   0.857 -0.0409 -0.1107  0.2194
 8520SOL    HW137196   3.290   3.966   0.827  0.4063 -1.6387  0.7840
 8520SOL    HW237197   3.343   4.054   0.931  1.2346  2.6456 -1.1917
 8521SOL     OW37198   1.392   2.549  10.015  0.2591 -0.3030  0.5068
 8521SOL    HW137199   1.411   2.612  10.085  0.5614  0.1576  0.0010
 8521SOL    HW237200   1.299   2.531  10.031  0.3966 -1.4087  0.0578
 8522SOL     OW37201   2.933   3.214  10.471  0.0367 -0.1137 -0.1715
 8522SOL    HW137202   2.869   3.275  10.434  0.6579  0.6214 -0.0198
 8522SOL    HW237203   3.008   3.271  10.484  0.9215 -1.5172  0.9502
 8523SOL     OW37204   1.580   3.568   5.104 -0.1409  0.1395 -0.4302
 8523SOL    HW137205   1.618   3.602   5.023  1.1079 -1.6337 -0.5926
 8523SOL    HW237206   1.593   3.474   5.088  0.8203  0.3432 -0.8428
 8524SOL     OW37207   3.136   0.183   2.772  0.1173 -0.0402  0.0693
 8524SOL    HW137208   3.140   0.168   2.678  2.8708  1.8598 -0.1256
 8524SOL    HW237209   3.192   0.111   2.803 -0.4332 -0.4341  0.1524
 8525SOL     OW37210   0.554   4.399  11.432  0.0796  0.1060 -0.1068
 8525SOL    HW137211   0.546   4.325  11.492 -2.0833 -1.6060 -2.5205
 8525SOL    HW237212   0.507   4.462  11.487 -1.8886 -0.6186 -0.9565
 8526SOL     OW37213   0.606   0.865   6.611 -0.2528  0.0528  0.1788
 8526SOL    HW137214   0.584   0.893   6.700 -2.3760 -1.6856  0.1829
 8526SOL    HW237215   0.531   0.808   6.595 -0.2738  0.3107 -0.6675
 8527SOL     OW37216   0.192   2.957   0.813 -0.0506 -0.2337 -0.9490
 8527SOL    HW137217   0.277   2.915   0.797  1.3958  3.0246 -1.6896
 8527SOL    HW237218   0.225   3.032   0.861 -2.0065  0.0506 -0.0497
 8528SOL     OW37219   0.148   1.958   0.988 -0.1427 -0.2952 -0.7851
 8528SOL    HW137220   0.228   1.968   0.936  1.2669  2.6221  1.8904
 8528SOL    HW237221   0.171   1.876   1.032  0.2868  0.0846 -0.2894
 8529SOL     OW37222   2.912   1.460   4.292 -0.0283 -0.2742  0.6738
 8529SOL    HW137223   2.909   1.465   4.387  1.2555  2.1079  0.5782
 8529SOL    HW237224   2.990   1.508   4.264 -0.7217  2.0805  2.8454
 8530SOL     OW37225   1.146   1.001   8.844 -0.6468 -0.2254  0.0657
 8530SOL    HW137226   1.228   0.983   8.889 -0.7995  1.2310  0.9403
 8530SOL    HW237227   1.088   0.947   8.897  0.0797  0.3853  1.4651
 8531SOL     OW37228   1.552   3.228   8.861 -0.6774 -0.3762 -0.2982
 8531SOL    HW137229   1.625   3.214   8.801 -1.4358 -2.9957 -0.6297
 8531SOL    HW237230   1.550   3.323   8.874 -0.5710 -0.3632 -0.3807
 8532SOL     OW37231   0.079   1.308   6.491 -0.1034  0.0172  0.1432
 8532SOL    HW137232   0.044   1.220   6.506  1.7409 -0.2656  2.6274
 8532SOL    HW237233   0.000   1.356   6.517 -2.6478 -3.4820 -1.0202
 8533SOL     OW37234   1.028   2.866   4.910  0.1635  0.1674  0.0455
 8533SOL    HW137235   1.023   2.885   4.816  2.3976  1.1749  0.1108
 8533SOL    HW237236   0.964   2.922   4.953  0.5076 -0.7175  1.6842
 8534SOL     OW37237   2.335   2.662  14.211 -0.1497 -0.5471  0.0057
 8534SOL    HW137238   2.398   2.629  14.275  3.0514  4.4633 -0.4981
 8534SOL    HW237239   2.380   2.647  14.127  0.4712  0.0391  0.2328
 8535SOL     OW37240   1.595   3.748   2.646 -0.3958  0.2623 -0.1167
 8535SOL    HW137241   1.643   3.827   2.619  0.2166 -0.2460 -0.5222
 8535SOL    HW237242   1.513   3.751   2.599  0.2336 -0.8252 -1.2802
 8536SOL     OW37243   1.199   4.646   5.523 -0.0696  0.2580 -0.0361
 8536SOL    HW137244   1.192   4.710   5.594 -0.4663 -0.0247  0.1758
 8536SOL    HW237245   1.115   4.607   5.547 -0.4141  1.0449  0.0481
 8537SOL     OW37246   1.750   1.572  11.310  0.0859 -0.0870 -0.3307
 8537SOL    HW137247   1.753   1.567  11.214 -1.2401 -0.4286 -0.3440
 8537SOL    HW237248   1.664   1.611  11.323 -0.5218 -2.2690  2.0216
 8538SOL     OW37249   4.064   1.563   6.397 -0.1768  0.3925  0.2362
 8538SOL    HW137250   4.088   1.567   6.305 -1.1798 -1.0823 -0.0979
 8538SOL    HW237251   4.064   1.467   6.401 -4.7121  0.3610 -0.7938
 8539SOL     OW37252   0.827   0.576  17.428  0.0158  0.2156  1.1013
 8539SOL    HW137253   0.778   0.533  17.358  0.4365  2.0387 -0.3180
 8539SOL    HW237254   0.859   0.650  17.375 -1.3650 -0.3724 -0.5529
 8540SOL     OW37255   1.054   4.640   5.059  0.4414  0.8134 -0.0088
 8540SOL    HW137256   1.107   4.698   5.114 -0.0110  1.1395  0.0853
 8540SOL    HW237257   1.081   4.553   5.089 -2.9350 -0.5831 -0.9038
 8541SOL     OW37258   3.313   0.934  11.295  0.0051  0.7004 -0.0597
 8541SOL    HW137259   3.387   0.874  11.312 -0.5934 -0.0737 -0.1785
 8541SOL    HW237260   3.356   1.011  11.259 -0.7687  0.7182 -0.9227
 8542SOL     OW37261   2.464   0.930   3.952 -0.1116  0.0717 -0.1810
 8542SOL    HW137262   2.559   0.935   3.966  0.0106  1.0988 -1.3147
 8542SOL    HW237263   2.431   1.001   4.006  0.5754 -0.5141  1.0030
 8543SOL     OW37264   0.073   2.410  11.574 -0.0338 -0.1710 -0.1872
 8543SOL    HW137265   0.164   2.397  11.547  0.0285  2.8736 -1.3422
 8543SOL    HW237266   0.078   2.358  11.655  0.7593 -0.3361 -0.3433
 8544SOL     OW37267   4.637   0.139   7.196  0.2307 -0.3056 -0.3029
 8544SOL    HW137268   4.592   0.068   7.242 -1.5717  0.3667 -0.9995
 8544SOL    HW237269   4.599   0.127   7.109 -0.2696 -0.3226 -0.0821
 8545SOL     OW37270   4.409   1.745   9.123 -0.5242  0.1398  0.1264
 8545SOL    HW137271   4.325   1.768   9.082  0.0573 -0.3615 -1.3595
 8545SOL    HW237272   4.462   1.732   9.044  0.5216  1.8707  0.5463
 8546SOL     OW37273   3.830   4.082   4.347 -0.5383 -0.0805  0.0699
 8546SOL    HW137274   3.762   4.016   4.360 -0.9507  0.2647 -0.3388
 8546SOL    HW237275   3.776   4.159   4.330  0.3692  0.9238  1.7170
 8547SOL     OW37276   4.612   0.777   0.325 -0.0838  0.4988 -0.4257
 8547SOL    HW137277   4.689   0.772   0.270 -1.1543  3.7353 -2.2454
 8547SOL    HW237278   4.546   0.834   0.284  0.7192  1.2105 -0.7336
 8548SOL     OW37279   0.805   2.466   5.427 -0.2794 -0.3386  0.2967
 8548SOL    HW137280   0.765   2.548   5.456 -0.4372  0.3102 -1.7712
 8548SOL    HW237281   0.782   2.467   5.335  1.6816  0.3943 -0.1950
 8549SOL     OW37282   0.952   2.891   2.234  0.0294  0.1230  0.3820
 8549SOL    HW137283   0.875   2.917   2.185  0.2173  2.3042  1.2855
 8549SOL    HW237284   0.923   2.811   2.277  0.4505  0.2556  0.9163
 8550SOL     OW37285   0.943   3.926   6.320 -0.0529  0.0058 -0.2654
 8550SOL    HW137286   0.976   3.961   6.402  2.0098  0.5859 -1.3433
 8550SOL    HW237287   1.018   3.953   6.267  0.8175 -1.3945  0.2665
 8551SOL     OW37288   0.161   3.110  15.089  0.2399  0.0551  0.1207
 8551SOL    HW137289   0.240   3.073  15.128  0.7503  2.7629  1.7044
 8551SOL    HW237290   0.146   3.054  15.013 -1.0090  0.3042  0.1963
 8552SOL     OW37291   3.791   4.176  17.472 -0.1273  0.6600  0.2376
 8552SOL    HW137292   3.827   4.231  17.542 -0.0677  2.3360 -1.0860
 8552SOL    HW237293   3.872   4.129  17.451 -0.4060  0.7700 -1.0864
 8553SOL     OW37294   0.127   4.199   3.518 -0.7268  0.8261  0.3104
 8553SOL    HW137295   0.087   4.174   3.434  0.9301 -1.0395  0.0813
 8553SOL    HW237296   0.050   4.176   3.571  0.7154  1.0318  2.4803
 8554SOL     OW37297   2.006   2.839  13.248 -0.9433 -0.5246 -0.4159
 8554SOL    HW137298   2.084   2.895  13.251 -1.5243  0.1982  1.2534
 8554SOL    HW237299   1.950   2.885  13.311  0.9073 -4.3643  4.0244
 8555SOL     OW37300   3.875   0.071  10.807 -0.0207  0.1646  0.3194
 8555SOL    HW137301   3.955   0.021  10.794  0.7294  1.2817  0.6010
 8555SOL    HW237302   3.875   0.073  10.903  0.9926  1.0437  0.3065
 8556SOL     OW37303   0.738   0.266  17.637 -0.2429 -0.9577  0.6334
 8556SOL    HW137304   0.823   0.280  17.679 -0.9297  0.7571  1.4672
 8556SOL    HW237305   0.753   0.278  17.544  0.6471 -0.5098  0.8304
 8557SOL     OW37306   4.712   3.056  15.700  0.7697 -0.3090  0.2000
 8557SOL    HW137307   4.620   3.053  15.673  1.0767  0.1877 -0.9036
 8557SOL    HW237308   0.003   2.968  15.672  2.6114 -0.0552  1.1786
 8558SOL     OW37309   1.686   1.834  17.120  0.2056  0.4145  0.2004
 8558SOL    HW137310   1.630   1.904  17.086 -2.6587 -2.7150 -1.5188
 8558SOL    HW237311   1.617   1.779  17.157  0.8387 -0.4498  0.0853
 8559SOL     OW37312   2.463   2.119   8.759 -0.1715 -0.4410  0.2799
 8559SOL    HW137313   2.520   2.101   8.684  1.0978  0.3915  1.0628
 8559SOL    HW237314   2.434   2.035   8.793 -1.1241  0.4279  1.6245
 8560SOL     OW37315   3.009   0.386   4.922 -0.0021  0.1483 -0.7473
 8560SOL    HW137316   2.945   0.457   4.912  1.7523  1.6364 -1.2548
 8560SOL    HW237317   2.956   0.334   4.983 -0.6115 -0.6972 -1.9874
 8561SOL     OW37318   3.356   0.064   2.016  0.2052  0.4665 -0.2862
 8561SOL    HW137319   3.336   0.103   2.100  1.6836 -0.0889  0.3360
 8561SOL    HW237320   3.302   0.123   1.964  0.1925  0.8693  0.1869
 8562SOL     OW37321   1.018   4.146   2.952  0.4276 -0.2756  0.2593
 8562SOL    HW137322   0.984   4.075   3.006  0.6479 -0.1794  0.5200
 8562SOL    HW237323   0.938   4.198   2.946  0.5262 -0.4062 -2.0854
 8563SOL     OW37324   2.189   3.559   5.137  0.4296  0.2999  0.2740
 8563SOL    HW137325   2.149   3.627   5.082 -2.8095 -0.7074  1.3941
 8563SOL    HW237326   2.116   3.504   5.164  1.3995 -1.7822 -1.3101
 8564SOL     OW37327   1.818   4.330   5.037 -0.3182 -0.2771  0.2357
 8564SOL    HW137328   1.762   4.387   5.088  0.9862  1.7400 -0.5844
 8564SOL    HW237329   1.888   4.388   5.005  0.6851 -2.4336 -1.5087
 8565SOL     OW37330   0.888   1.069  10.042 -0.5360 -0.1432  0.1092
 8565SOL    HW137331   0.826   1.097  10.110 -0.5226 -0.1208  0.1123
 8565SOL    HW237332   0.932   1.000  10.092 -0.2685  0.5115  0.7851
 8566SOL     OW37333   0.571   2.105   5.895  0.0668  0.1590  0.2769
 8566SOL    HW137334   0.597   2.070   5.980 -0.4542 -0.6224  0.1185
 8566SOL    HW237335   0.557   2.196   5.920 -0.2172 -0.5199  2.5628
 8567SOL     OW37336   3.589   2.146   3.408 -0.1550  0.3209 -0.4237
 8567SOL    HW137337   3.667   2.201   3.420 -0.7215  0.5869  2.1398
 8567SOL    HW237338   3.525   2.217   3.396  1.9255  2.6466  2.1794
 8568SOL     OW37339   3.704   1.923   3.378 -0.2564 -0.0727  0.1057
 8568SOL    HW137340   3.682   1.895   3.289  2.9616 -1.0949 -0.3812
 8568SOL    HW237341   3.649   2.001   3.379  3.7088  2.7524 -2.3191
 8569SOL     OW37342   2.994   1.868   2.427 -0.2651  0.0117  0.0828
 8569SOL    HW137343   3.087   1.852   2.411 -0.8093 -1.5276 -1.5612
 8569SOL    HW237344   2.961   1.916   2.351  0.0619  0.4235  0.1971
 8570SOL     OW37345   2.968   2.139   4.479 -0.1686 -0.1662  0.4754
 8570SOL    HW137346   3.038   2.107   4.422  0.2968 -0.5337  1.2536
 8570SOL    HW237347   2.940   2.060   4.524 -0.0949 -1.0454 -1.0410
 8571SOL     OW37348   2.941   3.841  16.558 -0.6712 -0.7107  0.2812
 8571SOL    HW137349   2.968   3.826  16.468 -0.3296 -1.3069  0.4776
 8571SOL    HW237350   2.881   3.767  16.574 -1.3364 -0.3308 -0.4673
 8572SOL     OW37351   0.344   2.520  17.601 -0.5044 -0.4110  0.6064
 8572SOL    HW137352   0.303   2.558  17.679 -1.6231 -0.5887  0.0941
 8572SOL    HW237353   0.357   2.429  17.629  1.1375 -0.4825 -0.3657
 8573SOL     OW37354   1.327   3.005  12.504  0.0649 -0.0932 -0.2389
 8573SOL    HW137355   1.344   2.912  12.520 -1.8611 -0.2138  1.0801
 8573SOL    HW237356   1.232   3.003  12.502 -0.0232  2.7284  0.6213
 8574SOL     OW37357   3.160   2.881   7.653 -0.5379 -0.1184  0.1210
 8574SOL    HW137358   3.223   2.809   7.643  0.2537  0.1262  3.2833
 8574SOL    HW237359   3.081   2.832   7.675 -0.7223  0.3658  0.5267
 8575SOL     OW37360   3.546   0.923   7.571  0.5636 -0.0340  0.5574
 8575SOL    HW137361   3.608   0.962   7.509  1.0483 -0.7363  0.6030
 8575SOL    HW237362   3.581   0.834   7.571 -1.1751 -0.7082 -1.3002
 8576SOL     OW37363   1.796   2.935   8.293  0.3969 -0.2443 -0.0222
 8576SOL    HW137364   1.878   2.982   8.281  1.2111 -1.1104  2.2543
 8576SOL    HW237365   1.747   3.000   8.344 -0.0833  0.4334 -1.3247
 8577SOL     OW37366   2.468   4.190  15.531 -0.1111 -0.6450 -0.4611
 8577SOL    HW137367   2.462   4.211  15.437  0.3962  1.9094  0.0669
 8577SOL    HW237368   2.562   4.174  15.539 -0.4839 -1.9541  1.1147
 8578SOL     OW37369   0.337   2.692  17.376  0.0391  0.0268 -0.0608
 8578SOL    HW137370   0.250   2.686  17.336  0.6246  0.8369 -1.4384
 8578SOL    HW237371   0.319   2.645  17.457 -0.7560 -3.9381 -2.5896
 8579SOL     OW37372   4.492   4.195   4.784 -0.3813 -0.4279  0.9196
 8579SOL    HW137373   4.475   4.123   4.844 -2.5471  1.0518  2.0844
 8579SOL    HW237374   4.541   4.153   4.713  0.0769  1.1584  0.2826
 8580SOL     OW37375   3.897   0.967   9.655 -0.4747  0.4284 -0.0347
 8580SOL    HW137376   3.889   0.881   9.695 -0.8494  1.4985  2.1928
 8580SOL    HW237377   3.990   0.971   9.633 -0.7961  1.0948 -1.3302
 8581SOL     OW37378   3.714   0.599   1.870  0.0845 -0.1771 -0.0736
 8581SOL    HW137379   3.712   0.516   1.821  0.7706 -0.4210  0.3039
 8581SOL    HW237380   3.756   0.659   1.808  0.7489 -0.9484 -0.3749
 8582SOL     OW37381   4.042   3.338   3.765  0.5145 -0.4364  0.0936
 8582SOL    HW137382   3.964   3.382   3.731  0.1743 -1.4155 -0.3942
 8582SOL    HW237383   4.024   3.322   3.858 -4.2475  2.7087 -0.2803
 8583SOL     OW37384   0.081   1.405   6.904  0.1467 -0.2502 -0.0304
 8583SOL    HW137385   0.126   1.412   6.988  1.1655  1.9672 -0.7631
 8583SOL    HW237386   0.134   1.460   6.847  0.0479 -1.3787 -1.2133
 8584SOL     OW37387   4.399   0.434  11.621  0.1961  0.2662 -0.0086
 8584SOL    HW137388   4.307   0.456  11.636  0.5180  1.9607 -0.4858
 8584SOL    HW237389   4.434   0.456  11.707 -0.2482  2.2027 -0.3101
 8585SOL     OW37390   2.847   3.392  12.327  0.1555 -0.1903 -0.2857
 8585SOL    HW137391   2.933   3.351  12.334  0.7304  1.2360  0.8439
 8585SOL    HW237392   2.794   3.317  12.355 -0.3054 -0.1980 -1.1386
 8586SOL     OW37393   0.982   1.128   1.687 -0.0925 -0.2029 -0.9610
 8586SOL    HW137394   1.028   1.044   1.681  3.0704  1.6501 -2.2422
 8586SOL    HW237395   0.966   1.148   1.595  0.4412  0.1336 -0.9842
 8587SOL     OW37396   2.018   4.618  13.038 -0.2207  0.1601  0.2291
 8587SOL    HW137397   2.111   4.623  13.016 -0.3839  1.1362 -0.2017
 8587SOL    HW237398   1.970   4.605  12.956 -1.2462 -0.0550  0.8646
 8588SOL     OW37399   1.712   2.299  16.196 -0.1792  0.3946 -0.5070
 8588SOL    HW137400   1.649   2.241  16.240 -0.8817  2.0512  0.6777
 8588SOL    HW237401   1.708   2.368  16.261  0.9617 -0.7394  0.7761
 8589SOL     OW37402   1.778   3.095   3.188 -0.3134 -0.5018 -0.0939
 8589SOL    HW137403   1.836   3.099   3.112  0.7759  0.9722  0.8213
 8589SOL    HW237404   1.817   3.164   3.241  0.7647  0.1115 -1.6612
 8590SOL     OW37405   3.553   4.602   0.439  0.2859  0.2203  0.4460
 8590SOL    HW137406   3.636   4.647   0.423 -1.4761  1.6872 -4.7912
 8590SOL    HW237407   3.533   4.584   0.347 -1.2605  0.9742  0.6314
 8591SOL     OW37408   1.557   4.476   9.668 -0.2654  0.2183 -0.4418
 8591SOL    HW137409   1.604   4.558   9.661  1.2070 -0.7439 -1.8958
 8591SOL    HW237410   1.621   4.405   9.678 -1.3198 -0.6438  0.2948
 8592SOL     OW37411   3.933   0.898   7.288 -0.2782 -0.3327  0.3904
 8592SOL    HW137412   4.023   0.869   7.276 -0.0353 -0.1296  1.7473
 8592SOL    HW237413   3.889   0.815   7.268  0.1156 -0.1548 -1.2233
 8593SOL     OW37414   4.492   4.085   6.836 -0.3849 -0.0107  0.1941
 8593SOL    HW137415   4.434   4.137   6.781 -1.5754 -0.1793  1.3090
 8593SOL    HW237416   4.433   4.081   6.910 -0.9488  0.4426 -0.2376
 8594SOL     OW37417   0.645   3.892   4.261  0.2286 -0.1524 -0.1636
 8594SOL    HW137418   0.666   3.806   4.226  0.1222 -1.3336  2.7035
 8594SOL    HW237419   0.736   3.922   4.261  0.5702 -1.2394  1.1417
 8595SOL     OW37420   4.671   0.900  12.166  0.4080  0.0243  0.6393
 8595SOL    HW137421   0.027   0.910  12.190  1.2287 -1.2150 -2.0094
 8595SOL    HW237422   4.687   0.840  12.094 -0.0907  0.6364  0.0209
 8596SOL     OW37423   0.579   3.733   6.789 -0.1966  0.1610  0.3119
 8596SOL    HW137424   0.618   3.653   6.755 -0.0787  0.9163 -1.3185
 8596SOL    HW237425   0.633   3.798   6.743  0.9171 -0.6092  0.5330
 8597SOL     OW37426   0.433   4.730  10.481  0.1804  0.1858  0.0422
 8597SOL    HW137427   0.361   4.672  10.508  1.1577 -0.8819  0.3481
 8597SOL    HW237428   0.482   4.678  10.417 -0.0621  0.6692 -0.5372
 8598SOL     OW37429   3.653   2.533   5.838 -0.3321  0.2858  0.0727
 8598SOL    HW137430   3.598   2.608   5.863 -0.4247  0.0204  0.6504
 8598SOL    HW237431   3.633   2.471   5.908 -0.1321  0.6364  0.4419
 8599SOL     OW37432   2.450   1.900  12.719  0.6523 -0.5115 -0.9137
 8599SOL    HW137433   2.403   1.935  12.795 -0.5423 -0.4279 -1.6842
 8599SOL    HW237434   2.511   1.845  12.766 -1.8928 -0.1882  2.7478
 8600SOL     OW37435   2.233   0.419   2.381 -0.3062 -0.0089  0.3190
 8600SOL    HW137436   2.312   0.459   2.343 -0.1922 -0.3449  0.2062
 8600SOL    HW237437   2.179   0.410   2.303  0.9978 -0.1625 -0.5630
 8601SOL     OW37438   1.288   2.395   3.116 -0.4368 -0.2090 -0.1301
 8601SOL    HW137439   1.287   2.478   3.164  1.0670 -0.1048 -0.2821
 8601SOL    HW237440   1.348   2.423   3.046 -1.3909  1.2174 -0.3587
 8602SOL     OW37441   3.177   0.588   2.579  0.6377 -0.5077 -0.2681
 8602SOL    HW137442   3.098   0.552   2.620  0.4591 -0.1753 -0.3246
 8602SOL    HW237443   3.135   0.632   2.505 -0.4226 -0.5088  0.3381
 8603SOL     OW37444   1.137   1.931   8.443  0.2336 -0.2838 -0.4860
 8603SOL    HW137445   1.081   2.007   8.426 -0.9577 -0.7099  1.5236
 8603SOL    HW237446   1.202   1.966   8.504  1.1446 -1.9498 -0.4917
 8604SOL     OW37447   2.057   2.105   7.594 -0.2696 -0.3767  0.0780
 8604SOL    HW137448   2.025   2.119   7.683 -0.3030  0.7072 -0.1075
 8604SOL    HW237449   1.989   2.153   7.547  0.6554  0.5119 -0.3550
 8605SOL     OW37450   4.110   0.235   8.854 -0.5893 -0.0587 -0.1299
 8605SOL    HW137451   4.096   0.326   8.830  0.0676 -0.1478 -0.8454
 8605SOL    HW237452   4.167   0.253   8.929 -1.0056  1.3047 -0.1441
 8606SOL     OW37453   3.745   2.713   8.388 -0.2747  0.2872 -0.0519
 8606SOL    HW137454   3.825   2.697   8.338 -1.3825 -1.0994 -1.3820
 8606SOL    HW237455   3.716   2.804   8.373 -4.3518 -0.4882  3.1124
 8607SOL     OW37456   2.197   0.852   2.330 -0.3886  0.1388 -0.0722
 8607SOL    HW137457   2.289   0.877   2.336  0.1704 -2.5339  2.2583
 8607SOL    HW237458   2.184   0.873   2.237 -1.0001  1.0778  0.2170
 8608SOL     OW37459   4.697   1.611  15.591  0.4716 -0.4500  0.8351
 8608SOL    HW137460   4.614   1.589  15.549 -0.0520 -0.2716  1.7782
 8608SOL    HW237461   0.001   1.654  15.515 -0.5864 -1.2262 -0.1539
 8609SOL     OW37462   3.768   1.992   7.157  0.1099 -0.3026  0.1312
 8609SOL    HW137463   3.848   2.012   7.206  0.0721  0.8747 -0.2920
 8609SOL    HW237464   3.807   1.970   7.073  3.4172 -0.1683  1.6133
 8610SOL     OW37465   3.822   3.658  11.211 -0.1119 -0.1885 -0.1179
 8610SOL    HW137466   3.802   3.578  11.162  2.3848 -0.1898 -1.1535
 8610SOL    HW237467   3.735   3.672  11.248 -0.1599  2.3053 -1.2248
 8611SOL     OW37468   1.959   1.229   5.943  0.0254  0.2079  0.2886
 8611SOL    HW137469   1.960   1.138   5.973 -0.4970 -0.0334 -0.4164
 8611SOL    HW237470   1.943   1.219   5.849  0.9518  1.2884  0.0229
 8612SOL     OW37471   2.821   1.267  17.075  0.5404  0.0853  0.1765
 8612SOL    HW137472   2.834   1.346  17.023  0.7401  0.7572  1.2350
 8612SOL    HW237473   2.826   1.205  17.002  1.3610 -0.5291  0.7441
 8613SOL     OW37474   0.131   4.065   2.246  0.5483  0.4433  0.2602
 8613SOL    HW137475   0.133   4.048   2.152  1.1683 -0.7372  0.4779
 8613SOL    HW237476   0.223   4.091   2.250  0.2331  1.6701 -0.7802
 8614SOL     OW37477   1.923   0.269   8.892  0.3497  0.3703 -0.1586
 8614SOL    HW137478   1.897   0.235   8.978 -2.4704  1.1474 -0.6999
 8614SOL    HW237479   1.975   0.192   8.872 -1.3280 -0.8851  0.3343
 8615SOL     OW37480   1.222   2.220   7.415 -0.2271  0.2195  0.4467
 8615SOL    HW137481   1.196   2.182   7.331  0.0036  0.8215  0.1055
 8615SOL    HW237482   1.178   2.160   7.476 -0.2549  0.6035  0.8034
 8616SOL     OW37483   1.613   2.853   7.176 -0.8954  0.1193 -0.5462
 8616SOL    HW137484   1.563   2.934   7.170 -1.6469 -0.2175  1.1809
 8616SOL    HW237485   1.563   2.809   7.245 -0.4298  1.1110  0.4264
 8617SOL     OW37486   3.053   0.495   5.445 -0.5307 -0.1964 -0.1361
 8617SOL    HW137487   3.009   0.412   5.428 -0.3206  0.2179 -2.6925
 8617SOL    HW237488   3.124   0.507   5.381  0.2038 -1.2182  0.4811
 8618SOL     OW37489   3.231   4.130   7.845  0.5522  0.6097 -0.5697
 8618SOL    HW137490   3.303   4.140   7.784  2.2453 -2.4370  0.9161
 8618SOL    HW237491   3.189   4.215   7.836 -1.6252 -0.4659 -0.7104
 8619SOL     OW37492   3.070   0.701   2.320  0.2312 -0.7953  0.2217
 8619SOL    HW137493   3.020   0.783   2.322 -2.0519 -2.1718  0.1831
 8619SOL    HW237494   3.027   0.652   2.250 -0.6000 -2.0249  1.6016
 8620SOL     OW37495   0.860   0.595   2.965  0.0196 -0.4766  0.1011
 8620SOL    HW137496   0.782   0.634   2.925  0.0545  0.1761  0.6884
 8620SOL    HW237497   0.827   0.591   3.055 -0.2607  4.2824  0.1875
 8621SOL     OW37498   4.029   1.963   0.891  0.3229 -0.3385  0.1732
 8621SOL    HW137499   3.955   2.011   0.929  0.4712 -1.9603  2.5258
 8621SOL    HW237500   4.075   1.938   0.971 -0.2847  0.7187  0.8545
 8622SOL     OW37501   4.221   3.823   6.480  0.4906  0.1120  0.5546
 8622SOL    HW137502   4.163   3.756   6.446  0.6184  1.3416 -2.1211
 8622SOL    HW237503   4.232   3.795   6.571  1.3428 -0.2674  0.3325
 8623SOL     OW37504   4.549   4.135   1.629  0.5476 -0.4841  0.2931
 8623SOL    HW137505   4.463   4.149   1.589  0.3291  1.7729  1.5298
 8623SOL    HW237506   4.589   4.219   1.609 -0.4758 -0.0570  0.0172
 8624SOL     OW37507   2.904   3.953   2.054 -0.1745 -0.0929  0.3477
 8624SOL    HW137508   2.901   4.041   2.093 -1.0474 -0.3262  0.7967
 8624SOL    HW237509   2.827   3.950   1.998 -0.1963 -1.4172  0.4572
 8625SOL     OW37510   4.367   1.732  15.905  0.6921  0.0992  0.1222
 8625SOL    HW137511   4.384   1.706  15.995  1.5311 -0.8905 -0.3303
 8625SOL    HW237512   4.273   1.746  15.915  0.7930  0.6710  0.2964
 8626SOL     OW37513   0.466   2.442   7.876  0.1022  0.9053 -0.3569
 8626SOL    HW137514   0.374   2.417   7.869  0.4659 -0.2148 -1.1533
 8626SOL    HW237515   0.461   2.497   7.954  0.0389 -0.6983  0.7505
 8627SOL     OW37516   2.305   4.725   9.442 -0.2254 -0.0722 -0.2467
 8627SOL    HW137517   2.319   4.656   9.377  0.8823 -0.4688  0.4200
 8627SOL    HW237518   2.210   4.714   9.453 -0.2803 -0.2232 -0.8725
 8628SOL     OW37519   3.856   3.700  14.741  0.5037 -0.1686  0.0773
 8628SOL    HW137520   3.944   3.730  14.761 -0.0337  0.8295  0.9505
 8628SOL    HW237521   3.871   3.660  14.655  2.7166 -1.1288  0.9175
 8629SOL     OW37522   0.910   4.579   7.642  0.4801 -0.3297  0.2837
 8629SOL    HW137523   1.003   4.584   7.622 -0.1629 -1.7968 -3.0946
 8629SOL    HW237524   0.865   4.578   7.557  0.7901  0.4254  0.1061
 8630SOL     OW37525   4.184   2.151   6.455 -0.4602  0.1633  0.0031
 8630SOL    HW137526   4.251   2.217   6.472  0.0605  0.2952 -2.6246
 8630SOL    HW237527   4.231   2.068   6.445  0.8038  0.6744  1.6388
 8631SOL     OW37528   2.581   4.411   7.729 -0.3978 -0.1637 -0.3412
 8631SOL    HW137529   2.539   4.346   7.784  3.3577 -1.5700  0.8626
 8631SOL    HW237530   2.577   4.488   7.785  1.0459  0.6100 -1.2919
 8632SOL     OW37531   1.444   4.559  16.617  0.0542  0.7123  0.1361
 8632SOL    HW137532   1.434   4.558  16.522 -2.6303  0.8179  0.4204
 8632SOL    HW237533   1.528   4.603  16.631 -0.6876  2.0264  0.5434
 8633SOL     OW37534   3.419   2.984   0.182  0.5379 -0.0741  0.1695
 8633SOL    HW137535   3.493   2.925   0.168 -0.8657 -1.9383  0.7370
 8633SOL    HW237536   3.366   2.933   0.243 -0.2912  0.2772 -0.2614
 8634SOL     OW37537   0.798   2.297  14.371  0.0410 -0.2453  0.9583
 8634SOL    HW137538   0.726   2.249  14.413 -0.6316  1.0029  1.2477
 8634SOL    HW237539   0.761   2.314  14.285  3.8386 -3.1930 -1.2216
 8635SOL     OW37540   2.528   3.682   5.729  0.5329  0.3403  0.3324
 8635SOL    HW137541   2.616   3.701   5.760  1.0877  1.1340 -1.7475
 8635SOL    HW237542   2.537   3.597   5.685 -0.1233  0.3461  0.1909
 8636SOL     OW37543   2.601   1.516   1.770 -0.3004 -0.5891  0.2327
 8636SOL    HW137544   2.587   1.423   1.751 -0.0612  0.0148 -2.9645
 8636SOL    HW237545   2.652   1.502   1.850  0.1403 -2.4742 -0.3663
 8637SOL     OW37546   0.052   3.415  17.265 -0.4345 -0.1116  0.3294
 8637SOL    HW137547   0.014   3.469  17.196 -0.8284 -0.1061  0.5508
 8637SOL    HW237548   4.718   3.365  17.308  0.5023 -2.1147 -0.5043
 8638SOL     OW37549   4.103   2.189   4.724  0.1308 -0.3196  0.6005
 8638SOL    HW137550   4.049   2.135   4.667  1.2484  1.0959 -1.7967
 8638SOL    HW237551   4.033   2.230   4.774 -1.2937  0.8626 -2.3547
 8639SOL     OW37552   1.830   4.495  10.509 -0.5393  0.3482  0.6653
 8639SOL    HW137553   1.883   4.430  10.462 -0.8389  0.1128  0.6504
 8639SOL    HW237554   1.901   4.552  10.538  1.1124 -0.9878 -0.6675
 8640SOL     OW37555   0.289   2.522   4.888 -0.4483  0.3252  0.3483
 8640SOL    HW137556   0.345   2.469   4.832 -0.6831 -0.1832  0.5982
 8640SOL    HW237557   0.206   2.474   4.885 -0.8262  0.8830  1.7532
 8641SOL     OW37558   4.245   2.061   9.226 -0.3125  0.7426  0.1427
 8641SOL    HW137559   4.150   2.046   9.232 -0.1204  0.1808  1.6819
 8641SOL    HW237560   4.254   2.057   9.131  0.2800 -1.3230  0.2882
 8642SOL     OW37561   1.508   0.070   7.930 -0.1327  0.1797 -0.4606
 8642SOL    HW137562   1.443   0.127   7.971  0.1687  0.9424 -1.0405
 8642SOL    HW237563   1.570   0.141   7.915 -0.2997  0.5386  0.5789
 8643SOL     OW37564   2.274   0.623   2.808  0.4975  0.3749  0.8547
 8643SOL    HW137565   2.299   0.531   2.817 -1.0503 -0.0736  0.5920
 8643SOL    HW237566   2.247   0.633   2.717 -3.5269 -0.5475  1.9336
 8644SOL     OW37567   2.623   1.496   7.101  0.2724  0.4414 -0.2100
 8644SOL    HW137568   2.686   1.566   7.085  0.1070  0.3977 -1.0493
 8644SOL    HW237569   2.554   1.544   7.056  0.4777  0.8166 -0.1210
 8645SOL     OW37570   0.591   1.854   6.437 -0.6247  0.0311  0.3006
 8645SOL    HW137571   0.578   1.919   6.506 -1.0830  1.4583 -1.1393
 8645SOL    HW237572   0.573   1.773   6.485 -0.8354  0.3510  0.7642
 8646SOL     OW37573   4.150   3.246   2.355 -0.4978 -0.2398  0.0714
 8646SOL    HW137574   4.189   3.165   2.388  0.4430  0.1269 -0.1367
 8646SOL    HW237575   4.220   3.278   2.298  0.9515  0.3815  2.1791
 8647SOL     OW37576   1.286   2.972  10.365 -0.1753 -0.1833 -0.4678
 8647SOL    HW137577   1.235   3.004  10.440 -0.7516 -0.3740 -0.7829
 8647SOL    HW237578   1.248   2.884  10.365 -0.2502 -0.1523 -0.2493
 8648SOL     OW37579   0.628   1.260   2.875 -0.7891 -0.2252  0.1161
 8648SOL    HW137580   0.558   1.201   2.903 -2.0207  0.9207 -0.5720
 8648SOL    HW237581   0.575   1.333   2.843 -0.2693 -0.3421 -1.0298
 8649SOL     OW37582   2.071   1.202  16.128 -0.6739 -0.6097 -1.0023
 8649SOL    HW137583   2.126   1.216  16.051 -1.2189 -0.6202 -1.3892
 8649SOL    HW237584   2.142   1.165  16.182 -0.9191  0.7389  0.2534
 8650SOL     OW37585   4.604   1.966   9.222 -0.7299  0.4754 -0.0194
 8650SOL    HW137586   4.534   1.900   9.224 -0.5870  0.3619  0.8884
 8650SOL    HW237587   4.580   2.029   9.289 -2.9217 -0.3049 -0.0778
 8651SOL     OW37588   4.470   0.477  15.092 -0.3346  0.2011  0.0508
 8651SOL    HW137589   4.446   0.505  15.180  1.5319  3.0061 -0.3597
 8651SOL    HW237590   4.430   0.547  15.040  0.7725 -0.4314 -1.6228
 8652SOL     OW37591   4.418   2.363   0.125 -0.0885  0.1015  0.0857
 8652SOL    HW137592   4.496   2.409   0.094 -0.7903  0.2731 -1.4140
 8652SOL    HW237593   4.446   2.272   0.138  0.1854  0.4555  2.0255
 8653SOL     OW37594   2.104   2.857  15.732 -0.9266  0.1942 -0.1242
 8653SOL    HW137595   2.181   2.913  15.726  0.5517 -1.8418 -0.1640
 8653SOL    HW237596   2.090   2.865  15.638  2.7499 -1.6022 -0.8547
 8654SOL     OW37597   2.563   1.646   4.755 -0.2497 -0.3618  0.1523
 8654SOL    HW137598   2.639   1.602   4.792 -0.2299 -0.7689 -0.3658
 8654SOL    HW237599   2.539   1.576   4.693 -1.6745  0.7419 -0.5317
 8655SOL     OW37600   0.281   4.146   5.311  0.1498  0.6088  0.2261
 8655SOL    HW137601   0.269   4.241   5.309  2.4071  0.8540 -1.9940
 8655SOL    HW237602   0.315   4.120   5.397  0.0350 -0.1255  0.0521
 8656SOL     OW37603   4.587   2.992   2.923 -0.1251 -0.4384 -0.5695
 8656SOL    HW137604   4.646   3.009   2.850 -1.3521  1.5534 -1.0910
 8656SOL    HW237605   4.631   2.927   2.978  0.8636  0.7685  0.0553
 8657SOL     OW37606   2.516   0.276   6.948  0.2048  0.4456 -0.0558
 8657SOL    HW137607   2.473   0.193   6.970 -0.1848  0.4747 -0.6978
 8657SOL    HW237608   2.458   0.352   6.955 -0.3777  0.0417 -0.5343
 8658SOL     OW37609   1.454   0.706  13.865 -0.0953  0.7795 -0.0825
 8658SOL    HW137610   1.548   0.721  13.862 -0.0623  0.8262  1.0873
 8658SOL    HW237611   1.462   0.618  13.830  0.6933  1.0774 -0.6467
 8659SOL     OW37612   2.640   3.898   6.623 -0.3543 -0.0137 -0.5683
 8659SOL    HW137613   2.600   3.873   6.540 -1.2570 -1.9735  0.4615
 8659SOL    HW237614   2.689   3.821   6.652  0.1625  0.8219  0.7709
 8660SOL     OW37615   1.750   4.689   4.182  0.6986 -0.2073 -0.2820
 8660SOL    HW137616   1.669   4.700   4.131 -1.1630  0.2981  2.7625
 8660SOL    HW237617   1.726   4.726   4.267  1.6397  1.9046 -0.9224
 8661SOL     OW37618   0.738   1.070  16.438 -0.2843 -0.0083 -0.2273
 8661SOL    HW137619   0.737   0.988  16.488 -0.5260 -0.9027 -1.7087
 8661SOL    HW237620   0.812   1.060  16.378 -0.6941 -3.5794 -0.1390
 8662SOL     OW37621   3.622   1.314   8.717 -0.0982 -0.2201  0.1747
 8662SOL    HW137622   3.574   1.237   8.748  0.2033 -0.3913  0.2176
 8662SOL    HW237623   3.548   1.361   8.678  0.0662  0.5441  0.7826
 8663SOL     OW37624   1.233   0.312   9.348  0.1839  0.0387  0.4485
 8663SOL    HW137625   1.230   0.270   9.434  0.0231  1.6826  1.2303
 8663SOL    HW237626   1.138   0.311   9.334 -0.0257  0.6874  1.7819
 8664SOL     OW37627   3.216   2.806  12.420 -0.5649 -0.2565 -0.3887
 8664SOL    HW137628   3.296   2.859  12.419  1.2584 -2.9929  0.7895
 8664SOL    HW237629   3.251   2.727  12.380  0.2623  0.2674 -0.7187
 8665SOL     OW37630   1.965   1.938   4.454 -0.1362  0.2129  0.0696
 8665SOL    HW137631   1.893   1.932   4.391  1.7988 -0.5678 -2.0498
 8665SOL    HW237632   1.968   1.843   4.466 -1.5704 -0.0071 -1.2707
 8666SOL     OW37633   1.996   2.385   9.034  0.3614 -0.0435  0.2234
 8666SOL    HW137634   1.987   2.447   8.961 -0.1991  0.5839  0.8303
 8666SOL    HW237635   2.049   2.321   8.986 -1.1719 -1.3090  0.2267
 8667SOL     OW37636   3.109   3.219   7.217 -0.7357  0.8319 -0.0369
 8667SOL    HW137637   3.023   3.206   7.177  0.1861 -0.9956 -1.4444
 8667SOL    HW237638   3.110   3.167   7.297 -1.9844  1.4942  0.4242
 8668SOL     OW37639   4.691   1.744   5.367 -0.3269 -0.2787  0.3964
 8668SOL    HW137640   4.649   1.797   5.300 -0.8989  0.3838  1.2791
 8668SOL    HW237641   4.614   1.693   5.391  0.4137 -0.8530  1.5712
 8669SOL     OW37642   4.501   2.766   7.987 -0.0478 -0.2926 -0.1826
 8669SOL    HW137643   4.493   2.715   7.906  0.3066  2.8601 -2.1892
 8669SOL    HW237644   4.593   2.759   8.013 -0.3615  1.1437  1.2876
 8670SOL     OW37645   0.460   0.905   3.163  0.6624  0.2057  0.0595
 8670SOL    HW137646   0.472   0.854   3.243  2.1218 -0.9720 -0.9039
 8670SOL    HW237647   0.387   0.864   3.117  1.2967 -0.7473 -0.1140
 8671SOL     OW37648   1.817   3.805   4.032  0.1170 -0.4454  0.0563
 8671SOL    HW137649   1.822   3.711   4.012  0.0519 -0.2294 -1.0082
 8671SOL    HW237650   1.730   3.835   4.006 -0.6240 -1.8886  0.8987
 8672SOL     OW37651   1.380   2.484  15.488  0.3583 -0.4497 -0.0021
 8672SOL    HW137652   1.413   2.438  15.565  2.9617  1.8886  0.2589
 8672SOL    HW237653   1.393   2.427  15.412 -1.2458  0.3895 -0.9160
 8673SOL     OW37654   3.387   0.247  14.168  0.0811  0.2239  0.2451
 8673SOL    HW137655   3.404   0.334  14.204  1.5853 -0.3266  0.8386
 8673SOL    HW237656   3.445   0.187  14.214 -0.4431  0.1411  0.7994
 8674SOL     OW37657   2.793   3.123   5.803 -0.0933 -0.4359  0.2352
 8674SOL    HW137658   2.717   3.148   5.855 -0.6578 -1.5519 -0.0547
 8674SOL    HW237659   2.818   3.038   5.838  1.3965 -0.2564 -0.3685
 8675SOL     OW37660   1.895   1.600   3.021 -0.4976  0.3554  0.0999
 8675SOL    HW137661   1.846   1.589   3.102 -1.9687  0.4654 -0.7645
 8675SOL    HW237662   1.820   1.579   2.965 -0.0053  0.7207 -0.6882
 8676SOL     OW37663   2.456   2.632  12.249  0.1964  0.0316  0.5232
 8676SOL    HW137664   2.534   2.685  12.262  0.3003 -0.3026  1.3229
 8676SOL    HW237665   2.398   2.707  12.237  0.6872  0.6244  1.8892
 8677SOL     OW37666   0.455   3.453  14.774 -0.5696  0.3420  0.6309
 8677SOL    HW137667   0.374   3.481  14.816  0.7491  2.8771  1.4762
 8677SOL    HW237668   0.464   3.523  14.710  0.0764  0.0068  0.3498
 8678SOL     OW37669   1.661   1.542   1.541  0.3630 -0.4923 -0.0066
 8678SOL    HW137670   1.691   1.503   1.623 -3.0496 -1.9926  0.5163
 8678SOL    HW237671   1.657   1.459   1.495 -0.2517 -0.3856 -0.1485
 8679SOL     OW37672   2.806   1.908   6.997  0.3857 -0.0410 -0.5316
 8679SOL    HW137673   2.719   1.898   6.960  0.1000 -1.3283  0.4780
 8679SOL    HW237674   2.849   1.975   6.944  0.0085  1.3277  0.8840
 8680SOL     OW37675   3.098   3.833   8.251 -0.2429  0.1388  0.2519
 8680SOL    HW137676   3.005   3.832   8.275 -1.4622  1.7474 -4.3571
 8680SOL    HW237677   3.098   3.861   8.160  1.8066  0.8757  0.4861
 8681SOL     OW37678   0.578   4.440  14.400 -0.2374  0.5782 -0.2521
 8681SOL    HW137679   0.656   4.409  14.354  0.1061 -0.6005  1.1281
 8681SOL    HW237680   0.504   4.387  14.371  0.1707 -0.6370  0.9145
 8682SOL     OW37681   2.753   4.532  10.333 -0.1970 -0.0745  0.1873
 8682SOL    HW137682   2.755   4.529  10.428  2.4404  0.7746  0.1454
 8682SOL    HW237683   2.669   4.576  10.325 -1.2317 -1.9245  0.8240
 8683SOL     OW37684   3.342   4.344   3.931 -0.4324  0.5593 -0.0189
 8683SOL    HW137685   3.262   4.295   3.918  0.5497 -1.0027 -0.1321
 8683SOL    HW237686   3.412   4.283   3.909 -2.0520 -0.7411 -1.5371
 8684SOL     OW37687   3.652   4.734  10.154 -0.1008 -0.1505 -0.2789
 8684SOL    HW137688   3.600   0.016  10.232  0.1160  1.5489 -0.5327
 8684SOL    HW237689   3.584   0.003  10.087 -0.0238  2.8946 -0.1343
 8685SOL     OW37690   1.332   0.456  15.809 -0.7192 -0.3828 -0.3379
 8685SOL    HW137691   1.321   0.536  15.861 -2.5200 -1.9898  1.7361
 8685SOL    HW237692   1.421   0.424  15.825  0.1530  1.1100 -2.1656
 8686SOL     OW37693   4.594   2.706  15.364 -0.4115  0.2946  0.5533
 8686SOL    HW137694   4.564   2.658  15.287 -2.3667 -0.4697  1.7705
 8686SOL    HW237695   4.622   2.783  15.315 -0.4937 -0.4672 -0.6823
 8687SOL     OW37696   4.502   0.401  16.245 -0.4774 -0.5738 -0.4065
 8687SOL    HW137697   4.528   0.482  16.203 -3.3406  1.5557  1.9248
 8687SOL    HW237698   4.407   0.405  16.233 -0.4195 -1.3509 -1.1914
 8688SOL     OW37699   4.413   4.529   8.213  0.4717  0.1758  0.2365
 8688SOL    HW137700   4.375   4.559   8.130  2.1662  2.1126  0.1780
 8688SOL    HW237701   4.430   4.435   8.207 -0.9316 -0.1303  0.9770
 8689SOL     OW37702   2.219   0.067  13.371 -0.0178 -0.1821  0.5881
 8689SOL    HW137703   2.266   0.042  13.451  0.7887 -0.1079  0.1362
 8689SOL    HW237704   2.128   0.069  13.402 -0.7099  1.7353 -1.5485
 8690SOL     OW37705   1.609   0.739   6.939  0.2967 -0.2082  0.3322
 8690SOL    HW137706   1.669   0.774   6.872 -0.9845 -2.3756 -1.9647
 8690SOL    HW237707   1.675   0.700   6.996 -0.3794  2.1150  2.7171
 8691SOL     OW37708   0.801   3.448   8.231  0.4006  0.0511 -0.1676
 8691SOL    HW137709   0.729   3.505   8.258  0.9174 -0.8558  3.1250
 8691SOL    HW237710   0.777   3.434   8.139 -2.4008 -1.1242  0.7601
 8692SOL     OW37711   2.871   1.104   5.733  0.1023  0.3199  0.2505
 8692SOL    HW137712   2.848   1.138   5.819 -1.9939 -0.9612  0.1941
 8692SOL    HW237713   2.785   1.099   5.692  1.5690 -0.5131 -2.8045
 8693SOL     OW37714   2.610   3.880   1.315  0.1306 -0.0710  0.8083
 8693SOL    HW137715   2.592   3.907   1.405 -0.1801  0.8260  0.4846
 8693SOL    HW237716   2.677   3.944   1.289 -1.1022  0.1769 -1.8239
 8694SOL     OW37717   3.213   4.583  15.618 -0.2630  0.0808 -0.0158
 8694SOL    HW137718   3.244   4.645  15.684 -0.3625  0.1433 -0.0293
 8694SOL    HW237719   3.290   4.560  15.566 -1.3019  1.1428 -1.9840
 8695SOL     OW37720   1.133   1.236   5.076  0.3284  0.2673 -0.3790
 8695SOL    HW137721   1.099   1.317   5.113  1.7756  0.4314  0.5872
 8695SOL    HW237722   1.133   1.251   4.981 -3.5518  2.3205 -0.0373
 8696SOL     OW37723   4.278   2.778  17.037  0.0317 -0.1504  0.0409
 8696SOL    HW137724   4.272   2.858  17.089 -1.5454 -1.0419  1.2325
 8696SOL    HW237725   4.273   2.820  16.951 -0.1428  0.6966  0.4638
 8697SOL     OW37726   2.591   3.053   4.281 -0.0305 -0.1003 -0.0151
 8697SOL    HW137727   2.598   3.060   4.186 -2.3921 -0.0434 -0.1959
 8697SOL    HW237728   2.589   3.143   4.313  0.1972  0.5905 -1.9445
 8698SOL     OW37729   2.406   2.463   4.104 -0.0175  0.9965 -0.3323
 8698SOL    HW137730   2.316   2.480   4.073 -0.9677 -0.6802  1.5517
 8698SOL    HW237731   2.458   2.492   4.029  0.3973  1.4481  0.1326
 8699SOL     OW37732   0.989   2.005  15.066  0.0968  0.9798  0.1915
 8699SOL    HW137733   1.069   2.057  15.055  0.6124 -0.2085 -1.6326
 8699SOL    HW237734   1.031   1.936  15.118 -2.1037  0.2182  0.9688
 8700SOL     OW37735   1.133   0.884   1.527  0.7060  0.1012 -0.4433
 8700SOL    HW137736   1.042   0.910   1.514  0.3585  0.7706  3.1132
 8700SOL    HW237737   1.130   0.835   1.609 -0.6290 -0.7605 -1.0180
 8701SOL     OW37738   0.577   4.593   5.441  0.6736  0.2589 -0.8745
 8701SOL    HW137739   0.556   4.680   5.407  1.0478  1.5180  2.0863
 8701SOL    HW237740   0.627   4.558   5.368 -0.8345  0.3764 -1.9547
 8702SOL     OW37741   0.474   2.345   2.622 -0.5371 -0.3409  0.5329
 8702SOL    HW137742   0.549   2.329   2.680 -0.7029 -0.0572  0.8260
 8702SOL    HW237743   0.496   2.428   2.580 -0.5569 -0.6872 -0.1560
 8703SOL     OW37744   1.872   3.880  16.198 -0.2330 -0.2730  0.1919
 8703SOL    HW137745   1.936   3.950  16.212 -0.0871 -0.4157  0.2377
 8703SOL    HW237746   1.934   3.807  16.201 -0.9564 -0.9305 -0.7980
 8704SOL     OW37747   3.903   0.978  13.235 -0.2466  0.2202 -0.4440
 8704SOL    HW137748   3.956   1.002  13.311 -0.3716  0.0123 -0.2907
 8704SOL    HW237749   3.976   0.953  13.179 -0.2029 -1.5628  0.4099
 8705SOL     OW37750   2.022   3.150   2.736 -0.3125  0.6426  0.3108
 8705SOL    HW137751   2.078   3.189   2.669 -0.8973  1.0372  0.0541
 8705SOL    HW237752   2.026   3.056   2.718  2.1932  1.0845 -1.3988
 8706SOL     OW37753   2.892   1.332   2.197 -0.0762 -0.2556  0.4698
 8706SOL    HW137754   2.847   1.291   2.272 -1.2844 -0.2037 -0.2342
 8706SOL    HW237755   2.921   1.255   2.149  1.8454  1.3146 -0.8891
 8707SOL     OW37756   3.617   2.451   4.072 -0.2343 -0.0146  0.1430
 8707SOL    HW137757   3.529   2.425   4.100  1.0258 -0.6060  3.5142
 8707SOL    HW237758   3.597   2.520   4.010  0.1544 -1.1625 -1.2611
 8708SOL     OW37759   0.988   0.030  10.580  0.4726  0.4357  0.1886
 8708SOL    HW137760   1.040   4.695  10.616  3.8396  2.9180  0.2223
 8708SOL    HW237761   0.968   0.087  10.655  0.9471  1.5925 -0.5604
 8709SOL     OW37762   2.276   1.803   5.427  0.0768  0.4659  0.5899
 8709SOL    HW137763   2.275   1.745   5.351  0.2558  0.4106  0.6306
 8709SOL    HW237764   2.276   1.733   5.492  2.9717 -0.0307  0.0234
 8710SOL     OW37765   0.769   0.767  12.975 -0.4563 -0.4633  0.1678
 8710SOL    HW137766   0.861   0.757  12.954 -0.2539  0.3832  0.6614
 8710SOL    HW237767   0.770   0.704  13.047 -2.6794  2.0218  2.4007
 8711SOL     OW37768   3.626   3.880  11.335  0.2197 -0.3405  0.2399
 8711SOL    HW137769   3.651   3.874  11.427  2.2715 -0.9083 -0.3573
 8711SOL    HW237770   3.705   3.916  11.294 -1.0784  2.1419 -0.0855
 8712SOL     OW37771   3.882   3.586   0.068 -0.5283  0.2204 -0.5574
 8712SOL    HW137772   3.817   3.525   0.101  0.2898 -0.6348 -0.5179
 8712SOL    HW237773   3.927   3.541  17.740 -0.9087 -1.0572  0.0045
 8713SOL     OW37774   1.050   3.639   5.894 -0.2411  0.4507 -0.2491
 8713SOL    HW137775   1.098   3.716   5.925  0.7961 -0.4524  0.3626
 8713SOL    HW237776   0.964   3.674   5.918 -0.3408 -0.9419  1.4050
 8714SOL     OW37777   3.494   3.748   6.621 -0.0450  0.0629  0.2584
 8714SOL    HW137778   3.586   3.732   6.640 -0.6258 -4.1857 -0.3550
 8714SOL    HW237779   3.463   3.665   6.583  1.1870  0.5901 -1.9136
 8715SOL     OW37780   2.157   0.418   8.589 -0.0045 -0.4667 -0.3075
 8715SOL    HW137781   2.178   0.434   8.681  3.1968  0.2776 -1.1934
 8715SOL    HW237782   2.204   0.492   8.551 -1.8047  0.9667  0.2430
 8716SOL     OW37783   4.064   2.633   1.474 -0.2466 -0.1474  0.3474
 8716SOL    HW137784   4.110   2.560   1.431  1.5210  1.1721 -0.0151
 8716SOL    HW237785   4.072   2.602   1.564  0.5027 -0.3554  0.2140
 8717SOL     OW37786   0.137   1.418  13.968 -0.6110  0.0549  0.3268
 8717SOL    HW137787   0.118   1.346  13.907 -1.5151  0.3241  0.2884
 8717SOL    HW237788   0.226   1.405  14.001  0.1922  0.8754 -1.5641
 8718SOL     OW37789   2.621   4.313   0.734  0.0334  0.0314 -0.2219
 8718SOL    HW137790   2.662   4.332   0.649  0.8479  1.1051  0.4219
 8718SOL    HW237791   2.623   4.402   0.768  0.2942 -0.4623  1.0237
 8719SOL     OW37792   2.131   4.518   1.363  0.7511 -0.1769 -0.1456
 8719SOL    HW137793   2.121   4.486   1.452 -0.8177 -0.0658 -0.2767
 8719SOL    HW237794   2.045   4.555   1.345  0.3793 -0.6326  0.7437
 8720SOL     OW37795   2.998   3.742   4.608 -0.6585 -0.4749 -0.2042
 8720SOL    HW137796   3.035   3.815   4.657  1.5967 -1.8049  0.0728
 8720SOL    HW237797   2.910   3.775   4.590 -0.2437  0.7441  0.0147
 8721SOL     OW37798   3.360   2.354   5.821 -0.1448  0.3200 -0.0473
 8721SOL    HW137799   3.270   2.330   5.798  0.0218 -1.6622  1.3159
 8721SOL    HW237800   3.385   2.415   5.752  0.7620 -2.1411 -1.8992
 8722SOL     OW37801   4.428   0.195   0.604 -0.5024  0.6100 -0.2796
 8722SOL    HW137802   4.483   0.117   0.603 -1.4182 -0.0014 -2.6711
 8722SOL    HW237803   4.456   0.220   0.692 -0.7405 -0.2363  0.0324
 8723SOL     OW37804   1.982   2.999  15.955 -0.1511  0.2717 -0.5754
 8723SOL    HW137805   2.055   2.941  15.979  0.8978  1.6122 -0.5283
 8723SOL    HW237806   1.971   2.978  15.863 -1.5826  0.8065 -0.5198
 8724SOL     OW37807   2.383   2.211   7.378 -0.3951 -0.3944 -0.8821
 8724SOL    HW137808   2.328   2.232   7.303  0.6885 -0.7476 -1.7719
 8724SOL    HW237809   2.343   2.255   7.453  0.6967 -1.7051  0.4742
 8725SOL     OW37810   1.230   1.219  17.141 -0.7517 -0.1712  0.4395
 8725SOL    HW137811   1.161   1.253  17.084 -1.0100  0.3322  1.0474
 8725SOL    HW237812   1.304   1.245  17.086 -0.0390 -0.1439  1.3993
 8726SOL     OW37813   4.129   3.024   4.336 -0.0077  0.0164 -0.2686
 8726SOL    HW137814   4.220   3.013   4.308  0.2023  0.2170  0.3289
 8726SOL    HW237815   4.079   3.032   4.255 -0.1285 -1.8651 -0.3682
 8727SOL     OW37816   1.209   1.908   6.440 -0.4765  0.3579  0.2162
 8727SOL    HW137817   1.216   1.963   6.518  2.7731  0.1247  0.0743
 8727SOL    HW237818   1.281   1.946   6.390 -0.6602 -0.2758 -0.5414
 8728SOL     OW37819   4.247   0.764   1.013  0.3259 -0.3170 -0.4517
 8728SOL    HW137820   4.309   0.693   1.028  1.7258  1.2594  1.2899
 8728SOL    HW237821   4.176   0.752   1.076 -0.3461 -0.5475 -1.2435
 8729SOL     OW37822   2.415   4.259   5.217 -0.0746 -0.1542 -0.1050
 8729SOL    HW137823   2.326   4.255   5.180  0.6546 -4.5357 -1.3876
 8729SOL    HW237824   2.400   4.212   5.299 -0.7701 -0.3943 -0.3661
 8730SOL     OW37825   1.555   4.381   5.183  0.6440 -1.0500 -0.1089
 8730SOL    HW137826   1.553   4.418   5.271 -0.9369  0.7584 -0.9098
 8730SOL    HW237827   1.556   4.286   5.193  1.6921 -1.0198  0.0627
 8731SOL     OW37828   1.006   2.457   3.458 -0.2325  0.6156 -0.3243
 8731SOL    HW137829   0.999   2.514   3.381 -2.4175  0.5334 -0.1771
 8731SOL    HW237830   1.101   2.468   3.470 -0.4376 -0.0960  2.0200
 8732SOL     OW37831   0.646   4.423   6.250  0.0501 -0.3669  0.0227
 8732SOL    HW137832   0.595   4.347   6.220 -1.0798  0.8053 -0.9993
 8732SOL    HW237833   0.638   4.488   6.181  1.9755  1.1101  1.2090
 8733SOL     OW37834   2.703   1.380   6.337 -0.1178  0.6362 -0.3812
 8733SOL    HW137835   2.790   1.390   6.376 -0.1025 -0.4958 -0.1274
 8733SOL    HW237836   2.720   1.391   6.243 -0.8946 -0.9284 -0.6998
 8734SOL     OW37837   0.392   4.624   1.362 -0.2202  0.0268  0.0363
 8734SOL    HW137838   0.447   4.641   1.286  0.4616  2.0971  0.9781
 8734SOL    HW237839   0.443   4.561   1.412  0.9069 -0.8256 -2.1933
 8735SOL     OW37840   4.681   0.163   1.174  0.7474 -1.2869  0.3488
 8735SOL    HW137841   4.636   0.215   1.241  2.1788 -1.7671  1.7029
 8735SOL    HW237842   0.032   0.152   1.214  1.5924 -1.8465 -1.6558
 8736SOL     OW37843   0.981   2.323   7.098  0.0135 -0.4169 -0.2666
 8736SOL    HW137844   0.917   2.276   7.151 -0.5847  1.3974  0.6321
 8736SOL    HW237845   1.050   2.257   7.092 -0.9921 -1.3298 -1.9010
 8737SOL     OW37846   2.912   4.505   1.889  0.1283  0.1734  0.9093
 8737SOL    HW137847   2.838   4.550   1.930  0.4730  1.7227 -0.1529
 8737SOL    HW237848   2.950   4.466   1.968  0.9362 -0.8481  0.0117
 8738SOL     OW37849   0.267   4.424   6.145 -0.2499  0.1882 -0.2528
 8738SOL    HW137850   0.197   4.365   6.116  0.3937 -0.9615  0.5060
 8738SOL    HW237851   0.290   4.378   6.225 -0.1986  0.2932 -0.2079
 8739SOL     OW37852   4.595   4.608  12.315 -0.0587 -0.2705 -0.5529
 8739SOL    HW137853   4.625   4.622  12.405  1.1105  0.6434 -1.0741
 8739SOL    HW237854   4.655   4.552  12.267  0.4556  0.0198 -0.2540
 8740SOL     OW37855   3.919   0.035   7.696  0.1779  0.0831  0.8361
 8740SOL    HW137856   3.877   4.691   7.729 -0.0889  0.1681  0.7048
 8740SOL    HW237857   3.869   0.102   7.743  0.6327  0.4037  0.8566
 8741SOL     OW37858   3.038   3.362   6.362  0.3554 -0.2193  0.0794
 8741SOL    HW137859   2.984   3.310   6.421  0.5130 -0.3500  0.1097
 8741SOL    HW237860   2.985   3.328   6.290  1.7071 -1.1341 -0.4843
 8742SOL     OW37861   3.251   2.762  13.735 -0.6361  0.3288 -0.0331
 8742SOL    HW137862   3.195   2.822  13.685  0.9100  1.2256 -0.7107
 8742SOL    HW237863   3.207   2.678  13.723 -0.8094  0.3838  0.2432
 8743SOL     OW37864   4.413   3.301   2.207  0.0692 -0.3492 -0.1406
 8743SOL    HW137865   4.488   3.313   2.148  0.0831 -2.0215 -0.4575
 8743SOL    HW237866   4.406   3.206   2.208  0.6847 -0.3732  1.1968
 8744SOL     OW37867   2.482   0.845  12.683 -0.1497 -0.5319 -0.2982
 8744SOL    HW137868   2.445   0.786  12.617  1.3221 -0.7671 -0.9247
 8744SOL    HW237869   2.508   0.781  12.749 -1.4527  1.5159  2.1704
 8745SOL     OW37870   4.441   3.250   6.881 -0.1372  0.1208  0.0857
 8745SOL    HW137871   4.431   3.155   6.882 -1.3154  0.2610  1.8933
 8745SOL    HW237872   4.482   3.262   6.795  0.8299 -1.1683  0.3662
 8746SOL     OW37873   3.205   0.312   3.131 -0.3532 -0.1207  0.0333
 8746SOL    HW137874   3.290   0.285   3.095  0.6889  1.7257  1.0474
 8746SOL    HW237875   3.227   0.403   3.152  0.1165  0.0011 -0.9763
 8747SOL     OW37876   2.102   4.175   7.485 -0.3213  0.1683 -0.3263
 8747SOL    HW137877   2.144   4.228   7.552  0.7390 -0.1121 -0.7635
 8747SOL    HW237878   2.059   4.242   7.433 -0.0936  0.4340 -0.1714
 8748SOL     OW37879   0.805   0.084  11.007 -0.2097  0.1059  0.3177
 8748SOL    HW137880   0.867   0.151  10.979 -2.0186  1.4773 -0.4140
 8748SOL    HW237881   0.792   0.041  10.923  1.1515  0.3520 -0.0148
 8749SOL     OW37882   2.271   4.580   8.323 -0.4233 -0.0316  0.2286
 8749SOL    HW137883   2.339   4.531   8.370  1.2339  1.2546 -0.8038
 8749SOL    HW237884   2.210   4.507   8.313  0.1247 -0.6218  1.1187
 8750SOL     OW37885   2.469   0.401  11.366  0.3002 -0.0420  0.9709
 8750SOL    HW137886   2.393   0.386  11.310  1.5314 -2.0042 -0.1822
 8750SOL    HW237887   2.441   0.474  11.421  1.3282  1.2437 -0.2096
 8751SOL     OW37888   4.282   2.350  15.016  0.0716  0.5698 -0.3046
 8751SOL    HW137889   4.373   2.368  14.992  0.5825  0.3985  1.5033
 8751SOL    HW237890   4.256   2.276  14.961 -0.0411  2.1805 -2.4215
 8752SOL     OW37891   4.583   0.973   0.956 -0.6846 -0.1714 -0.5115
 8752SOL    HW137892   4.581   0.896   1.013 -0.7790  1.1634  1.2882
 8752SOL    HW237893   4.501   0.976   0.906 -1.3733 -0.5331  0.5717
 8753SOL     OW37894   0.013   2.264   7.571 -0.2071  0.4174  0.3870
 8753SOL    HW137895   4.712   2.345   7.535  2.2550  1.4450  0.1703
 8753SOL    HW237896   4.679   2.202   7.554 -0.0103  0.7349 -1.5876
 8754SOL     OW37897   4.365   0.542   3.656 -0.1423  0.3511  0.2544
 8754SOL    HW137898   4.310   0.550   3.734 -1.5945 -1.3834 -0.5769
 8754SOL    HW237899   4.378   0.630   3.620  0.5736 -0.5119 -1.5797
 8755SOL     OW37900   3.147   1.959  11.062 -0.3580 -0.4541  0.0978
 8755SOL    HW137901   3.172   2.020  10.993 -0.1076  1.0412  1.5103
 8755SOL    HW237902   3.193   1.883  11.028  0.0192 -0.3400  0.3519
 8756SOL     OW37903   3.366   1.774   8.167 -0.4197  0.4299  0.3185
 8756SOL    HW137904   3.294   1.747   8.109  0.0591 -1.3622  0.5391
 8756SOL    HW237905   3.428   1.812   8.106 -1.4595  0.3033 -0.8220
 8757SOL     OW37906   3.385   3.345   6.045 -0.3368 -0.4320  0.4114
 8757SOL    HW137907   3.357   3.254   6.043  1.2235 -0.8669 -1.6108
 8757SOL    HW237908   3.401   3.346   5.951  2.8123  0.4095  0.9225
 8758SOL     OW37909   1.558   1.592   3.801  0.3623 -0.0895 -0.0649
 8758SOL    HW137910   1.571   1.526   3.869 -0.6776 -0.3489 -0.1220
 8758SOL    HW237911   1.464   1.605   3.804  0.1145 -2.0014  0.4868
 8759SOL     OW37912   4.625   3.677  16.252 -0.0707 -0.4385  0.0360
 8759SOL    HW137913   4.686   3.613  16.215  0.5782  0.9618 -1.3465
 8759SOL    HW237914   4.677   3.708  16.326 -0.3034 -3.9294  1.6369
 8760SOL     OW37915   3.438   2.233   1.977 -0.0952  0.2712 -0.3828
 8760SOL    HW137916   3.503   2.258   1.911 -0.7752  1.3229 -0.6613
 8760SOL    HW237917   3.359   2.211   1.927  0.6372 -3.3887  0.1076
 8761SOL     OW37918   1.497   0.015   3.914 -0.2417 -0.5000  0.0292
 8761SOL    HW137919   1.573   0.009   3.856 -0.9834 -0.1864 -0.9847
 8761SOL    HW237920   1.478   4.657   3.919  1.3465 -0.9210 -1.7952
 8762SOL     OW37921   3.662   4.450   1.137 -0.4409 -0.7203 -0.1017
 8762SOL    HW137922   3.674   4.380   1.073 -1.3768 -0.5682 -0.4527
 8762SOL    HW237923   3.755   4.466   1.150 -0.4410  0.9197 -2.2549
 8763SOL     OW37924   4.515   4.336  12.892  0.0217 -0.3730  0.0940
 8763SOL    HW137925   4.605   4.305  12.904  1.1269  2.2454 -1.3348
 8763SOL    HW237926   4.536   4.420  12.851 -0.8894  0.3532  1.0985
 8764SOL     OW37927   3.427   0.162   8.837  0.0050  0.0848 -0.5897
 8764SOL    HW137928   3.384   0.205   8.762 -1.3706 -0.7181 -0.2621
 8764SOL    HW237929   3.353   0.125   8.885 -1.7853  2.1093 -1.7358
 8765SOL     OW37930   1.298   3.855   5.747 -0.7046 -0.2325  0.1459
 8765SOL    HW137931   1.223   3.853   5.806 -1.0629  1.2668 -0.2660
 8765SOL    HW237932   1.269   3.791   5.682  0.4242 -0.2025 -0.3791
 8766SOL     OW37933   4.249   0.167   6.806 -0.0189  0.4928 -0.1038
 8766SOL    HW137934   4.339   0.170   6.773  0.6846 -1.6529  1.6305
 8766SOL    HW237935   4.259   0.184   6.900 -1.2213 -2.4044  0.5565
 8767SOL     OW37936   4.657   4.012   5.291  1.0354 -0.2597 -0.5546
 8767SOL    HW137937   4.676   4.091   5.241 -0.2654 -1.4989 -2.9918
 8767SOL    HW237938   4.613   4.057   5.363  1.5918  1.4446 -1.2807
 8768SOL     OW37939   0.758   1.507   6.793  0.5357 -0.0039  0.8350
 8768SOL    HW137940   0.726   1.417   6.778  0.0413  0.2161  0.5516
 8768SOL    HW237941   0.850   1.489   6.777  0.4234  0.0483  0.1269
 8769SOL     OW37942   2.900   1.052   8.030  0.4438 -0.9458 -0.6202
 8769SOL    HW137943   2.814   1.026   7.999 -0.1638 -1.5069  1.5564
 8769SOL    HW237944   2.911   0.989   8.101 -0.0534 -0.1953  0.1224
 8770SOL     OW37945   1.682   2.221   4.261  0.0470 -0.0224 -0.3831
 8770SOL    HW137946   1.730   2.181   4.188  1.4304 -0.9091  1.0028
 8770SOL    HW237947   1.754   2.261   4.310  1.7549 -0.8580 -2.2228
 8771SOL     OW37948   4.564   1.376   3.702  0.1363  0.5074  0.3159
 8771SOL    HW137949   4.614   1.319   3.761 -0.3119  0.4887  0.6773
 8771SOL    HW237950   4.494   1.400   3.763  0.5575  0.8021  0.6882
 8772SOL     OW37951   2.752   1.770   1.977 -0.2752  0.0105  0.4341
 8772SOL    HW137952   2.802   1.841   1.936  1.6073 -0.3214  2.1452
 8772SOL    HW237953   2.670   1.819   1.982 -1.1233 -1.4273  0.7725
 8773SOL     OW37954   1.257   0.308  12.792 -0.0129 -0.4022 -0.2931
 8773SOL    HW137955   1.293   0.362  12.722 -1.8711 -0.5244 -1.3518
 8773SOL    HW237956   1.240   0.377  12.855  0.1832  0.1374 -0.8349
 8774SOL     OW37957   0.256   1.727  10.095  0.4099  0.2705  0.3730
 8774SOL    HW137958   0.189   1.659  10.086  1.4615 -0.7126 -0.0612
 8774SOL    HW237959   0.333   1.669  10.100 -0.3873 -0.8452 -0.2469
 8775SOL     OW37960   2.287   3.214   5.517  0.9226 -0.1037 -0.2225
 8775SOL    HW137961   2.307   3.133   5.471 -1.1837 -1.3308  0.9970
 8775SOL    HW237962   2.264   3.177   5.602 -0.1323 -2.1007 -1.3746
 8776SOL     OW37963   1.840   4.040   7.189  0.0508 -0.5071  0.5051
 8776SOL    HW137964   1.818   4.117   7.137  1.0838  0.1910  1.1113
 8776SOL    HW237965   1.842   4.077   7.277  1.1041  0.3327  0.1179
 8777SOL     OW37966   1.013   1.014  16.624 -0.3587 -0.8256 -0.2329
 8777SOL    HW137967   0.978   1.098  16.594 -0.0149  0.6579  3.4456
 8777SOL    HW237968   1.068   1.033  16.700  2.0619 -1.1514 -1.9021
 8778SOL     OW37969   3.560   4.593   4.284 -0.1738  0.2309 -0.0767
 8778SOL    HW137970   3.531   4.567   4.196 -1.3321  0.1969  0.3101
 8778SOL    HW237971   3.479   4.591   4.336 -0.5011  0.3787 -0.5805
 8779SOL     OW37972   3.452   2.916   2.942  0.1715 -0.8054 -0.2168
 8779SOL    HW137973   3.415   2.828   2.944 -2.7560  0.4536  0.3756
 8779SOL    HW237974   3.539   2.888   2.970  0.3704 -0.9365 -0.9596
 8780SOL     OW37975   3.546   2.760  12.337 -0.1844 -0.1022  0.6455
 8780SOL    HW137976   3.499   2.679  12.358  3.0869 -1.6903  1.8885
 8780SOL    HW237977   3.585   2.776  12.422  1.1079 -0.6349  0.1443
 8781SOL     OW37978   3.614   0.052   0.705 -0.2528  0.0992  0.2148
 8781SOL    HW137979   3.635   0.014   0.790 -2.1432 -0.8245  0.2692
 8781SOL    HW237980   3.520   0.064   0.719 -0.7880 -2.0097 -1.5970
 8782SOL     OW37981   0.152   0.352   1.265 -0.1675  0.1547  0.5395
 8782SOL    HW137982   0.202   0.308   1.334 -0.1111 -2.5948 -1.2599
 8782SOL    HW237983   0.231   0.373   1.216  0.1763 -1.1331  0.5444
 8783SOL     OW37984   0.912   0.720   5.624  0.0136 -0.0663 -0.1021
 8783SOL    HW137985   0.868   0.731   5.540  0.1442  2.4876  0.1571
 8783SOL    HW237986   0.982   0.785   5.623  0.1994 -0.2457  1.2101
 8784SOL     OW37987   4.124   2.953   7.033  0.7085 -0.4056 -0.1486
 8784SOL    HW137988   4.077   3.036   7.025  1.3779  0.1035  1.2484
 8784SOL    HW237989   4.056   2.892   7.061  0.6945 -0.6186 -0.6389
 8785SOL     OW37990   0.806   3.984   1.320  0.1755 -0.5576 -0.1830
 8785SOL    HW137991   0.726   4.009   1.273  0.4624  0.4630 -0.1393
 8785SOL    HW237992   0.766   3.941   1.395  2.5665 -1.1621  0.7050
 8786SOL     OW37993   0.428   3.721   1.200 -0.4073  0.6553 -0.3057
 8786SOL    HW137994   0.498   3.677   1.247 -1.3976 -1.3773 -0.7290
 8786SOL    HW237995   0.352   3.677   1.237 -0.6336  1.2125 -0.0984
 8787SOL     OW37996   2.494   3.849  10.123 -0.0473  0.2216  0.2434
 8787SOL    HW137997   2.480   3.915  10.191  0.3358  1.0003 -0.4401
 8787SOL    HW237998   2.538   3.899  10.055 -1.0716  0.7560 -0.0140
 8788SOL     OW37999   4.416   0.577  15.896 -0.0125 -0.2415 -0.5973
 8788SOL    HW138000   4.504   0.600  15.925  0.1415 -0.4085 -0.9472
 8788SOL    HW238001   4.382   0.662  15.869 -0.6375 -0.4141 -0.3598
 8789SOL     OW38002   4.047   0.114  15.853 -0.3215 -0.2260  0.2759
 8789SOL    HW138003   4.062   0.146  15.942  0.9657  0.8233 -0.3353
 8789SOL    HW238004   4.140   0.118  15.831 -0.7050  0.0534 -1.2899
 8790SOL     OW38005   1.979   2.400   8.386  0.5515 -0.0926  0.6583
 8790SOL    HW138006   1.949   2.326   8.440  0.3636  0.4925  1.3535
 8790SOL    HW238007   1.898   2.426   8.342  1.3114 -0.2064 -0.7678
 8791SOL     OW38008   3.389   1.603  15.254  0.4797 -0.0555 -0.1915
 8791SOL    HW138009   3.482   1.592  15.275 -0.0104 -0.9251  1.5022
 8791SOL    HW238010   3.391   1.668  15.183  0.7115  0.5763  0.3998
 8792SOL     OW38011   2.769   4.054   1.204  0.3662  0.8291  0.3941
 8792SOL    HW138012   2.734   4.093   1.123  1.8476 -0.3736 -0.8293
 8792SOL    HW238013   2.741   4.124   1.262 -0.6136  0.7848 -0.0219
 8793SOL     OW38014   4.203   0.931   2.269  0.2372  0.1806  0.3423
 8793SOL    HW138015   4.252   0.890   2.341 -0.2740 -3.2679 -1.2455
 8793SOL    HW238016   4.188   0.856   2.212  1.1985 -0.0209  0.3576
 8794SOL     OW38017   4.077   2.870  11.253 -0.0052 -1.0069  0.1454
 8794SOL    HW138018   4.058   2.908  11.167 -3.3745  1.5123  1.9995
 8794SOL    HW238019   4.052   2.944  11.308  3.7010 -0.6591  1.3013
 8795SOL     OW38020   3.799   0.610   5.175 -0.3966  1.0905 -0.1797
 8795SOL    HW138021   3.838   0.578   5.257  0.9878 -1.0404 -1.6771
 8795SOL    HW238022   3.783   0.525   5.134  1.8968  0.0427  1.0838
 8796SOL     OW38023   0.146   4.459   6.927 -0.5296 -0.2885  0.0450
 8796SOL    HW138024   0.202   4.525   6.886  0.6173 -0.0436  2.0157
 8796SOL    HW238025   0.155   4.486   7.019 -2.0790  0.0229  0.1201
 8797SOL     OW38026   1.415   1.824   8.430 -0.5941  0.0901  0.1823
 8797SOL    HW138027   1.391   1.909   8.465 -2.4086  0.5424 -2.1135
 8797SOL    HW238028   1.440   1.844   8.340  1.5182 -1.6171  0.3673
 8798SOL     OW38029   3.213   1.849   5.356  0.6649 -0.4271 -0.0192
 8798SOL    HW138030   3.236   1.803   5.437 -1.5028  0.0135  0.8585
 8798SOL    HW238031   3.294   1.831   5.309  0.3543  0.4305 -0.8697
 8799SOL     OW38032   0.546   2.653  13.431 -0.1988 -0.1476  0.1632
 8799SOL    HW138033   0.624   2.610  13.465 -0.4385 -1.1238 -0.5321
 8799SOL    HW238034   0.573   2.743  13.414  0.2229 -0.7968 -2.6430
 8800SOL     OW38035   3.932   2.863  14.681 -0.0787  0.1385  0.0436
 8800SOL    HW138036   3.989   2.834  14.753 -0.3485  0.3502  0.3415
 8800SOL    HW238037   3.850   2.889  14.723 -1.1349 -0.4535 -1.6439
 8801SOL     OW38038   3.744   0.693   7.878 -0.1752  0.2721 -0.4829
 8801SOL    HW138039   3.682   0.628   7.910  1.2754  0.0736  1.9039
 8801SOL    HW238040   3.737   0.677   7.784  0.2681 -3.4829  0.1241
 8802SOL     OW38041   1.341   1.987  11.204 -0.1299 -0.1091  0.6345
 8802SOL    HW138042   1.294   1.920  11.253 -0.3557 -0.1125  0.4101
 8802SOL    HW238043   1.270   2.035  11.161 -0.5030 -0.1179  1.2385
 8803SOL     OW38044   2.976   0.880   1.696 -0.5381  0.4080  0.0749
 8803SOL    HW138045   3.044   0.859   1.632 -1.4054 -2.4012  0.0934
 8803SOL    HW238046   2.987   0.802   1.750 -1.0656 -0.8716 -1.6681
 8804SOL     OW38047   4.206   1.081   7.738  0.0209 -0.1883 -0.2543
 8804SOL    HW138048   4.267   1.153   7.758 -0.0950 -0.0296 -0.4726
 8804SOL    HW238049   4.259   1.001   7.745 -0.9668 -0.8397 -0.2588
 8805SOL     OW38050   2.299   1.396  14.352  0.6403  0.5373 -0.2618
 8805SOL    HW138051   2.332   1.381  14.264 -0.6425  1.8264 -0.9695
 8805SOL    HW238052   2.376   1.367  14.401 -1.6298 -2.6750  1.4064
 8806SOL     OW38053   2.811   4.090   8.490  0.1131 -0.2096  0.0601
 8806SOL    HW138054   2.733   4.047   8.526 -0.5722  2.2029  1.4353
 8806SOL    HW238055   2.873   4.072   8.561  2.1724 -0.4298 -1.8069
 8807SOL     OW38056   2.838   4.009   4.052 -0.6002 -0.2668  0.3707
 8807SOL    HW138057   2.808   4.071   4.119 -1.7953  0.2477 -0.6308
 8807SOL    HW238058   2.850   3.936   4.112  1.3051 -1.8200 -1.9516
 8808SOL     OW38059   2.745   3.882   4.659 -0.3596 -0.5826 -0.3137
 8808SOL    HW138060   2.762   3.927   4.576 -3.8450 -1.1168 -1.2744
 8808SOL    HW238061   2.692   3.807   4.634 -1.0028 -0.1227 -0.3125
 8809SOL     OW38062   0.745   2.015  15.167  0.0373  0.0174 -0.1180
 8809SOL    HW138063   0.825   1.976  15.133  0.4969 -0.2966  1.3578
 8809SOL    HW238064   0.762   2.108  15.152 -2.9914  1.0888  2.9554
 8810SOL     OW38065   1.386   3.938   6.829 -0.1643 -0.0855  0.0137
 8810SOL    HW138066   1.351   3.888   6.903 -0.1550 -0.6428 -0.3608
 8810SOL    HW238067   1.383   3.872   6.760  0.0419  0.3855 -0.4452
 8811SOL     OW38068   2.786   1.639   8.301  0.0467 -0.2393 -0.7549
 8811SOL    HW138069   2.691   1.635   8.307  0.0545 -1.3784 -1.3716
 8811SOL    HW238070   2.798   1.729   8.271  1.4665 -0.3107 -0.3989
 8812SOL     OW38071   1.597   4.338   3.511 -0.2789 -0.2930 -0.8094
 8812SOL    HW138072   1.597   4.244   3.526 -0.4682 -0.0951  0.5018
 8812SOL    HW238073   1.671   4.365   3.566  0.3066 -3.2752 -0.1661
 8813SOL     OW38074   3.096   2.077   2.709 -0.2992 -0.0822 -0.2027
 8813SOL    HW138075   3.084   2.147   2.645 -2.7731 -0.2239  0.0970
 8813SOL    HW238076   3.011   2.034   2.706 -0.9658  1.1616  0.7204
 8814SOL     OW38077   3.633   3.755  15.643  0.4461 -0.5312 -0.8939
 8814SOL    HW138078   3.699   3.803  15.594  0.4365  0.8053  0.3939
 8814SOL    HW238079   3.643   3.673  15.596 -0.0362 -0.6573 -0.7720
 8815SOL     OW38080   4.078   2.175   8.247  0.2215  0.1850 -0.0947
 8815SOL    HW138081   4.105   2.262   8.216  0.0880  0.5523  0.8334
 8815SOL    HW238082   4.113   2.167   8.336  0.2057 -0.8107 -0.1792
 8816SOL     OW38083   3.069   0.881   0.201  0.0900 -0.1737 -0.3968
 8816SOL    HW138084   3.134   0.951   0.204 -0.2820  0.1640 -0.2937
 8816SOL    HW238085   3.014   0.892   0.279  1.0836  3.2316 -0.1810
 8817SOL     OW38086   0.355   0.042   0.490 -0.3461 -0.5803  0.0028
 8817SOL    HW138087   0.428   0.102   0.508 -0.5553 -0.1390 -0.6194
 8817SOL    HW238088   0.363   4.726   0.569 -0.1313 -0.5859 -0.0222
 8818SOL     OW38089   2.199   4.179   2.405 -0.0799 -0.4833 -1.2243
 8818SOL    HW138090   2.130   4.169   2.339 -0.7430  0.7256 -0.6916
 8818SOL    HW238091   2.244   4.251   2.361 -1.2926 -0.3406 -2.2281
 8819SOL     OW38092   2.219   4.390   3.405  0.2212  0.1379  0.0077
 8819SOL    HW138093   2.203   4.477   3.368 -0.0550 -0.6752 -1.7992
 8819SOL    HW238094   2.301   4.363   3.364  0.5500  1.8180 -0.4436
 8820SOL     OW38095   4.007   1.330   2.248  0.3376  0.3292 -0.3319
 8820SOL    HW138096   3.964   1.247   2.230  1.7498 -0.0936 -1.7923
 8820SOL    HW238097   3.926   1.378   2.262  0.0639 -0.5466  1.0611
 8821SOL     OW38098   1.733   1.180   4.127  0.5005 -0.4176 -0.5711
 8821SOL    HW138099   1.825   1.193   4.150  0.3423 -1.7592  0.7876
 8821SOL    HW238100   1.697   1.151   4.210  1.8931  3.9135  1.5467
 8822SOL     OW38101   2.104   2.888  15.469  0.1945  0.1560 -0.2533
 8822SOL    HW138102   2.112   2.812  15.412  1.4151 -1.0548  1.5035
 8822SOL    HW238103   2.094   2.958  15.405  2.2621  0.6608 -0.0481
 8823SOL     OW38104   1.099   3.595   7.054 -0.2071  0.6433 -0.1072
 8823SOL    HW138105   1.019   3.641   7.030 -0.5994 -0.6341 -1.2232
 8823SOL    HW238106   1.086   3.512   7.009 -2.8398  0.3888  1.1576
 8824SOL     OW38107   0.340   0.366  11.841  0.5331  0.2591  0.2079
 8824SOL    HW138108   0.356   0.344  11.932 -0.3743 -1.5441 -0.0744
 8824SOL    HW238109   0.403   0.307  11.800 -2.1687 -1.2089 -1.8699
 8825SOL     OW38110   0.406   2.653   2.824  0.4717 -0.0370 -0.0562
 8825SOL    HW138111   0.482   2.656   2.883  1.9136 -0.5310 -1.9063
 8825SOL    HW238112   0.386   2.560   2.829  0.7867 -0.1843 -1.7195
 8826SOL     OW38113   0.607   1.671   6.985 -0.8211  0.2360 -0.2491
 8826SOL    HW138114   0.663   1.625   6.922  0.3009  0.4323  0.6008
 8826SOL    HW238115   0.608   1.598   7.047  1.2086  0.2109 -0.3026
 8827SOL     OW38116   0.043   2.994   9.452  0.4308 -0.4522  0.5585
 8827SOL    HW138117   0.131   3.032   9.451 -0.1264  0.7897 -0.9023
 8827SOL    HW238118   0.006   3.065   9.400 -0.2568 -0.7142  0.6918
 8828SOL     OW38119   2.338   3.918   9.251 -0.4991  0.5028  0.6457
 8828SOL    HW138120   2.425   3.954   9.269 -0.7348  0.4408  1.8920
 8828SOL    HW238121   2.314   3.879   9.335 -0.9243 -1.4131 -0.3748
 8829SOL     OW38122   2.239   2.534  10.076  0.0271  0.4370  0.2080
 8829SOL    HW138123   2.273   2.573  10.157  0.4301 -0.6711  0.5797
 8829SOL    HW238124   2.245   2.445  10.111 -1.8221  0.9552  1.8287
 8830SOL     OW38125   0.052   1.641  15.087  0.1771 -0.0881 -0.7494
 8830SOL    HW138126   0.093   1.684  15.012  0.9576 -0.4589 -0.5245
 8830SOL    HW238127   0.118   1.660  15.153  0.4944 -1.1798 -0.7613
 8831SOL     OW38128   4.104   4.243   1.552 -0.3879 -0.1737  0.0255
 8831SOL    HW138129   4.114   4.338   1.555  1.2631 -0.3529 -0.0824
 8831SOL    HW238130   4.009   4.243   1.538 -0.3634 -0.0974 -0.1490
 8832SOL     OW38131   0.562   4.081   6.979  0.2570 -0.3284  0.0110
 8832SOL    HW138132   0.588   4.131   7.057  0.1058 -1.3318  0.6997
 8832SOL    HW238133   0.478   4.055   7.015  0.7960  0.2454  1.7079
 8833SOL     OW38134   1.554   3.751   2.345 -0.0241 -0.5910 -0.1511
 8833SOL    HW138135   1.577   3.830   2.297  1.2744 -0.1578  1.1681
 8833SOL    HW238136   1.458   3.753   2.340  0.1083  0.8771 -1.9130
 8834SOL     OW38137   3.142   2.930   1.623 -0.2512 -0.2440  0.0847
 8834SOL    HW138138   3.214   2.924   1.686 -0.0523  0.6865 -0.0522
 8834SOL    HW238139   3.092   3.005   1.655 -0.8451  0.1662 -1.7994
 8835SOL     OW38140   2.291   4.431   6.403 -0.1248 -0.0305  0.4004
 8835SOL    HW138141   2.223   4.494   6.427  0.6100  0.6560  0.6623
 8835SOL    HW238142   2.364   4.491   6.390 -1.2864  1.1046 -0.9045
 8836SOL     OW38143   3.041   2.016   5.663  0.0819 -0.0400  0.1373
 8836SOL    HW138144   3.000   2.055   5.585 -0.4152 -2.7774 -0.9937
 8836SOL    HW238145   3.026   1.923   5.648  2.2340 -0.0905 -1.5395
 8837SOL     OW38146   0.983   2.792   5.323 -0.4372 -0.1561  0.5025
 8837SOL    HW138147   0.948   2.847   5.394 -1.6613  0.1308 -0.3369
 8837SOL    HW238148   0.908   2.739   5.298 -0.4336 -0.1665  0.5135
 8838SOL     OW38149   1.860   4.118   2.799 -0.5734 -0.2260  0.0086
 8838SOL    HW138150   1.948   4.101   2.766 -0.4530 -2.6239  1.5892
 8838SOL    HW238151   1.871   4.108   2.893  0.3948  1.7034  0.0960
 8839SOL     OW38152   0.215   3.148   8.882 -0.5466  0.7004  0.5028
 8839SOL    HW138153   0.121   3.133   8.898 -0.2578 -2.0336 -0.4000
 8839SOL    HW238154   0.244   3.198   8.958 -2.2508  0.7455  1.1422
 8840SOL     OW38155   3.940   2.087   7.954 -0.0365  0.3536  0.0709
 8840SOL    HW138156   3.882   2.021   7.915 -2.2829  2.4260 -0.0805
 8840SOL    HW238157   3.940   2.156   7.887  0.1179 -0.9817 -1.3110
 8841SOL     OW38158   1.474   1.404  12.842 -0.0881  0.1434  0.2769
 8841SOL    HW138159   1.452   1.389  12.749 -1.0510 -0.4095  0.5917
 8841SOL    HW238160   1.561   1.442  12.838  0.3412 -0.9183 -0.4668
 8842SOL     OW38161   1.730   2.410   8.695 -0.2012 -0.0458  0.2604
 8842SOL    HW138162   1.712   2.501   8.674  1.8354  0.4210  0.4772
 8842SOL    HW238163   1.810   2.422   8.747  0.3480 -0.5597 -0.4601
 8843SOL     OW38164   3.929   3.770  15.307  0.1135  0.3245  0.1068
 8843SOL    HW138165   3.853   3.724  15.270 -0.4026  1.7230 -0.5596
 8843SOL    HW238166   3.970   3.811  15.231 -1.1579 -0.4970 -1.0356
 8844SOL     OW38167   2.145   0.048   9.138 -0.0661  0.3412 -0.0444
 8844SOL    HW138168   2.057   0.086   9.138 -0.3522 -0.3292 -1.3769
 8844SOL    HW238169   2.190   0.123   9.178  1.1790 -0.9460  0.9772
 8845SOL     OW38170   1.089   3.057  11.546 -0.3971 -0.7614 -0.0908
 8845SOL    HW138171   1.060   2.970  11.573 -1.5703 -0.8900 -1.7564
 8845SOL    HW238172   1.137   3.087  11.624  0.4317 -0.4009 -0.7420
 8846SOL     OW38173   3.621   1.877  16.817 -0.2231 -0.9530 -0.1953
 8846SOL    HW138174   3.605   1.816  16.745  1.1471 -1.1307 -0.3395
 8846SOL    HW238175   3.587   1.955  16.772 -0.9436 -2.0877 -1.6088
 8847SOL     OW38176   3.948   0.403   8.578  0.3413 -0.9013  0.0685
 8847SOL    HW138177   3.903   0.331   8.622 -1.2599  0.3922  0.5717
 8847SOL    HW238178   3.886   0.476   8.565  3.1278  1.5870  0.8120
 8848SOL     OW38179   1.218   4.467   7.933 -0.1616  0.1474  0.4029
 8848SOL    HW138180   1.239   4.534   7.869 -2.3673 -0.8789 -1.4273
 8848SOL    HW238181   1.131   4.492   7.966 -0.9315 -0.8522 -0.8360
 8849SOL     OW38182   3.605   0.071  14.298 -0.7529  0.2605 -0.1099
 8849SOL    HW138183   3.695   0.092  14.270 -0.6999  1.6430  1.0577
 8849SOL    HW238184   3.617   0.062  14.392 -1.6280 -1.2258 -0.1604
 8850SOL     OW38185   0.985   3.678   7.920  0.3159  0.3775  0.4560
 8850SOL    HW138186   0.969   3.765   7.883 -0.4466  0.4607  0.9751
 8850SOL    HW238187   0.993   3.625   7.841  0.2298 -0.1235  0.7821
 8851SOL     OW38188   4.433   3.087   6.209  0.1155 -0.2971  0.6553
 8851SOL    HW138189   4.514   3.138   6.212  0.6137 -1.0156 -0.8166
 8851SOL    HW238190   4.449   3.001   6.248  1.9199 -0.7140 -1.0228
 8852SOL     OW38191   0.015   1.742   3.695  0.3706 -0.2436  0.1479
 8852SOL    HW138192   0.027   1.806   3.766 -1.1439  1.4821 -1.1536
 8852SOL    HW238193   4.680   1.691   3.735 -0.1908  0.7329  0.3957
 8853SOL     OW38194   3.774   1.626   8.411 -0.1835  0.0268  0.4902
 8853SOL    HW138195   3.739   1.597   8.327 -0.8846 -1.7935  1.4079
 8853SOL    HW238196   3.802   1.716   8.399 -1.1127  0.6822  3.1237
 8854SOL     OW38197   2.109   3.863  13.200  0.5088  0.2973 -0.7876
 8854SOL    HW138198   2.183   3.859  13.261 -2.2207  2.1194  2.6491
 8854SOL    HW238199   2.080   3.954  13.202 -1.1263 -0.2048 -2.0246
 8855SOL     OW38200   1.094   1.696  10.333 -0.4900 -0.4653 -0.3145
 8855SOL    HW138201   1.152   1.687  10.408 -1.4006  0.1443  0.4745
 8855SOL    HW238202   1.087   1.602  10.320  0.0594 -0.4022 -1.0507
 8856SOL     OW38203   3.884   3.704   6.225  0.2204  0.0169 -0.4063
 8856SOL    HW138204   3.881   3.779   6.165  1.7673  0.9110  0.6495
 8856SOL    HW238205   3.827   3.644   6.176  1.9501 -0.8319 -1.3818
 8857SOL     OW38206   1.785   0.933   2.815  0.2158 -0.2168 -0.0037
 8857SOL    HW138207   1.854   0.883   2.772 -0.0436  0.0185 -0.6931
 8857SOL    HW238208   1.759   0.986   2.740 -0.1284  1.1042  1.0460
 8858SOL     OW38209   0.680   2.934   8.077  0.3621 -0.1235 -0.2033
 8858SOL    HW138210   0.744   2.997   8.111 -0.1145 -0.5505  1.4820
 8858SOL    HW238211   0.644   2.975   7.998  0.8907  0.9018  0.0926
 8859SOL     OW38212   1.410   3.234   8.479  0.1671  0.0530 -0.2202
 8859SOL    HW138213   1.358   3.267   8.406  1.2537  1.2125 -0.4721
 8859SOL    HW238214   1.420   3.314   8.531 -1.8094 -1.1353  2.0252
 8860SOL     OW38215   2.116   2.453   1.268 -0.1580  0.2639  0.1021
 8860SOL    HW138216   2.155   2.444   1.355 -0.8270  1.7638  0.5768
 8860SOL    HW238217   2.153   2.537   1.240  0.2241  0.1354  0.2332
 8861SOL     OW38218   2.826   2.170  14.331 -0.0112  0.0456  0.0190
 8861SOL    HW138219   2.840   2.265  14.329  0.7866 -0.0567  0.7512
 8861SOL    HW238220   2.906   2.142  14.286 -0.9387 -0.1512 -1.5121
 8862SOL     OW38221   2.129   2.435   1.790  0.3146 -0.3230  0.4217
 8862SOL    HW138222   2.099   2.526   1.799 -1.1097 -0.6492 -1.0958
 8862SOL    HW238223   2.114   2.399   1.877  1.9392 -1.4567  0.2455
 8863SOL     OW38224   2.973   0.953   2.235 -0.3865 -0.2898  0.3074
 8863SOL    HW138225   3.037   1.022   2.252 -0.9632  0.2438  0.3122
 8863SOL    HW238226   2.938   0.983   2.151 -3.1901  2.5482  2.4660
 8864SOL     OW38227   2.641   2.545   4.584  0.0392  0.1101 -0.1985
 8864SOL    HW138228   2.623   2.451   4.577 -1.3425  0.2439  1.4438
 8864SOL    HW238229   2.697   2.549   4.662  0.2726 -0.2571 -0.3490
 8865SOL     OW38230   3.162   0.883   0.689  0.3421  0.0857 -0.7664
 8865SOL    HW138231   3.184   0.947   0.621 -0.2347 -1.3693 -2.3322
 8865SOL    HW238232   3.101   0.817   0.657 -0.2698 -0.7525  2.1586
 8866SOL     OW38233   3.705   1.485   6.820  0.3843  0.3103 -0.3146
 8866SOL    HW138234   3.794   1.478   6.784 -0.1960 -1.6810 -1.3704
 8866SOL    HW238235   3.701   1.415   6.885  0.4548  1.5583  1.0330
 8867SOL     OW38236   2.923   4.440  16.642  0.1984  0.0648 -0.2370
 8867SOL    HW138237   2.861   4.513  16.646  0.8133  0.5883 -0.2289
 8867SOL    HW238238   2.954   4.447  16.732 -1.0360  1.7331  0.0550
 8868SOL     OW38239   4.048   0.820  11.512 -0.0967  0.3869  0.1668
 8868SOL    HW138240   3.974   0.774  11.553  1.5667 -0.9996  1.6254
 8868SOL    HW238241   4.027   0.797  11.422 -1.0120  0.2665  0.4067
 8869SOL     OW38242   2.988   2.322   8.165  0.4045  0.4006  0.5658
 8869SOL    HW138243   3.009   2.316   8.258  0.8999  3.2304  0.6263
 8869SOL    HW238244   3.065   2.275   8.133 -1.7150 -2.3425 -0.4905
 8870SOL     OW38245   4.618   2.094   7.880  0.2995 -0.9265  0.4273
 8870SOL    HW138246   4.677   2.068   7.950 -0.0835 -1.9727  0.3645
 8870SOL    HW238247   4.625   2.017   7.823 -0.3038  0.2046 -1.1603
 8871SOL     OW38248   1.373   4.256   5.583 -0.1137 -0.7619  0.3650
 8871SOL    HW138249   1.405   4.187   5.641 -2.3013 -1.8864  0.2464
 8871SOL    HW238250   1.327   4.319   5.638 -1.4718 -1.2533 -0.2049
 8872SOL     OW38251   2.059   2.866   2.756  0.1672 -0.7099  0.1914
 8872SOL    HW138252   2.148   2.833   2.745  0.0405 -0.4190 -1.5800
 8872SOL    HW238253   2.045   2.829   2.844  0.0229 -0.0984  0.4250
 8873SOL     OW38254   0.544   0.223  16.952  0.4303 -0.4030  0.6226
 8873SOL    HW138255   0.579   0.302  16.912  1.6753 -0.6665  1.1952
 8873SOL    HW238256   0.505   0.258  17.032 -0.0098 -1.1799  0.7540
 8874SOL     OW38257   1.373   2.947   6.573  0.0925  0.1143  0.2486
 8874SOL    HW138258   1.315   2.903   6.511 -1.9660  3.0669  0.0770
 8874SOL    HW238259   1.432   2.872   6.578 -0.6269 -0.5519 -1.2151
 8875SOL     OW38260   2.522   2.011  17.253  0.2707  0.3490  0.1081
 8875SOL    HW138261   2.613   1.984  17.241  0.8158  1.5209  1.5690
 8875SOL    HW238262   2.483   1.952  17.189 -0.7197 -0.3800  1.4047
 8876SOL     OW38263   2.708   1.395   9.377 -0.0796  0.4855 -0.6864
 8876SOL    HW138264   2.671   1.413   9.291 -0.0015  2.1106 -0.3733
 8876SOL    HW238265   2.681   1.304   9.364  1.2654  0.2554 -1.9315
 8877SOL     OW38266   0.757   1.782   2.545 -0.2362  0.5322 -0.2715
 8877SOL    HW138267   0.746   1.814   2.456  0.7902  3.1963  0.5450
 8877SOL    HW238268   0.664   1.772   2.565  0.3481  0.2351  2.2926
 8878SOL     OW38269   4.706   2.248  15.253  0.1465 -0.2319 -0.0035
 8878SOL    HW138270   0.049   2.301  15.261  0.2632 -0.2832 -0.8330
 8878SOL    HW238271   4.667   2.251  15.340 -0.4635  0.2532 -0.2962
 8879SOL     OW38272   3.829   4.488   5.738 -0.5684 -0.0054 -0.2647
 8879SOL    HW138273   3.779   4.423   5.787 -2.6577  0.5051 -1.7060
 8879SOL    HW238274   3.793   4.492   5.650 -0.4093  0.7248 -0.2950
 8880SOL     OW38275   0.271   0.447   2.083 -0.0324  0.1240 -0.7994
 8880SOL    HW138276   0.214   0.504   2.136  1.9808  1.8047 -0.4555
 8880SOL    HW238277   0.325   0.515   2.045 -0.4398 -0.1320 -1.8213
 8881SOL     OW38278   0.839   3.906   2.785 -0.9329 -0.5614  0.0634
 8881SOL    HW138279   0.824   3.957   2.864  0.0366 -1.7566  1.0132
 8881SOL    HW238280   0.934   3.915   2.774 -0.7493 -1.1926  1.2272
 8882SOL     OW38281   0.315   2.173  14.348 -0.1828 -0.4034 -0.2128
 8882SOL    HW138282   0.303   2.196  14.440 -1.5504  0.4563 -0.5960
 8882SOL    HW238283   0.307   2.265  14.322 -0.7907  0.4392  2.9268
 8883SOL     OW38284   0.954   1.426   1.420 -0.0515  0.2581 -0.1125
 8883SOL    HW138285   0.935   1.504   1.472  0.5767  0.8569 -0.7693
 8883SOL    HW238286   0.864   1.408   1.394 -0.1401  1.8638 -0.9592
 8884SOL     OW38287   0.586   3.816   8.651 -0.5629  0.6393 -0.2543
 8884SOL    HW138288   0.581   3.731   8.694 -3.0706 -0.1927 -2.2352
 8884SOL    HW238289   0.505   3.825   8.602 -0.6295  0.0594 -0.2468
 8885SOL     OW38290   2.217   3.622   2.169 -0.1807 -0.3637 -0.0087
 8885SOL    HW138291   2.310   3.607   2.155  0.0756 -0.8903  2.1563
 8885SOL    HW238292   2.225   3.675   2.249 -1.5013 -0.8772  0.4760
 8886SOL     OW38293   0.928   4.162   3.496 -0.1118 -0.2751 -0.7644
 8886SOL    HW138294   0.959   4.251   3.512 -0.6046 -0.3105  0.3942
 8886SOL    HW238295   0.836   4.175   3.518  0.3168  1.1269  0.2106
 8887SOL     OW38296   0.992   4.639   3.475  0.2156 -0.0217 -0.5927
 8887SOL    HW138297   1.020   4.709   3.534  1.0109  0.7081 -1.8314
 8887SOL    HW238298   0.936   4.588   3.535  3.1867  0.4944  2.6242
 8888SOL     OW38299   2.767   4.293  14.894 -0.2285 -0.2109  0.2043
 8888SOL    HW138300   2.782   4.236  14.969 -0.9369 -0.8435 -0.1335
 8888SOL    HW238301   2.716   4.357  14.944  0.3788 -1.7682  2.8338
 8889SOL     OW38302   0.049   0.645   5.352  0.1064  0.1614 -0.0375
 8889SOL    HW138303   0.108   0.682   5.417  1.2331 -1.2603 -0.2433
 8889SOL    HW238304   0.071   0.704   5.280  1.6124  1.5130  1.5322
 8890SOL     OW38305   1.198   0.695  14.094  0.1921  0.2111  0.4704
 8890SOL    HW138306   1.285   0.734  14.101  0.8386 -1.5016  1.9087
 8890SOL    HW238307   1.172   0.702  14.186 -1.5887  2.3617 -0.1967
 8891SOL     OW38308   0.700   0.612  16.699 -0.1861 -0.4083 -0.3382
 8891SOL    HW138309   0.627   0.551  16.688 -1.2278  0.9452 -0.9462
 8891SOL    HW238310   0.762   0.558  16.748  0.0948 -0.1111 -0.3670
 8892SOL     OW38311   3.694   2.084   1.366  0.1071  0.3314 -0.2976
 8892SOL    HW138312   3.634   2.023   1.324  0.4154  0.3119 -0.7092
 8892SOL    HW238313   3.776   2.044   1.336  0.2994 -0.7367  1.6841
 8893SOL     OW38314   0.094   4.476  11.749 -0.3966  0.1983  0.3175
 8893SOL    HW138315   0.007   4.495  11.784  0.3923 -0.3421  2.6001
 8893SOL    HW238316   0.082   4.526  11.669 -0.0707  1.3986  1.0173
 8894SOL     OW38317   2.784   3.632  13.687  0.4827 -0.7445  0.2773
 8894SOL    HW138318   2.710   3.654  13.743 -0.0589 -2.9201  0.4032
 8894SOL    HW238319   2.824   3.562  13.739 -1.0603 -1.3748  0.6035
 8895SOL     OW38320   3.432   0.252   2.994  0.1206  0.0008 -0.4442
 8895SOL    HW138321   3.523   0.258   2.965  0.0875 -0.0829 -0.5693
 8895SOL    HW238322   3.392   0.306   2.925 -0.7149 -0.2822 -0.1834
 8896SOL     OW38323   2.499   0.527   6.491  0.0933 -0.0023  0.1482
 8896SOL    HW138324   2.406   0.527   6.512  0.3673 -3.0575  1.2364
 8896SOL    HW238325   2.527   0.439   6.516 -2.2915 -0.8671 -0.1997
 8897SOL     OW38326   4.046   4.506   7.040 -0.0579  0.1832  0.0007
 8897SOL    HW138327   4.041   4.575   6.973  0.6532  0.3621  0.1382
 8897SOL    HW238328   4.127   4.462   7.014 -0.3475 -0.4411  0.1704
 8898SOL     OW38329   2.654   0.423   2.632 -0.0759 -0.6305 -0.0525
 8898SOL    HW138330   2.708   0.383   2.564  1.0031  0.7098  0.0177
 8898SOL    HW238331   2.668   0.364   2.706  0.2118 -1.1916 -0.5563
 8899SOL     OW38332   1.639   0.591  16.306  0.0478  0.0133 -0.7170
 8899SOL    HW138333   1.561   0.598  16.361  0.1180  0.2366 -0.6436
 8899SOL    HW238334   1.608   0.562  16.221 -0.9612 -0.1219 -0.3030
 8900SOL     OW38335   4.461   1.938   5.036  0.3974 -0.0578 -0.5449
 8900SOL    HW138336   4.525   1.870   5.013 -0.9192 -1.6276  0.3788
 8900SOL    HW238337   4.431   1.974   4.953 -1.3235 -2.0244 -0.7708
 8901SOL     OW38338   0.292   0.328   1.678  0.3890 -1.0215  0.6367
 8901SOL    HW138339   0.379   0.323   1.718  0.9260 -0.9569 -0.5328
 8901SOL    HW238340   0.307   0.404   1.623 -4.2217 -0.3769  0.2277
 8902SOL     OW38341   1.305   0.906  12.243  0.2088  0.0449  0.5184
 8902SOL    HW138342   1.328   0.827  12.293 -0.6216 -0.2333  0.4590
 8902SOL    HW238343   1.256   0.954  12.309 -1.6029  0.6153 -1.2341
 8903SOL     OW38344   2.745   4.288   0.243 -0.0250  0.1855  0.5280
 8903SOL    HW138345   2.837   4.283   0.220 -0.6986 -1.5146 -1.8562
 8903SOL    HW238346   2.704   4.294   0.156 -1.5416 -1.1219  1.1600
 8904SOL     OW38347   0.598   2.520   6.983  0.0920 -0.1765  0.0250
 8904SOL    HW138348   0.631   2.513   7.072  1.1792 -0.5618 -0.4108
 8904SOL    HW238349   0.651   2.450   6.946 -0.1780  0.5043 -1.6552
 8905SOL     OW38350   1.041   0.302  12.632 -0.1450  0.5006  0.2770
 8905SOL    HW138351   1.117   0.268  12.680  0.6034 -1.5611 -2.3557
 8905SOL    HW238352   0.996   0.344  12.705 -0.7959  2.0193 -1.0007
 8906SOL     OW38353   2.476   2.941  16.675 -0.1969 -0.0774  0.8805
 8906SOL    HW138354   2.509   2.892  16.600 -0.2876  1.4055 -0.1238
 8906SOL    HW238355   2.443   3.022  16.635 -2.6613 -1.5605 -0.0114
 8907SOL     OW38356   3.998   3.203  10.446  0.7204 -0.2081  0.6454
 8907SOL    HW138357   3.933   3.167  10.507  0.2703  1.2170  0.9933
 8907SOL    HW238358   3.954   3.208  10.362  2.7157 -0.9615 -0.4419
 8908SOL     OW38359   4.517   2.344  11.675  0.1157  0.3017  0.6179
 8908SOL    HW138360   4.505   2.257  11.636 -1.2646  0.5099  0.5738
 8908SOL    HW238361   4.599   2.365  11.630  0.3027 -1.3831  0.1680
 8909SOL     OW38362   1.854   2.536   4.977 -0.0035 -0.4335  0.0516
 8909SOL    HW138363   1.800   2.577   5.044 -0.4052  0.9023 -1.0707
 8909SOL    HW238364   1.929   2.528   5.035 -0.3881 -1.2156  0.4329
 8910SOL     OW38365   1.247   0.955   4.236  0.4528 -0.2767  0.2827
 8910SOL    HW138366   1.160   0.917   4.250  0.1168  0.8754  1.4107
 8910SOL    HW238367   1.306   0.883   4.256 -1.1546 -1.6694 -0.0163
 8911SOL     OW38368   3.978   1.488  11.004  0.1128 -0.5605 -0.6262
 8911SOL    HW138369   4.050   1.545  10.975 -1.0281 -0.3437 -3.0848
 8911SOL    HW238370   4.023   1.404  11.009  0.0192 -0.5409  0.5959
 8912SOL     OW38371   1.340   3.267  12.566  0.1774  0.7604 -0.5149
 8912SOL    HW138372   1.261   3.242  12.613 -1.4279  2.0936 -2.5466
 8912SOL    HW238373   1.373   3.184  12.531 -1.2573  0.0115 -0.0973
 8913SOL     OW38374   4.176   4.656   3.488 -0.6309 -0.1783  0.5936
 8913SOL    HW138375   4.113   4.623   3.553  0.5682  0.0958  1.8941
 8913SOL    HW238376   4.239   4.701   3.543 -0.3792  2.2466 -1.6811
 8914SOL     OW38377   4.031   4.163  16.889  0.6300 -0.4007 -0.3988
 8914SOL    HW138378   4.036   4.247  16.845 -0.4247 -0.4030 -0.5079
 8914SOL    HW238379   3.945   4.163  16.930  1.2109 -2.9954  0.8920
 8915SOL     OW38380   0.367   4.400   2.420  0.5524  0.3229 -0.3437
 8915SOL    HW138381   0.337   4.376   2.332 -0.2895 -0.7152  0.2336
 8915SOL    HW238382   0.330   4.487   2.436 -0.7473 -0.4721  0.9393
 8916SOL     OW38383   2.299   4.627   3.237 -0.2675 -0.7312  0.0623
 8916SOL    HW138384   2.361   4.620   3.309 -0.2100 -1.2884 -0.0426
 8916SOL    HW238385   2.349   4.581   3.170 -0.6509 -1.9580  0.6217
 8917SOL     OW38386   4.027   3.551   4.132  0.2152 -0.4366  0.2711
 8917SOL    HW138387   3.999   3.641   4.145 -2.0773 -0.8574 -1.7300
 8917SOL    HW238388   4.116   3.553   4.167  0.2634 -0.4353  0.1520
 8918SOL     OW38389   2.098   3.246   3.933 -0.4231 -0.2019  0.0372
 8918SOL    HW138390   2.029   3.179   3.928 -0.7333  0.1456 -0.3540
 8918SOL    HW238391   2.181   3.203   3.913 -0.0277 -0.3570  1.9995
 8919SOL     OW38392   2.648   2.885  10.508 -0.0892  0.0467 -0.2900
 8919SOL    HW138393   2.691   2.926  10.433 -1.2568 -0.9366 -1.4826
 8919SOL    HW238394   2.608   2.961  10.550 -0.2124  0.7379 -1.6446
 8920SOL     OW38395   4.589   0.750  15.164  0.4467 -0.3729 -0.1476
 8920SOL    HW138396   4.632   0.665  15.174 -0.2869 -0.7616 -0.3499
 8920SOL    HW238397   4.590   0.755  15.069 -0.2684 -1.4363 -0.2167
 8921SOL     OW38398   0.944   2.346  12.130 -0.1659 -0.0863  0.3370
 8921SOL    HW138399   0.865   2.338  12.076 -1.2113  1.4558  1.6206
 8921SOL    HW238400   0.962   2.252  12.136 -0.7234 -0.2597 -0.7163
 8922SOL     OW38401   0.912   4.153   5.175 -0.1178 -0.2942  0.4712
 8922SOL    HW138402   0.958   4.197   5.246  0.3056 -3.7822  2.3736
 8922SOL    HW238403   0.821   4.172   5.195 -0.1589  0.9250 -0.9116
 8923SOL     OW38404   1.824   0.098   2.821 -0.1553 -0.7321  0.6594
 8923SOL    HW138405   1.743   0.048   2.819 -1.9762  2.1848  1.2148
 8923SOL    HW238406   1.788   0.187   2.825 -0.3743 -0.7842 -0.1817
 8924SOL     OW38407   0.340   3.429   8.506 -0.3970  0.0504 -0.6518
 8924SOL    HW138408   0.284   3.363   8.465 -0.3821 -1.0428  1.1036
 8924SOL    HW238409   0.394   3.380   8.568 -0.4514 -0.7753 -1.2581
 8925SOL     OW38410   1.366   4.013  12.858 -0.9598  0.1219  0.0148
 8925SOL    HW138411   1.343   4.100  12.893 -0.6486  0.1301  0.1950
 8925SOL    HW238412   1.301   3.961  12.906 -0.3331  0.3280  1.1069
 8926SOL     OW38413   2.177   3.474   2.433 -0.0162 -0.2075 -0.5061
 8926SOL    HW138414   2.175   3.381   2.458  0.3909 -0.2080 -0.4735
 8926SOL    HW238415   2.104   3.485   2.494 -0.6213  0.8136 -1.4188
 8927SOL     OW38416   0.036   0.461   5.553 -0.2835 -0.2073 -0.5068
 8927SOL    HW138417   0.019   0.502   5.638  0.9209  0.8737 -0.7810
 8927SOL    HW238418   0.026   0.535   5.494 -2.6471 -0.2219 -0.1081
 8928SOL     OW38419   3.919   2.024   1.243 -0.0674 -0.0703  0.3191
 8928SOL    HW138420   3.970   2.104   1.230  0.4610 -0.4231  0.1928
 8928SOL    HW238421   3.989   1.963   1.266  0.6316  0.5365 -0.1929
 8929SOL     OW38422   1.789   3.700  12.329 -0.1376  0.5227 -0.7892
 8929SOL    HW138423   1.782   3.790  12.363 -1.2645 -1.0807  3.1429
 8929SOL    HW238424   1.832   3.656  12.402 -0.8281  0.8764 -0.1706
 8930SOL     OW38425   4.176   1.281   6.017  0.6377  0.1483 -0.0172
 8930SOL    HW138426   4.233   1.294   5.940  1.8293 -2.5346  0.4094
 8930SOL    HW238427   4.158   1.188   6.005 -0.5919  0.7561 -2.9629
 8931SOL     OW38428   1.127   1.139   0.560  0.5346 -0.1402  0.0176
 8931SOL    HW138429   1.043   1.184   0.554  0.4677 -0.0998  1.1856
 8931SOL    HW238430   1.125   1.070   0.627 -0.5182  0.4118  0.5502
 8932SOL     OW38431   3.719   0.290   1.883 -0.0486 -0.5805 -0.1676
 8932SOL    HW138432   3.777   0.252   1.817 -2.1178  0.8922 -2.8666
 8932SOL    HW238433   3.664   0.211   1.886  1.5186 -1.6757 -0.5418
 8933SOL     OW38434   1.049   2.270  17.307 -0.1278 -0.2842 -0.1523
 8933SOL    HW138435   0.965   2.305  17.336  1.3089  1.1661  2.2218
 8933SOL    HW238436   1.032   2.266  17.213  0.7454  2.1184 -0.4056
 8934SOL     OW38437   4.536   2.732  16.113 -0.1071 -0.5714 -0.4019
 8934SOL    HW138438   4.553   2.826  16.109 -1.5887 -0.1863  2.0993
 8934SOL    HW238439   4.619   2.705  16.151  0.5428  1.3423 -0.4500
 8935SOL     OW38440   1.695   1.997   5.637  0.8265 -0.1822  0.3804
 8935SOL    HW138441   1.650   2.072   5.598 -0.8735 -1.3555  0.0790
 8935SOL    HW238442   1.741   1.955   5.564  1.5676 -0.3663  0.9444
 8936SOL     OW38443   4.623   0.899   3.506 -0.1883 -0.1053 -0.5227
 8936SOL    HW138444   4.716   0.886   3.486 -0.1318  0.1083 -0.4074
 8936SOL    HW238445   4.610   0.985   3.465  0.5573  0.1790 -0.1627
 8937SOL     OW38446   1.324   2.131   5.740  0.0015  0.1361  0.0920
 8937SOL    HW138447   1.274   2.173   5.669  1.9716  2.3263  0.0108
 8937SOL    HW238448   1.325   2.038   5.714 -0.3969  0.5975 -1.5649
 8938SOL     OW38449   2.996   0.954   4.216 -0.3105 -0.2626 -0.0669
 8938SOL    HW138450   3.069   0.955   4.154 -0.9083 -0.3941 -0.7680
 8938SOL    HW238451   3.047   0.979   4.293  0.4906  1.1004 -1.0468
 8939SOL     OW38452   4.624   2.218   3.582 -0.5341  0.3573  0.2354
 8939SOL    HW138453   4.618   2.309   3.612 -0.8942  0.4268 -0.0440
 8939SOL    HW238454   4.698   2.187   3.635 -0.7476  0.5212  0.6337
 8940SOL     OW38455   0.204   3.492   6.447 -0.7173 -0.3753  0.1926
 8940SOL    HW138456   0.174   3.415   6.399  2.6411 -0.7967 -1.2330
 8940SOL    HW238457   0.127   3.547   6.438 -2.3369 -2.3547  1.8385
 8941SOL     OW38458   2.954   1.848   5.290  0.3441  0.5317  0.0712
 8941SOL    HW138459   2.978   1.837   5.198 -0.7862 -1.5869  0.0356
 8941SOL    HW238460   3.041   1.842   5.330  0.2018 -2.0271  0.0017
 8942SOL     OW38461   4.344   4.732   7.604  0.0616 -0.3573  0.2300
 8942SOL    HW138462   4.404   0.034   7.667 -0.4172  1.4569 -0.4343
 8942SOL    HW238463   4.349   4.640   7.633 -0.1641 -0.7503 -0.9712
 8943SOL     OW38464   2.031   2.642   1.641  1.0213 -0.0001  0.1398
 8943SOL    HW138465   2.073   2.615   1.559  1.3302 -0.3632  0.4141
 8943SOL    HW238466   2.042   2.737   1.639 -1.8608  0.3740  2.2759
 8944SOL     OW38467   1.600   2.518   6.363  0.0501 -0.3907  0.0967
 8944SOL    HW138468   1.579   2.490   6.274  4.1319 -1.5786 -0.4776
 8944SOL    HW238469   1.694   2.500   6.367 -0.1617 -0.7466  3.2186
 8945SOL     OW38470   4.447   2.638   2.936 -0.1682 -0.1686  0.1771
 8945SOL    HW138471   4.515   2.572   2.952  0.2995  0.2912  0.1165
 8945SOL    HW238472   4.478   2.683   2.857  0.2532 -0.0414  0.4145
 8946SOL     OW38473   2.742   1.148   7.453 -0.5818 -0.3016 -0.3771
 8946SOL    HW138474   2.783   1.097   7.523 -0.3402 -0.9695 -0.9996
 8946SOL    HW238475   2.806   1.215   7.426  1.2699 -1.6231  0.7275
 8947SOL     OW38476   3.377   0.391   7.771 -0.6660 -0.1849 -0.4942
 8947SOL    HW138477   3.352   0.374   7.680 -1.1627  0.8199 -0.5457
 8947SOL    HW238478   3.292   0.394   7.814  1.2496 -0.6308  3.3067
 8948SOL     OW38479   4.125   4.355   2.380  0.8355 -1.0302 -0.4291
 8948SOL    HW138480   4.198   4.320   2.430  1.8854  1.2277 -0.4123
 8948SOL    HW238481   4.083   4.360   2.466  1.1580  2.2576 -0.4834
 8949SOL     OW38482   4.192   0.358   6.122 -0.0152 -0.3748 -0.3743
 8949SOL    HW138483   4.166   0.305   6.197  2.1335  0.4867  0.9957
 8949SOL    HW238484   4.192   0.442   6.166  1.8135  0.4654 -1.9612
 8950SOL     OW38485   4.589   0.619   8.448  0.4660  0.1339 -0.1522
 8950SOL    HW138486   4.602   0.681   8.376 -0.3789  1.9536  1.2595
 8950SOL    HW238487   4.501   0.585   8.430  1.4024 -1.3088 -1.9423
 8951SOL     OW38488   2.056   1.314   7.440  0.1289  0.1312  0.1967
 8951SOL    HW138489   1.962   1.330   7.431  0.0114  0.0409  1.2487
 8951SOL    HW238490   2.073   1.373   7.514  1.0150 -1.1828  1.0293
 8952SOL     OW38491   1.175   0.413   5.795  0.0127 -0.0389 -0.2497
 8952SOL    HW138492   1.100   0.432   5.739  0.0373 -1.9318 -0.9094
 8952SOL    HW238493   1.230   0.375   5.727  0.1884  1.3135 -0.8608
 8953SOL     OW38494   3.700   2.011   0.615 -0.1911  0.0486  0.5305
 8953SOL    HW138495   3.660   1.973   0.693  2.7526 -1.7289  1.1529
 8953SOL    HW238496   3.631   2.070   0.584  0.3389  1.0842  1.3066
 8954SOL     OW38497   0.678   2.389  12.004 -0.5496  0.4378  0.1160
 8954SOL    HW138498   0.602   2.447  12.013 -0.2343  1.2251 -2.3190
 8954SOL    HW238499   0.634   2.305  12.012 -0.1300  0.1048 -0.9853
 8955SOL     OW38500   1.659   4.315   4.658 -0.4630 -0.0826  0.0228
 8955SOL    HW138501   1.637   4.285   4.570 -0.0333  3.3220 -1.2745
 8955SOL    HW238502   1.625   4.240   4.707  1.8106 -1.1260 -0.0015
 8956SOL     OW38503   3.251   2.195   1.106 -0.0826  0.3397  0.6070
 8956SOL    HW138504   3.315   2.124   1.103  0.3858  0.8444 -1.2502
 8956SOL    HW238505   3.295   2.253   1.044 -1.8523  1.0196 -0.0049
 8957SOL     OW38506   2.300   2.627   8.792 -0.2796 -0.4832 -0.1828
 8957SOL    HW138507   2.299   2.543   8.746 -2.2523 -0.6411  0.1766
 8957SOL    HW238508   2.380   2.628   8.845  0.6044  0.9806 -1.5556
 8958SOL     OW38509   3.179   3.947   2.059  0.4138  0.6047  0.4413
 8958SOL    HW138510   3.086   3.965   2.049  0.4696 -0.1757 -1.5406
 8958SOL    HW238511   3.207   3.914   1.974 -1.5451 -1.2991  0.5531
 8959SOL     OW38512   2.248   2.306   0.383 -0.0673  0.3417  0.1392
 8959SOL    HW138513   2.327   2.319   0.331  0.4809  0.0397  0.8931
 8959SOL    HW238514   2.256   2.213   0.408  0.4958 -0.2422 -2.2130
 8960SOL     OW38515   3.055   1.264   6.180  0.0890 -0.3989  0.0220
 8960SOL    HW138516   3.035   1.217   6.261  1.1996 -0.6812  0.1306
 8960SOL    HW238517   3.150   1.256   6.184  0.1429  0.3494  0.1584
 8961SOL     OW38518   1.532   0.581   9.570 -0.0585  0.0642 -0.2098
 8961SOL    HW138519   1.501   0.654   9.517  2.9872 -0.2974 -2.5112
 8961SOL    HW238520   1.625   0.605   9.580  0.6605 -2.9030  0.2866
 8962SOL     OW38521   0.142   1.965   5.254  0.7375  0.2766  0.4653
 8962SOL    HW138522   0.051   1.993   5.258  0.6126  0.0670 -0.8959
 8962SOL    HW238523   0.184   2.009   5.328  0.0930  0.7474  0.5526
 8963SOL     OW38524   2.632   4.571   1.822  0.4129 -0.3058 -0.0818
 8963SOL    HW138525   2.564   4.545   1.760 -1.7093  0.8606  1.7122
 8963SOL    HW238526   2.572   4.630   1.869 -0.5925 -0.9254 -0.5877
 8964SOL     OW38527   0.581   4.625   6.064 -0.3763 -0.2827 -0.0359
 8964SOL    HW138528   0.490   4.608   6.086 -0.2741 -0.1598  0.4769
 8964SOL    HW238529   0.573   4.669   5.979  1.7768  3.0830  1.4972
 8965SOL     OW38530   1.751   1.281   3.265  0.4484  0.5699  0.0362
 8965SOL    HW138531   1.699   1.231   3.328 -0.5428  1.1520 -0.3199
 8965SOL    HW238532   1.802   1.211   3.224  0.4734  3.0752 -4.2492
 8966SOL     OW38533   4.088   1.992  10.554 -0.1891  0.4033 -0.2278
 8966SOL    HW138534   4.062   2.036  10.473 -1.9037 -0.9554 -0.4275
 8966SOL    HW238535   4.183   1.991  10.547 -0.1947 -2.0976 -0.1119
 8967SOL     OW38536   3.012   1.957  10.431  0.1973 -0.6329  0.0508
 8967SOL    HW138537   2.990   2.044  10.465  0.6182 -0.4898 -0.0400
 8967SOL    HW238538   3.036   1.902  10.506  4.2067  2.8661  1.3445
 8968SOL     OW38539   3.391   2.341   7.892  0.0050  0.0459 -0.0709
 8968SOL    HW138540   3.442   2.270   7.853 -1.1715  1.2710 -3.7838
 8968SOL    HW238541   3.310   2.342   7.840  0.1003 -0.6148 -0.2301
 8969SOL     OW38542   1.517   1.799   5.812  0.3330 -0.4124 -0.2153
 8969SOL    HW138543   1.437   1.849   5.832 -0.4211 -0.8299 -2.1922
 8969SOL    HW238544   1.532   1.833   5.724  1.8227 -0.3007  0.0861
 8970SOL     OW38545   4.340   2.475   4.029  0.3257  0.0910  0.0533
 8970SOL    HW138546   4.284   2.542   3.989  2.4298  1.3459 -0.7508
 8970SOL    HW238547   4.329   2.394   3.979 -2.4235  1.2157 -1.1763
 8971SOL     OW38548   1.200   2.046   6.038  0.1045 -0.0569  0.1019
 8971SOL    HW138549   1.195   2.070   5.946  1.6193 -0.7777 -0.1649
 8971SOL    HW238550   1.116   2.070   6.077  0.2227 -0.2653  0.4846
 8972SOL     OW38551   3.079   1.321   0.319 -0.6346  0.1238 -0.4617
 8972SOL    HW138552   3.090   1.403   0.271  1.4045 -1.8185 -3.3308
 8972SOL    HW238553   2.985   1.330   0.330 -0.1574  2.3522  1.7476
 8973SOL     OW38554   3.565   2.807  11.006  0.1001 -0.2008 -0.2636
 8973SOL    HW138555   3.510   2.877  10.972 -0.4159 -2.0841 -3.3224
 8973SOL    HW238556   3.511   2.728  11.002  0.3812 -0.3718 -0.6993
 8974SOL     OW38557   0.614   4.475   3.197  0.1935 -0.0340  0.3729
 8974SOL    HW138558   0.709   4.465   3.205  0.0273 -0.5082  1.6739
 8974SOL    HW238559   0.591   4.462   3.289  3.0236  0.2872  1.1461
 8975SOL     OW38560   2.673   0.878   8.004  0.3432  0.2155 -0.1639
 8975SOL    HW138561   2.675   0.785   7.981  0.9656 -0.1075  1.2160
 8975SOL    HW238562   2.707   0.875   8.093  1.2517  0.5495 -0.4930
 8976SOL     OW38563   3.740   1.011   4.375  0.0985  0.5630 -0.3007
 8976SOL    HW138564   3.781   1.065   4.443  0.6091  0.0483 -0.2017
 8976SOL    HW238565   3.796   0.934   4.380 -1.2799 -0.3483  0.7294
 8977SOL     OW38566   4.312   1.999   5.987  0.7530 -0.2127 -0.3015
 8977SOL    HW138567   4.375   2.023   6.055 -0.1768  2.5061 -0.3964
 8977SOL    HW238568   4.237   2.050   6.017  3.0681  3.4259 -0.6697
 8978SOL     OW38569   1.306   1.324   5.948 -0.1452 -0.2670 -0.5971
 8978SOL    HW138570   1.325   1.349   6.038 -0.4708 -0.5734 -0.4424
 8978SOL    HW238571   1.346   1.402   5.909 -0.1695  0.0814  0.0759
 8979SOL     OW38572   2.058   1.340  14.707 -0.1803 -0.4358  0.0515
 8979SOL    HW138573   2.083   1.252  14.677 -0.4089 -0.6315  0.4367
 8979SOL    HW238574   2.140   1.388  14.698  0.5862 -1.7527  0.0918
 8980SOL     OW38575   3.975   2.279   4.419 -0.4976  0.2512 -0.3308
 8980SOL    HW138576   3.986   2.188   4.448 -0.2960  0.3819  0.0032
 8980SOL    HW238577   3.886   2.279   4.385 -0.4731  1.7357 -0.3847
 8981SOL     OW38578   0.905   0.307   2.109 -0.1534  0.0396 -0.1480
 8981SOL    HW138579   0.938   0.309   2.019 -0.1043  2.2388 -0.0790
 8981SOL    HW238580   0.887   0.400   2.123  0.1943 -0.1332  1.4451
 8982SOL     OW38581   3.083   3.682   1.847  0.0297  0.1978  0.4413
 8982SOL    HW138582   3.173   3.671   1.879 -0.0035  2.5911  1.3535
 8982SOL    HW238583   3.025   3.675   1.923 -2.9378  0.2541 -1.8302
 8983SOL     OW38584   0.596   2.625   3.011  0.0301 -0.4483  0.0628
 8983SOL    HW138585   0.628   2.623   3.101  0.9408  0.4293 -0.2510
 8983SOL    HW238586   0.643   2.704   2.983  0.3026 -1.0600 -1.2141
 8984SOL     OW38587   4.544   0.364   4.146 -0.7128 -0.4642 -0.0475
 8984SOL    HW138588   4.459   0.332   4.115 -0.8429 -0.5929  0.4407
 8984SOL    HW238589   4.525   0.428   4.214  0.9490  0.6113 -0.5787
 8985SOL     OW38590   0.721   2.666   7.641  0.0620  0.6545 -0.6738
 8985SOL    HW138591   0.701   2.593   7.583 -0.6788 -0.5045  1.0393
 8985SOL    HW238592   0.722   2.628   7.729 -0.9511 -0.9466 -1.3622
 8986SOL     OW38593   2.005   1.221   7.003 -0.1399 -0.0581 -0.4181
 8986SOL    HW138594   2.095   1.207   6.974  0.0512 -2.1526  1.2130
 8986SOL    HW238595   2.009   1.175   7.086 -0.3456 -0.6770 -0.7494
 8987SOL     OW38596   4.151   3.453   3.474  0.2948  0.1883 -0.3438
 8987SOL    HW138597   4.178   3.454   3.382  1.5396  1.1527  0.0402
 8987SOL    HW238598   4.195   3.525   3.519 -1.9541  1.6580 -0.5035
 8988SOL     OW38599   4.053   0.664   1.568 -0.0639  0.0803 -0.8820
 8988SOL    HW138600   4.110   0.736   1.593  1.5242 -0.9553 -1.4493
 8988SOL    HW238601   4.113   0.589   1.575 -0.6699 -0.3751 -0.5973
 8989SOL     OW38602   0.331   3.165   0.928  0.4150 -0.8112 -0.2097
 8989SOL    HW138603   0.411   3.182   0.976 -0.4670  0.3909  0.8339
 8989SOL    HW238604   0.301   3.253   0.907  3.7065 -0.0433 -1.6042
 8990SOL     OW38605   2.862   2.984  10.356  0.3092 -0.8931 -0.2094
 8990SOL    HW138606   2.903   3.047  10.415 -3.8038 -0.7096  2.4337
 8990SOL    HW238607   2.877   3.020  10.268 -0.7666  2.4203  0.9434
 8991SOL     OW38608   0.989   3.235   2.790  0.1240 -0.6012 -0.0997
 8991SOL    HW138609   0.959   3.268   2.706 -1.1187 -1.1754  0.1251
 8991SOL    HW238610   0.968   3.144   2.772 -1.5394  0.1689 -1.9866
 8992SOL     OW38611   0.456   0.612  11.910 -0.3309  0.0590  0.3857
 8992SOL    HW138612   0.513   0.599  11.986 -0.7654  1.7383  0.9983
 8992SOL    HW238613   0.412   0.527  11.908 -0.1901 -0.0386  1.4609
 8993SOL     OW38614   2.432   3.256   5.214 -0.5169 -0.5191 -0.6488
 8993SOL    HW138615   2.433   3.183   5.275  0.1746  1.3292  1.5426
 8993SOL    HW238616   2.483   3.217   5.143  0.6927 -1.9860  1.0223
 8994SOL     OW38617   2.449   1.657   6.972 -0.4629 -0.1646  0.0037
 8994SOL    HW138618   2.412   1.715   7.037  1.4641  0.1808  0.8036
 8994SOL    HW238619   2.452   1.726   6.906 -0.8466  0.1923  0.3639
 8995SOL     OW38620   0.270   3.068  11.791 -0.0209 -0.2327  0.1513
 8995SOL    HW138621   0.269   3.054  11.696 -0.0195 -0.3884  0.1745
 8995SOL    HW238622   0.284   2.982  11.830 -1.0585 -0.2208  0.5528
 8996SOL     OW38623   0.843   1.515  14.443 -0.1856 -0.2084  0.3770
 8996SOL    HW138624   0.761   1.475  14.469  1.0025  0.1792  4.7604
 8996SOL    HW238625   0.814   1.556  14.362 -0.0528  2.6775  1.7993
 8997SOL     OW38626   0.387   1.814  12.148  0.3668  0.1909 -0.1103
 8997SOL    HW138627   0.347   1.895  12.179 -2.4816 -1.3659  0.2384
 8997SOL    HW238628   0.340   1.745  12.195  0.2175  1.7487  2.0212
 8998SOL     OW38629   0.970   2.444  13.655  0.2187 -0.5458 -0.2901
 8998SOL    HW138630   0.913   2.373  13.685 -1.4059  0.1150 -1.7846
 8998SOL    HW238631   0.947   2.438  13.562  1.1198 -3.8969 -0.2797
 8999SOL     OW38632   1.654   0.925  17.609 -0.0957 -0.7197 -0.7263
 8999SOL    HW138633   1.705   1.001  17.581 -0.3455  0.5660  2.3864
 8999SOL    HW238634   1.635   0.880  17.526 -1.7831 -1.1909 -0.0791
 9000SOL     OW38635   1.510   0.649   1.591 -0.2943  0.3870 -0.6910
 9000SOL    HW138636   1.502   0.742   1.570 -2.1351 -0.0647 -1.9751
 9000SOL    HW238637   1.574   0.621   1.526 -0.2136 -0.9700 -0.0086
 9001SOL     OW38638   4.439   0.530   1.185  0.2356 -0.6822 -0.0806
 9001SOL    HW138639   4.506   0.510   1.251  0.6409 -1.7263 -0.8062
 9001SOL    HW238640   4.486   0.515   1.103  3.1814  0.2968  1.4193
 9002SOL     OW38641   1.206   1.427  15.807  0.1777  0.2664 -0.2004
 9002SOL    HW138642   1.282   1.370  15.794 -0.2578 -0.8152  1.9074
 9002SOL    HW238643   1.144   1.361  15.839  0.8927 -0.0825  0.4835
 9003SOL     OW38644   3.712   1.191  13.511 -0.7281 -0.3398  0.0776
 9003SOL    HW138645   3.627   1.217  13.476 -0.2884  0.9884 -0.0035
 9003SOL    HW238646   3.765   1.271  13.506 -2.2955  0.6461 -0.8395
 9004SOL     OW38647   2.824   4.572   6.864 -0.3982 -0.0473  0.3469
 9004SOL    HW138648   2.742   4.551   6.907 -0.1117 -2.5738 -0.3593
 9004SOL    HW238649   2.831   4.498   6.804  2.7231 -0.6420  1.4297
 9005SOL     OW38650   3.709   3.165   2.782 -0.1215  0.2189  0.3675
 9005SOL    HW138651   3.727   3.078   2.816  1.4810  0.7065  0.7999
 9005SOL    HW238652   3.703   3.141   2.690  1.2337  3.2314 -0.5221
 9006SOL     OW38653   3.135   3.353  15.900 -0.0254  0.2579 -0.4981
 9006SOL    HW138654   3.157   3.364  15.807  1.1661 -1.3664 -0.4055
 9006SOL    HW238655   3.202   3.294  15.936 -0.9411 -0.6468 -0.2704
 9007SOL     OW38656   1.866   4.494  13.250 -0.0199  0.0672  0.0231
 9007SOL    HW138657   1.902   4.542  13.175  2.0342 -1.2815  0.1338
 9007SOL    HW238658   1.772   4.509  13.241 -0.0582 -1.9662 -2.9576
 9008SOL     OW38659   3.948   1.871   7.422  0.0256  0.3541  0.0985
 9008SOL    HW138660   3.963   1.777   7.433  2.9763  0.7891 -0.3386
 9008SOL    HW238661   4.031   1.900   7.386 -0.8857  2.9307  0.0970
 9009SOL     OW38662   1.797   4.264   2.068  0.3732 -0.1076  0.3591
 9009SOL    HW138663   1.755   4.310   2.141  1.4100  0.3051  0.6980
 9009SOL    HW238664   1.714   4.225   2.039  0.4069  1.5262 -1.9230
 9010SOL     OW38665   3.750   1.288   1.653  1.0003  0.2104  0.0179
 9010SOL    HW138666   3.844   1.271   1.665  0.8263 -1.9678 -1.6755
 9010SOL    HW238667   3.740   1.313   1.561  0.9963  1.2571  0.3044
 9011SOL     OW38668   2.480   1.380   3.545 -0.6202  0.0936 -0.0833
 9011SOL    HW138669   2.550   1.375   3.610 -1.3628  2.3715  0.9083
 9011SOL    HW238670   2.468   1.475   3.545  0.7629  0.3033  4.5119
 9012SOL     OW38671   2.546   0.979  16.355  0.1226 -0.0115 -0.1232
 9012SOL    HW138672   2.639   0.975  16.374 -0.5599 -2.9565  2.8451
 9012SOL    HW238673   2.534   1.021  16.270  0.3222 -0.8217 -0.5502
 9013SOL     OW38674   2.448   2.473   7.280 -0.3216  0.6830  0.2528
 9013SOL    HW138675   2.443   2.407   7.349  1.2758 -0.8403 -1.0886
 9013SOL    HW238676   2.525   2.464   7.224  1.3228 -0.1882  2.6624
 9014SOL     OW38677   3.436   4.616   0.941  0.3501 -0.2144  0.1344
 9014SOL    HW138678   3.359   4.612   0.999  0.1796 -0.5834 -0.1135
 9014SOL    HW238679   3.412   4.685   0.879 -0.8815  0.0621  0.9013
 9015SOL     OW38680   2.444   2.589   1.384  0.1311 -0.1881 -0.4035
 9015SOL    HW138681   2.519   2.645   1.403 -0.0670 -0.0925  0.0994
 9015SOL    HW238682   2.397   2.581   1.467 -1.3724  1.9812 -1.0480
 9016SOL     OW38683   3.120   3.062   1.308 -0.1547 -0.0079 -0.3108
 9016SOL    HW138684   3.211   3.074   1.279  0.3419 -1.3163  0.6986
 9016SOL    HW238685   3.116   2.966   1.308  0.0516 -0.0196 -0.8108
 9017SOL     OW38686   1.432   0.075   4.200  0.1371  0.2597 -0.0986
 9017SOL    HW138687   1.347   0.029   4.199  1.0005 -1.3353  0.6159
 9017SOL    HW238688   1.455   0.062   4.108  0.1052 -0.4873 -0.0008
 9018SOL     OW38689   3.404   0.947  15.359 -0.1036  0.4228 -0.0332
 9018SOL    HW138690   3.498   0.931  15.363 -0.4263 -1.2240  0.8336
 9018SOL    HW238691   3.404   1.022  15.300  0.3332  1.1048  0.8320
 9019SOL     OW38692   3.300   1.274   3.166  0.0435  0.1887 -0.0635
 9019SOL    HW138693   3.286   1.269   3.261  1.7084  3.4103  0.3859
 9019SOL    HW238694   3.370   1.339   3.161  2.0540 -1.8196  2.0937
 9020SOL     OW38695   2.809   3.566   1.620  0.0826  0.0490  0.4566
 9020SOL    HW138696   2.754   3.509   1.566  1.9063  1.2251 -2.6718
 9020SOL    HW238697   2.747   3.633   1.646 -0.9075 -0.4578 -0.5879
 9021SOL     OW38698   4.139   1.720  13.735  0.0382  0.2307 -0.4415
 9021SOL    HW138699   4.144   1.655  13.805  0.0331 -0.3142 -0.9478
 9021SOL    HW238700   4.217   1.776  13.738 -0.2274  0.5791  0.1562
 9022SOL     OW38701   1.731   0.773  13.870  0.1149  0.0241 -0.8313
 9022SOL    HW138702   1.777   0.844  13.914 -0.0595  0.3844 -1.2280
 9022SOL    HW238703   1.785   0.762  13.791 -1.3891 -0.3191 -1.8173
 9023SOL     OW38704   4.310   2.919   3.354  0.5126 -0.0526 -0.7335
 9023SOL    HW138705   4.215   2.933   3.353  0.8801  2.6339  2.4111
 9023SOL    HW238706   4.333   2.935   3.446  0.9083 -2.3046 -0.4428
 9024SOL     OW38707   1.421   2.585   0.136 -0.1507  0.7826  0.2819
 9024SOL    HW138708   1.401   2.506   0.087  0.2411  0.0673  1.2937
 9024SOL    HW238709   1.333   2.620   0.150 -0.2302  1.3965 -1.6687
 9025SOL     OW38710   0.086   2.709  14.722 -0.0474 -0.2848 -0.5157
 9025SOL    HW138711   0.041   2.769  14.663 -1.2087  0.9648  1.6653
 9025SOL    HW238712   0.175   2.711  14.685 -0.7263  1.2700 -2.0358
 9026SOL     OW38713   0.251   2.312  16.907  0.4681  0.3356 -0.4792
 9026SOL    HW138714   0.222   2.386  16.960  0.4239  0.4873 -0.7147
 9026SOL    HW238715   0.174   2.255  16.901 -0.0936  1.0862 -0.3391
 9027SOL     OW38716   0.381   1.492   2.361 -0.2234  0.5210 -0.0123
 9027SOL    HW138717   0.404   1.432   2.432 -1.4678 -1.0489 -0.9265
 9027SOL    HW238718   0.447   1.558   2.381  0.8388 -1.0884  1.7533
 9028SOL     OW38719   3.454   1.883   6.182 -0.2131  0.0653 -0.3597
 9028SOL    HW138720   3.469   1.890   6.088 -1.2830 -0.3776 -0.5532
 9028SOL    HW238721   3.374   1.934   6.189  0.1754  0.4824  1.0150
 9029SOL     OW38722   4.221   2.109  12.042 -1.0055 -0.3861  0.0261
 9029SOL    HW138723   4.219   2.159  12.123  2.0148  0.3784 -0.3532
 9029SOL    HW238724   4.177   2.167  11.979 -0.2953 -1.9178 -1.9024
 9030SOL     OW38725   3.497   3.296   5.208  0.2180 -0.3587 -0.2971
 9030SOL    HW138726   3.472   3.363   5.272 -0.0262  0.2536 -1.0332
 9030SOL    HW238727   3.592   3.305   5.202  0.1081  0.1639 -1.1661
 9031SOL     OW38728   4.376   2.414  15.268 -0.1149 -0.1048  0.7886
 9031SOL    HW138729   4.338   2.331  15.297 -2.8205  0.7241 -0.3326
 9031SOL    HW238730   4.315   2.435  15.197 -0.6069 -1.6204  0.7728
 9032SOL     OW38731   1.116   2.965   3.134 -0.0293  0.0021 -0.0066
 9032SOL    HW138732   1.126   2.929   3.045  0.7606  0.6873 -0.1874
 9032SOL    HW238733   1.021   2.978   3.136  0.3571  2.8450 -1.4792
 9033SOL     OW38734   2.574   0.685   2.631  0.3797  0.1890 -0.2262
 9033SOL    HW138735   2.608   0.598   2.612 -1.0848 -0.9433  2.2989
 9033SOL    HW238736   2.503   0.675   2.694  0.8913 -0.7813  0.1897
 9034SOL     OW38737   1.152   0.990   7.005 -0.0769  0.1748 -0.0151
 9034SOL    HW138738   1.218   1.050   7.040  1.8428 -2.1189  0.3117
 9034SOL    HW238739   1.199   0.913   6.973 -0.3287  0.7117 -1.6831
 9035SOL     OW38740   1.756   0.111   5.640 -0.5145 -0.3156  0.2543
 9035SOL    HW138741   1.671   0.149   5.621 -0.6717 -0.6971  0.1931
 9035SOL    HW238742   1.787   0.115   5.549 -0.5899 -2.4665  0.1254
 9036SOL     OW38743   0.419   2.816  11.382  0.4821  0.2848  0.0475
 9036SOL    HW138744   0.466   2.856  11.309 -0.6014  0.1542 -0.7174
 9036SOL    HW238745   0.487   2.752  11.403  0.3850 -0.4922 -2.0205
 9037SOL     OW38746   4.215   2.377  11.580  0.1997 -0.3777 -0.0834
 9037SOL    HW138747   4.156   2.343  11.512 -0.5243  1.2090 -0.2423
 9037SOL    HW238748   4.274   2.438  11.536  0.5703  0.7259  1.9803
 9038SOL     OW38749   3.567   3.515  11.268  0.2292 -0.1116  0.5433
 9038SOL    HW138750   3.561   3.549  11.357 -2.3859  1.3375 -0.1964
 9038SOL    HW238751   3.566   3.421  11.287  1.6733 -0.1659  0.3097
 9039SOL     OW38752   2.113   3.156   7.987  0.2615 -0.1410 -0.0384
 9039SOL    HW138753   2.041   3.166   7.925  0.3114 -1.4850 -0.3143
 9039SOL    HW238754   2.135   3.063   7.981 -0.3258 -0.2907  0.1349
 9040SOL     OW38755   1.822   3.940  12.486 -0.0553 -0.1861 -0.9642
 9040SOL    HW138756   1.801   4.023  12.444  1.0841  0.9843  0.7974
 9040SOL    HW238757   1.842   3.970  12.574  0.2509  2.5105 -1.9296
 9041SOL     OW38758   2.142   4.692   4.821  0.3727  0.2492  0.5429
 9041SOL    HW138759   2.170   4.645   4.742 -1.1628  0.2727 -0.0282
 9041SOL    HW238760   2.141   4.630   4.893 -0.0916  1.0913  1.2581
 9042SOL     OW38761   2.168   0.271   1.384 -0.1927  0.2701  0.4878
 9042SOL    HW138762   2.247   0.222   1.362 -0.8958 -1.4684  1.7547
 9042SOL    HW238763   2.197   0.299   1.470  1.0783  1.7255 -0.4243
 9043SOL     OW38764   3.521   1.785   3.580 -0.2684  0.1874  0.1538
 9043SOL    HW138765   3.584   1.806   3.511  0.0845  1.9841  1.0110
 9043SOL    HW238766   3.542   1.846   3.651  1.7577 -0.7071  0.3162
 9044SOL     OW38767   1.929   1.209   7.959  0.2156 -0.7836  0.0710
 9044SOL    HW138768   1.879   1.289   7.944 -0.2555 -1.4739 -2.0303
 9044SOL    HW238769   1.978   1.235   8.037 -1.7812  0.0948  1.0422
 9045SOL     OW38770   4.024   2.927   8.910 -0.1318 -0.1808 -0.4536
 9045SOL    HW138771   4.075   2.872   8.850  0.2084 -0.0980 -0.2336
 9045SOL    HW238772   3.949   2.870   8.928 -1.9176  1.2395 -3.3144
 9046SOL     OW38773   4.021   4.280   3.582 -0.1537  0.4295 -0.1976
 9046SOL    HW138774   4.067   4.211   3.630 -1.6096 -0.3313  0.1282
 9046SOL    HW238775   4.013   4.232   3.499  1.2867  1.0082 -0.6581
 9047SOL     OW38776   0.058   1.893  16.767 -0.2645  0.1639  0.4563
 9047SOL    HW138777   4.706   1.920  16.742 -1.0346 -2.2060  0.6007
 9047SOL    HW238778   0.111   1.940  16.703  1.5045  1.2481  2.7025
 9048SOL     OW38779   2.125   1.340   5.150  0.3461 -0.2048 -0.2683
 9048SOL    HW138780   2.037   1.358   5.116  0.2618  0.0848  0.1006
 9048SOL    HW238781   2.158   1.430   5.156  0.2826 -0.1833 -0.2402
 9049SOL     OW38782   1.051   4.123   8.666  0.4444  0.3219 -0.3078
 9049SOL    HW138783   0.957   4.137   8.674  0.1877 -1.2755 -0.5660
 9049SOL    HW238784   1.081   4.142   8.755 -1.5189  0.9192  0.2071
 9050SOL     OW38785   3.596   2.187   0.275 -0.3186  0.2263  0.0498
 9050SOL    HW138786   3.657   2.138   0.220  1.2199  2.0506  0.1420
 9050SOL    HW238787   3.640   2.194   0.359  0.0404  0.8137 -0.1902
 9051SOL     OW38788   3.266   4.653  10.545  0.5139 -0.0981 -0.2084
 9051SOL    HW138789   3.285   4.559  10.542 -0.8953 -0.3954  0.4446
 9051SOL    HW238790   3.329   4.678  10.612 -0.6475  1.6410  0.2241
 9052SOL     OW38791   4.295   1.554   3.491  0.2190 -0.0680  0.1442
 9052SOL    HW138792   4.248   1.598   3.562  0.2850  0.3971 -0.1030
 9052SOL    HW238793   4.229   1.568   3.423  2.3208 -0.9242 -2.0434
 9053SOL     OW38794   0.220   1.143   3.609  0.6426 -0.7527 -0.0324
 9053SOL    HW138795   0.189   1.154   3.519 -0.9057  2.0797  0.8550
 9053SOL    HW238796   0.224   1.234   3.637 -1.1405 -0.9697  0.9172
 9054SOL     OW38797   3.279   0.663   4.665 -0.4606 -0.3661 -0.4827
 9054SOL    HW138798   3.294   0.629   4.577 -0.5618  0.1472 -0.6988
 9054SOL    HW238799   3.317   0.600   4.725 -0.5706 -0.3235 -0.3684
 9055SOL     OW38800   2.275   3.472   0.669 -0.4066  0.3431  0.1127
 9055SOL    HW138801   2.362   3.485   0.707 -0.1832  2.5610 -1.1216
 9055SOL    HW238802   2.240   3.405   0.727 -1.1284  2.0583  1.6750
 9056SOL     OW38803   0.213   0.975  12.652 -0.0845  0.1036 -0.1040
 9056SOL    HW138804   0.261   0.910  12.704  0.9098 -0.6810 -1.9826
 9056SOL    HW238805   0.235   1.051  12.706 -4.1905  0.3751  1.1949
 9057SOL     OW38806   0.011   2.787  10.819 -0.3725  0.2780 -0.4501
 9057SOL    HW138807   0.067   2.845  10.766 -0.7222  1.6907  0.7198
 9057SOL    HW238808   0.079   2.730  10.853 -2.2346 -2.0009 -0.5937
 9058SOL     OW38809   4.659   0.259   7.610  0.2863 -0.0944  0.1083
 9058SOL    HW138810   4.576   0.260   7.563 -1.2695 -0.4308  2.8151
 9058SOL    HW238811   4.712   0.327   7.568 -0.9890 -0.1907 -1.6310
 9059SOL     OW38812   0.850   4.122  10.230  0.3497 -0.5516 -0.0310
 9059SOL    HW138813   0.899   4.049  10.194  2.1035 -0.5487  2.3877
 9059SOL    HW238814   0.884   4.193  10.175  0.9242 -0.3218  0.6316
 9060SOL     OW38815   1.818   3.495   7.286  0.1414  0.6265  0.4387
 9060SOL    HW138816   1.834   3.579   7.330 -2.2583  0.9189  0.7617
 9060SOL    HW238817   1.850   3.521   7.200  0.1021  0.2139  0.3000
 9061SOL     OW38818   2.449   2.425   1.922 -0.3406 -0.2508 -0.0895
 9061SOL    HW138819   2.510   2.391   1.988 -0.8604  0.1498  0.6011
 9061SOL    HW238820   2.370   2.383   1.956  0.2500 -2.1360 -1.0495
 9062SOL     OW38821   2.928   0.758   7.458 -0.2671  0.7032 -0.1841
 9062SOL    HW138822   2.953   0.753   7.365 -0.9411  2.9226 -0.4893
 9062SOL    HW238823   2.869   0.683   7.467  1.9337 -1.0064 -0.0805
 9063SOL     OW38824   0.580   2.686   2.021 -0.8723 -0.3576  0.2573
 9063SOL    HW138825   0.644   2.637   1.968 -0.7257 -0.8048  0.8448
 9063SOL    HW238826   0.605   2.778   2.026 -0.4422 -0.4655  0.0918
 9064SOL     OW38827   0.932   4.179  11.152 -0.7102 -0.4396  0.1820
 9064SOL    HW138828   1.009   4.202  11.204 -0.2724  1.1802 -1.1733
 9064SOL    HW238829   0.931   4.084  11.144  2.5316 -0.5707  1.2111
 9065SOL     OW38830   2.802   4.350  15.713  0.3082 -0.4682  0.5759
 9065SOL    HW138831   2.834   4.439  15.693  0.0595 -0.0705  1.9376
 9065SOL    HW238832   2.785   4.307  15.629  1.2650 -0.9158  0.6138
 9066SOL     OW38833   1.793   0.898   9.182 -0.3269 -0.4034 -0.6860
 9066SOL    HW138834   1.700   0.916   9.196 -0.8539 -1.7199 -2.5347
 9066SOL    HW238835   1.790   0.873   9.090 -1.4831  0.1058 -0.7773
 9067SOL     OW38836   1.882   4.609   8.493 -0.0408  0.0492 -0.2671
 9067SOL    HW138837   1.875   4.524   8.450  0.2039  0.4871 -1.1882
 9067SOL    HW238838   1.813   4.610   8.559  0.4490  1.1307  0.2268
 9068SOL     OW38839   4.005   3.651   9.204  0.2029  0.5088 -0.9643
 9068SOL    HW138840   3.975   3.612   9.121 -0.6167  1.4026 -1.0810
 9068SOL    HW238841   3.929   3.639   9.260  0.9770  1.0735  0.1915
 9069SOL     OW38842   1.857   2.800   4.117  0.5087 -0.5695 -0.0141
 9069SOL    HW138843   1.817   2.885   4.135 -0.2652 -1.1507  0.9992
 9069SOL    HW238844   1.901   2.774   4.197  0.9913  1.5198  0.3996
 9070SOL     OW38845   0.093   2.655  10.145 -0.4834  0.0292  0.4969
 9070SOL    HW138846   0.116   2.740  10.181  0.8502  0.2989 -1.0221
 9070SOL    HW238847   4.735   2.668  10.131 -0.5920  0.0024  1.1899
 9071SOL     OW38848   0.766   3.567   5.019 -0.1640 -0.2121 -0.0235
 9071SOL    HW138849   0.696   3.630   5.037  0.5186  0.6460 -0.3930
 9071SOL    HW238850   0.844   3.623   5.026 -0.6644  0.5551 -0.5986
 9072SOL     OW38851   2.315   2.493   6.765  0.0374 -0.1025  0.3146
 9072SOL    HW138852   2.354   2.565   6.815 -2.1310  0.9776  0.4504
 9072SOL    HW238853   2.270   2.538   6.694  0.1839 -2.1006 -1.0501
 9073SOL     OW38854   4.651   0.510   7.430 -0.1637 -0.3637 -0.1421
 9073SOL    HW138855   4.660   0.590   7.482  0.9703  0.1563 -1.1376
 9073SOL    HW238856   4.723   0.531   7.371 -0.1390 -0.8848 -0.3001
 9074SOL     OW38857   0.170   3.835   8.174 -0.0579  0.4857 -0.0044
 9074SOL    HW138858   0.098   3.793   8.222  0.6848  0.2847  0.9448
 9074SOL    HW238859   0.240   3.777   8.203 -2.0434 -1.2942  1.2555
 9075SOL     OW38860   2.719   0.125   6.535 -0.2749  0.0309  0.1769
 9075SOL    HW138861   2.653   0.141   6.603 -0.1148  0.0962  0.3156
 9075SOL    HW238862   2.669   0.140   6.455  0.1303 -2.5239 -0.5663
 9076SOL     OW38863   0.771   1.139  14.368 -0.5331 -0.1639 -0.0848
 9076SOL    HW138864   0.846   1.160  14.311 -0.9271 -1.1553 -0.9612
 9076SOL    HW238865   0.773   1.045  14.347  0.3659 -0.5683  1.7748
 9077SOL     OW38866   1.288   3.713   4.733 -0.4265 -0.2406 -0.1591
 9077SOL    HW138867   1.294   3.655   4.656  1.3944  1.2032 -1.1127
 9077SOL    HW238868   1.306   3.794   4.685  0.1361 -0.0715  0.3309
 9078SOL     OW38869   2.638   2.858   5.654  0.2190 -0.3059  0.3049
 9078SOL    HW138870   2.712   2.811   5.691 -1.5952 -2.5322  1.1073
 9078SOL    HW238871   2.668   2.892   5.570 -1.7700  0.9142  0.0856
 9079SOL     OW38872   2.245   3.185   2.551 -0.2580 -0.3055  0.3752
 9079SOL    HW138873   2.298   3.191   2.630 -0.1845  1.3996  0.2046
 9079SOL    HW238874   2.317   3.171   2.490 -0.2017 -0.3059  0.4426
 9080SOL     OW38875   0.303   1.790  11.760  1.0496  0.0334 -0.4795
 9080SOL    HW138876   0.303   1.877  11.802  0.4177 -0.9724  1.5998
 9080SOL    HW238877   0.239   1.813  11.693 -0.0911  2.7134  1.4941
 9081SOL     OW38878   1.955   1.202   8.280  0.1631  0.4086 -0.0806
 9081SOL    HW138879   1.910   1.119   8.265  1.4313 -0.0879 -1.1956
 9081SOL    HW238880   1.890   1.272   8.280  0.6185  0.8276 -2.3070
 9082SOL     OW38881   0.371   1.728   1.594 -0.0933  0.0594  0.4767
 9082SOL    HW138882   0.393   1.678   1.515  2.0056 -1.4618  2.0100
 9082SOL    HW238883   0.338   1.807   1.552 -2.3595 -2.0965 -1.8196
 9083SOL     OW38884   4.276   4.024   5.623 -0.0795 -0.4987  0.2867
 9083SOL    HW138885   4.234   3.985   5.700  1.0111 -4.4133 -1.1114
 9083SOL    HW238886   4.218   4.092   5.588 -0.3901 -0.7141  0.3808
 9084SOL     OW38887   2.667   3.203   7.142 -0.1770  0.4178 -0.2391
 9084SOL    HW138888   2.622   3.288   7.145 -0.3388  0.3286 -0.1398
 9084SOL    HW238889   2.613   3.149   7.199 -2.8984 -0.0339 -3.2406
 9085SOL     OW38890   1.416   1.611   8.755  0.3322  0.1212 -0.4072
 9085SOL    HW138891   1.458   1.695   8.734  1.0540 -0.3247 -0.7484
 9085SOL    HW238892   1.324   1.631   8.736  0.1913  1.1041  1.3755
 9086SOL     OW38893   2.765   4.218  10.575  0.1641  0.1030  0.4584
 9086SOL    HW138894   2.678   4.257  10.565  0.0869  0.1317  1.2810
 9086SOL    HW238895   2.787   4.209  10.482 -1.6295 -1.3685  0.1745
 9087SOL     OW38896   0.034   3.008   2.738 -0.3891  0.1189 -0.5435
 9087SOL    HW138897   0.044   2.912   2.741  0.8269  0.1799 -2.5420
 9087SOL    HW238898   0.118   3.025   2.695 -0.3542  1.2157 -0.0232
 9088SOL     OW38899   2.779   1.011   3.282 -0.5944 -0.4623 -0.0790
 9088SOL    HW138900   2.851   1.064   3.316 -1.2898  0.2334  0.3206
 9088SOL    HW238901   2.707   1.075   3.287 -0.8658 -0.6905 -1.1211
 9089SOL     OW38902   4.457   2.088   8.858  0.1306 -0.0660 -0.9471
 9089SOL    HW138903   4.542   2.085   8.903  0.2143 -1.1584 -1.1874
 9089SOL    HW238904   4.486   2.098   8.768  1.7505 -0.3240 -0.4561
 9090SOL     OW38905   3.550   4.457   4.633 -0.0656 -0.0202 -0.0262
 9090SOL    HW138906   3.560   4.395   4.706 -0.1418  1.1256  0.9716
 9090SOL    HW238907   3.464   4.433   4.599 -0.0749 -3.3587  2.3246
 9091SOL     OW38908   2.040   4.118   0.217  0.1345 -0.6185  0.3921
 9091SOL    HW138909   2.076   4.044   0.265  1.9673 -0.1146 -0.1720
 9091SOL    HW238910   2.042   4.086   0.127  1.2950 -2.5901  1.1224
 9092SOL     OW38911   4.586   3.743   6.807  0.0351 -0.9745  0.1453
 9092SOL    HW138912   4.658   3.798   6.839  0.1583 -1.0107 -0.0647
 9092SOL    HW238913   4.566   3.681   6.878 -0.4006  0.3063  1.1264
 9093SOL     OW38914   4.522   0.934  13.664 -0.1273 -0.3086 -0.6341
 9093SOL    HW138915   4.577   0.890  13.729  0.7232  2.2882  0.4246
 9093SOL    HW238916   4.437   0.906  13.697  0.6693 -0.3878  1.4052
 9094SOL     OW38917   0.439   3.689  13.473 -0.2128 -0.3077  0.1907
 9094SOL    HW138918   0.388   3.622  13.520  0.2504 -0.5257  0.3766
 9094SOL    HW238919   0.414   3.654  13.387 -1.9276 -0.6486  0.8148
 9095SOL     OW38920   1.561   2.465   3.876  0.6859 -0.1563 -0.3584
 9095SOL    HW138921   1.597   2.547   3.910  0.8754 -0.6775  0.7005
 9095SOL    HW238922   1.530   2.417   3.953 -1.4473 -0.9019 -1.6922
 9096SOL     OW38923   0.309   0.186   5.218  0.5597 -0.7657  0.0700
 9096SOL    HW138924   0.240   0.138   5.173 -0.4013  2.0463 -1.5115
 9096SOL    HW238925   0.266   0.271   5.226  0.7665 -0.5839 -0.7829
 9097SOL     OW38926   2.228   2.840   8.628 -0.0316 -0.3157 -0.2392
 9097SOL    HW138927   2.222   2.745   8.618  0.5879 -0.3484 -0.3422
 9097SOL    HW238928   2.274   2.841   8.712 -0.8718 -0.3379  0.2166
 9098SOL     OW38929   3.457   3.298   2.836  0.3497  0.2403 -0.4339
 9098SOL    HW138930   3.433   3.298   2.743  0.1314  2.6478 -0.3673
 9098SOL    HW238931   3.548   3.268   2.831  0.3535  0.0557  0.7760
 9099SOL     OW38932   2.360   3.767   2.788  0.4090  0.2907 -0.5342
 9099SOL    HW138933   2.383   3.713   2.713  0.3149  1.3688 -1.3300
 9099SOL    HW238934   2.383   3.853   2.752  1.6172 -0.7716 -2.2421
 9100SOL     OW38935   3.252   1.733   5.812 -0.2082 -0.6559  0.2671
 9100SOL    HW138936   3.196   1.775   5.877  0.3248  3.2028 -1.8096
 9100SOL    HW238937   3.339   1.759   5.840 -0.4275  0.2941  0.0548
 9101SOL     OW38938   2.890   4.450   3.090  0.0346 -0.2321  0.4760
 9101SOL    HW138939   2.824   4.503   3.136  0.2181  0.9296 -0.5874
 9101SOL    HW238940   2.903   4.496   3.007 -0.0874 -3.6047 -1.3744
 9102SOL     OW38941   2.642   3.129   7.574 -1.3848  0.6205 -0.5287
 9102SOL    HW138942   2.619   3.218   7.603 -0.8591  0.3166  0.8314
 9102SOL    HW238943   2.622   3.134   7.480 -1.1588  1.1103 -0.5492
 9103SOL     OW38944   3.447   1.049   2.448  0.1320 -0.1077 -0.2222
 9103SOL    HW138945   3.367   0.998   2.464 -0.0131  0.9611  2.4231
 9103SOL    HW238946   3.404   1.134   2.440 -0.7287 -0.5226 -0.0278
 9104SOL     OW38947   4.057   3.212  12.868 -0.1958  0.3567 -0.1341
 9104SOL    HW138948   3.968   3.205  12.904 -0.3175  3.2674  0.0901
 9104SOL    HW238949   4.037   3.171  12.783 -0.6839  0.7513 -0.2087
 9105SOL     OW38950   3.581   0.748   5.320 -0.1945  0.5021 -0.4134
 9105SOL    HW138951   3.668   0.752   5.361 -0.0088 -1.2877 -0.6108
 9105SOL    HW238952   3.603   0.713   5.233  0.4769  0.7082 -0.3269
 9106SOL     OW38953   2.749   2.475   5.156  0.5335  0.0633  0.0770
 9106SOL    HW138954   2.793   2.416   5.094 -1.2333  1.6373 -2.6723
 9106SOL    HW238955   2.695   2.412   5.204 -1.7520  0.8202 -1.5279
 9107SOL     OW38956   2.418   1.837   8.794  0.1212 -0.9529  0.1917
 9107SOL    HW138957   2.490   1.803   8.848  0.6092  0.4490  0.4338
 9107SOL    HW238958   2.345   1.785   8.829  0.4630 -0.3812  1.7645
 9108SOL     OW38959   2.025   0.757   9.302 -0.4035 -0.5502  0.6690
 9108SOL    HW138960   1.944   0.765   9.250 -0.3353 -0.6161  0.5520
 9108SOL    HW238961   2.004   0.814   9.376 -1.7080  0.6247 -0.5893
 9109SOL     OW38962   4.306   0.696   9.081  0.1561  0.7729  0.4970
 9109SOL    HW138963   4.260   0.766   9.127  1.7408  1.5332  0.9410
 9109SOL    HW238964   4.396   0.729   9.076  0.5439 -0.2076  1.0418
 9110SOL     OW38965   2.723   1.718   5.331  0.4811 -0.3592 -0.4868
 9110SOL    HW138966   2.656   1.784   5.315  0.2913 -0.7830 -1.4355
 9110SOL    HW238967   2.804   1.768   5.325 -1.0785  2.1028 -0.7591
 9111SOL     OW38968   1.606   4.288   8.194  0.3317 -0.1349  0.2436
 9111SOL    HW138969   1.532   4.347   8.181 -1.4159 -2.4111 -0.0694
 9111SOL    HW238970   1.551   4.213   8.217 -0.0765  0.7821  2.2523
 9112SOL     OW38971   4.106   3.154   4.989  0.7544 -0.5714 -0.1737
 9112SOL    HW138972   4.112   3.241   4.950  0.5075  0.0147  1.1261
 9112SOL    HW238973   4.058   3.117   4.914  3.2360 -1.1044 -1.4894
 9113SOL     OW38974   0.066   2.802   7.459  0.4317 -0.2631 -0.0014
 9113SOL    HW138975   0.162   2.800   7.468  0.4287 -1.5737 -0.3446
 9113SOL    HW238976   0.042   2.800   7.367 -0.2936 -1.3656  0.2145
 9114SOL     OW38977   2.004   4.025   8.056 -0.2115  0.4248 -0.6801
 9114SOL    HW138978   2.029   3.974   7.979 -0.4616 -0.7943  0.0437
 9114SOL    HW238979   1.910   4.019   8.040 -0.6645 -0.3154  2.3750
 9115SOL     OW38980   3.340   2.109   0.114 -0.2801 -0.5576 -0.4632
 9115SOL    HW138981   3.318   2.192   0.073  3.6624 -0.2972 -1.9828
 9115SOL    HW238982   3.414   2.125   0.172  0.1929  1.3987 -1.6132
 9116SOL     OW38983   4.133   2.332  12.827 -0.4515  0.2116  0.6296
 9116SOL    HW138984   4.216   2.289  12.847  0.3676  1.3531 -0.3266
 9116SOL    HW238985   4.133   2.366  12.738  1.3752  2.9515  1.6615
 9117SOL     OW38986   3.465   0.170   5.842 -0.1765 -0.2579  0.6342
 9117SOL    HW138987   3.371   0.190   5.851 -0.1552  0.4011 -0.6787
 9117SOL    HW238988   3.464   0.148   5.749  0.3294 -0.3419  0.6480
 9118SOL     OW38989   4.172   0.299  13.162  0.6549 -0.0657 -0.6425
 9118SOL    HW138990   4.096   0.350  13.134  1.0093  0.0503 -1.3791
 9118SOL    HW238991   4.184   0.236  13.092 -1.2211 -0.4016 -0.6402
 9119SOL     OW38992   3.892   2.461   6.165  0.1258  0.0565  0.1212
 9119SOL    HW138993   3.940   2.513   6.229  4.2061 -1.4563 -1.7140
 9119SOL    HW238994   3.874   2.383   6.216 -1.0498 -0.4015 -0.9854
 9120SOL     OW38995   4.380   2.813  17.357 -0.4390 -0.1056  0.4682
 9120SOL    HW138996   4.382   2.902  17.322  0.0242 -0.1466  0.3921
 9120SOL    HW238997   4.317   2.829  17.428 -0.5322  1.2053  0.0878
 9121SOL     OW38998   3.332   4.268  17.145  0.2196 -0.3449 -0.2463
 9121SOL    HW138999   3.324   4.198  17.209  1.3049 -0.7158 -0.5126
 9121SOL    HW239000   3.238   4.284  17.149  0.4432  0.9721 -0.0345
 9122SOL     OW39001   3.340   1.228   6.098 -0.3281  0.2022  0.3172
 9122SOL    HW139002   3.292   1.187   6.027 -0.5807  0.0355  0.5858
 9122SOL    HW239003   3.429   1.193   6.089 -1.2901 -1.2527 -3.2639
 9123SOL     OW39004   2.003   2.935   9.845 -0.0018  0.2614 -0.2648
 9123SOL    HW139005   1.949   2.910   9.920 -0.4406 -0.1584 -0.7196
 9123SOL    HW239006   1.937   2.934   9.776 -0.4930 -1.7157  0.2310
 9124SOL     OW39007   0.312   2.844   3.840  0.4084 -0.0852  0.6826
 9124SOL    HW139008   0.388   2.789   3.862  1.1423  0.2987 -0.8937
 9124SOL    HW239009   0.351   2.880   3.760  2.9502 -0.5747  1.6864
 9125SOL     OW39010   4.707   3.630   7.882 -0.2406 -0.2896 -0.1825
 9125SOL    HW139011   4.695   3.678   7.801 -0.6315 -1.4125 -0.7911
 9125SOL    HW239012   0.036   3.688   7.920  0.9047 -2.4257  1.1656
 9126SOL     OW39013   0.121   3.758   8.481 -0.0741  0.1863  0.0204
 9126SOL    HW139014   0.114   3.832   8.542 -2.3291  0.7856 -0.9936
 9126SOL    HW239015   0.079   3.689   8.533 -0.7086  1.9584  1.8552
 9127SOL     OW39016   1.949   2.471   9.974  0.4973  0.9954 -0.6726
 9127SOL    HW139017   2.039   2.502   9.977  0.9514 -0.3414 -0.3398
 9127SOL    HW239018   1.935   2.456  10.067  1.0262  1.4763 -0.5180
 9128SOL     OW39019   2.166   0.732   7.081 -0.3383 -0.1490  0.1017
 9128SOL    HW139020   2.144   0.755   7.171  0.1651  0.9290 -0.0458
 9128SOL    HW239021   2.095   0.781   7.039 -1.6604 -1.1382  1.1630
 9129SOL     OW39022   3.477   3.106   4.028  0.6383 -0.8163 -0.0090
 9129SOL    HW139023   3.538   3.160   4.079 -1.9080  2.0318  0.0499
 9129SOL    HW239024   3.461   3.158   3.950 -1.4756  0.8465  1.5015
 9130SOL     OW39025   4.553   1.471   7.679 -0.3583 -0.0405 -0.9014
 9130SOL    HW139026   4.642   1.434   7.674 -0.5388 -0.4807 -0.8866
 9130SOL    HW239027   4.539   1.462   7.773  0.2655  2.8457 -0.5241
 9131SOL     OW39028   3.299   3.745   4.591  0.5265 -0.0982 -0.1929
 9131SOL    HW139029   3.392   3.724   4.587  0.7560  0.9924 -0.4065
 9131SOL    HW239030   3.281   3.728   4.683 -0.7957 -0.5664 -0.5262
 9132SOL     OW39031   3.594   3.860   3.682 -0.6116 -0.2228  0.0253
 9132SOL    HW139032   3.686   3.836   3.669 -0.5858  0.2534 -0.6887
 9132SOL    HW239033   3.602   3.882   3.775 -0.9001 -2.1470  0.5112
 9133SOL     OW39034   3.928   1.362   1.940  0.6461 -0.7071  0.2429
 9133SOL    HW139035   3.885   1.304   2.002  2.5069  0.6228  2.7716
 9133SOL    HW239036   4.012   1.387   1.979 -1.0110  2.5171  1.7188
 9134SOL     OW39037   2.608   1.519   2.873 -0.2954  0.2153 -0.0362
 9134SOL    HW139038   2.605   1.424   2.876 -0.0272  0.1793 -0.9081
 9134SOL    HW239039   2.514   1.533   2.880 -0.2651  0.6213 -0.4332
 9135SOL     OW39040   4.214   2.873   1.222 -0.0657  0.3539 -0.4646
 9135SOL    HW139041   4.201   2.914   1.307 -2.8305  0.7135 -1.0695
 9135SOL    HW239042   4.225   2.781   1.244  1.9142  0.7818  0.3388
 9136SOL     OW39043   1.095   1.144   4.443  0.0520  0.1751 -0.2116
 9136SOL    HW139044   1.032   1.092   4.494  0.0899 -0.2826 -0.6401
 9136SOL    HW239045   1.177   1.126   4.489  0.1026  2.0188  0.4107
 9137SOL     OW39046   4.499   2.319   2.570  0.0014 -0.4333 -0.6201
 9137SOL    HW139047   4.555   2.391   2.599  0.5535 -0.9205 -0.4754
 9137SOL    HW239048   4.568   2.263   2.535  2.1784  0.1029  2.7815
 9138SOL     OW39049   0.843   0.500   3.234  0.3633  0.6058  0.6419
 9138SOL    HW139050   0.901   0.543   3.296  1.8079  0.1476 -0.3727
 9138SOL    HW239051   0.889   0.420   3.208 -0.1020  0.3066  0.7369
 9139SOL     OW39052   3.402   3.881   8.568  0.2385 -0.4133  0.2341
 9139SOL    HW139053   3.341   3.862   8.640  0.7416  0.6278  0.9395
 9139SOL    HW239054   3.475   3.822   8.585 -0.4143 -1.2458  0.1649
 9140SOL     OW39055   0.539   1.908   2.138 -0.0564 -0.1445 -0.0413
 9140SOL    HW139056   0.519   1.986   2.190  0.8631 -0.4960  0.8555
 9140SOL    HW239057   0.523   1.934   2.047  0.0745 -0.6051 -0.1959
 9141SOL     OW39058   1.160   2.840  16.414 -0.2451  0.1931  0.0596
 9141SOL    HW139059   1.180   2.833  16.321  0.9660  2.3864  0.1643
 9141SOL    HW239060   1.068   2.819  16.401 -0.7582  1.2972  1.9067
 9142SOL     OW39061   3.208   4.508   3.606  0.0557  0.0482 -0.4855
 9142SOL    HW139062   3.269   4.441   3.577  2.6315  1.5048  1.5779
 9142SOL    HW239063   3.188   4.552   3.523 -2.5917 -0.8921 -0.3339
 9143SOL     OW39064   4.607   4.674   1.619 -0.1328  0.2505 -0.5778
 9143SOL    HW139065   4.526   4.683   1.668  0.6705 -0.9229  0.9631
 9143SOL    HW239066   4.672   4.736   1.652 -0.3895  1.4086 -2.2429
 9144SOL     OW39067   3.765   0.044   5.786  0.1349 -0.6891 -0.1539
 9144SOL    HW139068   3.778   4.688   5.808 -0.8431 -0.8607 -0.2520
 9144SOL    HW239069   3.670   0.044   5.797  0.0537 -0.6227 -0.8357
 9145SOL     OW39070   1.672   3.535   5.377 -0.0577 -0.2078  0.1722
 9145SOL    HW139071   1.620   3.526   5.296  1.6943 -1.5475 -0.7926
 9145SOL    HW239072   1.704   3.445   5.388 -0.0364 -0.1641  0.4518
 9146SOL     OW39073   0.184   2.327   8.176 -0.1798 -0.3080  0.1324
 9146SOL    HW139074   0.091   2.332   8.197 -0.5190  0.9704 -1.7239
 9146SOL    HW239075   0.205   2.418   8.196  1.3249 -0.2876 -1.5574
 9147SOL     OW39076   1.105   2.883   7.035  0.0055  0.4009 -0.2592
 9147SOL    HW139077   1.122   2.814   7.099  2.3460  0.7083 -0.5628
 9147SOL    HW239078   1.183   2.875   6.981  1.2109 -4.0852  2.1096
 9148SOL     OW39079   2.219   0.210   5.749 -0.2996 -0.3140  0.4616
 9148SOL    HW139080   2.164   0.274   5.795 -0.0421 -0.0773  0.4371
 9148SOL    HW239081   2.275   0.262   5.692  0.4337 -1.2561  0.3423
 9149SOL     OW39082   0.253   0.928   1.920  0.0694  0.1414 -0.2775
 9149SOL    HW139083   0.223   1.009   1.880  1.8869  1.4809  1.0370
 9149SOL    HW239084   0.176   0.874   1.904 -1.5318  2.2561  0.3522
 9150SOL     OW39085   3.183   2.773   3.992 -0.2573 -0.1970 -0.2592
 9150SOL    HW139086   3.140   2.768   4.077  1.2444  1.4429  0.5695
 9150SOL    HW239087   3.275   2.793   4.008 -0.5936 -0.4024  1.8331
 9151SOL     OW39088   3.919   1.106  17.163 -0.3762  0.1305  0.1356
 9151SOL    HW139089   3.903   1.195  17.194 -1.6265 -0.8531  2.3692
 9151SOL    HW239090   3.874   1.042  17.219  3.2563 -1.9582  0.6722
 9152SOL     OW39091   0.693   4.346  10.395  0.7031 -0.2044  0.5155
 9152SOL    HW139092   0.722   4.279  10.333  2.0605 -0.5870  1.5650
 9152SOL    HW239093   0.773   4.374  10.439  2.8281 -1.2854 -2.6217
 9153SOL     OW39094   3.927   0.896   5.399 -0.8790  1.0341 -0.1265
 9153SOL    HW139095   3.991   0.922   5.465  0.8686 -1.0622 -1.0111
 9153SOL    HW239096   3.870   0.836   5.448 -1.1758  1.3075 -0.1355
 9154SOL     OW39097   0.143   0.617  15.705  0.0330  0.2460 -0.6071
 9154SOL    HW139098   0.177   0.527  15.703 -1.8610 -0.5018  0.7216
 9154SOL    HW239099   0.057   0.601  15.665  0.2173 -1.6945 -0.2087
 9155SOL     OW39100   1.412   0.768   8.769 -0.6238 -0.3526  0.0937
 9155SOL    HW139101   1.414   0.776   8.865  0.8645  2.3047 -0.1558
 9155SOL    HW239102   1.330   0.720   8.759  0.9074 -2.6172 -1.4264
 9156SOL     OW39103   0.784   2.307   3.784 -0.2291  0.2543  0.2425
 9156SOL    HW139104   0.733   2.379   3.745  0.2582  0.0902 -0.7092
 9156SOL    HW239105   0.863   2.357   3.802 -0.3417 -0.2770  2.1291
 9157SOL     OW39106   1.905   3.373   3.578 -0.5206 -0.4087 -0.1084
 9157SOL    HW139107   1.842   3.437   3.610  1.4014  1.4443 -0.0698
 9157SOL    HW239108   1.973   3.403   3.638 -0.4420 -0.1165 -0.3464
 9158SOL     OW39109   2.058   0.887  17.091 -0.4148  1.1776 -0.3995
 9158SOL    HW139110   2.093   0.932  17.015  1.2135  1.7426  0.6884
 9158SOL    HW239111   1.971   0.928  17.096 -1.0919 -0.2289 -0.6697
 9159SOL     OW39112   4.372   2.668   1.528  0.3003  0.3954  0.5917
 9159SOL    HW139113   4.357   2.618   1.608 -0.9812 -1.1664 -0.6549
 9159SOL    HW239114   4.293   2.722   1.526  0.1956  0.1987 -0.5141
 9160SOL     OW39115   2.256   1.698   2.180 -1.0029 -0.2867  0.2184
 9160SOL    HW139116   2.206   1.771   2.217  0.7911  0.7066  0.6955
 9160SOL    HW239117   2.285   1.726   2.093  0.1773  0.2126  0.7714
 9161SOL     OW39118   2.049   3.854   7.846  0.2700  0.1113  0.5864
 9161SOL    HW139119   2.130   3.812   7.820  0.5264  0.4887  0.7816
 9161SOL    HW239120   2.018   3.892   7.764 -0.5693  1.0883  1.3504
 9162SOL     OW39121   0.823   2.650   8.868 -0.1165 -0.6147 -0.3892
 9162SOL    HW139122   0.728   2.646   8.857 -0.0586  0.7806 -1.4762
 9162SOL    HW239123   0.836   2.649   8.962 -0.2096  2.1993 -0.3312
 9163SOL     OW39124   1.606   4.723   6.885 -0.1518 -0.4232  0.5338
 9163SOL    HW139125   1.571   4.667   6.815  1.3202 -1.4109  0.5934
 9163SOL    HW239126   1.539   0.051   6.911  1.8567  2.1971 -0.6933
 9164SOL     OW39127   1.340   1.975   1.903  0.1275 -0.2055 -0.2526
 9164SOL    HW139128   1.282   1.904   1.875  0.1024  0.5374 -2.1098
 9164SOL    HW239129   1.413   1.925   1.938  0.5122  0.3114 -0.3029
 9165SOL     OW39130   1.753   4.727  11.398  0.2320  0.0226  0.2656
 9165SOL    HW139131   1.847   4.724  11.379  0.1500 -0.2396 -0.0973
 9165SOL    HW239132   1.721   4.682  11.319 -0.6902  1.1075  0.0261
 9166SOL     OW39133   3.343   3.246   7.563  0.5792  0.7382  0.2392
 9166SOL    HW139134   3.311   3.328   7.601  1.2785  0.0988  2.1948
 9166SOL    HW239135   3.359   3.277   7.474 -1.4837 -0.4559 -0.5728
 9167SOL     OW39136   3.823   4.414   3.420  0.1695  0.4957 -0.2549
 9167SOL    HW139137   3.768   4.349   3.376  1.0596 -0.0317 -0.5867
 9167SOL    HW239138   3.877   4.355   3.473 -0.2758 -0.8108 -1.2418
 9168SOL     OW39139   2.726   1.620   8.741 -0.0012  0.0592 -0.1131
 9168SOL    HW139140   2.790   1.686   8.767  0.4856 -0.2664 -0.4695
 9168SOL    HW239141   2.774   1.579   8.669 -1.2290 -0.1868 -0.7902
 9169SOL     OW39142   4.242   0.759   8.313  0.8588  0.3144 -0.3839
 9169SOL    HW139143   4.207   0.822   8.376 -2.3893 -1.2083 -0.6814
 9169SOL    HW239144   4.270   0.803   8.233  0.7407 -0.3241 -0.7815
 9170SOL     OW39145   1.428   1.574  15.854 -0.1286  0.3171 -0.2313
 9170SOL    HW139146   1.465   1.604  15.771  1.2667  1.1189  0.6689
 9170SOL    HW239147   1.341   1.543  15.831 -0.0653 -0.3044  0.3781
 9171SOL     OW39148   2.393   0.385   2.818  0.3059  0.1085  0.1822
 9171SOL    HW139149   2.358   0.304   2.779 -1.6250  1.0678 -0.0886
 9171SOL    HW239150   2.484   0.357   2.826  0.0756  0.2159  3.0611
 9172SOL     OW39151   1.480   1.598   6.597  0.9609  0.0385  0.5550
 9172SOL    HW139152   1.483   1.665   6.529 -1.3726  0.5396  0.9538
 9172SOL    HW239153   1.469   1.515   6.550  0.0089  0.4170  0.1103
 9173SOL     OW39154   2.628   1.479   4.497  0.3296  0.1645 -0.7330
 9173SOL    HW139155   2.584   1.564   4.488 -0.9171 -0.5783 -1.6088
 9173SOL    HW239156   2.718   1.512   4.508  1.3538 -1.9697 -2.7420
 9174SOL     OW39157   1.852   4.044  11.045  0.0313 -0.4007  0.4172
 9174SOL    HW139158   1.913   3.972  11.028 -0.4753 -1.0462  1.3286
 9174SOL    HW239159   1.895   4.075  11.124  0.4933 -3.6331  1.4526
 9175SOL     OW39160   3.141   2.909  12.687  0.5355 -0.3195  0.0452
 9175SOL    HW139161   3.055   2.943  12.664  1.0479  1.7535  1.1281
 9175SOL    HW239162   3.168   2.871  12.603  1.1490 -0.9557  0.5313
 9176SOL     OW39163   2.435   3.086   4.935 -0.0447  0.6959 -0.2163
 9176SOL    HW139164   2.495   3.105   4.862  1.8977 -0.9004  0.9540
 9176SOL    HW239165   2.506   3.063   4.996 -0.6056  2.0812  0.9335
 9177SOL     OW39166   3.256   0.897  12.443  0.6615 -0.2530  0.1908
 9177SOL    HW139167   3.197   0.843  12.390 -2.2030  2.9880  0.0965
 9177SOL    HW239168   3.217   0.904  12.530  0.5457 -1.1039  0.2103
 9178SOL     OW39169   0.835   1.544   6.416 -0.2760  0.2317  0.1055
 9178SOL    HW139170   0.753   1.509   6.451 -0.2003 -0.3476 -0.2931
 9178SOL    HW239171   0.883   1.570   6.494  0.4571 -1.1610  0.1140
 9179SOL     OW39172   0.254   3.154   0.163 -0.2295 -0.2480  0.1388
 9179SOL    HW139173   0.270   3.188   0.252 -1.4548  2.5311 -0.7011
 9179SOL    HW239174   0.321   3.086   0.159  1.0269  0.9818  0.1397
 9180SOL     OW39175   2.939   0.119   7.903  0.1572 -0.6276  0.2306
 9180SOL    HW139176   3.033   0.106   7.894  0.1355 -0.2764 -0.4786
 9180SOL    HW239177   2.912   0.070   7.825 -2.7725  0.8648  0.3126
 9181SOL     OW39178   3.367   0.070   6.441  0.0507  0.1621  0.2035
 9181SOL    HW139179   3.400   0.053   6.529  0.8318 -0.6927 -0.2576
 9181SOL    HW239180   3.455   0.071   6.403  1.4144 -2.7308  3.2331
 9182SOL     OW39181   1.164   2.225   2.707 -0.0882 -0.0491  0.2785
 9182SOL    HW139182   1.127   2.138   2.692 -1.5771  0.7315 -0.6638
 9182SOL    HW239183   1.182   2.224   2.801  2.5502 -0.0485 -0.2382
 9183SOL     OW39184   4.217   0.994   1.466 -0.5299 -0.1005 -0.5638
 9183SOL    HW139185   4.237   0.909   1.425 -1.0252 -1.2187  1.5619
 9183SOL    HW239186   4.147   1.024   1.407  1.5862  1.6473 -2.2341
 9184SOL     OW39187   2.359   1.458   5.341  0.2328  0.4449  0.2108
 9184SOL    HW139188   2.329   1.512   5.267  1.7343  1.0503  0.0560
 9184SOL    HW239189   2.309   1.501   5.410  0.3193 -0.3025  0.7344
 9185SOL     OW39190   3.668   0.672   6.262  0.3753 -0.1111  0.7832
 9185SOL    HW139191   3.669   0.579   6.286 -0.3636 -0.0200  1.1747
 9185SOL    HW239192   3.739   0.678   6.199 -1.5519  0.4327 -1.3447
 9186SOL     OW39193   0.914   4.700   4.819  0.0665 -0.5141  0.9591
 9186SOL    HW139194   0.963   4.689   4.900  1.2574 -0.7655  0.2076
 9186SOL    HW239195   0.901   4.608   4.799  0.4882 -0.5393  0.8100
 9187SOL     OW39196   4.515   1.562   3.127 -0.3567 -0.1912  0.2434
 9187SOL    HW139197   4.551   1.479   3.160 -0.1298 -0.2483 -0.1456
 9187SOL    HW239198   4.425   1.544   3.101  0.3530 -2.4414 -0.7269
 9188SOL     OW39199   4.121   1.072   9.835 -0.2735 -0.4010 -0.2334
 9188SOL    HW139200   4.181   1.006   9.869  2.7411  0.4327 -4.0160
 9188SOL    HW239201   4.149   1.048   9.747  2.0503  5.5138 -1.1050
 9189SOL     OW39202   4.000   0.832   1.344 -0.0187 -0.1359  0.1725
 9189SOL    HW139203   4.068   0.826   1.276  0.0308 -2.5725  0.4382
 9189SOL    HW239204   4.023   0.759   1.402 -1.6365 -0.8079 -0.0366
 9190SOL     OW39205   3.240   1.320  16.117 -0.1420  0.1027  0.4393
 9190SOL    HW139206   3.287   1.240  16.141 -1.8296 -1.3925 -1.2672
 9190SOL    HW239207   3.276   1.321  16.028  0.0319  1.7250  0.5321
 9191SOL     OW39208   1.074   3.315  11.429 -0.0028  0.3638 -0.0490
 9191SOL    HW139209   0.991   3.358  11.451  0.8359  1.6723  0.5307
 9191SOL    HW239210   1.064   3.230  11.472  0.0640  1.1713  1.5640
 9192SOL     OW39211   4.490   3.916   3.597  0.1242  0.1437  0.5808
 9192SOL    HW139212   4.421   3.876   3.650 -0.4043  0.2717 -0.0130
 9192SOL    HW239213   4.452   3.906   3.510  0.6834  3.0490  0.0134
 9193SOL     OW39214   0.894   4.009  12.882 -0.3514  0.8904  0.0907
 9193SOL    HW139215   0.802   4.024  12.860 -0.9587 -0.6083  1.5472
 9193SOL    HW239216   0.895   4.032  12.975 -1.0107 -0.6898  0.5035
 9194SOL     OW39217   3.842   1.155  16.477  0.6947  0.1501 -0.0010
 9194SOL    HW139218   3.789   1.081  16.449  1.5896 -0.6378  0.3804
 9194SOL    HW239219   3.816   1.220  16.412  1.6213 -0.7484 -1.2643
 9195SOL     OW39220   1.626   1.857   1.907  0.4001  0.0240 -0.2567
 9195SOL    HW139221   1.654   1.790   1.970  0.4969  0.3743  0.0753
 9195SOL    HW239222   1.704   1.879   1.857  0.2559  0.4388 -0.2955
 9196SOL     OW39223   0.656   1.920   5.702 -0.4858 -0.2441  0.5744
 9196SOL    HW139224   0.643   1.998   5.755  0.6962 -0.9619  1.9392
 9196SOL    HW239225   0.575   1.874   5.725 -0.3687 -0.5269  0.4174
 9197SOL     OW39226   2.723   2.721  17.500  0.0460  0.0062 -0.4386
 9197SOL    HW139227   2.726   2.635  17.458 -1.8353 -0.5602  0.5659
 9197SOL    HW239228   2.763   2.699  17.584 -0.0579  0.8342 -0.1792
 9198SOL     OW39229   2.844   1.867   8.797 -0.2764  0.1585 -0.3901
 9198SOL    HW139230   2.938   1.850   8.810  0.0683  1.6801 -0.8425
 9198SOL    HW239231   2.818   1.937   8.858  1.4370 -0.1510  0.7048
 9199SOL     OW39232   0.138   4.008  12.820 -0.1233 -0.4403 -0.5432
 9199SOL    HW139233   0.092   4.085  12.854 -0.2184 -1.1822  1.0282
 9199SOL    HW239234   0.072   3.969  12.764 -1.9798  1.4674  0.2996
 9200SOL     OW39235   0.864   0.911   3.889 -0.3109  0.1994  0.4209
 9200SOL    HW139236   0.838   0.832   3.841 -1.8699  1.7858 -1.3412
 9200SOL    HW239237   0.957   0.896   3.903  0.1164  1.0062 -1.5845
 9201SOL     OW39238   3.044   1.932   7.198  0.1429  0.5676 -0.3246
 9201SOL    HW139239   3.006   2.009   7.156 -2.3144 -0.5462 -0.1336
 9201SOL    HW239240   2.961   1.885   7.188 -0.0842  1.2107 -1.5669
 9202SOL     OW39241   3.125   3.682   5.344  0.3581 -0.8104  0.5921
 9202SOL    HW139242   3.054   3.742   5.319 -0.9863 -2.2816  0.9032
 9202SOL    HW239243   3.180   3.681   5.265 -2.5147 -0.1697 -1.4419
 9203SOL     OW39244   4.211   2.860   5.259 -0.5507  0.4186  0.2019
 9203SOL    HW139245   4.303   2.840   5.245 -0.6517  0.1440 -0.0651
 9203SOL    HW239246   4.228   2.920   5.332  1.0705 -0.0264  0.1837
 9204SOL     OW39247   2.944   1.789  17.415  0.2941  0.7043  0.2907
 9204SOL    HW139248   3.009   1.831  17.358  1.0712  2.0855  2.2133
 9204SOL    HW239249   2.990   1.707  17.430  0.0062  0.8995  2.1963
 9205SOL     OW39250   4.260   0.579   5.556  0.1115  0.4773  0.3166
 9205SOL    HW139251   4.280   0.593   5.648 -2.0458 -0.5197  0.9286
 9205SOL    HW239252   4.241   0.485   5.557  1.3477  0.2118 -0.7957
 9206SOL     OW39253   4.550   1.445   7.361  0.2448 -0.0212  0.3280
 9206SOL    HW139254   4.604   1.369   7.340 -0.5335  0.4466 -3.4223
 9206SOL    HW239255   4.567   1.450   7.455 -2.1385  2.1888  0.6378
 9207SOL     OW39256   2.726   1.766  12.562  0.6485 -0.2794  0.1155
 9207SOL    HW139257   2.670   1.788  12.488 -0.2836 -2.0770  0.2969
 9207SOL    HW239258   2.683   1.691  12.603  1.2122 -1.2536 -1.0938
 9208SOL     OW39259   4.630   3.095  14.759  0.1217  0.2981  0.1425
 9208SOL    HW139260   4.721   3.067  14.765 -0.1191 -0.2140  1.4856
 9208SOL    HW239261   4.585   3.013  14.739  0.1829  0.2880  0.0479
 9209SOL     OW39262   1.181   2.345   3.674  0.1810 -0.8318 -0.3030
 9209SOL    HW139263   1.231   2.265   3.656  1.2275 -0.4875  1.1148
 9209SOL    HW239264   1.237   2.394   3.613  0.1811 -1.0311 -0.4649
 9210SOL     OW39265   0.526   1.931   8.685  0.1606 -0.3643  0.0323
 9210SOL    HW139266   0.540   1.928   8.780 -3.3192  2.8986  0.6210
 9210SOL    HW239267   0.571   1.849   8.664 -0.8832 -0.4843 -1.7184
 9211SOL     OW39268   0.042   4.484  12.486 -0.1143  0.0547 -0.4212
 9211SOL    HW139269   0.019   4.441  12.403 -1.7626 -0.7495  0.4578
 9211SOL    HW239270   0.042   4.406  12.541 -0.1307 -0.0211 -0.5265
 9212SOL     OW39271   3.662   4.283   2.277 -0.1223 -0.5146  0.3763
 9212SOL    HW139272   3.721   4.356   2.255  1.5209 -2.0849 -0.4408
 9212SOL    HW239273   3.689   4.208   2.224  1.5386 -0.4648  1.1235
 9213SOL     OW39274   2.307   1.545   0.202  0.1471  0.0284 -0.0643
 9213SOL    HW139275   2.317   1.461   0.156 -0.3321 -1.1791  2.0284
 9213SOL    HW239276   2.325   1.513   0.291  0.6044 -0.5443 -0.3605
 9214SOL     OW39277   1.676   1.929   7.176  0.1216 -0.2684 -0.1350
 9214SOL    HW139278   1.769   1.909   7.165 -0.3643  0.0717 -4.9241
 9214SOL    HW239279   1.633   1.850   7.208 -0.8748  1.0286  1.7802
 9215SOL     OW39280   3.289   1.070  12.841  0.0848  0.1806 -0.0197
 9215SOL    HW139281   3.380   1.039  12.839  0.4216  1.0095  1.9529
 9215SOL    HW239282   3.267   1.076  12.748 -1.5522  0.0016  0.3579
 9216SOL     OW39283   3.594   3.281   4.171  0.2649 -0.1187 -0.4655
 9216SOL    HW139284   3.538   3.359   4.170 -0.6166 -0.7305  0.7939
 9216SOL    HW239285   3.676   3.321   4.199 -2.0149  3.1079  1.6775
 9217SOL     OW39286   3.342   2.921  10.862  0.2046 -0.0211 -0.0771
 9217SOL    HW139287   3.317   2.962  10.779 -0.8154 -1.7052 -0.5995
 9217SOL    HW239288   3.307   2.993  10.916  0.0380  0.5684 -0.9751
 9218SOL     OW39289   2.965   4.587  15.945  0.1333  0.2907  0.5855
 9218SOL    HW139290   2.937   4.654  15.882 -3.6981  0.2436  2.1783
 9218SOL    HW239291   3.059   4.577  15.935  0.3313  2.6828 -0.0425
 9219SOL     OW39292   3.608   2.859  12.581  0.0255  0.1828 -0.2590
 9219SOL    HW139293   3.518   2.840  12.609 -0.0196  1.3998  0.4196
 9219SOL    HW239294   3.621   2.934  12.640  0.0931 -0.3140  0.3561
 9220SOL     OW39295   3.808   4.346  17.137  0.1019 -0.3343  0.2200
 9220SOL    HW139296   3.780   4.437  17.145  1.0105 -0.0184 -0.1350
 9220SOL    HW239297   3.867   4.346  17.212 -0.5505 -2.0758  0.7337
 9221SOL     OW39298   0.953   2.578  16.164  0.5610 -0.2703  0.3516
 9221SOL    HW139299   0.965   2.638  16.091  0.4588  0.4312  0.9075
 9221SOL    HW239300   0.939   2.644  16.232 -3.8207 -1.9032  1.0676
 9222SOL     OW39301   3.383   3.503  15.482  0.3104 -0.0083  0.4899
 9222SOL    HW139302   3.308   3.539  15.434  0.9259 -0.4199 -0.7868
 9222SOL    HW239303   3.442   3.477  15.411 -0.0981 -0.6631  0.3842
 9223SOL     OW39304   1.548   2.855   2.449 -0.0116 -0.2014 -0.1315
 9223SOL    HW139305   1.575   2.851   2.541  0.7632  0.1048 -0.3434
 9223SOL    HW239306   1.633   2.851   2.405 -0.0240  0.2014 -0.1882
 9224SOL     OW39307   4.497   3.474   3.606  0.6441 -0.7113  0.1294
 9224SOL    HW139308   4.562   3.415   3.644 -0.1163 -1.3069  0.4970
 9224SOL    HW239309   4.454   3.414   3.545 -1.9623 -0.5920  1.8435
 9225SOL     OW39310   0.879   1.839   2.176 -0.3293  0.0329  0.4014
 9225SOL    HW139311   0.969   1.810   2.185 -0.1320  0.6188  0.3213
 9225SOL    HW239312   0.896   1.931   2.194 -0.2483  0.3086 -1.0580
 9226SOL     OW39313   1.827   2.165  17.254 -0.2828 -0.2041 -0.6064
 9226SOL    HW139314   1.754   2.147  17.313  1.0231  0.2626  1.1780
 9226SOL    HW239315   1.878   2.086  17.275  1.0200  0.6557 -0.4988
 9227SOL     OW39316   1.194   1.138   9.216  0.1897  0.4525  0.0353
 9227SOL    HW139317   1.183   1.137   9.311  3.0189  0.2112  0.3743
 9227SOL    HW239318   1.101   1.131   9.195  0.0477  1.0150  0.4663
 9228SOL     OW39319   2.319   3.299   8.081  0.0877  0.3244  0.5240
 9228SOL    HW139320   2.357   3.304   7.993 -1.1066 -0.0535 -0.0204
 9228SOL    HW239321   2.239   3.262   8.043 -0.6264  0.3548  1.9925
 9229SOL     OW39322   1.329   4.226   7.900  0.8293  0.3095  0.0791
 9229SOL    HW139323   1.285   4.310   7.913  0.1446 -0.0842  0.3284
 9229SOL    HW239324   1.287   4.175   7.970  1.1605  1.2408  0.9477
 9230SOL     OW39325   4.442   0.957   5.457  0.4505  0.3816 -0.1562
 9230SOL    HW139326   4.422   0.940   5.549  0.2129  1.4498 -0.0101
 9230SOL    HW239327   4.360   1.000   5.431 -0.6884 -1.1376  0.9000
 9231SOL     OW39328   2.821   2.043   6.365 -0.8655 -0.3868 -0.7254
 9231SOL    HW139329   2.837   2.054   6.458  1.4614 -2.5971 -0.8456
 9231SOL    HW239330   2.901   2.001   6.331 -1.7134  0.1756 -3.4197
 9232SOL     OW39331   2.065   4.335   6.917  0.3412  0.5225  0.4247
 9232SOL    HW139332   2.144   4.367   6.961  1.4995 -4.6837  2.0604
 9232SOL    HW239333   2.068   4.384   6.835  0.2122  0.2457  0.2554
 9233SOL     OW39334   3.363   4.385   8.641  0.6593 -0.4436 -0.4230
 9233SOL    HW139335   3.388   4.386   8.733  0.6355  0.4822 -0.4251
 9233SOL    HW239336   3.446   4.375   8.596 -0.0307  0.3376 -1.8852
 9234SOL     OW39337   1.497   2.630   4.853 -0.1695  0.1414 -0.3169
 9234SOL    HW139338   1.438   2.682   4.799  0.1141  0.0301 -0.7360
 9234SOL    HW239339   1.546   2.595   4.778 -0.9198  1.9109 -1.6228
 9235SOL     OW39340   4.602   2.983  16.533 -0.3681  0.3287  0.2259
 9235SOL    HW139341   4.682   2.976  16.584  0.6536 -0.0382 -1.4286
 9235SOL    HW239342   4.642   2.950  16.453 -2.5140  0.4977 -0.9053
 9236SOL     OW39343   0.969   2.888  17.106 -0.2806  0.5565 -0.2997
 9236SOL    HW139344   1.022   2.917  17.181  0.5558  2.3700 -1.6059
 9236SOL    HW239345   0.894   2.842  17.142  1.5747 -3.8854 -2.1351
 9237SOL     OW39346   3.983   4.044   9.967  0.3383  0.4846  0.4803
 9237SOL    HW139347   4.067   4.034  10.010  1.6596  0.5576 -2.1045
 9237SOL    HW239348   3.918   4.012  10.030  1.7032 -0.9704  1.1417
 9238SOL     OW39349   3.880   0.703  12.493  0.2003  0.5310 -0.3938
 9238SOL    HW139350   3.964   0.716  12.450  0.1492 -0.2073 -0.7119
 9238SOL    HW239351   3.863   0.614  12.461  2.4485 -0.1682  0.3994
 9239SOL     OW39352   0.951   1.529   4.744  0.0613  0.1228 -0.2691
 9239SOL    HW139353   0.909   1.459   4.695  1.1129 -0.5128 -0.2873
 9239SOL    HW239354   1.041   1.518   4.713  1.1894 -2.9714  4.0135
 9240SOL     OW39355   2.014   2.631   6.197  0.1493 -0.1752  0.7860
 9240SOL    HW139356   2.000   2.629   6.102 -1.0605 -4.3681  1.0727
 9240SOL    HW239357   2.045   2.543   6.216  2.6498  0.7363  0.8304
 9241SOL     OW39358   3.009   3.737   0.525  0.4189 -0.1043 -0.1243
 9241SOL    HW139359   2.937   3.685   0.562  1.4554 -0.5441  1.2801
 9241SOL    HW239360   2.964   3.815   0.493 -0.6782 -0.6313  0.1118
 9242SOL     OW39361   4.729   1.713   4.631  0.5103 -0.0299 -0.3308
 9242SOL    HW139362   0.001   1.767   4.552  0.6782 -0.5611 -0.6768
 9242SOL    HW239363   0.057   1.755   4.688 -0.6190  1.6236 -0.2888
 9243SOL     OW39364   3.650   1.864   3.806  0.2845 -0.1333  0.1080
 9243SOL    HW139365   3.659   1.769   3.795 -2.1527 -0.4410  0.6106
 9243SOL    HW239366   3.737   1.899   3.792 -0.1533  0.9028  0.0079
 9244SOL     OW39367   4.279   2.035   2.729  0.0597  0.1058 -0.4428
 9244SOL    HW139368   4.363   1.990   2.721 -0.7523 -1.3387 -0.9667
 9244SOL    HW239369   4.216   1.963   2.742 -0.3033  0.4389 -0.3719
 9245SOL     OW39370   0.024   1.167  15.928  0.4432  0.0886 -0.1858
 9245SOL    HW139371   4.720   1.248  15.898 -1.9605 -1.0506  0.0158
 9245SOL    HW239372   0.109   1.189  15.968 -0.8771  3.2391  0.8267
 9246SOL     OW39373   1.308   0.517   6.030 -0.0493  0.0553  0.7503
 9246SOL    HW139374   1.324   0.610   6.018  0.8936  0.0017  1.6655
 9246SOL    HW239375   1.250   0.497   5.957 -0.1012  3.4631 -0.1291
 9247SOL     OW39376   0.480   4.603   3.864  0.0378  0.0595  0.0169
 9247SOL    HW139377   0.530   4.650   3.797 -0.8280 -1.5261 -1.7659
 9247SOL    HW239378   0.488   4.661   3.939  0.0075  0.1077 -0.0168
 9248SOL     OW39379   4.518   1.607   1.600 -0.0852 -0.4954 -0.1961
 9248SOL    HW139380   4.607   1.576   1.584 -0.8422 -0.8759 -3.6390
 9248SOL    HW239381   4.472   1.547   1.541  1.4207 -0.7969 -1.0641
 9249SOL     OW39382   1.598   0.025   1.446  0.6023 -0.2693  0.3077
 9249SOL    HW139383   1.643   4.697   1.500  1.7848  2.5246  2.5938
 9249SOL    HW239384   1.586   0.099   1.505 -2.6236  0.2159 -0.9446
 9250SOL     OW39385   3.605   2.547  10.734  0.7249 -0.0172 -0.6418
 9250SOL    HW139386   3.597   2.586  10.822  0.3603 -0.6696 -0.3844
 9250SOL    HW239387   3.688   2.500  10.728  1.0591  0.7160 -1.7977
 9251SOL     OW39388   2.336   1.157   2.306  0.0191  0.4185  0.3984
 9251SOL    HW139389   2.370   1.229   2.359  1.5475 -0.2061  0.2791
 9251SOL    HW239390   2.371   1.078   2.348  0.9548  0.5668 -0.1237
 9252SOL     OW39391   4.461   0.082  12.778 -0.0510  0.3797  0.4945
 9252SOL    HW139392   4.538   0.135  12.798  0.0565  0.0203  1.0376
 9252SOL    HW239393   4.429   0.139  12.708  0.3295  1.8513  1.5318
 9253SOL     OW39394   4.272   2.782   3.873  0.0231  0.4450  0.4364
 9253SOL    HW139395   4.365   2.777   3.896  0.1323  2.8580  0.5027
 9253SOL    HW239396   4.254   2.876   3.877 -1.6029  0.1469  0.0809
 9254SOL     OW39397   4.301   2.982   0.064  0.4151 -0.1850 -0.1007
 9254SOL    HW139398   4.377   3.000   0.119 -0.2123  2.8280 -0.2105
 9254SOL    HW239399   4.257   2.923   0.125  0.0577 -4.0729 -4.1523
 9255SOL     OW39400   2.462   3.964   3.182  0.2231 -0.5149  0.0272
 9255SOL    HW139401   2.439   3.878   3.145  2.8223 -1.6384  1.0034
 9255SOL    HW239402   2.481   3.943   3.274  1.7547 -1.7489 -0.5596
 9256SOL     OW39403   0.360   1.679   5.491  0.2164  0.1293  0.5313
 9256SOL    HW139404   0.400   1.696   5.405  0.1531 -0.4651  0.3822
 9256SOL    HW239405   0.355   1.583   5.489 -0.5689  0.1489  2.2015
 9257SOL     OW39406   0.212   3.364   9.379  0.6569 -0.1893  0.0698
 9257SOL    HW139407   0.260   3.440   9.412  1.7187 -0.4795 -0.7897
 9257SOL    HW239408   0.260   3.293   9.422  3.4377  1.0926 -0.8905
 9258SOL     OW39409   0.537   2.902   8.303 -0.1706  0.6160 -0.2279
 9258SOL    HW139410   0.584   2.905   8.219  1.5185  0.2282  0.7141
 9258SOL    HW239411   0.560   2.987   8.342  0.8092  0.9825 -1.5570
 9259SOL     OW39412   2.063   4.327  17.606 -0.5622 -0.2210  0.0857
 9259SOL    HW139413   1.990   4.274  17.638 -0.8877  0.3278  0.2537
 9259SOL    HW239414   2.136   4.272  17.633  0.7008  1.5039  0.2278
 9260SOL     OW39415   1.296   4.467   3.158 -0.1522 -0.3543 -0.2251
 9260SOL    HW139416   1.244   4.390   3.182 -0.9386  0.5616  0.9992
 9260SOL    HW239417   1.381   4.432   3.183  0.1952  0.2959 -0.4911
 9261SOL     OW39418   3.948   2.836   0.612  0.1392 -0.0929  0.0173
 9261SOL    HW139419   4.013   2.814   0.679 -0.1379  2.2201  1.0504
 9261SOL    HW239420   3.991   2.785   0.543  0.2159 -0.5320  0.3881
 9262SOL     OW39421   1.829   1.661   8.391 -0.2214 -0.0769 -0.2021
 9262SOL    HW139422   1.828   1.591   8.457 -0.3006 -0.8672 -1.0450
 9262SOL    HW239423   1.764   1.722   8.425 -1.5303 -1.3194 -0.4719
 9263SOL     OW39424   0.036   0.400  10.231  0.0740 -0.2578 -0.3497
 9263SOL    HW139425   0.096   0.338  10.190  0.3744 -0.0531 -0.2223
 9263SOL    HW239426   0.098   0.460  10.273  0.1135 -1.5536  1.4162
 9264SOL     OW39427   2.790   4.291   4.481  0.6185  0.3731 -0.2222
 9264SOL    HW139428   2.703   4.317   4.453 -0.0117 -1.2919  0.2107
 9264SOL    HW239429   2.794   4.319   4.573 -3.8803  1.7337 -0.4674
 9265SOL     OW39430   2.728   0.948   2.649  0.0263  0.2419 -0.2000
 9265SOL    HW139431   2.731   0.987   2.736  0.9382 -3.0156  1.2395
 9265SOL    HW239432   2.654   0.887   2.648  1.4563 -1.4973 -1.0391
 9266SOL     OW39433   3.188   4.503  11.572 -0.1620  0.1277 -0.4557
 9266SOL    HW139434   3.143   4.586  11.555  0.2719  0.5510  0.4625
 9266SOL    HW239435   3.201   4.492  11.666  0.0817  0.4295 -0.4537
 9267SOL     OW39436   3.114   3.829  15.465  0.5327 -0.1457 -0.4760
 9267SOL    HW139437   3.120   3.924  15.453 -0.6127 -0.0012  0.1396
 9267SOL    HW239438   3.022   3.827  15.489  0.4873  0.0091 -0.6386
 9268SOL     OW39439   1.873   1.123  15.206 -0.0859  0.5586  0.3053
 9268SOL    HW139440   1.852   1.196  15.264  1.3498  1.0453  0.2032
 9268SOL    HW239441   1.932   1.168  15.146  0.9397 -0.9144  0.2056
 9269SOL     OW39442   0.774   3.818  14.652  0.5935 -0.2061 -0.4832
 9269SOL    HW139443   0.730   3.847  14.731 -1.4187 -0.1956 -1.6153
 9269SOL    HW239444   0.859   3.800  14.693  0.3565 -2.3004 -0.9033
 9270SOL     OW39445   4.717   1.165   8.929  0.8633 -0.4902 -0.5012
 9270SOL    HW139446   0.040   1.203   8.993 -1.9725 -0.9833  2.4440
 9270SOL    HW239447   0.038   1.150   8.854  1.1331  3.1364 -1.0252
 9271SOL     OW39448   4.674   3.175   8.971 -0.6807  0.3434  0.0383
 9271SOL    HW139449   4.697   3.265   8.995  1.0817 -0.2183  0.4663
 9271SOL    HW239450   4.579   3.186   8.975 -0.8005 -0.0847 -1.5722
 9272SOL     OW39451   4.318   1.167  13.893 -0.4457 -0.0144 -0.0527
 9272SOL    HW139452   4.411   1.162  13.869 -0.3713  1.1793 -0.0408
 9272SOL    HW239453   4.277   1.185  13.808 -1.7035  0.5782  0.6877
 9273SOL     OW39454   4.718   0.841   9.293 -0.0956 -0.5114  0.1984
 9273SOL    HW139455   4.627   0.830   9.266 -0.2822  0.6289  0.3651
 9273SOL    HW239456   0.036   0.828   9.216  2.4449  0.0420  1.8935
 9274SOL     OW39457   1.679   1.833   8.532 -0.6152 -0.1304 -0.2822
 9274SOL    HW139458   1.591   1.832   8.494 -1.2279 -1.0555  1.1928
 9274SOL    HW239459   1.715   1.920   8.514 -0.4523 -0.2274 -0.4277
 9275SOL     OW39460   3.187   4.011   6.056 -0.2415 -0.5628  0.4554
 9275SOL    HW139461   3.182   3.965   6.139  1.0049 -0.1690  0.7592
 9275SOL    HW239462   3.151   4.096   6.082 -0.8852  0.1116 -2.5846
 9276SOL     OW39463   0.024   4.530   8.769 -0.1532  0.1028  0.1817
 9276SOL    HW139464   0.094   4.466   8.781 -0.2765 -0.1789 -0.6293
 9276SOL    HW239465   4.729   4.550   8.857  1.1379 -0.0418  0.6744
 9277SOL     OW39466   3.759   1.666   6.483  0.3396  0.4669 -0.4003
 9277SOL    HW139467   3.722   1.627   6.404 -1.4289 -2.4112  1.8252
 9277SOL    HW239468   3.825   1.599   6.499  0.8304  1.1069  0.2608
 9278SOL     OW39469   2.733   3.450   1.867 -0.3042  0.3419 -0.6805
 9278SOL    HW139470   2.719   3.509   1.941 -2.6980  0.3350 -1.1464
 9278SOL    HW239471   2.754   3.513   1.799 -1.1007 -0.8057 -1.9832
 9279SOL     OW39472   1.873   4.138  17.709 -0.5117  0.1509 -0.6174
 9279SOL    HW139473   1.839   4.111   0.051 -2.8996  1.5551 -1.1239
 9279SOL    HW239474   1.793   4.131  17.658 -0.0848  0.2142 -1.2869
 9280SOL     OW39475   2.180   0.655   2.560  0.1238 -0.4712  0.4822
 9280SOL    HW139476   2.194   0.725   2.496  1.1392 -0.1132  1.0818
 9280SOL    HW239477   2.203   0.576   2.511  1.6862  2.0662 -2.8666
 9281SOL     OW39478   3.463   4.119   6.147 -0.4601 -0.1897 -0.2828
 9281SOL    HW139479   3.481   4.045   6.088  0.9797  0.4438 -0.6409
 9281SOL    HW239480   3.429   4.076   6.226  2.8245 -0.9378  0.7415
 9282SOL     OW39481   4.675   0.155   2.236  0.7302 -0.7858 -0.1113
 9282SOL    HW139482   4.725   0.138   2.156 -0.4190  0.5168 -1.0997
 9282SOL    HW239483   4.658   0.064   2.261 -0.6378 -1.1994 -2.5525
 9283SOL     OW39484   1.462   2.334   4.382  0.5484 -0.6649  0.3588
 9283SOL    HW139485   1.429   2.301   4.465  2.0722 -1.4098  0.6622
 9283SOL    HW239486   1.528   2.272   4.353  0.5660 -0.7876  0.6649
 9284SOL     OW39487   1.229   3.793  10.307 -0.0456  0.2386 -0.1088
 9284SOL    HW139488   1.148   3.818  10.353  1.0607 -0.3483  2.1069
 9284SOL    HW239489   1.208   3.701  10.294  2.6993 -0.3757  0.0294
 9285SOL     OW39490   0.378   2.085   5.688 -0.2352  0.7828 -0.2519
 9285SOL    HW139491   0.296   2.064   5.732 -1.1191  0.5100 -2.0317
 9285SOL    HW239492   0.429   2.092   5.769 -1.3321  0.6124  0.4549
 9286SOL     OW39493   0.146   1.714   0.866 -0.3437 -0.4373  0.0776
 9286SOL    HW139494   0.117   1.625   0.884  0.6426 -0.7224  0.2445
 9286SOL    HW239495   0.223   1.702   0.811  0.1812  1.0447  0.4977
 9287SOL     OW39496   3.929   0.186   3.136  0.2675 -0.5469  0.4255
 9287SOL    HW139497   4.006   0.163   3.188  0.1126 -1.9388  0.0284
 9287SOL    HW239498   3.905   0.102   3.097  0.2975  0.9069 -2.7164
 9288SOL     OW39499   1.222   4.638   6.742  0.1097 -0.1052 -0.0837
 9288SOL    HW139500   1.283   4.610   6.675 -2.0148 -2.2878 -1.1092
 9288SOL    HW239501   1.208   4.730   6.717 -0.7523 -0.0925  0.4367
 9289SOL     OW39502   2.373   2.059  12.071 -0.2964  0.1464 -0.2670
 9289SOL    HW139503   2.401   2.090  12.157  3.2058  1.4032 -1.8729
 9289SOL    HW239504   2.309   2.121  12.035 -0.4605  0.3048  0.2943
 9290SOL     OW39505   4.261   2.302   4.941  0.0679 -0.4051 -0.0142
 9290SOL    HW139506   4.226   2.278   4.855 -2.4371  0.0242  0.8953
 9290SOL    HW239507   4.265   2.218   4.988  0.2740  0.3534  1.3261
 9291SOL     OW39508   4.523   1.417   4.545 -0.6767  0.3137  0.1621
 9291SOL    HW139509   4.510   1.487   4.481  0.1324 -0.7593 -1.1716
 9291SOL    HW239510   4.438   1.431   4.587  0.2271  1.6243  1.5347
 9292SOL     OW39511   4.206   3.336   8.017  0.3686 -0.3068  0.4836
 9292SOL    HW139512   4.156   3.404   8.061  0.6353 -0.4785  1.0458
 9292SOL    HW239513   4.296   3.362   8.036  0.3824  0.9402 -1.2211
 9293SOL     OW39514   1.366   1.464   2.373  0.0462 -0.5186  0.4868
 9293SOL    HW139515   1.460   1.445   2.383  0.3274  1.6205  1.8126
 9293SOL    HW239516   1.349   1.527   2.443 -0.6049 -0.9496  0.7129
 9294SOL     OW39517   4.475   4.714   2.436  0.0788 -0.2902  0.2371
 9294SOL    HW139518   4.415   4.670   2.496  0.4520 -0.4125  0.5173
 9294SOL    HW239519   4.480   0.059   2.486  3.0081 -0.4498  0.1849
 9295SOL     OW39520   3.898   0.295   2.299  0.3814  0.5475 -0.4737
 9295SOL    HW139521   3.852   0.365   2.252 -0.1089  1.3122  1.1812
 9295SOL    HW239522   3.988   0.316   2.273  1.5254 -1.3049  2.0625
 9296SOL     OW39523   0.842   0.991   8.451 -0.3243  0.1113  0.1145
 9296SOL    HW139524   0.792   0.992   8.532 -0.6076 -0.1125 -0.0602
 9296SOL    HW239525   0.926   1.019   8.488 -0.0799 -0.6727  0.1378
 9297SOL     OW39526   3.507   0.669   6.551  0.4387 -0.2416 -0.0572
 9297SOL    HW139527   3.502   0.574   6.538  2.3766 -0.4986  0.9496
 9297SOL    HW239528   3.472   0.691   6.465  1.6169  1.0360 -0.1990
 9298SOL     OW39529   2.642   1.928   7.989 -0.6704 -0.1067 -0.4518
 9298SOL    HW139530   2.621   1.889   7.905 -0.3079  0.1426 -0.6576
 9298SOL    HW239531   2.737   1.916   7.998 -0.4350 -0.2816 -3.4077
 9299SOL     OW39532   0.272   0.436   6.546  0.0950  0.4902  0.2470
 9299SOL    HW139533   0.214   0.480   6.609  1.7141  1.1643  1.2688
 9299SOL    HW239534   0.227   0.353   6.533  2.8933 -0.4832 -3.0512
 9300SOL     OW39535   2.611   3.555   1.122 -0.6633 -0.2645 -0.9806
 9300SOL    HW139536   2.680   3.608   1.163 -2.1718  0.5723  0.4491
 9300SOL    HW239537   2.646   3.470   1.150 -0.2216  0.0098 -0.7110
 9301SOL     OW39538   3.038   0.608  10.484 -0.4012  0.1483 -0.4185
 9301SOL    HW139539   3.063   0.572  10.399 -0.2926  1.1998 -0.8332
 9301SOL    HW239540   2.953   0.647  10.463 -0.5919  0.5413  1.0778
 9302SOL     OW39541   0.111   1.032   9.405 -0.1489  0.0710  0.1348
 9302SOL    HW139542   0.064   0.967   9.352  0.3184 -0.1430 -0.0192
 9302SOL    HW239543   0.043   1.066   9.463 -0.9295 -1.6526  0.2219
 9303SOL     OW39544   0.659   0.938   2.886 -0.1728  0.0723  0.6507
 9303SOL    HW139545   0.612   0.940   2.969 -0.1298 -1.0307  0.6903
 9303SOL    HW239546   0.594   0.959   2.819 -0.6953  2.1204  1.7775
 9304SOL     OW39547   1.603   0.131   4.427 -0.6639 -0.0002 -0.2130
 9304SOL    HW139548   1.538   0.147   4.357  0.4883 -3.9220 -2.1922
 9304SOL    HW239549   1.571   0.047   4.462 -0.2179 -0.1885 -0.2550
 9305SOL     OW39550   1.204   2.577   6.171  0.5385  0.5457  0.3980
 9305SOL    HW139551   1.226   2.484   6.168 -0.3074  0.3683 -0.4036
 9305SOL    HW239552   1.288   2.623   6.177  1.7748 -1.4900 -1.1800
 9306SOL     OW39553   0.127   2.816  14.998 -0.4154  0.4125  0.2742
 9306SOL    HW139554   0.161   2.729  15.017  1.2676  1.0078 -0.0727
 9306SOL    HW239555   0.122   2.810  14.903  1.2404  0.7978  0.1629
 9307SOL     OW39556   3.370   3.917   7.446  0.0180 -0.2976  0.0522
 9307SOL    HW139557   3.320   3.861   7.386 -0.5917 -0.8313  1.0633
 9307SOL    HW239558   3.451   3.870   7.464 -0.4490 -1.4407 -0.7976
 9308SOL     OW39559   3.050   4.507  13.816 -0.4808 -0.3167  0.2563
 9308SOL    HW139560   3.086   4.568  13.880  1.0728 -0.0041 -0.9415
 9308SOL    HW239561   2.997   4.559  13.756  1.1416 -0.6244 -1.4031
 9309SOL     OW39562   0.422   4.214  12.912 -0.6119  0.1054 -0.2420
 9309SOL    HW139563   0.438   4.305  12.934  1.3933 -0.0624 -1.0068
 9309SOL    HW239564   0.369   4.180  12.985  0.9449  2.3241  1.8890
 9310SOL     OW39565   0.630   2.449   2.374 -0.1125 -0.2244  0.3731
 9310SOL    HW139566   0.579   2.517   2.417 -0.4449 -0.2557  0.0303
 9310SOL    HW239567   0.566   2.436   2.304  0.8920  2.0183 -1.0039
 9311SOL     OW39568   0.793   0.782  15.443  0.5901  0.5578  0.4109
 9311SOL    HW139569   0.850   0.763  15.368  0.7936  3.1385 -0.0832
 9311SOL    HW239570   0.797   0.876  15.461 -2.0117  1.0267 -1.5833
 9312SOL     OW39571   3.805   4.311   1.501  0.5454  0.2752 -0.1660
 9312SOL    HW139572   3.738   4.362   1.547  0.2041  0.5312 -0.9512
 9312SOL    HW239573   3.806   4.228   1.550  2.1360 -0.7132 -1.8542
 9313SOL     OW39574   3.008   1.722  12.590 -0.0410 -0.5816  0.1735
 9313SOL    HW139575   3.028   1.719  12.683 -0.3025 -0.9966  0.2151
 9313SOL    HW239576   2.916   1.749  12.594 -0.0004 -0.1822 -1.2952
 9314SOL     OW39577   2.848   4.404   2.310  0.2664 -0.2596  0.0603
 9314SOL    HW139578   2.809   4.424   2.395  0.7535  1.7028 -0.1903
 9314SOL    HW239579   2.830   4.489   2.270 -0.1081  0.4175  1.6944
 9315SOL     OW39580   3.875   0.428   7.077  0.0024 -0.2095  0.0700
 9315SOL    HW139581   3.885   0.342   7.036  0.7554 -0.9515  1.7948
 9315SOL    HW239582   3.799   0.409   7.132 -0.3938  1.1942  0.0154
 9316SOL     OW39583   0.200   4.583   7.175  0.0235 -0.3735 -0.3901
 9316SOL    HW139584   0.258   4.652   7.208  0.7076 -0.9398 -0.3952
 9316SOL    HW239585   0.116   4.608   7.211 -0.3307 -0.9416 -0.8148
 9317SOL     OW39586   0.867   2.674  13.083 -0.3913 -0.1466  0.3069
 9317SOL    HW139587   0.788   2.711  13.124 -0.4711 -0.1640  0.1699
 9317SOL    HW239588   0.877   2.599  13.142  0.4319 -0.3106 -0.0440
 9318SOL     OW39589   2.503   2.868   4.440  0.0269  0.2491 -0.7865
 9318SOL    HW139590   2.494   2.807   4.367  1.0330  0.0370 -0.7382
 9318SOL    HW239591   2.553   2.937   4.396  3.1228 -1.2260  0.4034
 9319SOL     OW39592   2.688   4.655   5.212  0.1238  0.0912 -0.1104
 9319SOL    HW139593   2.668   4.614   5.128  4.6679  0.0611 -1.1602
 9319SOL    HW239594   2.649   4.587   5.268 -0.5290  1.0377  0.5912
 9320SOL     OW39595   3.307   3.750   7.261  0.3434  0.4531 -0.5620
 9320SOL    HW139596   3.290   3.758   7.168  1.3957  0.9856 -0.7096
 9320SOL    HW239597   3.343   3.661   7.269 -1.5704 -0.2751 -0.0929
 9321SOL     OW39598   0.123   0.527  17.631  0.3005  0.0029  0.1425
 9321SOL    HW139599   0.214   0.500  17.615  0.3944  1.0946 -1.1640
 9321SOL    HW239600   0.094   0.456  17.689 -2.4495  0.7414 -0.3792
 9322SOL     OW39601   1.448   4.277   8.735 -0.1343  0.1010  0.0131
 9322SOL    HW139602   1.381   4.294   8.669  1.2042 -1.2756 -1.7066
 9322SOL    HW239603   1.513   4.343   8.710 -0.2716  1.1564  2.4455
 9323SOL     OW39604   4.369   1.376   5.859  0.8093 -0.5489  0.2191
 9323SOL    HW139605   4.458   1.344   5.872  0.8030 -1.0303 -0.9180
 9323SOL    HW239606   4.383   1.465   5.890 -1.2584 -0.0742 -0.2034
 9324SOL     OW39607   1.147   3.831   8.734 -0.4434 -0.1975 -0.0494
 9324SOL    HW139608   1.059   3.854   8.765  0.2819  2.6706 -0.1205
 9324SOL    HW239609   1.160   3.906   8.676  0.2238 -0.4626 -0.2385
 9325SOL     OW39610   4.278   1.776  14.840 -0.7029 -0.1170  0.4668
 9325SOL    HW139611   4.268   1.685  14.811  0.7568  0.1420 -0.8987
 9325SOL    HW239612   4.241   1.825  14.767 -0.5903 -0.8799 -0.0979
 9326SOL     OW39613   3.441   1.218  13.444 -0.8869  0.2597  0.2343
 9326SOL    HW139614   3.388   1.182  13.514 -0.5957 -2.7979 -1.1177
 9326SOL    HW239615   3.379   1.275  13.399 -0.8536  1.0640  1.2142
 9327SOL     OW39616   0.682   2.994  14.356  0.0100 -0.0220  0.5626
 9327SOL    HW139617   0.722   3.077  14.331 -0.7998 -0.6684 -2.8631
 9327SOL    HW239618   0.685   3.003  14.452  1.5550  0.8203  0.4286
 9328SOL     OW39619   4.341   1.709  12.090 -0.1219  0.0613 -0.7906
 9328SOL    HW139620   4.263   1.688  12.141 -0.8459 -1.6464 -2.6021
 9328SOL    HW239621   4.326   1.642  12.022 -1.7002 -0.8496  0.4647
 9329SOL     OW39622   1.172   0.367  17.126 -0.1745  0.0285  0.5696
 9329SOL    HW139623   1.190   0.442  17.182 -1.0695  0.7310 -0.0789
 9329SOL    HW239624   1.244   0.368  17.062 -1.3775  1.5978 -0.7701
 9330SOL     OW39625   2.731   1.734   4.178 -0.3831 -0.0466 -0.1078
 9330SOL    HW139626   2.785   1.807   4.208 -0.3675 -0.5650  1.1486
 9330SOL    HW239627   2.793   1.680   4.130 -0.6791 -1.4908  1.1077
 9331SOL     OW39628   3.530   2.400   0.122 -0.1665  0.1343 -0.4383
 9331SOL    HW139629   3.515   2.434   0.211 -0.0949 -0.9628 -0.0079
 9331SOL    HW239630   3.551   2.309   0.145  2.3230  1.0171  0.7776
 9332SOL     OW39631   2.932   4.292   3.556 -0.0504 -0.1022  0.3921
 9332SOL    HW139632   2.879   4.366   3.589  0.0760 -0.6614  1.8499
 9332SOL    HW239633   2.903   4.288   3.465  0.1615 -1.4987  0.3948
 9333SOL     OW39634   1.028   4.482  15.882  0.0749 -0.0285 -0.1236
 9333SOL    HW139635   0.988   4.428  15.950 -0.6548  0.8931  0.1720
 9333SOL    HW239636   1.091   4.525  15.941  0.7594 -0.3854 -0.5978
 9334SOL     OW39637   3.031   3.504   4.153 -0.9751 -0.4000 -0.7243
 9334SOL    HW139638   3.056   3.541   4.237 -3.8189  0.0413 -0.0753
 9334SOL    HW239639   3.097   3.437   4.132  1.9619  1.5748  2.2688
 9335SOL     OW39640   0.295   0.840  15.711  0.0339  0.1771  0.4113
 9335SOL    HW139641   0.275   0.873  15.798 -3.4910  1.6240 -0.9412
 9335SOL    HW239642   0.228   0.772  15.719  3.4524 -2.8538  2.7049
 9336SOL     OW39643   2.026   0.807  11.756  0.0442 -0.3520  0.4943
 9336SOL    HW139644   2.111   0.848  11.769  0.6813 -1.4426 -0.1882
 9336SOL    HW239645   2.027   0.779  11.664 -2.3182  0.1618  0.3000
 9337SOL     OW39646   2.128   2.021   5.069 -0.6261  0.4311  0.6789
 9337SOL    HW139647   2.123   2.116   5.053  0.6612  0.2355 -0.8830
 9337SOL    HW239648   2.073   1.974   5.008  0.7645 -2.1963  1.4632
 9338SOL     OW39649   0.977   4.617   4.130 -0.1338 -0.5489  0.4902
 9338SOL    HW139650   1.045   4.639   4.194  1.2714 -0.7850 -0.9303
 9338SOL    HW239651   0.900   4.673   4.141  0.6295  0.6118 -0.1247
 9339SOL     OW39652   3.296   4.566  10.923 -0.6697  0.2424 -0.3278
 9339SOL    HW139653   3.210   4.604  10.944 -1.4535 -1.6461 -0.1361
 9339SOL    HW239654   3.273   4.502  10.856  0.6131  1.7408 -2.2056
 9340SOL     OW39655   0.586   4.250   1.998  0.1864 -0.1256  0.1801
 9340SOL    HW139656   0.612   4.175   1.944  0.3177 -0.0781  0.1761
 9340SOL    HW239657   0.601   4.206   2.082  0.8591  0.9568  0.6251
 9341SOL     OW39658   2.573   1.243   1.701  0.1729 -0.3495  0.4346
 9341SOL    HW139659   2.516   1.237   1.624  0.5306  1.1909  0.0535
 9341SOL    HW239660   2.627   1.166   1.685  1.2408  0.5506 -0.2594
 9342SOL     OW39661   1.989   3.607   4.248  0.3000 -0.1190 -0.3908
 9342SOL    HW139662   1.924   3.607   4.318  0.4558 -0.5322 -0.2495
 9342SOL    HW239663   2.059   3.659   4.288 -0.5414  0.3179  0.5095
 9343SOL     OW39664   0.737   4.722   8.597 -0.6659 -0.1253 -0.1183
 9343SOL    HW139665   0.740   0.022   8.508 -0.8425  1.7654  0.6524
 9343SOL    HW239666   0.824   4.681   8.600 -0.1412  1.0989  1.3545
 9344SOL     OW39667   1.081   0.520   4.809 -0.1048  0.3058  0.4693
 9344SOL    HW139668   1.117   0.530   4.897  2.3601  0.0608 -0.5095
 9344SOL    HW239669   0.993   0.556   4.816 -0.3356 -0.4808  1.5383
 9345SOL     OW39670   1.157   4.528   8.291  0.1055  0.1359  0.5461
 9345SOL    HW139671   1.214   4.554   8.362 -1.8018  1.2965  1.6380
 9345SOL    HW239672   1.128   4.441   8.318 -1.1868  0.0066 -1.1988
 9346SOL     OW39673   3.947   2.666   8.555 -0.4367  0.9039  0.3347
 9346SOL    HW139674   3.862   2.704   8.580 -1.1531 -0.8776  0.6158
 9346SOL    HW239675   3.956   2.700   8.467 -0.2899 -0.6077 -0.2343
 9347SOL     OW39676   2.678   2.928   3.980  0.8154  0.2667  0.6555
 9347SOL    HW139677   2.642   3.016   3.965 -2.2615 -0.7861  1.6663
 9347SOL    HW239678   2.771   2.949   3.981  1.4140 -2.3468 -0.1982
 9348SOL     OW39679   1.273   4.433   1.273 -0.3378  0.6686 -0.6802
 9348SOL    HW139680   1.353   4.473   1.240  0.6463 -2.9213 -2.5567
 9348SOL    HW239681   1.268   4.489   1.351 -1.0284 -0.0347 -0.2217
 9349SOL     OW39682   3.418   0.079   8.274  0.1219  0.4272 -0.7288
 9349SOL    HW139683   3.338   0.027   8.282  0.9636 -0.3557  2.7559
 9349SOL    HW239684   3.473   0.004   8.294 -2.2126 -1.2324 -0.6366
 9350SOL     OW39685   0.018   2.915   5.737 -0.7159 -0.0700 -0.3140
 9350SOL    HW139686   0.102   2.960   5.732 -0.5136 -0.3791  0.2803
 9350SOL    HW239687   4.698   2.968   5.681  0.2337  0.0671 -1.1535
 9351SOL     OW39688   1.498   3.680  12.877  0.0116 -0.0714  0.2983
 9351SOL    HW139689   1.479   3.769  12.906 -0.9309  0.7245 -2.6803
 9351SOL    HW239690   1.580   3.672  12.925  0.6217 -1.7734 -1.0383
 9352SOL     OW39691   2.274   1.113  16.323 -0.0576 -0.2969  0.3714
 9352SOL    HW139692   2.347   1.053  16.340  1.3042  1.6392  1.3319
 9352SOL    HW239693   2.226   1.103  16.405  0.0376  1.0231  0.5897
 9353SOL     OW39694   1.127   1.026  13.607 -0.2712 -0.2452 -0.1951
 9353SOL    HW139695   1.181   1.012  13.685 -1.1784 -0.6178  0.3613
 9353SOL    HW239696   1.116   1.121  13.600  0.2755 -0.0285  1.8793
 9354SOL     OW39697   4.529   2.293  14.897  0.4464 -0.3655 -0.6153
 9354SOL    HW139698   4.493   2.238  14.827 -0.0511 -1.7017  0.6864
 9354SOL    HW239699   4.598   2.346  14.857 -0.1256  0.7045 -0.1622
 9355SOL     OW39700   4.700   0.425   3.886  0.2648 -0.2957 -0.0084
 9355SOL    HW139701   4.644   0.420   3.964  0.5806  1.8821  0.3622
 9355SOL    HW239702   0.037   0.380   3.930 -0.7171 -1.7410  0.1501
 9356SOL     OW39703   4.221   3.496   5.180  0.3155 -0.3855 -0.7216
 9356SOL    HW139704   4.190   3.546   5.104  1.7941 -0.9537 -1.7064
 9356SOL    HW239705   4.278   3.438   5.128  0.1299 -1.5433  0.3717
 9357SOL     OW39706   4.362   1.878  17.190 -0.2548  0.4397  0.7048
 9357SOL    HW139707   4.335   1.840  17.274 -1.4937  0.2531  0.2250
 9357SOL    HW239708   4.455   1.888  17.209 -0.1242  1.0670 -0.2542
 9358SOL     OW39709   2.950   1.184   7.747  0.0144  0.4714 -0.1421
 9358SOL    HW139710   2.929   1.107   7.694  0.9135  1.5029 -1.9920
 9358SOL    HW239711   2.944   1.156   7.838  0.8103  0.1772 -0.1753
 9359SOL     OW39712   2.633   0.999   5.645  0.0320 -0.1336 -0.3699
 9359SOL    HW139713   2.590   0.994   5.559 -0.6383 -1.4283  0.0315
 9359SOL    HW239714   2.590   1.079   5.673 -1.3093 -0.7513 -0.6463
 9360SOL     OW39715   4.190   0.818  16.546  0.5179 -0.2354 -0.4490
 9360SOL    HW139716   4.146   0.772  16.617 -0.2311 -0.4022 -1.0145
 9360SOL    HW239717   4.142   0.901  16.543 -0.0502 -0.4384  2.8262
 9361SOL     OW39718   2.339   3.917  15.687  0.2634  0.5406 -0.2247
 9361SOL    HW139719   2.345   3.952  15.776  0.9279 -1.1084  0.3716
 9361SOL    HW239720   2.404   3.974  15.644  0.1697 -0.1114 -1.2226
 9362SOL     OW39721   0.035   2.217   7.035  0.4869 -0.4250 -0.0560
 9362SOL    HW139722   0.117   2.211   7.084  0.7648  1.5368 -0.2825
 9362SOL    HW239723   4.710   2.210   7.108  1.7845 -0.7593  1.0004
 9363SOL     OW39724   3.634   1.811   1.302 -0.2590  0.4180 -0.1630
 9363SOL    HW139725   3.719   1.808   1.346  0.7227 -0.5430 -2.1638
 9363SOL    HW239726   3.582   1.795   1.382 -2.3477 -1.3361 -1.8746
 9364SOL     OW39727   4.701   3.967   6.956  0.4727 -0.7234  0.2800
 9364SOL    HW139728   0.022   4.042   6.941 -1.4254  0.6202 -0.3278
 9364SOL    HW239729   4.626   3.984   6.898 -0.5260 -3.1456  0.8467
 9365SOL     OW39730   4.135   1.891   1.380 -0.0585 -0.3052 -0.2611
 9365SOL    HW139731   4.198   1.830   1.419 -0.5360  0.1955  1.2994
 9365SOL    HW239732   4.153   1.964   1.439 -0.1012  0.5663 -1.3190
 9366SOL     OW39733   4.174   2.288  11.837  0.1262 -0.0360 -0.0310
 9366SOL    HW139734   4.179   2.302  11.743  0.0287 -1.3250 -0.2299
 9366SOL    HW239735   4.156   2.376  11.871  1.7604  1.0114 -1.8891
 9367SOL     OW39736   0.316   1.611   4.601  0.2819  0.0953  0.5360
 9367SOL    HW139737   0.332   1.543   4.535 -0.8293  0.0171  0.3481
 9367SOL    HW239738   0.226   1.636   4.580  0.1631 -0.6526  0.1457
 9368SOL     OW39739   3.814   3.910  17.068 -0.6104 -0.1633 -0.0933
 9368SOL    HW139740   3.722   3.930  17.083 -0.3052  0.5631  0.7934
 9368SOL    HW239741   3.839   3.995  17.031 -0.1909 -0.5162 -0.6113
 9369SOL     OW39742   1.031   0.526   8.767  0.2880 -0.2351 -0.1693
 9369SOL    HW139743   1.087   0.467   8.817 -2.8116 -2.3487  0.8194
 9369SOL    HW239744   1.092   0.568   8.707  0.8655  1.5679  1.6631
 9370SOL     OW39745   3.241   0.886   2.528 -0.3308  0.3746  0.2755
 9370SOL    HW139746   3.238   0.935   2.610 -1.2146  1.2836 -0.3049
 9370SOL    HW239747   3.234   0.795   2.559 -0.1860 -0.3613 -1.8400
 9371SOL     OW39748   3.493   2.758   5.876  0.6028 -0.5236  0.8505
 9371SOL    HW139749   3.409   2.774   5.920  1.1565  2.2559  0.9272
 9371SOL    HW239750   3.534   2.845   5.874 -1.0210  0.2420  0.2865
 9372SOL     OW39751   1.499   0.928   7.819  0.1928  0.2105  0.0670
 9372SOL    HW139752   1.510   1.021   7.834  0.6561 -0.0180  1.0952
 9372SOL    HW239753   1.576   0.915   7.762  0.7088  0.4455  0.7145
 9373SOL     OW39754   0.701   2.459   8.099  0.0317 -0.3624 -0.1422
 9373SOL    HW139755   0.709   2.364   8.088 -0.2186 -0.3350 -0.5361
 9373SOL    HW239756   0.721   2.459   8.193 -2.5941 -0.4386  0.4329
 9374SOL     OW39757   0.154   2.690  11.938  0.3809  0.7632 -0.0533
 9374SOL    HW139758   0.126   2.655  11.854  1.6685  1.3122 -0.7145
 9374SOL    HW239759   0.071   2.719  11.977 -2.3151 -4.2704 -2.1050
 9375SOL     OW39760   1.492   0.340   3.945  0.2078 -0.2915  0.3113
 9375SOL    HW139761   1.445   0.336   4.029  1.6603  0.0903  1.1545
 9375SOL    HW239762   1.512   0.250   3.923  2.2766  0.1620  0.3239
 9376SOL     OW39763   3.159   1.691   6.970  0.3126 -0.0416 -0.2217
 9376SOL    HW139764   3.243   1.729   6.942  0.3113 -2.1359 -3.1350
 9376SOL    HW239765   3.193   1.607   7.001 -0.6429 -0.2326  0.2808
 9377SOL     OW39766   1.937   3.001   6.190  0.0992  0.4477 -0.0110
 9377SOL    HW139767   1.990   2.953   6.254  1.1783  0.7549 -0.6622
 9377SOL    HW239768   1.860   3.020   6.243  0.5878 -2.0925  1.6085
 9378SOL     OW39769   1.358   3.970  13.209  0.0591  0.2975 -0.2275
 9378SOL    HW139770   1.300   3.923  13.148 -0.3366  1.2642 -0.6009
 9378SOL    HW239771   1.294   4.020  13.259  0.6103 -0.3355  1.1097
 9379SOL     OW39772   3.473   2.748  14.279 -0.4503  0.3810  0.7261
 9379SOL    HW139773   3.389   2.735  14.324 -0.7694  1.0514  0.3247
 9379SOL    HW239774   3.528   2.736  14.357  0.3454  0.3849  0.1533
 9380SOL     OW39775   3.117   3.818   4.383 -0.0117 -0.6590 -0.4171
 9380SOL    HW139776   3.071   3.759   4.442  0.7531 -3.7613 -2.8896
 9380SOL    HW239777   3.201   3.826   4.427  0.7070 -2.2189 -1.4738
 9381SOL     OW39778   3.613   0.652   6.975 -0.2748  0.3561 -0.3314
 9381SOL    HW139779   3.576   0.598   6.905  0.4729 -0.0705 -0.3961
 9381SOL    HW239780   3.614   0.585   7.043 -0.5700 -1.0131 -1.6684
 9382SOL     OW39781   3.151   0.896   9.393 -0.0653  0.5055 -0.0097
 9382SOL    HW139782   3.086   0.846   9.442  1.5336 -1.7126 -0.1644
 9382SOL    HW239783   3.094   0.942   9.330 -0.0191  0.3109 -0.1929
 9383SOL     OW39784   3.190   3.579   9.082  0.2586 -0.0637 -0.3690
 9383SOL    HW139785   3.138   3.509   9.042 -1.2452  0.1029  1.2935
 9383SOL    HW239786   3.156   3.569   9.171 -0.7758  1.3770 -0.5956
 9384SOL     OW39787   1.948   1.635   5.167 -0.4822  0.2201 -0.0233
 9384SOL    HW139788   1.938   1.584   5.248  0.4758 -1.8221 -1.2200
 9384SOL    HW239789   1.875   1.696   5.155 -1.0988 -0.4168  0.5047
 9385SOL     OW39790   0.870   4.040   4.335 -0.0882  0.2645 -0.2973
 9385SOL    HW139791   0.895   4.008   4.422 -1.0662  0.6123  0.1088
 9385SOL    HW239792   0.864   4.131   4.363  1.5680 -0.0046  0.9705
 9386SOL     OW39793   1.332   1.810   9.132 -0.3077 -0.3366 -0.3280
 9386SOL    HW139794   1.420   1.815   9.171 -0.2277 -0.4077 -0.5015
 9386SOL    HW239795   1.334   1.877   9.064  2.1085 -0.7192 -0.6290
 9387SOL     OW39796   1.035   4.371  13.309  0.2403  0.2225 -0.1893
 9387SOL    HW139797   0.950   4.373  13.264  0.1165 -2.0018 -0.0794
 9387SOL    HW239798   1.014   4.420  13.388 -3.1838  1.0035 -1.5648
 9388SOL     OW39799   2.680   2.226   6.024 -0.0379 -0.3290  0.3729
 9388SOL    HW139800   2.726   2.168   5.964  2.4805 -0.0962  2.0808
 9388SOL    HW239801   2.748   2.246   6.089 -0.7725  1.8812  0.4682
 9389SOL     OW39802   2.431   1.111   1.515 -0.6453  0.0961 -0.1510
 9389SOL    HW139803   2.439   1.083   1.423  0.1989  2.9428 -0.9513
 9389SOL    HW239804   2.370   1.052   1.558  0.0401  0.1766  0.9216
 9390SOL     OW39805   2.970   0.556   3.407  0.0971  0.4812  0.1253
 9390SOL    HW139806   2.922   0.639   3.407  1.0001  0.9967 -2.0887
 9390SOL    HW239807   2.973   0.549   3.312 -0.0770  1.3373  0.0586
 9391SOL     OW39808   1.507   2.463   8.448  0.5247 -0.0654  0.3389
 9391SOL    HW139809   1.449   2.490   8.519 -2.0481 -1.1295 -1.3676
 9391SOL    HW239810   1.439   2.424   8.393 -0.9229 -1.0166  2.7552
 9392SOL     OW39811   2.729   3.607   6.144  0.2684  0.2805  0.1924
 9392SOL    HW139812   2.749   3.514   6.136  0.3892  0.1365  2.1390
 9392SOL    HW239813   2.639   3.611   6.113  0.6728  0.2334 -0.9752
 9393SOL     OW39814   4.167   1.394   1.121  0.6482  0.0566  0.2194
 9393SOL    HW139815   4.184   1.352   1.036 -0.8629  0.3366 -0.2326
 9393SOL    HW239816   4.254   1.408   1.158  0.0866 -1.4933  2.1244
 9394SOL     OW39817   3.425   2.874  17.236  0.1056 -0.3477 -0.5857
 9394SOL    HW139818   3.379   2.794  17.260 -0.4491  0.0233 -0.4298
 9394SOL    HW239819   3.432   2.921  17.319 -0.7917  0.5570 -1.0311
 9395SOL     OW39820   2.371   1.228   8.612 -0.0045 -0.4446  0.0793
 9395SOL    HW139821   2.389   1.269   8.527 -2.9546 -0.3236 -0.4752
 9395SOL    HW239822   2.405   1.291   8.676 -0.7704 -0.7226  0.7556
 9396SOL     OW39823   2.328   4.271   1.549 -0.3633  0.2759 -0.2105
 9396SOL    HW139824   2.303   4.180   1.568  3.1627  0.2098  4.4314
 9396SOL    HW239825   2.251   4.314   1.586 -1.1360 -1.0838 -0.2167
 9397SOL     OW39826   3.908   2.770   1.901  0.2661  0.3499 -0.6813
 9397SOL    HW139827   3.857   2.851   1.904 -2.1924 -1.2699  0.8308
 9397SOL    HW239828   3.842   2.707   1.929 -0.7682  0.9450 -1.7635
 9398SOL     OW39829   0.666   1.689   3.589 -0.4156  0.2647 -0.0728
 9398SOL    HW139830   0.737   1.649   3.540  0.2597  1.3654  0.0034
 9398SOL    HW239831   0.723   1.705   3.664  0.9549 -1.3112 -0.7974
 9399SOL     OW39832   2.789   4.340   8.064  0.0789 -0.2018 -0.0951
 9399SOL    HW139833   2.829   4.257   8.039  0.7681 -0.1193  0.7363
 9399SOL    HW239834   2.698   4.310   8.068 -1.1604  3.6097  0.4632
 9400SOL     OW39835   4.549   4.026   5.972  0.4896  0.1087 -0.3643
 9400SOL    HW139836   4.642   4.020   5.949 -0.0597 -3.1847 -1.8742
 9400SOL    HW239837   4.513   4.067   5.893 -2.4547 -1.8443 -0.0588
 9401SOL     OW39838   3.212   0.328  16.154  0.6893  0.0835  0.1504
 9401SOL    HW139839   3.239   0.305  16.243  1.4293  0.1923 -0.0397
 9401SOL    HW239840   3.139   0.389  16.163  0.4544 -0.2476  0.4849
 9402SOL     OW39841   1.942   2.685   3.866 -0.7186 -0.1172 -0.3054
 9402SOL    HW139842   1.993   2.734   3.931 -2.2389  1.4926 -0.2950
 9402SOL    HW239843   1.986   2.722   3.790  1.1446 -2.0606 -0.1584
 9403SOL     OW39844   2.743   1.863   3.892  0.2442  0.9726 -0.2892
 9403SOL    HW139845   2.768   1.774   3.914  0.9836  1.3288  0.3277
 9403SOL    HW239846   2.803   1.913   3.948  0.6530 -0.0040  0.1339
 9404SOL     OW39847   4.253   3.407   3.205 -0.1711 -1.0162  0.0117
 9404SOL    HW139848   4.328   3.360   3.242  0.6128  0.1126 -0.1043
 9404SOL    HW239849   4.207   3.351   3.143  0.8069 -1.0206 -0.7182
 9405SOL     OW39850   0.077   3.801   6.133 -0.3455  0.1953 -0.6450
 9405SOL    HW139851   0.118   3.773   6.215 -0.4500  0.6160 -0.4499
 9405SOL    HW239852   0.112   3.733   6.075 -3.1709  0.0298 -2.1643
 9406SOL     OW39853   1.170   0.726   4.594 -1.0491 -0.2110 -0.1748
 9406SOL    HW139854   1.258   0.703   4.622  0.2459  0.4552 -3.7512
 9406SOL    HW239855   1.126   0.641   4.590 -0.3185 -0.5680 -0.4371
 9407SOL     OW39856   3.783   0.706  11.652 -0.0908  0.3663 -0.0433
 9407SOL    HW139857   3.714   0.759  11.612 -0.6989 -0.9757 -0.7767
 9407SOL    HW239858   3.812   0.765  11.721 -0.1040 -2.9095  2.7895
 9408SOL     OW39859   3.008   4.505  14.187  0.1985  0.2744  0.2787
 9408SOL    HW139860   2.943   4.563  14.228  0.6799 -0.0401  1.4701
 9408SOL    HW239861   3.073   4.563  14.148 -0.4929 -0.4147 -1.9003
 9409SOL     OW39862   1.049   0.743  12.331 -0.0259 -0.0216  0.3851
 9409SOL    HW139863   1.073   0.798  12.406  0.4970 -0.6630  0.6887
 9409SOL    HW239864   1.115   0.674  12.330 -0.2169 -0.1549 -2.1290
 9410SOL     OW39865   0.312   1.559  13.435 -0.3144  0.5936  0.0856
 9410SOL    HW139866   0.228   1.603  13.446 -1.3896 -1.4036 -0.2266
 9410SOL    HW239867   0.375   1.626  13.461  0.8276 -0.2332 -0.5328
 9411SOL     OW39868   3.089   3.701   5.986  0.1159  0.3732 -0.2476
 9411SOL    HW139869   3.162   3.677   5.929  0.8458  0.9839  0.4234
 9411SOL    HW239870   3.056   3.612   5.993 -1.5744  1.0890  0.6696
 9412SOL     OW39871   3.153   2.999   3.681 -0.3573 -0.2128  0.2873
 9412SOL    HW139872   3.233   2.994   3.627 -1.5537 -2.5025 -1.2408
 9412SOL    HW239873   3.173   3.079   3.730  0.0504 -1.6816  2.5203
 9413SOL     OW39874   0.242   3.692   5.770  0.0391  0.6159  0.2954
 9413SOL    HW139875   0.215   3.614   5.817 -1.6317  0.1368 -1.4137
 9413SOL    HW239876   0.334   3.709   5.789 -0.0307  1.2527  0.0821
 9414SOL     OW39877   0.737   0.028   6.852 -0.1333 -0.7826 -0.7374
 9414SOL    HW139878   0.787   4.732   6.927  1.2122  1.7025 -0.5339
 9414SOL    HW239879   0.806   0.071   6.800 -1.0436 -1.2693 -2.3489
 9415SOL     OW39880   4.528   4.568  11.377  0.2823 -0.2124 -0.1483
 9415SOL    HW139881   4.582   4.586  11.301 -1.2877 -0.3641 -1.3014
 9415SOL    HW239882   4.442   4.587  11.339  0.0401 -1.9187 -0.4193
 9416SOL     OW39883   2.182   0.635   3.708  0.0833  0.2065  0.4611
 9416SOL    HW139884   2.240   0.619   3.633  0.1749  0.6375  0.4420
 9416SOL    HW239885   2.248   0.650   3.775 -1.6592 -0.8004  2.4010
 9417SOL     OW39886   3.998   4.282   2.622  0.8778 -0.7851  0.3439
 9417SOL    HW139887   3.924   4.305   2.679  0.5801  1.2871 -0.8910
 9417SOL    HW239888   3.938   4.228   2.570  0.8285 -1.8148  1.4716
 9418SOL     OW39889   2.803   1.682   2.468  0.6706  0.2015 -0.0028
 9418SOL    HW139890   2.799   1.668   2.374  0.5829 -0.7109  0.1362
 9418SOL    HW239891   2.881   1.738   2.465 -0.7205  1.9877 -2.8270
 9419SOL     OW39892   3.869   3.169   3.429  0.0610  0.1516 -0.1803
 9419SOL    HW139893   3.891   3.262   3.438  1.1209 -0.2833  1.7041
 9419SOL    HW239894   3.777   3.187   3.408 -0.1247 -0.6592 -0.0682
 9420SOL     OW39895   0.183   0.446   5.222  0.2051  0.0263 -0.2812
 9420SOL    HW139896   0.131   0.515   5.264 -1.0662 -0.9609 -0.2473
 9420SOL    HW239897   0.118   0.430   5.155 -2.0245  0.9971  1.6395
 9421SOL     OW39898   1.633   1.595   6.225  0.1291  0.2589 -0.3668
 9421SOL    HW139899   1.655   1.554   6.308 -2.7267 -0.4019  0.0722
 9421SOL    HW239900   1.719   1.619   6.190  1.2412 -1.8912  0.9051
 9422SOL     OW39901   0.223   1.516   3.704  0.0463  0.0437  0.0925
 9422SOL    HW139902   0.278   1.562   3.639  0.9268 -1.3212 -0.1196
 9422SOL    HW239903   0.160   1.588   3.714  1.3444  1.1730  0.1760
 9423SOL     OW39904   4.251   3.472   1.161  0.4954 -0.8723  0.0590
 9423SOL    HW139905   4.235   3.549   1.216 -1.1533 -1.0187 -0.2212
 9423SOL    HW239906   4.165   3.433   1.170  0.7043 -0.9325  1.6677
 9424SOL     OW39907   2.313   3.146   4.116  0.1092 -0.3343  0.0312
 9424SOL    HW139908   2.263   3.068   4.140 -2.0703  1.2062  0.4735
 9424SOL    HW239909   2.278   3.210   4.177  0.9784  0.5872 -0.4215
 9425SOL     OW39910   3.271   1.029   5.229 -0.7539 -0.2234  0.1410
 9425SOL    HW139911   3.245   0.974   5.303  0.3030 -1.0906 -0.1386
 9425SOL    HW239912   3.221   1.110   5.233 -2.3855 -1.1874 -0.7908
 9426SOL     OW39913   2.450   2.498   8.270  0.2767 -0.1237 -0.0049
 9426SOL    HW139914   2.469   2.562   8.202  2.5774  0.3275  1.0563
 9426SOL    HW239915   2.362   2.485   8.236  0.7828  2.9785 -2.4722
 9427SOL     OW39916   0.773   3.697  17.131  0.0667  0.2571  0.4598
 9427SOL    HW139917   0.695   3.645  17.151 -0.3854 -0.3477 -2.9059
 9427SOL    HW239918   0.746   3.757  17.061  1.2448 -1.5689 -1.5729
 9428SOL     OW39919   3.321   3.667   8.119  0.3033  0.3539  0.2211
 9428SOL    HW139920   3.353   3.602   8.181 -0.2003  0.4405  0.5799
 9428SOL    HW239921   3.275   3.739   8.162 -1.8776  1.0730 -3.2875
 9429SOL     OW39922   2.006   2.113   8.165  0.2902 -0.5477 -0.3948
 9429SOL    HW139923   2.055   2.132   8.245 -0.5988  2.1044 -0.4946
 9429SOL    HW239924   1.950   2.189   8.156 -1.6815 -1.9101  0.3765
 9430SOL     OW39925   0.425   1.026   1.544 -0.1442  0.0178  0.1875
 9430SOL    HW139926   0.420   0.944   1.593  2.2713 -0.4559 -0.3986
 9430SOL    HW239927   0.519   1.037   1.535 -0.3828 -0.0931 -2.2363
 9431SOL     OW39928   1.527   2.439  11.260 -0.0824  0.4811  0.4437
 9431SOL    HW139929   1.513   2.345  11.269 -1.1293  0.5484 -0.4505
 9431SOL    HW239930   1.622   2.451  11.258  0.0693 -0.7940 -0.0616
 9432SOL     OW39931   1.521   1.199   6.255 -0.7454 -0.5105  0.1957
 9432SOL    HW139932   1.574   1.196   6.335  0.7031  0.2889 -0.7370
 9432SOL    HW239933   1.487   1.288   6.266  1.3448  0.4749 -1.3293
 9433SOL     OW39934   0.525   2.806  14.999 -0.2887 -0.6964 -0.3893
 9433SOL    HW139935   0.516   2.890  15.045  0.2793  0.3196 -2.1671
 9433SOL    HW239936   0.600   2.830  14.945 -1.0625 -3.4149 -2.6710
 9434SOL     OW39937   2.255   2.882   3.161  0.1386  0.3389  0.0976
 9434SOL    HW139938   2.310   2.894   3.238 -2.0793  0.6996  1.5997
 9434SOL    HW239939   2.264   2.790   3.135 -0.8129 -0.4282  2.5571
 9435SOL     OW39940   0.627   3.533   7.028 -0.2246 -0.3273 -0.3205
 9435SOL    HW139941   0.696   3.467   7.037  1.8331  1.9647  0.6357
 9435SOL    HW239942   0.678   3.608   6.998  0.4575 -1.1538 -1.2476
 9436SOL     OW39943   2.173   3.515  11.566 -0.0073  0.2104 -0.7762
 9436SOL    HW139944   2.235   3.545  11.499  0.9214 -1.4293 -0.6517
 9436SOL    HW239945   2.115   3.590  11.578  0.6047  0.2004  2.1822
 9437SOL     OW39946   2.852   2.784   3.497  0.3354  0.2245  0.6078
 9437SOL    HW139947   2.834   2.857   3.556 -0.9628 -0.6537  1.2953
 9437SOL    HW239948   2.948   2.783   3.497  0.3386  0.3067  0.2569
 9438SOL     OW39949   3.889   3.284   3.052  0.3779  1.0526  0.6584
 9438SOL    HW139950   3.872   3.314   2.963 -1.4882  0.6046  0.8453
 9438SOL    HW239951   3.910   3.367   3.094  0.8663  2.0739 -1.6562
 9439SOL     OW39952   0.578   0.186   1.504  0.4708 -0.2771 -0.0505
 9439SOL    HW139953   0.605   0.104   1.545  0.1333 -1.2692 -1.8059
 9439SOL    HW239954   0.651   0.241   1.533  1.4343  0.6020 -4.1393
 9440SOL     OW39955   4.732   4.041   7.433 -0.3068 -0.1699  0.0800
 9440SOL    HW139956   0.037   4.127   7.424 -1.6025  0.0626 -3.4977
 9440SOL    HW239957   4.727   4.047   7.529  0.0411 -0.0002  0.0878
 9441SOL     OW39958   2.660   0.740  10.617 -0.1455 -0.1830  0.1466
 9441SOL    HW139959   2.724   0.772  10.553 -0.0930 -1.8701 -0.6292
 9441SOL    HW239960   2.575   0.736  10.573 -0.4175  1.3527  0.5235
 9442SOL     OW39961   4.373   1.974   7.809 -0.1515 -0.2586 -0.0950
 9442SOL    HW139962   4.398   2.059   7.846  0.0792  0.0104 -0.8657
 9442SOL    HW239963   4.405   1.912   7.875 -1.1004 -1.3977 -0.6999
 9443SOL     OW39964   2.496   3.040  10.712 -0.3253  0.0889  0.6418
 9443SOL    HW139965   2.577   3.058  10.758  0.5889  0.1201 -0.9884
 9443SOL    HW239966   2.458   3.121  10.746 -1.9500 -0.2912 -0.2536
 9444SOL     OW39967   2.438   4.043  16.992 -0.4715 -0.3284  0.0702
 9444SOL    HW139968   2.450   3.959  16.948 -0.6511 -1.4094  2.1006
 9444SOL    HW239969   2.354   4.075  16.959 -0.5572  1.5599  2.1672
 9445SOL     OW39970   2.681   2.999   5.031 -0.3077  0.2764 -0.3900
 9445SOL    HW139971   2.770   2.987   5.064 -0.3104 -0.7320 -0.7582
 9445SOL    HW239972   2.659   2.906   5.029 -0.1289  0.2486 -0.9200
 9446SOL     OW39973   1.331   4.470   8.963  0.5758  0.1821  0.1376
 9446SOL    HW139974   1.256   4.411   8.959  1.9419 -1.4953 -0.5988
 9446SOL    HW239975   1.390   4.427   8.901  0.9918  1.2079 -0.1975
 9447SOL     OW39976   0.201   2.591   8.641  0.1714 -0.0156 -0.0458
 9447SOL    HW139977   0.223   2.501   8.666 -0.6733  0.4604  2.4635
 9447SOL    HW239978   0.252   2.605   8.562 -0.6231 -0.7361 -0.6866
 9448SOL     OW39979   3.576   0.727   8.180 -0.0345  0.0868 -0.1729
 9448SOL    HW139980   3.588   0.807   8.129  2.0146  0.9239  1.6331
 9448SOL    HW239981   3.660   0.703   8.219  0.8842  2.0876 -0.8819
 9449SOL     OW39982   1.453   4.087   1.353  0.0664 -0.0303  1.0259
 9449SOL    HW139983   1.432   4.144   1.427 -0.7714  1.0587 -0.0495
 9449SOL    HW239984   1.547   4.073   1.361 -0.0254 -2.1372 -1.6377
 9450SOL     OW39985   4.578   3.772  14.661 -0.1586 -0.1563 -0.3137
 9450SOL    HW139986   4.600   3.694  14.610 -2.8129 -1.6262  0.7621
 9450SOL    HW239987   4.592   3.840  14.596  1.1061  0.8473  1.0113
 9451SOL     OW39988   0.080   0.931   7.277  1.0251  0.2012  0.3075
 9451SOL    HW139989   4.732   0.943   7.320  0.1758  2.8514 -2.0869
 9451SOL    HW239990   0.125   0.918   7.360 -0.8389 -2.2298  0.9505
 9452SOL     OW39991   3.590   2.219   8.690  0.0210  0.3540 -0.6172
 9452SOL    HW139992   3.552   2.204   8.603  0.2566  0.6731 -0.7777
 9452SOL    HW239993   3.555   2.144   8.737  2.6641 -1.5270 -1.6381
 9453SOL     OW39994   1.446   3.537   3.311  0.0558 -0.0762 -0.0859
 9453SOL    HW139995   1.411   3.559   3.397 -1.5527 -2.3693 -0.1572
 9453SOL    HW239996   1.508   3.609   3.298  1.3194 -1.2393 -0.5179
 9454SOL     OW39997   4.388   3.284   2.791 -0.5789 -0.3818  0.1122
 9454SOL    HW139998   4.297   3.310   2.776 -0.4789 -0.1514 -0.0859
 9454SOL    HW239999   4.401   3.316   2.881 -1.3722 -0.9231  0.4231
 9455SOL     OW40000   4.223   2.895   9.126  0.5125  0.7116 -0.1387
 9455SOL    HW140001   4.151   2.836   9.146  2.0233 -0.3560  2.1246
 9455SOL    HW240002   4.183   2.976   9.094  0.2574  0.1494 -1.2772
 9456SOL     OW40003   1.874   4.604   1.340  0.7494  0.2326  0.1538
 9456SOL    HW140004   1.792   4.566   1.372  0.5131  1.3225  0.8422
 9456SOL    HW240005   1.858   4.694   1.369 -2.2366  0.3528 -1.8861
 9457SOL     OW40006   2.083   2.717  15.237 -0.0613 -0.5376 -0.5253
 9457SOL    HW140007   2.100   2.755  15.151 -0.2437  2.6905  0.8448
 9457SOL    HW240008   1.994   2.684  15.242 -0.3084  0.2285  0.2704
 9458SOL     OW40009   4.056   3.808  10.743 -0.4294 -0.2663 -0.3479
 9458SOL    HW140010   4.028   3.766  10.824 -0.3375 -0.2439 -0.3050
 9458SOL    HW240011   3.984   3.869  10.725 -1.9409 -1.0297  3.1188
 9459SOL     OW40012   3.859   4.665  13.809  0.8268 -0.1788  0.7639
 9459SOL    HW140013   3.893   4.576  13.823 -0.4649 -0.6599  0.7990
 9459SOL    HW240014   3.818   4.694  13.891 -0.6924  0.1834 -0.1316
 9460SOL     OW40015   3.979   0.299   4.135  0.2351  0.2125 -0.0130
 9460SOL    HW140016   3.887   0.289   4.160  0.0009 -1.1668 -1.4594
 9460SOL    HW240017   4.003   0.391   4.152 -0.3471  0.0708  1.6152
 9461SOL     OW40018   1.525   4.625   9.063 -0.1322  0.1940  0.5861
 9461SOL    HW140019   1.449   4.567   9.070  0.3104 -0.4296  0.2455
 9461SOL    HW240020   1.502   4.700   9.117 -0.3548 -0.0803  0.8738
 9462SOL     OW40021   0.567   1.718  11.792 -0.0421 -0.3822  0.5353
 9462SOL    HW140022   0.472   1.720  11.783  0.0085  0.3651  0.2172
 9462SOL    HW240023   0.580   1.781  11.863  0.1681  0.1460  0.0220
 9463SOL     OW40024   0.369   0.613   8.473 -1.0553  0.3618 -0.2593
 9463SOL    HW140025   0.327   0.685   8.426  1.3892  1.1851 -1.1738
 9463SOL    HW240026   0.454   0.647   8.501 -0.5357 -0.6562 -0.6044
 9464SOL     OW40027   4.406   0.658   2.449 -0.0405 -0.4758 -0.1610
 9464SOL    HW140028   4.360   0.604   2.385 -0.6714  0.0597 -0.1624
 9464SOL    HW240029   4.483   0.605   2.468 -0.3637 -0.4544  1.1887
 9465SOL     OW40030   1.158   0.921   3.052 -0.3842 -0.2100  0.2214
 9465SOL    HW140031   1.160   0.933   3.147 -2.9723  1.0547  0.0954
 9465SOL    HW240032   1.071   0.955   3.032 -0.1447  0.2833  0.0369
 9466SOL     OW40033   0.101   2.161  12.589 -0.1016 -0.1253  0.1823
 9466SOL    HW140034   0.142   2.152  12.503  0.0029  2.1635  0.0161
 9466SOL    HW240035   0.074   2.069  12.599 -0.7720 -0.0346 -0.8999
 9467SOL     OW40036   1.617   0.204   6.645 -0.8046  0.1972 -0.1563
 9467SOL    HW140037   1.688   0.196   6.581 -1.9012 -0.9104 -1.2481
 9467SOL    HW240038   1.663   0.168   6.721  0.5516  0.4135 -0.8647
 9468SOL     OW40039   0.551   0.477   2.735 -0.3518 -0.6847  0.3792
 9468SOL    HW140040   0.607   0.546   2.699  0.8370 -2.6112 -1.4773
 9468SOL    HW240041   0.606   0.405   2.766 -0.4808 -1.4082 -1.0993
 9469SOL     OW40042   4.506   2.081   4.334  0.1992 -0.2889  0.7537
 9469SOL    HW140043   4.576   2.146   4.341 -1.7407  1.8589  0.3005
 9469SOL    HW240044   4.450   2.108   4.407  0.3839 -1.3419  1.2772
 9470SOL     OW40045   0.887   1.259   6.330  0.6303  0.3672  0.1280
 9470SOL    HW140046   0.874   1.349   6.359  0.7164  0.3598  0.1880
 9470SOL    HW240047   0.855   1.206   6.403 -1.1598 -0.8442 -1.5421
 9471SOL     OW40048   3.415   0.181   5.089  0.0867  0.1678  0.4192
 9471SOL    HW140049   3.457   0.213   5.169  0.8226  0.4517 -0.0894
 9471SOL    HW240050   3.443   0.244   5.023 -1.5344 -0.3478 -0.7678
 9472SOL     OW40051   0.581   4.245   8.873  0.0774 -0.2626  0.4093
 9472SOL    HW140052   0.667   4.269   8.909  0.1755 -1.4116  0.9327
 9472SOL    HW240053   0.544   4.328   8.902 -0.7036 -0.8279  1.0041
 9473SOL     OW40054   3.257   2.027   3.017  0.0522  0.9578 -0.2811
 9473SOL    HW140055   3.250   1.950   3.073 -0.2959  0.2735 -1.2849
 9473SOL    HW240056   3.259   1.986   2.931  1.9949  0.5388 -0.0373
 9474SOL     OW40057   2.520   0.629   4.839 -0.1984  0.1556 -0.5229
 9474SOL    HW140058   2.512   0.709   4.891  3.0514  0.1525 -0.0004
 9474SOL    HW240059   2.449   0.575   4.876 -0.5744  0.4889 -0.7583
 9475SOL     OW40060   2.067   0.773   8.493 -0.0493 -0.4823  0.0664
 9475SOL    HW140061   2.071   0.816   8.408  0.1391  0.0900  0.3630
 9475SOL    HW240062   2.160   0.751   8.499  0.3534  0.7125 -1.9211
 9476SOL     OW40063   0.214   0.922   2.977 -0.3928 -0.2138 -0.2034
 9476SOL    HW140064   0.213   0.840   2.928 -0.3729 -0.7041  0.6126
 9476SOL    HW240065   0.123   0.952   2.982 -0.6895 -1.5462  2.7586
 9477SOL     OW40066   4.600   2.812   3.682 -0.2083  0.0733  0.0550
 9477SOL    HW140067   4.679   2.776   3.640 -0.4233 -1.9563  1.3876
 9477SOL    HW240068   4.603   2.779   3.772 -0.9168  0.2179  0.1294
 9478SOL     OW40069   0.435   0.677   6.230  0.4427 -0.4272  0.5607
 9478SOL    HW140070   0.369   0.688   6.162  2.4587 -1.2181 -1.5195
 9478SOL    HW240071   0.467   0.587   6.221 -0.3682 -0.5578 -0.9847
 9479SOL     OW40072   0.963   1.502   3.210  0.7990  0.6547 -0.9997
 9479SOL    HW140073   1.007   1.440   3.268  0.6533  0.5965 -0.9515
 9479SOL    HW240074   0.902   1.437   3.176  0.9915 -0.6278  1.1019
 9480SOL     OW40075   3.145   2.536   8.354 -0.2576 -0.1859 -0.6857
 9480SOL    HW140076   3.205   2.490   8.294  1.0898  1.6640 -0.7443
 9480SOL    HW240077   3.088   2.466   8.387 -0.0314  0.1952  0.4892
 9481SOL     OW40078   3.490   4.090   4.067  0.2647  0.5542 -0.0127
 9481SOL    HW140079   3.560   4.149   4.096 -0.6427  2.4123 -1.5433
 9481SOL    HW240080   3.531   4.009   4.036 -0.1688 -0.6576  2.6196
 9482SOL     OW40081   1.414   1.109  16.280 -0.1247  0.1349 -0.1083
 9482SOL    HW140082   1.468   1.184  16.257  1.2853 -0.3889  1.4634
 9482SOL    HW240083   1.466   1.047  16.333  1.6161  1.7942  0.1276
 9483SOL     OW40084   0.671   3.732   0.433  0.0007  0.6402 -0.3154
 9483SOL    HW140085   0.698   3.725   0.341  0.7447 -0.0682 -0.0435
 9483SOL    HW240086   0.644   3.643   0.453 -1.5274  0.7796 -1.7591
 9484SOL     OW40087   0.239   4.428   5.282 -0.5578  0.0896 -0.2674
 9484SOL    HW140088   0.188   4.403   5.359  0.0762 -0.8692 -0.1573
 9484SOL    HW240089   0.302   4.495   5.308 -1.5425  0.2478  1.6976
 9485SOL     OW40090   4.570   1.507   1.871 -0.6575  0.4418 -0.1259
 9485SOL    HW140091   4.528   1.550   1.796  0.2682 -1.2900 -1.6711
 9485SOL    HW240092   4.634   1.572   1.900 -0.6019  1.0949 -1.7135
 9486SOL     OW40093   4.125   1.752   6.598 -0.2861 -0.2967  0.2925
 9486SOL    HW140094   4.116   1.690   6.526  0.2224 -0.9457  0.7778
 9486SOL    HW240095   4.055   1.815   6.585  1.0997  1.2469  0.3512
 9487SOL     OW40096   4.119   2.025   4.109  0.0980  0.0343 -0.1758
 9487SOL    HW140097   4.176   2.089   4.150  1.4734 -0.9496 -0.5633
 9487SOL    HW240098   4.158   1.945   4.145 -3.3705 -1.0726  1.2055
 9488SOL     OW40099   1.734   2.688   0.438 -0.3776 -0.0374 -0.6499
 9488SOL    HW140100   1.798   2.740   0.488 -0.5414 -0.5884  0.1261
 9488SOL    HW240101   1.698   2.627   0.502  0.1302  0.5088  0.1625
 9489SOL     OW40102   4.010   2.157   2.607  0.7226  0.2389  0.2199
 9489SOL    HW140103   3.995   2.076   2.557 -1.2317  1.0936 -0.5748
 9489SOL    HW240104   3.920   2.187   2.615  0.1910 -1.2962 -0.0505
 9490SOL     OW40105   0.470   3.121   5.236 -0.5354  0.3826  0.5949
 9490SOL    HW140106   0.477   3.031   5.266 -4.2707  0.2673  1.1069
 9490SOL    HW240107   0.376   3.132   5.254 -0.8219 -1.4167  0.1699
 9491SOL     OW40108   2.680   0.235   1.711 -0.1822 -0.3240 -0.0310
 9491SOL    HW140109   2.775   0.246   1.720 -0.2026 -2.1064  2.4339
 9491SOL    HW240110   2.671   0.296   1.639  2.2409 -1.0891 -0.9982
 9492SOL     OW40111   0.697   2.238  12.417  0.4477 -0.7161  0.0435
 9492SOL    HW140112   0.786   2.266  12.440  1.7563 -3.9115 -1.0450
 9492SOL    HW240113   0.729   2.160  12.372  3.5838  0.9246 -0.5525
 9493SOL     OW40114   4.154   3.597  17.349 -0.3984  0.8000  0.1241
 9493SOL    HW140115   4.100   3.563  17.278  0.2741  2.4254 -1.1862
 9493SOL    HW240116   4.229   3.539  17.340 -2.2352 -1.5694  0.0616
 9494SOL     OW40117   0.485   4.019   4.435  0.6843 -0.2748  0.0596
 9494SOL    HW140118   0.491   3.963   4.512 -2.0401 -0.6366 -0.0154
 9494SOL    HW240119   0.558   3.978   4.387 -0.7141 -1.3594 -1.1424
 9495SOL     OW40120   4.505   4.004   4.489  0.0178  0.2104 -0.2864
 9495SOL    HW140121   4.555   4.080   4.457  1.1786 -0.1171  0.7683
 9495SOL    HW240122   4.543   3.936   4.433 -1.6236 -1.2259  0.3637
 9496SOL     OW40123   2.758   3.104   2.629  0.3315 -0.3887 -0.7294
 9496SOL    HW140124   2.737   3.024   2.678  1.5706 -0.8030 -0.8920
 9496SOL    HW240125   2.720   3.167   2.690 -0.9095 -1.6532 -0.1759
 9497SOL     OW40126   0.867   0.391  12.807  0.0381  0.0630 -0.1180
 9497SOL    HW140127   0.790   0.420  12.757  0.6613  1.3085 -0.3494
 9497SOL    HW240128   0.823   0.386  12.892  0.3507  1.3043  0.1151
 9498SOL     OW40129   1.788   1.776  17.694 -0.2306 -0.0519  0.1095
 9498SOL    HW140130   1.734   1.706  17.658  0.4023 -0.4025 -0.1471
 9498SOL    HW240131   1.760   1.858  17.653 -0.9485  0.3898  1.4471
 9499SOL     OW40132   1.725   1.896   4.055 -0.1989  0.3810 -0.1880
 9499SOL    HW140133   1.664   1.890   3.981 -0.7775  1.3428  0.2041
 9499SOL    HW240134   1.777   1.819   4.035 -2.2090 -1.6851  2.6104
 9500SOL     OW40135   1.910   4.080   4.258 -0.1645 -0.2174 -0.5530
 9500SOL    HW140136   1.819   4.057   4.275 -0.0448 -0.7814 -0.6760
 9500SOL    HW240137   1.904   4.067   4.163  1.8308  2.4930 -1.0621
 9501SOL     OW40138   4.121   4.562   8.414  0.1610 -0.0034  0.5716
 9501SOL    HW140139   4.144   4.475   8.381  1.2253  0.1869  0.8106
 9501SOL    HW240140   4.114   4.541   8.507  0.8942 -3.5800 -0.1936
 9502SOL     OW40141   2.503   1.082   7.968 -0.8108 -0.4197 -0.4158
 9502SOL    HW140142   2.437   1.061   7.902 -1.0916 -0.3564 -0.1540
 9502SOL    HW240143   2.549   0.998   7.971 -0.6976 -0.3641 -0.6119
 9503SOL     OW40144   0.911   3.359   7.267 -0.2732 -0.5814  0.0055
 9503SOL    HW140145   0.906   3.299   7.193 -1.1593 -1.8246  1.0673
 9503SOL    HW240146   0.822   3.336   7.296 -0.4859  0.8769  0.5042
 9504SOL     OW40147   0.766   4.523   8.324  0.7798 -0.0608 -0.2345
 9504SOL    HW140148   0.684   4.484   8.354  0.4582 -0.2719 -1.4066
 9504SOL    HW240149   0.740   4.614   8.312  1.9898  0.2344 -0.5524
 9505SOL     OW40150   0.316   4.152   2.866 -0.5446  0.5157  0.2708
 9505SOL    HW140151   0.251   4.138   2.934  0.1339 -0.4142  0.7307
 9505SOL    HW240152   0.369   4.222   2.904  0.6455 -0.2305  0.0161
 9506SOL     OW40153   2.301   0.198   8.455 -0.6376 -0.6505 -0.0109
 9506SOL    HW140154   2.243   0.140   8.503  0.3830  0.0171  2.0545
 9506SOL    HW240155   2.274   0.283   8.490 -2.4436 -0.2278 -2.4547
 9507SOL     OW40156   2.544   3.788  14.185  0.3055 -0.6859 -0.0933
 9507SOL    HW140157   2.635   3.762  14.198  0.0790 -1.7397 -0.5402
 9507SOL    HW240158   2.546   3.757  14.094  4.4555 -1.5863  0.3040
 9508SOL     OW40159   3.676   3.713  11.858  0.1218  0.0963 -0.2741
 9508SOL    HW140160   3.713   3.771  11.925  1.3362 -0.0917 -0.7732
 9508SOL    HW240161   3.682   3.624  11.893 -0.8996  0.7343  1.5126
 9509SOL     OW40162   2.436   4.526   3.835  0.3363  0.1736 -0.1800
 9509SOL    HW140163   2.472   4.549   3.920 -0.6251  1.4468 -0.1144
 9509SOL    HW240164   2.376   4.456   3.861 -0.5287  0.6122 -0.9862
 9510SOL     OW40165   3.369   3.270   6.653 -0.0207 -0.5622  0.4240
 9510SOL    HW140166   3.376   3.175   6.648  2.4714 -0.2928 -1.1031
 9510SOL    HW240167   3.282   3.287   6.691 -0.2510 -2.4958  0.7661
 9511SOL     OW40168   0.814   1.348   7.406  0.0895  0.2650 -0.2890
 9511SOL    HW140169   0.729   1.317   7.373 -0.6883  0.8748  1.1254
 9511SOL    HW240170   0.875   1.307   7.344  0.0424  0.7238 -0.6380
 9512SOL     OW40171   2.575   4.703   0.461  0.1386  0.6003  0.3760
 9512SOL    HW140172   2.579   0.061   0.445  0.3149  0.6422  0.6600
 9512SOL    HW240173   2.565   4.676   0.370  1.4853 -0.0780  0.4199
 9513SOL     OW40174   2.253   1.716  12.364 -0.1076  0.5329 -0.3263
 9513SOL    HW140175   2.205   1.795  12.337 -1.5752 -0.6577 -1.2319
 9513SOL    HW240176   2.195   1.642  12.348  0.6038  0.3118 -1.9515
 9514SOL     OW40177   2.944   0.685  13.794  0.3158 -0.1192 -0.0765
 9514SOL    HW140178   2.992   0.702  13.875 -1.0738 -1.0749  0.9462
 9514SOL    HW240179   2.857   0.665  13.828 -0.0555  0.3641 -0.7592
 9515SOL     OW40180   3.344   2.745   8.473  0.3708  0.8676  0.4023
 9515SOL    HW140181   3.422   2.689   8.466  0.7056  1.0845  2.3366
 9515SOL    HW240182   3.278   2.681   8.447  1.3374 -0.7517  1.8623
 9516SOL     OW40183   3.308   3.092   6.104  0.6444  0.6326 -0.2094
 9516SOL    HW140184   3.350   3.008   6.089  1.6804  1.0867  0.1524
 9516SOL    HW240185   3.215   3.068   6.105  1.1036 -1.2642 -2.2121
 9517SOL     OW40186   0.908   4.716  15.800 -0.5597 -0.1000 -0.0136
 9517SOL    HW140187   0.816   4.687  15.800 -0.1654 -1.3305 -1.5557
 9517SOL    HW240188   0.957   4.639  15.827 -0.5915 -0.2861 -0.4957
 9518SOL     OW40189   3.308   1.597  15.502  0.5800  0.1783  0.3389
 9518SOL    HW140190   3.213   1.594  15.504  0.6546 -1.8067  0.6440
 9518SOL    HW240191   3.326   1.597  15.408 -0.4859  0.0911  0.1457
 9519SOL     OW40192   4.194   1.292   2.740  0.5196  0.1268  0.4416
 9519SOL    HW140193   4.196   1.200   2.766 -0.5468  0.2576  0.9792
 9519SOL    HW240194   4.195   1.285   2.644  0.7742  1.1913  0.3750
 9520SOL     OW40195   4.022   0.143  14.688 -0.0469 -0.7933  0.0473
 9520SOL    HW140196   4.083   0.084  14.731  0.3907 -0.5735 -0.2641
 9520SOL    HW240197   4.001   0.096  14.608 -1.7698  0.6031 -0.3221
 9521SOL     OW40198   2.684   0.319   3.380 -0.0618  0.2720 -0.3138
 9521SOL    HW140199   2.604   0.269   3.393 -0.6030  1.3247  0.4402
 9521SOL    HW240200   2.672   0.352   3.291  0.0213  0.1852 -0.3571
 9522SOL     OW40201   0.744   3.444   7.715 -0.1534 -0.2335  0.1214
 9522SOL    HW140202   0.738   3.356   7.678 -0.9808 -0.3979  0.6335
 9522SOL    HW240203   0.832   3.467   7.687  0.2808  1.7289  3.1477
 9523SOL     OW40204   4.005   4.433  17.423  0.2856 -0.0064  0.0687
 9523SOL    HW140205   3.958   4.397  17.497  0.6077  2.6784  1.6023
 9523SOL    HW240206   4.078   4.372  17.431  2.1910  2.3464  0.8754
 9524SOL     OW40207   2.404   1.363  14.079  0.1770 -0.1093  0.2347
 9524SOL    HW140208   2.486   1.357  14.029  2.0095  0.4958  3.1414
 9524SOL    HW240209   2.357   1.424  14.023 -1.1056 -2.7013 -1.5207
 9525SOL     OW40210   4.086   2.515   4.347 -0.0293  0.2050  0.3427
 9525SOL    HW140211   4.072   2.490   4.256  2.4952  0.0649 -0.0114
 9525SOL    HW240212   4.044   2.439   4.387  1.1957 -1.4116 -1.4821
 9526SOL     OW40213   3.656   3.440  11.965 -0.2673 -0.3786  0.3554
 9526SOL    HW140214   3.661   3.414  12.058  1.1290 -1.1678  0.0574
 9526SOL    HW240215   3.652   3.348  11.939 -0.5474  0.1660 -1.4724
 9527SOL     OW40216   3.107   4.236   6.376  0.3844  0.0066 -0.1732
 9527SOL    HW140217   3.114   4.256   6.283 -0.6579  2.6288  0.2924
 9527SOL    HW240218   3.053   4.157   6.380  1.7522 -1.0020 -1.6297
 9528SOL     OW40219   2.187   1.064   7.410  0.1962  0.5011 -0.5795
 9528SOL    HW140220   2.140   1.147   7.425  1.4917  1.5005 -2.1098
 9528SOL    HW240221   2.239   1.074   7.490  0.7909 -0.5219 -0.8325
 9529SOL     OW40222   1.425   4.124   8.297 -0.8982  0.0298 -0.3196
 9529SOL    HW140223   1.346   4.090   8.254  0.1140 -0.4602 -1.7675
 9529SOL    HW240224   1.383   4.167   8.372 -0.9994 -0.0267 -0.3433
 9530SOL     OW40225   4.008   1.315   3.339  0.3024  0.1254  0.4671
 9530SOL    HW140226   3.916   1.316   3.365 -0.2150  0.9622 -1.3855
 9530SOL    HW240227   4.038   1.405   3.345 -0.1467  0.5226 -2.9228
 9531SOL     OW40228   0.144   1.826   3.467 -0.0853 -0.5981 -0.4247
 9531SOL    HW140229   0.089   1.795   3.539  1.4251 -0.8705  0.6159
 9531SOL    HW240230   0.219   1.777   3.502 -0.2929  1.0545  2.2941
 9532SOL     OW40231   1.414   1.605  13.375  0.0444 -0.2081 -0.3287
 9532SOL    HW140232   1.426   1.623  13.282 -0.6470  0.8342 -0.2219
 9532SOL    HW240233   1.454   1.520  13.392 -1.2010 -0.9676 -1.2258
 9533SOL     OW40234   3.362   2.293   6.349  0.1131  0.3291  0.5571
 9533SOL    HW140235   3.344   2.240   6.426  2.4502 -0.6960  0.3911
 9533SOL    HW240236   3.315   2.242   6.282 -0.2272 -0.7304  1.6186
 9534SOL     OW40237   0.569   0.898   4.523 -0.3781 -0.0448 -0.1001
 9534SOL    HW140238   0.540   0.898   4.431 -0.7815  1.4109  0.0266
 9534SOL    HW240239   0.541   0.812   4.556 -0.5532  0.0987  0.1232
 9535SOL     OW40240   4.390   2.522   0.679 -0.5324 -0.2203  0.1268
 9535SOL    HW140241   4.422   2.435   0.701 -0.4771 -0.6670 -1.7473
 9535SOL    HW240242   4.454   2.576   0.725  0.1544  0.4098 -1.5728
 9536SOL     OW40243   1.171   0.495   2.947 -0.1395 -0.4692 -0.5525
 9536SOL    HW140244   1.084   0.472   2.980  0.2825 -2.5204 -0.8457
 9536SOL    HW240245   1.203   0.523   3.032 -0.8202 -1.3871  0.0098
 9537SOL     OW40246   4.488   2.146   1.845  0.5477 -0.5273  0.0289
 9537SOL    HW140247   4.412   2.200   1.867  0.7306  0.4340 -1.7284
 9537SOL    HW240248   4.462   2.058   1.873  1.8995 -1.3595 -1.2681
 9538SOL     OW40249   3.634   1.275  11.062  0.3401 -0.1880 -0.2047
 9538SOL    HW140250   3.682   1.218  11.001  0.0098 -0.2466 -0.4114
 9538SOL    HW240251   3.644   1.356  11.012  0.1832  0.3367  0.6194
 9539SOL     OW40252   3.426   1.626   8.363 -0.0362  0.3467  0.3594
 9539SOL    HW140253   3.358   1.559   8.352  0.5507 -0.1864  0.0047
 9539SOL    HW240254   3.391   1.695   8.306  0.5804 -0.5173 -1.0587
 9540SOL     OW40255   2.027   0.769   0.676 -0.5344  0.0698 -0.5461
 9540SOL    HW140256   2.123   0.768   0.679 -0.5874  3.2231  3.5321
 9540SOL    HW240257   2.003   0.843   0.732 -2.0091 -1.5513  0.9389
 9541SOL     OW40258   0.259   2.542  16.301  0.4719 -0.7927  0.2053
 9541SOL    HW140259   0.319   2.594  16.248 -0.1476 -0.4975 -0.2137
 9541SOL    HW240260   0.289   2.451  16.297  1.8818 -0.2484 -1.4261
 9542SOL     OW40261   0.334   3.470   2.712  0.6119 -0.0910  0.4780
 9542SOL    HW140262   0.311   3.522   2.635  0.0424  2.0951  2.1266
 9542SOL    HW240263   0.252   3.422   2.724 -0.0556  0.0924 -3.4135
 9543SOL     OW40264   3.574   3.551   6.281 -0.0504  0.2439 -0.4109
 9543SOL    HW140265   3.485   3.534   6.251  0.0441  1.6485 -1.5204
 9543SOL    HW240266   3.634   3.504   6.224 -1.4726  0.6133 -2.2254
 9544SOL     OW40267   4.212   3.590   0.059 -0.1329  0.0397  0.5563
 9544SOL    HW140268   4.163   3.573   0.140 -0.1974 -0.5864  0.3857
 9544SOL    HW240269   4.299   3.623   0.084 -1.2488  1.3562  2.7282
 9545SOL     OW40270   1.436   0.666  15.151 -0.8373 -0.2817  0.1858
 9545SOL    HW140271   1.462   0.573  15.149 -0.9696 -0.3298  0.7245
 9545SOL    HW240272   1.367   0.668  15.085 -0.5317 -0.0413 -0.1286
 9546SOL     OW40273   1.023   3.213  12.953 -0.2131  0.2006  0.5270
 9546SOL    HW140274   0.984   3.232  13.038  0.5570  1.3787  0.6176
 9546SOL    HW240275   1.042   3.120  12.967 -1.0300  0.4047  2.9546
 9547SOL     OW40276   2.662   1.102  17.246  0.0199  0.5763  0.6006
 9547SOL    HW140277   2.710   1.166  17.193 -2.2969  1.0415 -0.9326
 9547SOL    HW240278   2.573   1.138  17.242 -0.0298  0.6721  2.5533
 9548SOL     OW40279   4.676   4.380   1.593 -0.5794 -0.1831  0.0155
 9548SOL    HW140280   4.721   4.401   1.512 -0.3558 -1.4528 -0.1947
 9548SOL    HW240281   4.635   4.465   1.611 -2.4792 -0.8266 -1.2780
 9549SOL     OW40282   1.761   4.399   6.107  0.4556 -0.3223  0.3314
 9549SOL    HW140283   1.680   4.440   6.077 -0.0192 -1.7308 -0.3045
 9549SOL    HW240284   1.760   4.325   6.046 -1.5115 -0.6859  0.7750
 9550SOL     OW40285   3.592   4.666   5.391  0.0805 -0.4083 -0.0896
 9550SOL    HW140286   3.633   4.586   5.424 -0.1953 -0.8628 -0.8474
 9550SOL    HW240287   3.569   4.639   5.302 -0.8189 -0.2262  0.0897
 9551SOL     OW40288   3.095   1.226   5.322 -0.5993  0.3811  0.1073
 9551SOL    HW140289   3.074   1.313   5.288  3.4484  1.5908  0.6933
 9551SOL    HW240290   3.098   1.248   5.415  0.3035  1.5557 -0.2076
 9552SOL     OW40291   0.822   0.905   5.976  0.1625  0.0070 -0.7896
 9552SOL    HW140292   0.859   0.817   5.966 -0.8344 -0.5616  0.6461
 9552SOL    HW240293   0.734   0.909   5.939 -0.2880  1.8419  0.4995
 9553SOL     OW40294   2.840   2.390   3.555  1.0015 -0.5385  0.5404
 9553SOL    HW140295   2.874   2.308   3.589  0.7535 -0.5496  0.7686
 9553SOL    HW240296   2.755   2.398   3.600  0.2964 -0.5332 -0.7968
 9554SOL     OW40297   3.545   4.627   5.118  0.1512  0.2305  0.2002
 9554SOL    HW140298   3.543   4.585   5.032  0.8482 -1.0150  0.7968
 9554SOL    HW240299   3.478   4.693   5.099  1.8083  1.5657 -1.0029
 9555SOL     OW40300   2.134   4.703   1.091 -0.4871  0.4144  0.6443
 9555SOL    HW140301   2.135   0.049   1.138  2.4457  0.3714  0.6663
 9555SOL    HW240302   2.097   4.639   1.152  0.9019 -0.6630  0.3715
 9556SOL     OW40303   3.425   4.480   1.230  0.4150  0.1079  0.2420
 9556SOL    HW140304   3.472   4.491   1.313  2.0195  0.9017 -0.7580
 9556SOL    HW240305   3.501   4.459   1.175 -1.5029 -1.3396 -1.8885
 9557SOL     OW40306   1.427   3.466   9.902  0.6165 -0.7356 -0.1761
 9557SOL    HW140307   1.420   3.371   9.914 -0.1723 -0.4587  1.5659
 9557SOL    HW240308   1.354   3.484   9.843  0.0268  1.1772  1.1122
 9558SOL     OW40309   4.343   0.819   6.190  0.0296 -0.4773  0.3555
 9558SOL    HW140310   4.255   0.822   6.151 -0.3366  1.9135  1.3203
 9558SOL    HW240311   4.370   0.730   6.168 -1.0065 -1.1819  1.9194
 9559SOL     OW40312   3.715   3.165  12.331 -0.3754 -0.4001 -0.2056
 9559SOL    HW140313   3.644   3.106  12.306  0.1340 -0.8069 -0.6963
 9559SOL    HW240314   3.680   3.251  12.305 -0.3120 -0.4386 -0.4185
 9560SOL     OW40315   2.789   1.805   5.817  0.4685  0.4235 -0.1230
 9560SOL    HW140316   2.716   1.782   5.874  0.3651 -0.3441 -0.5564
 9560SOL    HW240317   2.853   1.735   5.834  0.4008  0.7812  1.6184
 9561SOL     OW40318   3.226   2.859   5.958 -0.0333  0.1877  0.6213
 9561SOL    HW140319   3.156   2.831   6.017  1.3911  0.8752  2.6297
 9561SOL    HW240320   3.218   2.786   5.896 -1.0855 -1.1155  2.3037
 9562SOL     OW40321   1.687   1.553   4.938 -0.2995 -0.2698 -0.2568
 9562SOL    HW140322   1.648   1.547   4.851 -1.7816  0.6821  0.3325
 9562SOL    HW240323   1.627   1.602   4.995  3.1195  1.3274  1.9842
 9563SOL     OW40324   1.953   3.636   7.575 -0.2136 -0.5938  0.4456
 9563SOL    HW140325   1.919   3.701   7.514  0.9553  0.1518  0.5829
 9563SOL    HW240326   2.004   3.692   7.634 -0.9597 -0.3377  0.8521
 9564SOL     OW40327   4.084   4.110   5.437  0.0561  0.5524 -0.3569
 9564SOL    HW140328   4.089   4.024   5.397 -0.9379  0.4467 -0.2452
 9564SOL    HW240329   4.149   4.161   5.388  0.1523 -0.1452 -0.9420
 9565SOL     OW40330   2.010   4.608  14.817 -0.0191 -0.4278 -0.5055
 9565SOL    HW140331   1.924   4.579  14.845 -0.6550 -0.7005 -2.7643
 9565SOL    HW240332   1.993   4.675  14.751  1.2724 -1.6650 -2.1083
 9566SOL     OW40333   3.003   3.137   1.743 -0.6705 -1.0000 -0.0136
 9566SOL    HW140334   2.910   3.153   1.728 -0.6333 -1.2549 -0.5271
 9566SOL    HW240335   3.022   3.225   1.776  1.0654 -0.2047 -3.0681
 9567SOL     OW40336   3.637   3.172   2.506 -0.3798  0.2489 -0.0189
 9567SOL    HW140337   3.651   3.146   2.415 -0.1780 -1.7045  0.5634
 9567SOL    HW240338   3.582   3.249   2.490 -2.1512 -0.6809  1.5482
 9568SOL     OW40339   2.229   3.248   8.962 -0.1117  0.2650 -0.5426
 9568SOL    HW140340   2.213   3.160   8.927  0.3034  0.7488 -1.9297
 9568SOL    HW240341   2.270   3.232   9.047  1.4079 -1.8430 -1.6885
 9569SOL     OW40342   1.417   1.392   8.312 -0.0943  0.5065 -0.6747
 9569SOL    HW140343   1.470   1.420   8.387  2.6063  0.4738 -2.5672
 9569SOL    HW240344   1.356   1.466   8.305 -0.3501  0.4312  0.6928
   4.73623   4.73623  17.74348
