Membrane in water
40344
    1TMC1    C1    1   2.462   3.032  11.423  0.2431 -0.9852 -0.6596
    1TMC1    C2    2   2.499   2.970  11.306 -0.2413 -0.3046  0.2668
    1TMC1    C3    3   2.557   3.054  11.210  0.1417 -0.0833 -0.0365
    1TMC1    C4    4   2.505   3.162  11.444  0.0673  0.0929  0.8144
    1TMC1    C5    5   2.574   3.233  11.351  0.3422  0.0783  0.3180
    1TMC1    C6    6   2.606   3.181  11.230  0.0665 -0.2072  0.1575
    1TMC1     C    7   2.407   2.951  11.528 -0.9402  0.2517 -0.2166
    1TMC1     O    8   2.409   3.005  11.639  0.3900 -0.0980 -0.1346
    1TMC1     H    9   2.482   2.864  11.295  1.2523 -0.3253 -1.7107
    1TMC1    H1   10   2.479   3.203  11.540  0.8563  0.4290  0.8893
    1TMC1    H2   11   2.657   3.236  11.151 -0.3408  1.2615  0.9137
    1TMC1    C7   12   2.622   3.371  11.371 -0.6734  0.9209  0.2952
    1TMC1    C8   13   2.608   2.995  11.089 -0.6313  0.1884 -0.0888
    1TMC1    O1   14   2.632   3.452  11.280 -0.1333  0.1086  0.5090
    1TMC1    O2   15   2.677   3.049  11.008 -0.1139 -0.3082 -0.1104
    1TMC1    O3   16   2.690   3.389  11.485  0.3895 -0.1203 -0.2050
    1TMC1    H3   17   2.698   3.308  11.540 -1.7441  0.5084  1.0422
    1TMC1    O5   18   2.520   2.900  11.058 -0.1461 -0.2666  0.0796
    1TMC1    H5   19   2.454   2.879  11.128  0.5800  2.7584  1.6802
    2MPD2     C   20   2.182   2.536  11.726 -0.0822 -0.4863  0.1360
    2MPD2    C1   21   2.208   2.658  11.783 -0.6257  0.1387 -0.1853
    2MPD2    C2   22   2.266   2.752  11.702  0.0400 -0.0041 -0.3007
    2MPD2    C3   23   2.293   2.732  11.566  0.3856 -0.8531 -0.9625
    2MPD2    C4   24   2.251   2.615  11.506  0.0706 -0.0695 -0.4757
    2MPD2    C5   25   2.198   2.515  11.588 -0.7871 -0.4794  0.1975
    2MPD2     H   26   2.283   2.849  11.746 -1.3165  0.7580 -1.4594
    2MPD2    H1   27   2.272   2.602  11.401  0.4722  0.3709 -0.4510
    2MPD2    H2   28   2.145   2.453  11.785 -2.7285  0.9149  0.4807
    2MPD2    H3   29   2.187   2.416  11.546  0.6290 -0.4374 -0.2803
    2MPD2     N   30   2.353   2.832  11.481  0.4574 -0.3207  0.5233
    2MPD2    H5   31   2.380   2.801  11.388 -3.9367 -2.1716 -0.1040
    2MPD2    N1   32   2.184   2.691  11.919  0.2009  0.0235  0.6121
    2MPD2    H7   33   2.206   2.785  11.951 -1.7761  0.8094 -0.3232
    3TMC1    C1   34   1.438   3.299  10.938 -0.6455 -0.6686 -0.4625
    3TMC1    C2   35   1.538   3.330  10.851  1.0952 -0.1038  0.5394
    3TMC1    C3   36   1.552   3.248  10.743 -0.8849 -0.3762 -0.4531
    3TMC1    C4   37   1.374   3.186  10.941 -0.2465  0.3652 -0.2462
    3TMC1    C5   38   1.391   3.103  10.827 -0.2640 -0.3761  0.3726
    3TMC1    C6   39   1.472   3.136  10.729 -0.0453  0.2179  0.3955
    3TMC1     C   40   1.430   3.380  11.053 -0.3251  0.3256  0.3941
    3TMC1     O   41   1.461   3.331  11.161  0.0641 -0.2328  0.6279
    3TMC1     H   42   1.596   3.418  10.870  0.3497  0.2796  1.0406
    3TMC1    H1   43   1.310   3.164  11.026  0.0700  1.6731  0.3352
    3TMC1    H2   44   1.470   3.071  10.643 -0.8284  0.6529  0.0853
    3TMC1    C7   45   1.300   2.989  10.821  0.2867  0.1258 -0.1837
    3TMC1    C8   46   1.643   3.287  10.638  0.4283  0.1415 -0.1385
    3TMC1    O1   47   1.331   2.887  10.768 -0.4395  0.2206 -0.4559
    3TMC1    O2   48   1.705   3.392  10.631  0.0043 -0.1391 -0.2140
    3TMC1    O3   49   1.200   3.059  10.774  0.0470 -0.3009  0.5633
    3TMC1    H3   50   1.153   3.115  10.839 -1.5402 -0.4730 -0.4260
    3TMC1    O5   51   1.696   3.171  10.578 -0.0706  0.1260  0.1613
    3TMC1    H5   52   1.641   3.091  10.594 -0.7207  0.1388 -1.9453
    4MPD2     C   53   1.451   3.842  11.267  0.4713 -0.0571  0.0056
    4MPD2    C1   54   1.370   3.854  11.157  0.5126 -0.5368 -0.7322
    4MPD2    C2   55   1.343   3.739  11.082  0.2812 -0.2603 -0.4330
    4MPD2    C3   56   1.405   3.619  11.113  0.8536  0.3473  0.1571
    4MPD2    C4   57   1.481   3.616  11.228  0.0188 -0.0507  0.0084
    4MPD2    C5   58   1.506   3.721  11.313 -0.2273 -0.1649  0.9246
    4MPD2     H   59   1.281   3.754  10.994  0.4356  0.6162 -0.3939
    4MPD2    H1   60   1.518   3.520  11.262  0.2413  0.0534  0.0576
    4MPD2    H2   61   1.473   3.932  11.323 -1.3277  0.9460 -0.8991
    4MPD2    H3   62   1.555   3.710  11.409  0.9294 -0.8320  0.2591
    4MPD2     N   63   1.405   3.514  11.022 -0.3141  0.4713 -0.1271
    4MPD2    H5   64   1.361   3.532  10.932  0.5454 -1.1986 -0.8819
    4MPD2    N1   65   1.313   3.980  11.121  0.7268  0.2047  1.6110
    4MPD2    H7   66   1.240   3.984  11.051 -0.0591 -0.0912  2.4050
    5TCq1    O1   67   3.148   0.681  12.271 -0.5001 -0.1458  0.5872
    5TCq1    C1   68   3.102   0.674  12.144 -0.2594 -0.0806  0.5362
    5TCq1    O2   69   3.173   0.656  12.045 -0.5384 -0.2278  0.0132
    5TCq1    C2   70   2.965   0.713  12.155 -0.1850  0.1590 -0.5510
    5TCq1    C3   71   2.933   0.782  12.272 -0.2058 -0.1355 -0.5028
    5TCq1    C4   72   2.800   0.792  12.308  0.7429  0.2903  0.3399
    5TCq1    C5   73   2.700   0.746  12.228  0.3820  0.3631  0.0321
    5TCq1    C6   74   2.743   0.676  12.111  0.3911  0.5177  0.0811
    5TCq1    C7   75   2.871   0.663  12.071 -0.6976  0.0942 -0.6259
    5TCq1    C8   76   2.636   0.630  12.025 -0.1879 -0.0825 -0.1412
    5TCq1    O4   77   2.660   0.530  11.957 -0.1162  0.1179  0.3531
    5TCq1    C9   78   2.758   0.871  12.425  0.0129  0.2309  0.4273
    5TCq1    O5   79   2.856   0.923  12.490  0.0833 -0.2224  0.2671
    5TCq1    O6   80   2.640   0.910  12.441 -0.4357 -0.3630  0.0010
    5TCq1    H1   81   3.076   0.660  12.335  1.0146 -1.8759  1.7238
    5TCq1    H2   82   3.003   0.844  12.327  0.3076 -2.6611  1.7135
    5TCq1    H3   83   2.598   0.758  12.262  0.3516 -1.2382  0.5345
    5TCq1    H4   84   2.903   0.598  11.991  2.0382 -0.1257  0.6583
    6MPD2     C   85   2.316   0.808  11.962 -0.0575 -0.4477  0.2819
    6MPD2    C1   86   2.413   0.716  11.936  0.7726 -0.3344 -0.7499
    6MPD2    C2   87   2.407   0.634  11.831 -0.1904 -1.3325  0.5404
    6MPD2    C3   88   2.286   0.633  11.754  0.6337 -0.0249  0.4867
    6MPD2    C4   89   2.176   0.712  11.797  0.3923  0.4625 -0.2651
    6MPD2    C5   90   2.197   0.801  11.896 -0.2043 -0.0098 -0.0157
    6MPD2     H   91   2.487   0.568  11.799  0.3844 -0.0879 -0.6198
    6MPD2    H1   92   2.084   0.719  11.740  0.1033  0.0630  0.1531
    6MPD2    H2   93   2.335   0.881  12.040  0.2827 -0.2548  0.0206
    6MPD2    H3   94   2.118   0.871  11.920 -0.3125  0.2542 -1.1644
    6MPD2     N   95   2.277   0.546  11.642  0.1364  0.4556  0.4799
    6MPD2    H5   96   2.360   0.495  11.614 -0.6360 -1.0360  0.9434
    6MPD2    N1   97   2.527   0.721  12.020 -0.1989  0.4780  0.0515
    6MPD2    H7   98   2.537   0.801  12.081 -0.6699  1.6454 -1.4288
    7TCq1    O1   99   4.077   4.567  13.068 -0.3323 -0.5060 -0.1555
    7TCq1    C1  100   4.013   4.689  13.064 -0.2557  0.0510  0.0757
    7TCq1    O2  101   3.937   4.735  12.981  0.2529  0.5855 -0.7733
    7TCq1    C2  102   4.078   0.034  13.162 -0.5565 -0.0524  0.2308
    7TCq1    C3  103   4.002   0.132  13.223 -0.0553  0.0767  0.3580
    7TCq1    C4  104   4.039   0.192  13.347  0.6922  0.5573 -0.0788
    7TCq1    C5  105   4.166   0.163  13.386  0.2590 -0.3354 -0.2229
    7TCq1    C6  106   4.247   0.062  13.330  0.3539  0.1574  0.0317
    7TCq1    C7  107   4.204   4.735  13.215 -0.1705 -0.1935  0.6428
    7TCq1    C8  108   4.334   4.726  13.412 -0.8057 -0.0877 -0.3137
    7TCq1    O4  109   4.376   4.621  13.381 -0.2942  0.3574  0.7569
    7TCq1    C9  110   3.946   0.265  13.424 -0.2180  0.7214 -0.0043
    7TCq1    O5  111   3.989   0.282  13.542 -0.6550 -0.8313  0.4509
    7TCq1    O6  112   3.832   0.285  13.373 -0.2857 -0.3756 -0.1130
    7TCq1    H1  113   4.119   4.543  13.153 -1.8685 -0.6759  0.5531
    7TCq1    H2  114   3.898   0.147  13.196  0.5285  1.5263 -1.1093
    7TCq1    H3  115   4.209   0.207  13.475 -1.7191 -1.9352  1.5357
    7TCq1    H4  116   4.278   4.676  13.163  0.2695  0.5152  0.4557
    8MPD2     C  117   4.602   4.667  13.851 -0.4577  0.3160 -0.2351
    8MPD2    C1  118   4.543   4.568  13.770  0.0852  0.2908  0.5237
    8MPD2    C2  119   4.464   4.611  13.662  0.2230 -0.0771 -0.7087
    8MPD2    C3  120   4.461   0.012  13.624 -0.0970 -0.2544  0.1488
    8MPD2    C4  121   4.520   0.101  13.711 -0.4180  0.4440 -0.2878
    8MPD2    C5  122   4.578   0.061  13.828  0.3669 -0.2711  0.7615
    8MPD2     H  123   4.424   4.535  13.595 -0.1522  0.1093 -0.6963
    8MPD2    H1  124   4.523   0.208  13.692 -0.5739  0.7330  1.3194
    8MPD2    H2  125   4.652   4.628  13.939 -0.0200 -0.8313 -0.9992
    8MPD2    H3  126   4.616   0.132  13.901 -0.0189  1.4632 -0.7085
    8MPD2     N  127   4.397   0.066  13.508 -0.2317  0.5621 -0.5126
    8MPD2    H5  128   4.385   0.167  13.506  1.3727  0.7707  0.8337
    8MPD2    N1  129   4.562   4.434  13.806 -0.3078  0.2427  0.0836
    8MPD2    H7  130   4.613   4.412  13.891 -0.1035  1.0477  0.1685
    9TMC1    C1  131   2.241   4.412  11.279 -0.1415  0.2338  0.3675
    9TMC1    C2  132   2.324   4.299  11.253  0.0995  1.0443  0.3561
    9TMC1    C3  133   2.433   4.317  11.172 -0.2040  0.4904 -0.3551
    9TMC1    C4  134   2.249   4.524  11.201 -0.8355  0.2698  0.2886
    9TMC1    C5  135   2.351   4.529  11.110  1.3453 -0.6076 -0.4926
    9TMC1    C6  136   2.443   4.434  11.099 -0.0404 -0.5619  0.4633
    9TMC1     C  137   2.125   4.397  11.369  0.0227  0.3559  0.1609
    9TMC1     O  138   2.041   4.485  11.362  0.1469  0.2551  0.0873
    9TMC1     H  139   2.318   4.205  11.306  2.3743  0.5583 -0.2517
    9TMC1    H1  140   2.169   4.597  11.209  0.7418  2.0605 -0.3410
    9TMC1    H2  141   2.501   4.426  11.007  1.5701  6.6879  0.9008
    9TMC1    C7  142   2.353   4.639  11.015  0.7393 -0.1584  0.6855
    9TMC1    C8  143   2.502   4.206  11.106  0.1691  0.4960 -0.2772
    9TMC1    O1  144   2.242   4.688  10.997  0.7533 -0.7587  0.1912
    9TMC1    O2  145   2.602   4.211  11.037 -0.0772  0.1477  0.4556
    9TMC1    O3  146   2.464   4.641  10.942  0.0007 -0.0510 -0.3187
    9TMC1    H3  147   2.537   4.601  10.995  1.1515  0.5085 -1.4780
    9TMC1    O5  148   2.421   4.104  11.117  0.3636  0.0897 -0.0442
    9TMC1    H5  149   2.332   4.133  11.148  1.8358  2.2310  2.2580
   10MPD2     C  150   1.931   4.362  11.601 -0.4364  0.3508 -0.0952
   10MPD2    C1  151   2.041   4.285  11.573  0.2501  0.2165 -0.5798
   10MPD2    C2  152   2.058   4.175  11.658  0.4038  0.1612  0.9838
   10MPD2    C3  153   1.976   4.138  11.764  0.7335 -0.0565 -0.8664
   10MPD2    C4  154   1.870   4.224  11.791  0.1594  0.0748 -0.5678
   10MPD2    C5  155   1.849   4.333  11.708  0.0799  0.2828  0.1534
   10MPD2     H  156   2.148   4.118  11.642  1.1723  1.3677  1.0018
   10MPD2    H1  157   1.796   4.210  11.869 -0.1345 -0.6031 -0.9676
   10MPD2    H2  158   1.895   4.442  11.536 -0.5264  0.7057  0.3944
   10MPD2    H3  159   1.759   4.386  11.733  0.3185  0.7580  0.0181
   10MPD2     N  160   1.997   4.033  11.846 -0.4822 -0.6026  0.4817
   10MPD2    H5  161   1.937   4.025  11.927 -0.4316  1.8252  0.7842
   10MPD2    N1  162   2.134   4.303  11.471 -0.2115 -0.0125  0.5043
   10MPD2    H7  163   2.210   4.236  11.465 -1.5288 -1.0880 -4.1034
   11TCq1    O1  164   2.313   4.190  14.007  0.3436 -0.1750  0.4044
   11TCq1    C1  165   2.212   4.106  13.970 -0.0310 -0.1459  0.0119
   11TCq1    O2  166   2.097   4.141  13.941  0.1365 -0.0368 -0.0258
   11TCq1    C2  167   2.265   3.977  13.950  1.0275 -0.2240 -0.3883
   11TCq1    C3  168   2.392   3.963  13.899  0.2882 -0.0822 -0.1817
   11TCq1    C4  169   2.432   3.835  13.865 -0.1804  0.7330 -0.0016
   11TCq1    C5  170   2.359   3.725  13.900 -0.0787 -0.8113  0.4513
   11TCq1    C6  171   2.230   3.749  13.932  0.3640 -0.0220  0.2643
   11TCq1    C7  172   2.182   3.878  13.960  0.1359 -0.0442  0.3748
   11TCq1    C8  173   2.147   3.638  13.957  0.0832  0.0768  0.1861
   11TCq1    O4  174   2.092   3.640  14.063  0.6580 -0.5359  0.3958
   11TCq1    C9  175   2.552   3.824  13.783 -0.3021 -0.3004 -0.3404
   11TCq1    O5  176   2.596   3.927  13.726  0.0148  0.1053 -0.1004
   11TCq1    O6  177   2.606   3.708  13.790  0.6227  0.0957  0.2833
   11TCq1    H1  178   2.401   4.149  14.022  0.9953  1.7153  1.7707
   11TCq1    H2  179   2.467   4.039  13.883  0.2611 -0.6358 -2.9460
   11TCq1    H3  180   2.397   3.623  13.894  1.9805  0.1426 -2.4068
   11TCq1    H4  181   2.081   3.902  13.993 -0.1354 -0.8597  0.1370
   12MPD2     C  182   2.032   3.363  13.957  0.2646 -0.3527  0.1787
   12MPD2    C1  183   2.144   3.402  13.885 -0.3156 -0.1945 -0.1115
   12MPD2    C2  184   2.223   3.300  13.823 -1.1169  0.2151 -0.5490
   12MPD2    C3  185   2.193   3.168  13.838 -0.0557  0.5131 -0.3591
   12MPD2    C4  186   2.086   3.134  13.921 -0.3496 -0.3443  0.0532
   12MPD2    C5  187   2.007   3.230  13.970  0.1824 -0.2346  0.2660
   12MPD2     H  188   2.312   3.328  13.767 -0.5274 -0.2661  0.1476
   12MPD2    H1  189   2.063   3.028  13.931  0.0874 -0.3734  0.7574
   12MPD2    H2  190   1.963   3.437  13.996  0.3212 -0.7551  1.0348
   12MPD2    H3  191   1.917   3.205  14.025  0.6085 -0.6440  0.7720
   12MPD2     N  192   2.266   3.057  13.780 -0.6691  0.2296  0.1032
   12MPD2    H5  193   2.243   2.962  13.806 -1.7879  0.0460 -1.5881
   12MPD2    N1  194   2.175   3.537  13.869  0.2500 -0.3986 -0.1059
   12MPD2    H7  195   2.241   3.559  13.795  3.0249  1.4773  2.8954
   13TCq1    O1  196   3.002   3.867  10.911  0.5062  0.2749 -0.4378
   13TCq1    C1  197   2.993   3.855  10.779  0.2563  0.4473 -0.0991
   13TCq1    O2  198   3.095   3.840  10.711 -0.0826 -0.2378 -0.6074
   13TCq1    C2  199   2.863   3.801  10.742  0.5668 -0.2776 -0.8178
   13TCq1    C3  200   2.844   3.776  10.609 -0.9966 -0.2584 -0.6458
   13TCq1    C4  201   2.749   3.686  10.568 -0.7301  0.2948  0.3687
   13TCq1    C5  202   2.678   3.616  10.665 -0.4594 -0.4579  0.2044
   13TCq1    C6  203   2.684   3.651  10.799  0.7163 -0.2130 -0.4877
   13TCq1    C7  204   2.782   3.739  10.842 -0.2829 -0.4754  0.2508
   13TCq1    C8  205   2.596   3.597  10.898  0.2605 -0.2981 -0.2177
   13TCq1    O4  206   2.585   3.669  11.000 -0.1149 -0.5142  0.1150
   13TCq1    C9  207   2.734   3.650  10.429 -0.2669  0.5996  0.3147
   13TCq1    O5  208   2.789   3.726  10.340 -0.3411 -0.1272 -0.0761
   13TCq1    O6  209   2.643   3.566  10.407  0.1190 -0.7299 -0.1916
   13TCq1    H1  210   2.912   3.893  10.941  0.4050  0.2913 -0.7587
   13TCq1    H2  211   2.903   3.836  10.540 -1.5176  0.6787 -0.2779
   13TCq1    H3  212   2.598   3.553  10.625 -1.5611  0.5396  0.8296
   13TCq1    H4  213   2.812   3.742  10.946  1.7215 -2.4261 -0.2898
   14MPD2     C  214   2.433   3.266  10.875 -0.2986 -0.6304  0.9650
   14MPD2    C1  215   2.460   3.388  10.933  0.0087  0.4228  0.2300
   14MPD2    C2  216   2.398   3.425  11.053 -0.6662 -0.0956  0.4230
   14MPD2    C3  217   2.307   3.343  11.115  0.3556  0.2442  0.0456
   14MPD2    C4  218   2.278   3.218  11.057  0.7100 -0.0443  0.2817
   14MPD2    C5  219   2.348   3.185  10.944  0.0551  0.7398 -0.5226
   14MPD2     H  220   2.414   3.519  11.105 -1.6107  1.5882 -2.2975
   14MPD2    H1  221   2.209   3.150  11.104 -1.2625  0.1741 -2.3295
   14MPD2    H2  222   2.485   3.234  10.786 -0.3206 -1.7069  1.3377
   14MPD2    H3  223   2.335   3.084  10.907 -1.7524  0.9621 -0.4670
   14MPD2     N  224   2.246   3.386  11.237  0.3961  0.0678 -0.0491
   14MPD2    H5  225   2.242   3.484  11.264 -4.8596  0.4066 -1.9924
   14MPD2    N1  226   2.547   3.476  10.865  0.3011  0.6128  0.4333
   14MPD2    H7  227   2.579   3.438  10.776 -0.2973  0.0638  0.4455
   15TCq1    O1  228   4.042   3.196   1.693  0.9891  0.1031 -0.7948
   15TCq1    C1  229   4.126   3.177   1.796 -0.1617  0.6835  0.0489
   15TCq1    O2  230   4.100   3.214   1.905 -0.0539  0.0168  0.4964
   15TCq1    C2  231   4.235   3.079   1.766 -0.0835  0.2246  0.9805
   15TCq1    C3  232   4.285   3.019   1.875 -0.3100 -0.2715 -0.4000
   15TCq1    C4  233   4.383   2.929   1.855 -0.6746 -0.1935 -0.0761
   15TCq1    C5  234   4.438   2.903   1.734 -0.3583 -0.3520 -0.6306
   15TCq1    C6  235   4.386   2.975   1.629  0.2791  0.3086 -0.1066
   15TCq1    C7  236   4.287   3.069   1.643 -0.5383  0.0862  0.3533
   15TCq1    C8  237   4.398   2.907   1.498  0.5247  0.6558 -0.3136
   15TCq1    O4  238   4.497   2.834   1.482  0.4340  0.1773  0.0580
   15TCq1    C9  239   4.442   2.871   1.974 -0.4746  0.4951  0.0026
   15TCq1    O5  240   4.394   2.895   2.087 -0.3971  0.4857 -0.2629
   15TCq1    O6  241   4.497   2.763   1.945  0.2153 -0.1534 -0.0161
   15TCq1    H1  242   4.079   3.149   1.616 -2.0745 -1.9832 -0.9886
   15TCq1    H2  243   4.255   3.034   1.978  1.0628 -0.0348 -0.0257
   15TCq1    H3  244   4.508   2.821   1.723 -0.9615 -0.5730 -2.8112
   15TCq1    H4  245   4.253   3.138   1.567 -1.0762  0.0966  0.6069
   16MPD2     C  246   4.248   3.006   1.181  0.3905 -0.5606  0.8722
   16MPD2    C1  247   4.306   2.914   1.263  0.2107  0.6812  0.5603
   16MPD2    C2  248   4.352   2.795   1.212 -0.5672 -0.4053 -0.3083
   16MPD2    C3  249   4.348   2.765   1.078  0.2917  0.1614  0.2417
   16MPD2    C4  250   4.277   2.852   1.003 -0.3728 -0.3043 -0.0666
   16MPD2    C5  251   4.236   2.969   1.052 -0.6383  0.0643  0.1893
   16MPD2     H  252   4.400   2.724   1.277  0.9710  0.6110 -0.3374
   16MPD2    H1  253   4.264   2.834   0.897  2.2017 -1.8486 -0.1225
   16MPD2    H2  254   4.215   3.105   1.211  1.7096  0.2879 -0.5252
   16MPD2    H3  255   4.186   3.042   0.990 -0.0531 -1.7537 -2.4213
   16MPD2     N  256   4.406   2.649   1.022  0.5035  0.0635 -0.1165
   16MPD2    H5  257   4.467   2.600   1.086  1.0961  0.4516 -0.3838
   16MPD2    N1  258   4.312   2.953   1.400  0.2597  0.3464 -0.1248
   16MPD2    H7  259   4.258   3.032   1.434  0.0740 -0.6227  1.8157
   17TMC1    C1  260   1.695   2.536  11.091  0.8623 -0.3453 -0.3347
   17TMC1    C2  261   1.658   2.458  11.199 -0.1891 -0.4257  0.1184
   17TMC1    C3  262   1.537   2.483  11.254 -0.1993 -0.1213  0.6878
   17TMC1    C4  263   1.629   2.642  11.050 -0.4046  0.3763  0.2818
   17TMC1    C5  264   1.519   2.678  11.122 -0.0795 -0.4928 -0.3444
   17TMC1    C6  265   1.465   2.595  11.215 -1.2896 -0.4377 -0.0253
   17TMC1     C  266   1.827   2.520  11.032  0.0073  0.2318  0.3783
   17TMC1     O  267   1.836   2.548  10.913  0.2429  0.0993 -0.5821
   17TMC1     H  268   1.717   2.373  11.231  1.0381 -0.2736 -1.6975
   17TMC1    H1  269   1.664   2.698  10.963  1.2523 -0.7413  0.2272
   17TMC1    H2  270   1.367   2.619  11.254 -0.3299 -1.3294  2.9695
   17TMC1    C7  271   1.441   2.786  11.062  0.8205  0.2188 -0.2397
   17TMC1    C8  272   1.480   2.403  11.360 -0.3570  0.2908  0.2342
   17TMC1    O1  273   1.327   2.810  11.097  0.2225 -0.2729  0.2125
   17TMC1    O2  274   1.453   2.284  11.352 -0.8692 -0.1694 -0.0376
   17TMC1    O3  275   1.531   2.894  11.039 -0.2804  0.2946 -0.3936
   17TMC1    H3  276   1.625   2.867  11.048 -0.4951  0.8396  3.3340
   17TMC1    O5  277   1.491   2.473  11.473 -0.1830 -0.7176 -0.2225
   17TMC1    H5  278   1.502   2.569  11.457 -1.8071 -0.2314  1.5966
   18MPD2     C  279   2.145   2.461  11.200 -0.0993 -0.5086 -0.6103
   18MPD2    C1  280   2.064   2.482  11.084  0.0092  0.0540 -0.2158
   18MPD2    C2  281   2.115   2.493  10.956 -0.1973  0.0326 -0.4472
   18MPD2    C3  282   2.252   2.501  10.946 -0.3654 -0.1268  0.3811
   18MPD2    C4  283   2.338   2.484  11.054  0.7718 -0.2479 -0.0642
   18MPD2    C5  284   2.283   2.452  11.177 -0.2844  0.7493  0.4257
   18MPD2     H  285   2.053   2.500  10.867  1.2356  1.7139 -1.3219
   18MPD2    H1  286   2.445   2.478  11.043  1.1694  0.9328  2.9454
   18MPD2    H2  287   2.109   2.430  11.297  2.5590 -0.0942  0.4931
   18MPD2    H3  288   2.342   2.423  11.263  0.8124  0.9550 -0.2541
   18MPD2     N  289   2.326   2.537  10.830  0.2539 -0.6326 -0.1360
   18MPD2    H5  290   2.426   2.549  10.840  0.2769 -0.9461  0.0527
   18MPD2    N1  291   1.926   2.490  11.118 -0.3800  0.0751 -0.0526
   18MPD2    H7  292   1.909   2.473  11.216 -0.7192 -0.3701 -0.1887
   19TMC2    C1  293   4.003   3.410  13.634  0.8312  0.4825  0.8260
   19TMC2    C2  294   3.973   3.415  13.503  0.1458  0.1883 -0.1714
   19TMC2    C3  295   3.842   3.444  13.470 -0.4243  0.1976 -0.4270
   19TMC2    C4  296   3.917   3.451  13.728 -0.3121  0.2781  0.4523
   19TMC2    C5  297   3.792   3.483  13.692  0.1213 -0.1768  0.8867
   19TMC2    C6  298   3.751   3.490  13.563 -0.2553  0.2971  0.6365
   19TMC2     C  299   4.100   3.305  13.656  0.1433  0.0760  0.4419
   19TMC2     O  300   4.146   3.246  13.556  0.3005  0.3299 -0.4030
   19TMC2     H  301   4.046   3.399  13.424 -1.3239  0.3508 -1.5561
   19TMC2    H1  302   3.938   3.439  13.834  2.1240 -1.8303 -0.2768
   19TMC2    H2  303   3.646   3.484  13.535 -0.2581  1.1971  0.4546
   19TMC2    C7  304   3.702   3.424  13.784  0.2083  0.1571  0.1626
   19TMC2    C8  305   3.813   3.424  13.332  0.0497  0.9323 -0.9746
   19TMC2    O1  306   3.752   3.340  13.854 -0.4109 -0.2736 -0.1309
   19TMC2    O2  307   3.879   3.349  13.265  0.1218  0.0500  0.2372
   19TMC2    O5  308   3.742   3.528  13.287  0.1307 -0.9423  0.6451
   19TMC2    H5  309   3.715   3.595  13.353  1.3221 -0.7156  0.8997
   20MPD2     C  310   4.213   3.071  13.787  0.7808  1.0359  0.9769
   20MPD2    C1  311   4.213   3.197  13.842  0.2707  0.0456 -0.0663
   20MPD2    C2  312   4.280   3.218  13.965 -1.0171 -0.3974 -0.1695
   20MPD2    C3  313   4.360   3.119  14.016 -0.2633  0.3851  0.9411
   20MPD2    C4  314   4.360   2.995  13.955 -0.1496 -0.2874 -0.2460
   20MPD2    C5  315   4.291   2.977  13.841 -0.3438  0.2997  0.6017
   20MPD2     H  316   4.272   3.315  14.012  1.0472 -0.4781  0.3470
   20MPD2    H1  317   4.419   2.912  13.992  0.5525 -0.8610 -2.6746
   20MPD2    H2  318   4.156   3.038  13.702  1.4250  4.1069 -0.6525
   20MPD2    H3  319   4.279   2.879  13.796  0.5994 -0.0411  1.0831
   20MPD2     N  320   4.446   3.135  14.129  0.3136  0.2097 -0.1378
   20MPD2    H5  321   4.507   3.058  14.156 -0.8989 -0.4459  0.7493
   20MPD2    N1  322   4.140   3.299  13.784 -0.6472 -0.0810 -0.7024
   20MPD2    H7  323   4.139   3.386  13.837  0.5737  0.2746 -1.2439
   21TMC2    C1  324   1.335   3.585  13.642  0.6019  1.0006 -0.1653
   21TMC2    C2  325   1.427   3.497  13.604 -1.5431  1.0327  0.3278
   21TMC2    C3  326   1.478   3.414  13.701 -0.2120  0.0186 -0.0838
   21TMC2    C4  327   1.283   3.582  13.771  0.1508  0.7758  0.1470
   21TMC2    C5  328   1.341   3.503  13.862 -0.1801 -0.0710 -0.1926
   21TMC2    C6  329   1.445   3.417  13.832  1.1434 -0.3458  0.1182
   21TMC2     C  330   1.346   3.715  13.579  0.1569 -0.5658 -0.1280
   21TMC2     O  331   1.453   3.740  13.524  0.1946  0.0198  0.0361
   21TMC2     H  332   1.458   3.488  13.501 -2.3335 -0.3355  0.2174
   21TMC2    H1  333   1.198   3.643  13.797  0.3915  0.1538  2.3768
   21TMC2    H2  334   1.468   3.339  13.904 -2.7927 -0.8512  0.8032
   21TMC2    C7  335   1.360   3.562  13.992 -0.3645  0.2621  0.3889
   21TMC2    C8  336   1.571   3.316  13.654  0.2947 -0.6559  0.1310
   21TMC2    O1  337   1.456   3.515  14.052 -0.0932  0.2732 -0.3447
   21TMC2    O2  338   1.591   3.301  13.533 -0.4157  0.5000  0.2747
   21TMC2    O5  339   1.666   3.299  13.751 -0.3633 -0.0490 -0.1088
   21TMC2    H5  340   1.636   3.325  13.841 -1.5485 -2.6548  0.2522
   22MPD2     C  341   1.393   4.046  13.953 -0.6990 -0.5130  0.0063
   22MPD2    C1  342   1.471   3.952  13.899  0.0040  0.0921  0.2930
   22MPD2    C2  343   1.430   3.870  13.799  0.1137 -0.2189 -0.3722
   22MPD2    C3  344   1.308   3.893  13.740 -0.4537  0.3315  0.3606
   22MPD2    C4  345   1.218   3.977  13.802  0.0100 -0.1289 -0.9705
   22MPD2    C5  346   1.265   4.065  13.902 -0.8566 -0.2867  0.1851
   22MPD2     H  347   1.497   3.799  13.752  2.0995  1.2742  0.1854
   22MPD2    H1  348   1.121   3.999  13.759 -0.0362 -1.5417 -1.5934
   22MPD2    H2  349   1.422   4.106  14.039  0.5238 -0.5179 -0.4091
   22MPD2    H3  350   1.211   4.152  13.937  2.2012  1.4841  0.4145
   22MPD2     N  351   1.262   3.802  13.637 -0.3264 -0.3964  0.0589
   22MPD2    H5  352   1.162   3.785  13.639 -0.1533 -1.3402  0.4314
   22MPD2    N1  353   1.586   3.903  13.970  0.3500 -0.8357  0.1094
   22MPD2    H7  354   1.628   3.817  13.936  0.4106 -2.0191  3.2399
   23TMC2    C1  355   3.075   0.306  14.458  0.2337  0.9160  0.2143
   23TMC2    C2  356   3.048   0.426  14.397 -0.3137 -0.1073  0.3324
   23TMC2    C3  357   2.950   0.429  14.305 -0.6292  0.6703  0.7739
   23TMC2    C4  358   2.997   0.196  14.428  0.0874 -0.8339 -0.4278
   23TMC2    C5  359   2.892   0.210  14.343  0.0741  0.5041  0.1124
   23TMC2    C6  360   2.873   0.321  14.268 -0.1748 -0.4262  0.1270
   23TMC2     C  361   3.141   0.312  14.591  0.2843 -0.1604 -0.5996
   23TMC2     O  362   3.113   0.221  14.667 -0.1419  0.4552  0.1736
   23TMC2     H  363   3.091   0.521  14.428 -2.7410  0.8725  0.6904
   23TMC2    H1  364   3.024   0.107  14.485  2.5284  0.1687 -0.0076
   23TMC2    H2  365   2.798   0.335  14.191 -0.1482  5.2821  1.1503
   23TMC2    C7  366   2.805   0.093  14.307 -0.1922  0.1181 -0.2361
   23TMC2    C8  367   2.908   0.562  14.268  0.2173  0.3992  0.2664
   23TMC2    O1  368   2.858   4.718  14.320  0.4599  0.6356  0.3892
   23TMC2    O2  369   2.991   0.637  14.212 -0.3359 -0.4219 -0.0668
   23TMC2    O5  370   2.778   0.550  14.249  0.3729  0.0224  0.3833
   23TMC2    H5  371   2.735   0.474  14.294 -1.4973  0.3966 -0.7910
   24MPD2     C  372   3.478   0.495  14.923 -0.6665  0.1040  0.2487
   24MPD2    C1  373   3.380   0.400  14.943  0.6928 -0.6908  0.5206
   24MPD2    C2  374   3.295   0.375  14.837  0.0309  0.0856  0.3029
   24MPD2    C3  375   3.301   0.448  14.716  0.2651  0.1175 -0.2603
   24MPD2    C4  376   3.406   0.538  14.704 -0.2896 -0.8136  0.8418
   24MPD2    C5  377   3.487   0.562  14.808  0.2225 -0.4391 -0.9197
   24MPD2     H  378   3.217   0.300  14.844  0.4775 -0.1631  2.5754
   24MPD2    H1  379   3.411   0.590  14.608 -2.1902 -1.8861  0.1557
   24MPD2    H2  380   3.557   0.517  14.994 -0.8719  0.2462  0.4312
   24MPD2    H3  381   3.570   0.630  14.815  0.0381 -0.3657  0.5216
   24MPD2     N  382   3.222   0.416  14.607 -0.4696 -0.4020  0.9388
   24MPD2    H5  383   3.236   0.471  14.523  1.1560  0.9521  2.0830
   24MPD2    N1  384   3.370   0.331  15.067  0.3382  0.2496  0.4580
   24MPD2    H7  385   3.284   0.277  15.062  0.0085  0.9152 -0.9809
   25TMC2    C1  386   1.807   2.377  11.610 -0.4985  1.0919  0.0159
   25TMC2    C2  387   1.827   2.510  11.625 -0.3643 -1.0064 -0.1689
   25TMC2    C3  388   1.844   2.554  11.753 -0.4225  0.2716 -0.4979
   25TMC2    C4  389   1.810   2.293  11.716  0.2163 -0.1088 -0.2573
   25TMC2    C5  390   1.837   2.335  11.844  0.2755 -0.6459  0.0042
   25TMC2    C6  391   1.854   2.468  11.864  0.0318 -0.9940  0.3191
   25TMC2     C  392   1.829   2.323  11.475 -1.0097  0.2804  0.5759
   25TMC2     O  393   1.892   2.400  11.394 -0.5829  0.1250 -0.4158
   25TMC2     H  394   1.847   2.579  11.544  0.6505 -1.8628 -0.6484
   25TMC2    H1  395   1.826   2.188  11.696  0.2003 -0.1777  0.0905
   25TMC2    H2  396   1.888   2.504  11.960  1.5664  0.1001 -0.6267
   25TMC2    C7  397   1.831   2.247  11.956  0.0313 -0.1133 -0.3508
   25TMC2    C8  398   1.861   2.699  11.772 -0.7087 -0.1453  0.0436
   25TMC2    O1  399   1.735   2.172  11.947  0.0480 -0.5161 -0.1349
   25TMC2    O2  400   1.920   2.770  11.689 -0.2561  0.3642  0.2294
   25TMC2    O5  401   1.816   2.729  11.901 -0.2608 -0.0049 -0.0516
   25TMC2    H5  402   1.751   2.666  11.939  1.5818 -1.1770  1.2055
   26MPD2     C  403   1.865   1.951  11.121 -0.4176 -0.4016  0.4598
   26MPD2    C1  404   1.804   1.901  11.237 -0.0839  0.3098 -0.2851
   26MPD2    C2  405   1.781   1.991  11.341  0.0591  0.6205  0.0944
   26MPD2    C3  406   1.821   2.118  11.344 -0.2673  0.1679 -0.1561
   26MPD2    C4  407   1.890   2.160  11.226  0.1352  1.1278 -0.1515
   26MPD2    C5  408   1.916   2.078  11.120 -1.1042  0.4004 -0.1014
   26MPD2     H  409   1.733   1.961  11.434  1.8922  2.0245  1.5055
   26MPD2    H1  410   1.929   2.261  11.216 -0.3570  1.4392  1.0987
   26MPD2    H2  411   1.876   1.899  11.027  0.4157  0.0477  0.3144
   26MPD2    H3  412   1.966   2.116  11.032 -0.3056  1.7706  0.9459
   26MPD2     N  413   1.789   2.192  11.455 -0.3101 -0.1072 -0.2747
   26MPD2    H5  414   1.723   2.148  11.518 -0.5316  1.5856  0.6827
   26MPD2    N1  415   1.754   1.769  11.235  0.0241 -0.8098 -0.6669
   26MPD2    H7  416   1.765   1.723  11.145 -2.0487 -1.1128 -0.7500
   27TMC2    C1  417   0.701   4.421  12.082 -0.0427 -0.9077  0.2862
   27TMC2    C2  418   0.606   4.445  11.988  0.1921  0.1904 -0.3412
   27TMC2    C3  419   0.646   4.466  11.859  0.0999  0.0104  0.1422
   27TMC2    C4  420   0.832   4.416  12.053 -0.2437 -0.3879 -0.6575
   27TMC2    C5  421   0.869   4.434  11.927  0.2288 -0.2499  0.1563
   27TMC2    C6  422   0.775   4.469  11.824 -0.1551  0.0446  0.1167
   27TMC2     C  423   0.669   4.409  12.225  0.7202 -0.7888 -0.3096
   27TMC2     O  424   0.759   4.418  12.299 -0.4272 -0.6405 -0.1071
   27TMC2     H  425   0.501   4.460  12.013  0.5271  1.8664  0.0793
   27TMC2    H1  426   0.891   4.367  12.130  1.2560 -1.4374 -2.4447
   27TMC2    H2  427   0.799   4.468  11.718 -0.3727 -2.1370  0.0855
   27TMC2    C7  428   1.003   4.402  11.885  0.5343  0.2564  0.3567
   27TMC2    C8  429   0.567   4.401  11.757  0.0856  0.5017  0.9639
   27TMC2    O1  430   1.021   4.388  11.766 -0.1501 -0.8748 -0.1734
   27TMC2    O2  431   0.606   4.289  11.712  0.3896 -0.1817 -0.1309
   27TMC2    O5  432   0.440   4.446  11.774 -0.1084 -0.0471  0.0879
   27TMC2    H5  433   0.452   4.534  11.816 -3.9113  1.0390 -1.1671
   28MPD2     C  434   0.378   4.427  12.644  0.4729  0.0952  0.2766
   28MPD2    C1  435   0.303   4.380  12.542  0.3492 -0.0303 -0.0306
   28MPD2    C2  436   0.361   4.358  12.419  0.7082  0.0067 -0.0459
   28MPD2    C3  437   0.495   4.382  12.396  0.0167 -0.1037  0.1215
   28MPD2    C4  438   0.576   4.415  12.508 -0.3772  0.7217 -0.3101
   28MPD2    C5  439   0.509   4.434  12.630 -0.4795 -0.5271  0.3975
   28MPD2     H  440   0.291   4.336  12.339  0.9689 -2.2288  0.3347
   28MPD2    H1  441   0.682   4.437  12.504 -0.1888 -0.1191  0.0580
   28MPD2    H2  442   0.339   4.446  12.743 -0.4497 -0.8666  0.1026
   28MPD2    H3  443   0.576   4.476  12.704  0.5747  0.9873 -1.4274
   28MPD2     N  444   0.539   4.384  12.264 -0.3410  0.0168 -0.2862
   28MPD2    H5  445   0.466   4.372  12.195 -0.6090  0.6990 -0.1175
   28MPD2    N1  446   0.167   4.364  12.560 -0.5848 -0.3217 -0.0777
   28MPD2    H7  447   0.133   4.407  12.646  2.1654  1.2941  0.2311
   29TMC2    C1  448   0.356   2.058  14.848 -0.3024 -0.0357  0.3341
   29TMC2    C2  449   0.356   2.075  14.984  0.3548  0.3069 -0.1761
   29TMC2    C3  450   0.322   2.198  15.033  0.0020  0.0426 -0.3089
   29TMC2    C4  451   0.316   2.164  14.758 -0.7921 -0.1697  0.2413
   29TMC2    C5  452   0.303   2.285  14.811  0.4337 -0.2406 -0.8822
   29TMC2    C6  453   0.308   2.304  14.946  0.2173  0.5094 -0.2282
   29TMC2     C  454   0.401   1.926  14.811 -0.6967 -0.2724  0.5347
   29TMC2     O  455   0.359   1.835  14.884  0.5045  0.3296 -0.1704
   29TMC2     H  456   0.375   1.996  15.055 -2.6618  2.0188  2.5552
   29TMC2    H1  457   0.301   2.152  14.651 -1.8739 -0.0488  0.3749
   29TMC2    H2  458   0.284   2.403  14.982  0.8522  0.5620  0.0422
   29TMC2    C7  459   0.272   2.400  14.735  0.5392  0.0248 -0.3232
   29TMC2    C8  460   0.356   2.234  15.165 -0.3649  0.2594  0.2140
   29TMC2    O1  461   0.191   2.383  14.645 -0.1934 -0.4308 -0.2616
   29TMC2    O2  462   0.405   2.333  15.213 -0.2857  0.1540  1.0961
   29TMC2    O5  463   0.274   2.155  15.229 -0.6081  0.1268 -0.5950
   29TMC2    H5  464   0.224   2.088  15.177  0.5283 -0.7875 -0.5048
   30MPD2     C  465   0.546   1.618  14.421  1.0399  0.4869  0.1583
   30MPD2    C1  466   0.502   1.588  14.544  0.1984  0.2403 -0.3666
   30MPD2    C2  467   0.486   1.690  14.638 -0.8102  0.1394  0.1124
   30MPD2    C3  468   0.489   1.824  14.602 -0.2337 -0.8704 -0.5288
   30MPD2    C4  469   0.547   1.845  14.479 -0.0225  0.1778  0.0233
   30MPD2    C5  470   0.587   1.748  14.392 -0.0511  0.5481  0.6142
   30MPD2     H  471   0.445   1.666  14.735  0.1999 -3.8959 -0.4710
   30MPD2    H1  472   0.565   1.946  14.445  0.0718 -0.0992 -0.7359
   30MPD2    H2  473   0.583   1.537  14.359 -0.8772 -0.9108  0.8373
   30MPD2    H3  474   0.650   1.776  14.309  1.1298 -0.2899  1.2246
   30MPD2     N  475   0.450   1.934  14.680  0.1231 -0.5695  0.0582
   30MPD2    H5  476   0.461   2.030  14.646  0.6286 -0.1290  1.4494
   30MPD2    N1  477   0.459   1.454  14.571  0.0704  0.3173  0.2979
   30MPD2    H7  478   0.444   1.432  14.669 -1.5676  2.3105  0.4957
   31TMC2    C1  479   2.772   0.789  15.411  0.5353  1.4139  0.6886
   31TMC2    C2  480   2.648   0.849  15.399  0.2543 -0.2628  0.8406
   31TMC2    C3  481   2.600   0.913  15.510  0.0187  0.0135 -0.3665
   31TMC2    C4  482   2.841   0.791  15.536  0.7953  0.4268 -0.1820
   31TMC2    C5  483   2.783   0.865  15.641 -0.1786 -0.4612 -0.2347
   31TMC2    C6  484   2.660   0.921  15.630  0.3894 -0.1026  0.4318
   31TMC2     C  485   2.846   0.759  15.289 -0.0744 -0.2017  0.1518
   31TMC2     O  486   2.790   0.800  15.188  0.6971 -0.2602  0.0513
   31TMC2     H  487   2.590   0.824  15.311 -2.0153 -0.3918  2.3675
   31TMC2    H1  488   2.933   0.739  15.559  0.9500 -0.1210 -2.0180
   31TMC2    H2  489   2.613   0.972  15.713  0.7701 -1.4191  1.4552
   31TMC2    C7  490   2.859   0.879  15.763 -0.7097 -0.3058 -0.4882
   31TMC2    C8  491   2.468   0.964  15.503 -0.2910  0.8612 -0.3586
   31TMC2    O1  492   2.932   0.784  15.797  0.1965 -0.3111 -0.4263
   31TMC2    O2  493   2.397   0.998  15.601  0.3499 -0.0014  0.0519
   31TMC2    O5  494   2.442   1.013  15.378 -0.3396 -0.2416 -0.2978
   31TMC2    H5  495   2.510   0.995  15.309 -0.9066 -0.6034 -0.7577
   32MPD2     C  496   3.301   0.800  15.036 -0.3977 -0.5056 -0.9076
   32MPD2    C1  497   3.171   0.856  15.010  0.4103  0.3631 -0.0537
   32MPD2    C2  498   3.061   0.811  15.083 -0.1932  0.3853 -0.4580
   32MPD2    C3  499   3.085   0.743  15.205  0.5114 -0.2385 -0.0670
   32MPD2    C4  500   3.211   0.694  15.231 -0.2905  0.3912  0.0508
   32MPD2    C5  501   3.319   0.719  15.146  0.2390 -0.2630  0.1887
   32MPD2     H  502   2.966   0.852  15.052 -0.4551 -0.3535 -0.6517
   32MPD2    H1  503   3.229   0.632  15.318  1.8511  2.5959  1.2114
   32MPD2    H2  504   3.385   0.833  14.977  0.3375 -0.8550 -0.0431
   32MPD2    H3  505   3.416   0.678  15.173 -0.1071 -1.2202 -0.0277
   32MPD2     N  506   2.981   0.720  15.302 -0.1259  0.2092  0.3200
   32MPD2    H5  507   3.000   0.679  15.393 -0.5028 -1.7586 -0.4857
   32MPD2    N1  508   3.164   0.941  14.889  0.3621  0.0213 -0.2109
   32MPD2    H7  509   3.252   0.959  14.842  1.5659  1.0483  2.4352
   33TMC2    C1  510   2.142   3.365  10.076  0.3289 -0.1085  1.2292
   33TMC2    C2  511   2.036   3.368  10.166 -0.4073 -0.0737 -0.2367
   33TMC2    C3  512   2.006   3.486  10.226 -0.2420 -0.6843  0.5304
   33TMC2    C4  513   2.211   3.483  10.058 -0.9039 -0.4758  0.0274
   33TMC2    C5  514   2.170   3.600  10.111  0.7165  0.2354  0.5883
   33TMC2    C6  515   2.068   3.602  10.203 -0.0645  0.4539  0.4364
   33TMC2     C  516   2.209   3.241  10.079 -0.1029 -0.4831 -0.1461
   33TMC2     O  517   2.145   3.143  10.098 -0.2513 -0.3851  0.1396
   33TMC2     H  518   1.990   3.272  10.189 -0.6059  0.2669  0.7774
   33TMC2    H1  519   2.288   3.496   9.982 -0.3935  1.8969  0.9566
   33TMC2    H2  520   2.055   3.690  10.264 -3.8969 -0.8814  1.5525
   33TMC2    C7  521   2.268   3.707  10.100  0.3400 -0.2174 -0.5821
   33TMC2    C8  522   1.914   3.468  10.331  0.9008 -0.8222  0.5554
   33TMC2    O1  523   2.385   3.676  10.076 -0.3123 -0.7267  0.1790
   33TMC2    O2  524   1.859   3.361  10.354  0.0395  0.1368 -0.7303
   33TMC2    O5  525   1.909   3.586  10.400  0.0412  0.5694  0.2981
   33TMC2    H5  526   1.989   3.640  10.419  1.7124 -1.6998 -0.3483
   34MPD2     C  527   2.647   3.000  10.111 -0.1731  0.2047  0.2252
   34MPD2    C1  528   2.530   2.964  10.172  1.0229 -0.0549  0.7328
   34MPD2    C2  529   2.428   3.055  10.140  1.0048 -0.3540  0.7023
   34MPD2    C3  530   2.441   3.167  10.071 -0.5576 -0.2048  0.8265
   34MPD2    C4  531   2.564   3.208  10.024  0.5099 -0.1551  0.0127
   34MPD2    C5  532   2.665   3.117  10.041  0.0006 -0.0124 -0.4765
   34MPD2     H  533   2.341   3.039  10.202  0.5102 -0.0733  0.0822
   34MPD2    H1  534   2.569   3.299   9.964 -1.6590 -0.1317 -0.1154
   34MPD2    H2  535   2.740   2.950  10.134 -0.9522 -1.6010 -0.4959
   34MPD2    H3  536   2.754   3.140   9.984 -0.0004  1.1205 -0.0272
   34MPD2     N  537   2.341   3.257  10.046 -0.0500 -0.7161 -0.0012
   34MPD2    H5  538   2.378   3.351  10.040 -1.4905  0.0646  3.5470
   34MPD2    N1  539   2.528   2.859  10.262 -0.9196  0.0680 -0.1920
   34MPD2    H7  540   2.603   2.791  10.259 -0.6143  0.4375 -0.9468
   35TMC2    C1  541   3.628   4.583  11.527 -0.4548  0.3369  0.2994
   35TMC2    C2  542   3.497   4.633  11.524 -0.6613 -0.4328 -0.0599
   35TMC2    C3  543   3.401   4.542  11.555 -0.1622  0.1433  0.1438
   35TMC2    C4  544   3.654   4.449  11.547  0.8411  0.9750 -0.3466
   35TMC2    C5  545   3.547   4.362  11.561  0.0570 -1.1511  0.0831
   35TMC2    C6  546   3.420   4.403  11.567 -0.5121 -0.3551 -0.4031
   35TMC2     C  547   3.726   4.682  11.511 -0.1532 -0.2478  1.2532
   35TMC2     O  548   3.693   0.052  11.458 -0.7747 -0.4190  0.5740
   35TMC2     H  549   3.478   0.001  11.520 -1.6771 -0.7514 -3.1520
   35TMC2    H1  550   3.755   4.413  11.532 -0.0444 -0.2627 -3.2008
   35TMC2    H2  551   3.333   4.340  11.583  1.0986 -2.0515  1.6632
   35TMC2    C7  552   3.560   4.230  11.597  0.0680 -0.2332 -0.8669
   35TMC2    C8  553   3.284   4.603  11.605  0.0479 -0.0855  0.8573
   35TMC2    O1  554   3.461   4.159  11.614  0.2957  0.4749 -0.1381
   35TMC2    O2  555   3.236   4.709  11.564  0.0771  0.0345 -0.1503
   35TMC2    O5  556   3.261   4.541  11.719 -0.6893  0.3938 -0.5425
   35TMC2    H5  557   3.309   4.456  11.724 -0.9415  0.3052  0.3969
   36MPD2     C  558   4.221   0.091  11.521 -0.1897 -0.1631  0.9347
   36MPD2    C1  559   4.200   4.735  11.622  0.0494 -0.4849  0.2546
   36MPD2    C2  560   4.074   4.678  11.640 -0.1320 -0.2721  0.2838
   36MPD2    C3  561   3.971   4.718  11.560  0.2159  0.0484  0.5527
   36MPD2    C4  562   3.997   0.076  11.460  0.4558  0.9648  0.3658
   36MPD2    C5  563   4.121   0.128  11.439 -0.1192  0.8810 -0.4155
   36MPD2     H  564   4.057   4.610  11.723  0.3712 -0.0551  0.5612
   36MPD2    H1  565   3.911   0.106  11.401  0.9445 -0.9588 -1.3307
   36MPD2    H2  566   4.315   0.142  11.502 -1.8151  2.0302 -1.2054
   36MPD2    H3  567   4.135   0.208  11.367 -0.5657  0.4369 -0.9945
   36MPD2     N  568   3.846   4.654  11.573 -0.9002 -0.1955 -0.2916
   36MPD2    H5  569   3.848   4.564  11.619  1.2389  0.8510  1.6926
   36MPD2    N1  570   4.303   4.711  11.718 -0.3716  1.0916 -0.2014
   36MPD2    H7  571   4.378   0.040  11.710  1.0897 -0.7436 -2.0793
   37TMC2    C1  572   1.958   0.098  12.110  0.3874  0.0201 -0.1020
   37TMC2    C2  573   1.861   0.099  12.016 -0.0231 -0.2752 -0.3283
   37TMC2    C3  574   1.877   0.014  11.908 -0.8081 -0.0868  0.0338
   37TMC2    C4  575   2.054   0.004  12.114  0.5868  0.8605 -0.6735
   37TMC2    C5  576   2.057   4.650  12.015  0.1505  0.2327  0.3017
   37TMC2    C6  577   1.974   4.653  11.904  0.0198 -0.1608  0.2284
   37TMC2     C  578   1.958   0.214  12.197 -0.1481  0.1927  0.1441
   37TMC2     O  579   1.856   0.280  12.199  0.2728  0.2255 -0.2359
   37TMC2     H  580   1.804   0.191  12.007 -1.1932 -1.1851 -2.3784
   37TMC2    H1  581   2.136   0.007  12.184 -0.7114 -0.3666  0.8904
   37TMC2    H2  582   1.975   4.591  11.815  0.4996  3.2183 -2.1199
   37TMC2    C7  583   2.193   4.600  11.988  0.0319  0.0965 -0.1738
   37TMC2    C8  584   1.752   4.715  11.842  0.2830 -0.5829 -0.6578
   37TMC2    O1  585   2.284   4.615  12.071  0.0698 -0.0899 -0.1863
   37TMC2    O2  586   1.743   4.615  11.767  0.2561  0.0358  0.5003
   37TMC2    O5  587   1.653   0.014  11.926  0.0136  0.2414 -0.1986
   37TMC2    H5  588   1.678   0.061  12.008 -0.3275  2.6521 -1.4953
   38MPD2     C  589   2.128   0.411  12.641 -0.3311 -0.4498  0.8484
   38MPD2    C1  590   2.229   0.335  12.586 -0.4257  0.1761  0.7065
   38MPD2    C2  591   2.213   0.292  12.456  0.0148  0.4591 -0.4068
   38MPD2    C3  592   2.095   0.300  12.389 -0.3426 -0.1428 -0.0668
   38MPD2    C4  593   1.996   0.371  12.445 -0.7801  0.3912  0.1842
   38MPD2    C5  594   2.011   0.429  12.570  0.2068  0.4043  0.2223
   38MPD2     H  595   2.289   0.232  12.408 -0.3954 -1.7937  1.7304
   38MPD2    H1  596   1.900   0.379  12.396 -1.1591  0.9450  1.0214
   38MPD2    H2  597   2.139   0.457  12.739  0.1700 -2.2348  1.6201
   38MPD2    H3  598   1.920   0.464  12.618  0.2527 -0.4476  0.9325
   38MPD2     N  599   2.078   0.224  12.275  0.4397  0.3094  0.4112
   38MPD2    H5  600   2.157   0.175  12.236 -0.4312 -0.9661  0.2249
   38MPD2    N1  601   2.354   0.296  12.644  0.1247 -0.2671 -0.2867
   38MPD2    H7  602   2.420   0.244  12.588 -0.5675  1.7126 -2.9587
   39TMC2    C1  603   0.325   1.925   1.535  0.4109  0.9501 -0.3876
   39TMC2    C2  604   0.294   1.903   1.664 -0.1855 -0.1202 -0.1018
   39TMC2    C3  605   0.381   1.945   1.755 -0.0168 -0.2895  0.7368
   39TMC2    C4  606   0.436   1.992   1.493  0.1482  0.7056 -0.0171
   39TMC2    C5  607   0.524   2.029   1.592  0.4259 -0.1893 -0.2577
   39TMC2    C6  608   0.507   1.994   1.726  0.5265 -0.2882 -0.2961
   39TMC2     C  609   0.227   1.901   1.428  0.1691  0.2702  0.2456
   39TMC2     O  610   0.108   1.913   1.457 -1.2452  0.8061  0.1115
   39TMC2     H  611   0.197   1.863   1.689 -1.1278  1.4570 -1.2470
   39TMC2    H1  612   0.432   2.028   1.391 -2.9859  0.6420  0.0786
   39TMC2    H2  613   0.566   2.034   1.808  0.4055 -0.5237 -0.0942
   39TMC2    C7  614   0.625   2.140   1.571  0.3165 -0.6617 -0.2670
   39TMC2    C8  615   0.343   1.913   1.891 -0.1775 -0.2422 -0.7749
   39TMC2    O1  616   0.660   2.208   1.670 -0.2874 -0.6706  0.4830
   39TMC2    O2  617   0.231   1.877   1.913  0.3566  0.2564 -0.3073
   39TMC2    O5  618   0.455   1.853   1.943 -0.0522 -0.2112  0.5120
   39TMC2    H5  619   0.533   1.867   1.886 -0.5018 -1.7753 -0.5099
   40MPD2     C  620   0.291   1.718   1.113 -0.0905 -0.6197  0.4636
   40MPD2    C1  621   0.225   1.799   1.197  0.5665  0.5304  0.3592
   40MPD2    C2  622   0.107   1.860   1.171 -0.4349 -0.0587 -0.0283
   40MPD2    C3  623   0.042   1.837   1.057 -1.0679  0.0114  0.2509
   40MPD2    C4  624   0.108   1.749   0.966 -0.0160  0.0382  0.2391
   40MPD2    C5  625   0.232   1.690   0.997  0.5821 -0.0588 -0.1124
   40MPD2     H  626   0.059   1.937   1.231  1.6150  0.8136  0.5027
   40MPD2    H1  627   0.065   1.734   0.867  0.3459  0.9798 -0.0583
   40MPD2    H2  628   0.385   1.672   1.140  0.4164  0.4437  0.5288
   40MPD2    H3  629   0.290   1.638   0.921 -1.9833 -1.7284 -0.9202
   40MPD2     N  630   4.661   1.905   1.027 -0.5485  0.3297 -0.2631
   40MPD2    H5  631   4.622   1.888   0.934 -4.1483 -0.0098  1.3072
   40MPD2    N1  632   0.288   1.832   1.324  0.0682  0.4940 -0.5532
   40MPD2    H7  633   0.381   1.791   1.329  0.4202  1.0545 -2.3229
   41TMC2    C1  634   3.629   0.360  13.748  0.1840  0.0769  0.9092
   41TMC2    C2  635   3.629   0.426  13.871 -0.3400  0.1140 -0.3559
   41TMC2    C3  636   3.663   0.558  13.866  1.0336  0.0883 -0.6186
   41TMC2    C4  637   3.662   0.420  13.628 -0.5540 -0.2130  0.2554
   41TMC2    C5  638   3.696   0.547  13.634 -0.7107 -0.1518 -0.5249
   41TMC2    C6  639   3.692   0.622  13.748  0.4965 -0.7389  0.4359
   41TMC2     C  640   3.648   0.218  13.753 -0.6001 -0.3390  0.0193
   41TMC2     O  641   3.644   0.158  13.645  0.0928  0.2540  0.3803
   41TMC2     H  642   3.576   0.402  13.962 -1.7656 -2.2681 -1.8289
   41TMC2    H1  643   3.663   0.354  13.543  1.2776 -0.3776  0.3906
   41TMC2    H2  644   3.731   0.723  13.758  0.5822 -0.6738 -0.6009
   41TMC2    C7  645   3.720   0.626  13.516 -0.6122 -0.5062 -0.3592
   41TMC2    C8  646   3.630   0.649  13.978 -0.7653 -0.0168 -0.2646
   41TMC2    O1  647   3.719   0.747  13.526  0.6025 -0.0490  1.0244
   41TMC2    O2  648   3.594   0.767  13.962 -0.0003  0.3570 -0.0274
   41TMC2    O5  649   3.680   0.606  14.089  0.4295  0.5055 -0.5889
   41TMC2    H5  650   3.731   0.523  14.079 -2.3644 -1.4055  1.1425
   42MPD2     C  651   3.682   4.675  13.818 -0.1227 -0.4121 -0.5930
   42MPD2    C1  652   3.719   0.043  13.898  0.8101 -0.2597  0.0081
   42MPD2    C2  653   3.778   0.007  14.019  0.2045  0.9422  0.5179
   42MPD2    C3  654   3.824   4.614  14.043  0.4561 -0.0885 -0.5467
   42MPD2    C4  655   3.805   4.515  13.951  0.0463  0.2517  0.0164
   42MPD2    C5  656   3.723   4.542  13.843  0.4704  0.0893 -0.0870
   42MPD2     H  657   3.783   0.098  14.078 -1.0916  1.1449  0.3304
   42MPD2    H1  658   3.850   4.417  13.961  0.8049  0.4630 -1.3554
   42MPD2    H2  659   3.625   4.697  13.728 -1.0219 -0.0119  0.0678
   42MPD2    H3  660   3.706   4.468  13.766  0.8718 -0.2188  0.1207
   42MPD2     N  661   3.901   4.584  14.159 -0.1383  0.4141 -0.0309
   42MPD2    H5  662   3.919   4.487  14.182 -0.0417  0.1142 -1.3384
   42MPD2    N1  663   3.687   0.178  13.876  0.0850 -0.5653 -0.2831
   42MPD2    H7  664   3.708   0.246  13.949  1.4783 -1.8222  0.4966
   43TMC2    C1  665   0.715   2.848   1.029 -0.0628 -0.6939 -0.2412
   43TMC2    C2  666   0.598   2.889   1.102 -0.2183 -0.7017  0.5569
   43TMC2    C3  667   0.616   2.943   1.223  0.0193 -0.3420  0.3764
   43TMC2    C4  668   0.836   2.850   1.078  1.2527  0.3188  0.0929
   43TMC2    C5  669   0.847   2.890   1.209  0.0880  0.2003 -0.3049
   43TMC2    C6  670   0.738   2.950   1.277  0.1269  0.4839  0.1599
   43TMC2     C  671   0.710   2.808   0.887 -0.5181  0.2796 -0.2607
   43TMC2     O  672   0.812   2.767   0.837 -0.1113  0.4098  0.5803
   43TMC2     H  673   0.500   2.877   1.058  0.0849  0.8434 -0.5465
   43TMC2    H1  674   0.928   2.830   1.025  1.8567  0.2131  1.1684
   43TMC2    H2  675   0.749   2.997   1.374 -0.8035  1.0300  0.0039
   43TMC2    C7  676   0.980   2.885   1.270 -0.1612  0.1339  0.3461
   43TMC2    C8  677   0.491   2.980   1.290 -0.1803 -0.3884  0.5349
   43TMC2    O1  678   1.070   2.837   1.207 -0.0920 -0.4565 -0.5234
   43TMC2    O2  679   0.379   2.977   1.236 -0.0321  0.1506 -0.0046
   43TMC2    O5  680   0.503   2.974   1.427 -0.2583  0.3145  0.2012
   43TMC2    H5  681   0.589   2.945   1.465  0.0024  0.2832 -0.4018
   44MPD2     C  682   0.456   2.785   0.431  0.3289 -1.2780  0.4040
   44MPD2    C1  683   0.586   2.763   0.464  0.2492  0.4033  0.0430
   44MPD2    C2  684   0.630   2.767   0.595 -0.1309  0.6151 -0.7554
   44MPD2    C3  685   0.556   2.823   0.693  0.1225  0.0731 -0.4287
   44MPD2    C4  686   0.428   2.872   0.652 -0.4298  0.6458  0.2977
   44MPD2    C5  687   0.379   2.841   0.527 -0.6245 -0.3189 -0.1294
   44MPD2     H  688   0.733   2.735   0.605 -0.5397 -0.1308  1.0803
   44MPD2    H1  689   0.357   2.902   0.728 -0.7987 -2.1177  1.0411
   44MPD2    H2  690   0.411   2.763   0.335  0.4441  0.3428 -0.0228
   44MPD2    H3  691   0.275   2.864   0.502 -0.2502  0.7182 -0.7503
   44MPD2     N  692   0.592   2.835   0.831 -0.3100 -0.0370  0.8992
   44MPD2    H5  693   0.526   2.882   0.892  0.6983  1.8400  0.5311
   44MPD2    N1  694   0.677   2.712   0.369  0.1621  0.2456 -0.2963
   44MPD2    H7  695   0.767   2.683   0.404 -0.1205  0.0463  0.2508
   45TMC2    C1  696   1.419   4.490   9.719 -0.1869 -0.1917  0.1673
   45TMC2    C2  697   1.511   4.477   9.613  0.2866 -0.3006  0.2192
   45TMC2    C3  698   1.549   4.597   9.558  0.0638 -0.4844 -0.5774
   45TMC2    C4  699   1.386   4.611   9.776 -0.0401  0.5151  0.6820
   45TMC2    C5  700   1.451   4.719   9.730 -0.1911 -0.8508  0.4314
   45TMC2    C6  701   1.524   4.721   9.611 -0.0453 -0.1643 -0.3738
   45TMC2     C  702   1.370   4.370   9.771 -0.4823  0.2785 -0.1718
   45TMC2     O  703   1.451   4.277   9.765  0.1739 -0.7219  0.7114
   45TMC2     H  704   1.544   4.381   9.574  2.7874  0.5673  0.1505
   45TMC2    H1  705   1.323   4.602   9.864  1.3239  1.3459  1.7316
   45TMC2    H2  706   1.587   0.060   9.571  1.0741  0.3559  2.3622
   45TMC2    C7  707   1.429   0.112   9.793 -0.6612  0.8469 -0.9263
   45TMC2    C8  708   1.643   4.600   9.451  0.0176 -0.3967  0.6132
   45TMC2    O1  709   1.396   0.112   9.909  0.4621 -0.2353 -0.0889
   45TMC2    O2  710   1.709   4.701   9.425 -0.0903 -0.2469 -0.2776
   45TMC2    O5  711   1.607   4.507   9.363  0.7422 -0.8313  0.5161
   45TMC2    H5  712   1.524   4.458   9.383  0.3804 -0.8765 -1.1420
   46MPD2     C  713   1.201   4.133   9.817 -1.2960  0.3012  0.2419
   46MPD2    C1  714   1.157   4.261   9.827  0.8663 -0.4508 -1.1119
   46MPD2    C2  715   1.020   4.287   9.843 -0.0522  0.0509  0.2286
   46MPD2    C3  716   0.927   4.189   9.849  0.5306 -0.0159 -0.3810
   46MPD2    C4  717   0.972   4.064   9.839 -0.0754  1.3559 -0.7752
   46MPD2    C5  718   1.104   4.039   9.823 -0.3389 -0.0697 -0.0761
   46MPD2     H  719   0.978   4.386   9.835 -0.4384 -0.2149 -0.9728
   46MPD2    H1  720   0.906   3.977   9.844  0.8935  0.6810  0.3239
   46MPD2    H2  721   1.303   4.096   9.804 -1.5793 -1.1246  1.9979
   46MPD2    H3  722   1.139   3.937   9.816  0.0631 -0.0972  2.5482
   46MPD2     N  723   0.792   4.223   9.843  0.0695 -0.2009  0.3141
   46MPD2    H5  724   0.768   4.319   9.864  2.1482 -0.2058  2.6786
   46MPD2    N1  725   1.237   4.377   9.805  0.1766 -0.0159 -1.1052
   46MPD2    H7  726   1.187   4.464   9.791  0.9017  0.6163  0.2613
   47TMC2    C1  727   3.504   0.847   9.494 -0.2168 -0.0273  0.3992
   47TMC2    C2  728   3.495   0.735   9.415  0.1006 -0.4278 -0.0972
   47TMC2    C3  729   3.380   0.699   9.358  0.3376 -0.4524  0.5722
   47TMC2    C4  730   3.399   0.936   9.505 -0.3938 -0.2035  0.0809
   47TMC2    C5  731   3.280   0.899   9.442  0.1631 -0.3604 -0.5613
   47TMC2    C6  732   3.274   0.790   9.357  0.2225  0.2134  0.5244
   47TMC2     C  733   3.621   0.873   9.577 -0.2453 -0.5807 -0.2947
   47TMC2     O  734   3.651   0.991   9.599 -0.3528  0.0002 -0.3825
   47TMC2     H  735   3.582   0.680   9.383 -0.7930 -1.6642 -0.3901
   47TMC2    H1  736   3.405   0.998   9.594 -1.3065 -0.4312  0.3014
   47TMC2    H2  737   3.181   0.768   9.305  1.2049 -0.8558 -0.7989
   47TMC2    C7  738   3.153   0.963   9.473 -1.1031  0.4133  0.5612
   47TMC2    C8  739   3.368   0.574   9.279 -0.1973  0.0616  0.4729
   47TMC2    O1  740   3.047   0.898   9.470  0.0146 -0.3219  0.2647
   47TMC2    O2  741   3.279   0.568   9.193  0.2618 -0.0190  0.0811
   47TMC2    O5  742   3.395   0.476   9.367 -0.0083 -0.0565 -0.2781
   47TMC2    H5  743   3.447   0.504   9.446 -0.2539 -0.7544  0.1368
   48MPD2     C  744   3.825   0.837   9.795 -0.5098 -1.2223 -0.2519
   48MPD2    C1  745   3.755   0.736   9.732 -0.4539 -0.3969 -0.7440
   48MPD2    C2  746   3.778   0.608   9.769  0.1629 -0.2504 -0.0702
   48MPD2    C3  747   3.858   0.582   9.868  0.1755 -0.1774  0.2589
   48MPD2    C4  748   3.933   0.683   9.935 -0.3240  0.2047 -0.4210
   48MPD2    C5  749   3.915   0.807   9.893  0.2053  0.9337 -0.2632
   48MPD2     H  750   3.728   0.518   9.733  0.3126 -0.0384 -0.8040
   48MPD2    H1  751   3.993   0.667  10.024 -0.7178  2.4399  0.2387
   48MPD2    H2  752   3.814   0.940   9.763  1.6695 -0.1452  2.4838
   48MPD2    H3  753   3.976   0.880   9.945 -1.1604  0.2532  2.2914
   48MPD2     N  754   3.855   0.446   9.910 -0.4048 -0.3047  0.0529
   48MPD2    H5  755   3.786   0.390   9.863 -1.2114  0.5839  0.1672
   48MPD2    N1  756   3.668   0.755   9.628  0.1818 -0.2941  0.7419
   48MPD2    H7  757   3.619   0.670   9.600  0.8236 -1.3841  2.9802
   49TMC2    C1  758   1.588   2.489   9.930 -0.0978  0.0016 -0.4369
   49TMC2    C2  759   1.685   2.550   9.860 -0.2892  0.4348  0.1230
   49TMC2    C3  760   1.650   2.594   9.731  0.0051 -0.2802 -0.5549
   49TMC2    C4  761   1.467   2.455   9.873  0.6666 -0.7938  1.2584
   49TMC2    C5  762   1.441   2.494   9.747 -0.8239 -0.6053  0.8961
   49TMC2    C6  763   1.529   2.563   9.673  0.2842 -0.0772 -0.7890
   49TMC2     C  764   1.610   2.469  10.071  0.5576 -0.7310 -0.5809
   49TMC2     O  765   1.546   2.382  10.132 -0.0775 -0.1394  0.0459
   49TMC2     H  766   1.790   2.546   9.888 -0.9570 -2.3500  2.2273
   49TMC2    H1  767   1.388   2.404   9.926 -0.6303  0.8672  0.9332
   49TMC2    H2  768   1.517   2.591   9.569  0.8061 -2.6849 -1.5597
   49TMC2    C7  769   1.314   2.467   9.680 -0.2943  0.1665 -0.0142
   49TMC2    C8  770   1.754   2.650   9.646  0.9370 -0.3413 -0.3216
   49TMC2    O1  771   1.271   2.551   9.604 -0.1921 -0.5625 -0.1572
   49TMC2    O2  772   1.754   2.654   9.526 -0.5167 -0.1135  0.1442
   49TMC2    O5  773   1.820   2.733   9.728 -0.2695  0.3039  0.5246
   49TMC2    H5  774   1.814   2.726   9.826 -1.5465  0.1891  0.4322
   50MPD2     C  775   1.717   2.456  10.354  0.5228 -0.3158  0.7158
   50MPD2    C1  776   1.737   2.556  10.267 -0.3848 -0.1664 -0.0376
   50MPD2    C2  777   1.796   2.674  10.313  1.5557 -0.5279  0.0153
   50MPD2    C3  778   1.842   2.679  10.443  0.2554  0.0556  0.0504
   50MPD2    C4  779   1.832   2.572  10.527 -0.4573  0.1201  0.7035
   50MPD2    C5  780   1.766   2.463  10.482  0.0217 -0.3487 -0.1370
   50MPD2     H  781   1.804   2.763  10.252 -1.1909 -1.1948 -1.3221
   50MPD2    H1  782   1.860   2.556  10.630 -0.5089  0.8980  0.8327
   50MPD2    H2  783   1.675   2.362  10.320 -1.2475  1.2951 -1.5689
   50MPD2    H3  784   1.752   2.379  10.550  0.5149 -0.1873  0.1699
   50MPD2     N  785   1.895   2.794  10.501 -1.1256  0.6172  0.0549
   50MPD2    H5  786   1.902   2.798  10.602 -1.0368  0.2164  0.0653
   50MPD2    N1  787   1.696   2.558  10.129 -0.8819  0.0584 -0.2001
   50MPD2    H7  788   1.738   2.629  10.071 -0.5805 -2.1078 -2.6350
   51TMC2    C1  789   4.013   1.111   1.557  0.0002 -0.1578 -0.8537
   51TMC2    C2  790   4.072   1.123   1.674  0.0274 -0.7287 -0.3092
   51TMC2    C3  791   4.136   1.241   1.703 -0.6021 -0.3505 -0.2998
   51TMC2    C4  792   4.024   1.207   1.459 -0.4069 -0.1801 -0.3210
   51TMC2    C5  793   4.104   1.316   1.486  0.2204 -0.6487  0.0286
   51TMC2    C6  794   4.166   1.327   1.607  0.4123  0.3779  0.1054
   51TMC2     C  795   3.920   1.000   1.524  0.2143  0.3377  0.1228
   51TMC2     O  796   3.836   1.007   1.431 -0.4337  0.1687 -0.0131
   51TMC2     H  797   4.047   1.064   1.762 -0.3007  0.4723  0.4194
   51TMC2    H1  798   3.962   1.196   1.371  0.1839  0.0961 -0.7716
   51TMC2    H2  799   4.240   1.405   1.620  0.5653  0.2675 -0.1055
   51TMC2    C7  800   4.066   1.429   1.403 -0.0751  0.4109  0.5706
   51TMC2    C8  801   4.167   1.279   1.837  0.8548  0.8747  0.4776
   51TMC2    O1  802   3.947   1.416   1.368 -0.4644  0.7622 -0.5655
   51TMC2    O2  803   4.184   1.394   1.868 -0.9169  0.5853 -0.6183
   51TMC2    O5  804   4.190   1.177   1.918 -0.1700 -0.3449  0.4063
   51TMC2    H5  805   4.205   1.090   1.875  0.1911 -0.5197  0.8895
   52MPD2     C  806   3.779   0.499   1.514 -0.3983 -0.0049 -0.5764
   52MPD2    C1  807   3.719   0.609   1.467  0.2706 -0.4511 -0.2015
   52MPD2    C2  808   3.776   0.732   1.495 -0.0836  0.7591  0.1208
   52MPD2    C3  809   3.888   0.751   1.573 -0.1978  0.1051 -0.5543
   52MPD2    C4  810   3.946   0.633   1.630 -0.2399  0.4120  0.5019
   52MPD2    C5  811   3.883   0.513   1.603  0.2198 -0.2000  0.0731
   52MPD2     H  812   3.725   0.823   1.465  0.9542  0.7578 -1.6923
   52MPD2    H1  813   4.028   0.643   1.700  0.1185  0.6735  0.0395
   52MPD2    H2  814   3.736   0.401   1.499  3.4860 -2.0328  1.8695
   52MPD2    H3  815   3.913   0.419   1.648  0.2229 -0.6389 -0.8447
   52MPD2     N  816   3.942   0.883   1.596  0.0143  0.0823  0.1244
   52MPD2    H5  817   4.027   0.880   1.652  0.9519 -3.4332 -1.4982
   52MPD2    N1  818   3.599   0.613   1.387 -0.3553  0.0676 -0.6611
   52MPD2    H7  819   3.565   0.704   1.358 -2.3266 -0.4661  0.0197
   53TMC2    C1  820   2.918   4.627  11.891 -0.3886 -0.1606  0.2317
   53TMC2    C2  821   3.006   4.559  11.970 -0.2709 -0.2818 -0.5027
   53TMC2    C3  822   3.016   4.605  12.097 -0.6117  0.0395  0.3719
   53TMC2    C4  823   2.843   4.739  11.928  0.8096 -0.2795 -0.1763
   53TMC2    C5  824   2.868   0.042  12.059 -0.0068  0.1338  0.0267
   53TMC2    C6  825   2.950   4.715  12.146  0.4799 -0.1223 -0.0057
   53TMC2     C  826   2.823   4.535  11.833  0.5578 -0.0637 -0.0235
   53TMC2     O  827   2.868   4.429  11.803  0.1976  0.5808  0.2052
   53TMC2     H  828   3.064   4.482  11.921  1.3823  0.2217  0.6765
   53TMC2    H1  829   2.780   0.051  11.857 -1.1817 -0.7327  1.2555
   53TMC2    H2  830   2.967   0.027  12.239  1.9281 -1.2275  0.3423
   53TMC2    C7  831   2.768   0.143  12.094 -0.3576  0.0781  0.3190
   53TMC2    C8  832   3.130   4.571  12.176  0.3571 -0.3129 -0.3416
   53TMC2    O1  833   2.675   0.155  12.015  0.9272 -0.3907  0.2271
   53TMC2    O2  834   3.210   4.660  12.201 -0.3152 -0.0717 -0.4912
   53TMC2    O5  835   3.165   4.452  12.124  0.2691  0.5410 -0.0996
   53TMC2    H5  836   3.097   4.384  12.106  0.7407 -0.1909  0.9554
   54MPD2     C  837   2.578   4.423  11.693  0.3248 -0.6129  0.4999
   54MPD2    C1  838   2.575   4.516  11.801 -0.1552  0.2052 -0.4620
   54MPD2    C2  839   2.452   4.554  11.855  0.3925 -0.0837 -0.1535
   54MPD2    C3  840   2.340   4.500  11.811 -0.2423 -0.8705  0.5109
   54MPD2    C4  841   2.346   4.416  11.703  0.0047 -0.0178  0.5497
   54MPD2    C5  842   2.462   4.378  11.644 -0.1842 -0.9903  0.9762
   54MPD2     H  843   2.461   4.626  11.936  1.6336 -1.3149  0.8170
   54MPD2    H1  844   2.251   4.373  11.672 -0.9525  2.1092  0.5161
   54MPD2    H2  845   2.666   4.386  11.643  1.0168 -0.5230  1.6353
   54MPD2    H3  846   2.460   4.316  11.555 -0.8390  0.5945 -0.1308
   54MPD2     N  847   2.212   4.528  11.870 -0.0925 -0.3615 -0.2036
   54MPD2    H5  848   2.130   4.490  11.824 -1.1371  0.8422  0.6654
   54MPD2    N1  849   2.694   4.584  11.845  0.0555  0.3392  0.3973
   54MPD2    H7  850   2.676   4.657  11.913 -0.0025  0.2790  0.4464
   55TMC2    C1  851   3.436   3.260   0.088 -0.4428 -0.4878  0.0700
   55TMC2    C2  852   3.526   3.304  17.745 -0.2012 -0.5502 -0.1009
   55TMC2    C3  853   3.624   3.212  17.719  0.7866  0.1870  0.0317
   55TMC2    C4  854   3.436   3.135   0.141 -0.3352  0.7026 -0.0299
   55TMC2    C5  855   3.547   3.058   0.112 -0.7482  0.4861  0.2875
   55TMC2    C6  856   3.639   3.089   0.022  0.8918  0.5657  0.6992
   55TMC2     C  857   3.323   3.344   0.121  0.3958 -0.4222 -0.6824
   55TMC2     O  858   3.259   3.335   0.224 -0.3457 -0.6693  0.7592
   55TMC2     H  859   3.518   3.397  17.691  1.6855 -0.5957 -0.4835
   55TMC2    H1  860   3.357   3.103   0.208 -1.3029 -1.8219 -2.3647
   55TMC2    H2  861   3.729   3.033  17.751 -1.0350 -1.7320 -1.1720
   55TMC2    C7  862   3.545   2.918   0.160  0.1526  0.4071 -0.4265
   55TMC2    C8  863   3.710   3.238  17.608  0.2750  0.0426  0.6437
   55TMC2    O1  864   3.644   2.854   0.131  0.2994  0.4450  0.0489
   55TMC2    O2  865   3.756   3.348  17.586 -0.3490  0.1827  0.1984
   55TMC2    O5  866   3.669   3.158  17.517  1.0606  0.1491 -0.0983
   55TMC2    H5  867   3.618   3.080  17.548  1.2711 -0.4637 -1.2700
   56MPD2     C  868   3.139   3.530  17.629  0.0905  0.0194  0.5458
   56MPD2    C1  869   3.170   3.490   0.000 -0.6414  0.3779 -0.7139
   56MPD2    C2  870   3.092   3.536   0.109 -0.7818  0.1210  0.3604
   56MPD2    C3  871   2.976   3.614   0.082 -0.1553  0.2452 -0.0161
   56MPD2    C4  872   2.944   3.656  17.705 -0.9837 -0.0691 -0.1817
   56MPD2    C5  873   3.031   3.607  17.604 -0.2698  0.2130  0.1860
   56MPD2     H  874   3.108   3.505   0.211 -1.6615  1.3195  0.8585
   56MPD2    H1  875   2.862   3.718  17.670 -0.7086  0.1039 -0.5221
   56MPD2    H2  876   3.209   3.503  17.550 -0.3271 -0.2106  0.2507
   56MPD2    H3  877   3.008   3.629  17.501 -0.4706 -0.1386  0.1588
   56MPD2     N  878   2.892   3.641   0.197  0.0734  0.0104 -0.0284
   56MPD2    H5  879   2.915   3.601   0.288  3.5030 -1.8618 -1.7057
   56MPD2    N1  880   3.274   3.405   0.011  0.1618  0.4676 -0.4533
   56MPD2    H7  881   3.323   3.379  17.679  1.3253 -0.3391  0.4559
   57TMC2    C1  882   1.991   3.483  13.551 -0.2062 -0.1164  0.4564
   57TMC2    C2  883   1.955   3.362  13.588 -0.4336  0.0749 -0.4973
   57TMC2    C3  884   2.022   3.258  13.542 -0.0596 -0.4832 -0.2755
   57TMC2    C4  885   2.081   3.502  13.447  0.4692  0.0784  0.9615
   57TMC2    C5  886   2.153   3.392  13.408  1.0362  0.0865  0.2635
   57TMC2    C6  887   2.114   3.266  13.443 -0.1261  0.1182  0.4800
   57TMC2     C  888   1.912   3.591  13.596 -0.1601 -0.3621  0.4074
   57TMC2     O  889   1.796   3.577  13.634 -0.3719  0.3143 -0.4586
   57TMC2     H  890   1.885   3.358  13.671 -1.3928  1.4271 -1.2409
   57TMC2    H1  891   2.083   3.599  13.399 -1.4800  0.1249  0.9529
   57TMC2    H2  892   2.161   3.176  13.404  1.2970  1.5667 -1.1685
   57TMC2    C7  893   2.211   3.392  13.277 -0.6981  0.3598  0.2273
   57TMC2    C8  894   1.992   3.117  13.576 -1.1807 -0.8226 -0.3225
   57TMC2    O1  895   2.168   3.479  13.199 -0.2122  0.1764 -0.2066
   57TMC2    O2  896   2.054   3.018  13.549  0.5421 -0.3411 -0.3825
   57TMC2    O5  897   1.857   3.130  13.585 -0.1351 -0.2223 -0.2321
   57TMC2    H5  898   1.821   3.217  13.612 -1.6755 -0.8166 -0.3465
   58MPD2     C  899   1.851   4.094  13.645  0.3063  0.3164 -0.3674
   58MPD2    C1  900   1.765   3.994  13.608 -0.0441  0.3284 -0.5957
   58MPD2    C2  901   1.805   3.867  13.595  0.7484  0.2055  0.6346
   58MPD2    C3  902   1.940   3.834  13.612  0.2310  0.1588 -0.0510
   58MPD2    C4  903   2.030   3.937  13.643  0.2965 -0.5719 -0.1788
   58MPD2    C5  904   1.986   4.062  13.659 -0.1324  0.2351  0.4734
   58MPD2     H  905   1.737   3.791  13.559  0.1734  0.5402  1.0196
   58MPD2    H1  906   2.136   3.917  13.652  0.3179 -0.8505 -0.9809
   58MPD2    H2  907   1.820   4.197  13.656 -2.5960 -0.5397 -0.4412
   58MPD2    H3  908   2.054   4.140  13.691 -0.7594 -1.5724  6.3198
   58MPD2     N  909   1.991   3.704  13.596  0.1550  0.1633 -0.4581
   58MPD2    H5  910   2.091   3.690  13.605 -0.0147  0.4735  1.7362
   58MPD2    N1  911   1.638   4.017  13.553 -0.8052  0.1642  0.4951
   58MPD2    H7  912   1.586   3.932  13.533 -1.6904  1.7245 -3.7043
   59TMC2    C1  913   0.340   3.994  12.519 -0.1506 -0.4348  0.7063
   59TMC2    C2  914   0.460   4.038  12.476 -0.7720  0.3225 -0.3983
   59TMC2    C3  915   0.503   4.006  12.350  0.2863  0.7105  0.4291
   59TMC2    C4  916   0.256   3.933  12.436  0.3007  0.0793 -0.5191
   59TMC2    C5  917   0.295   3.922  12.307  0.1848  0.9053  0.4584
   59TMC2    C6  918   0.420   3.940  12.264  0.2964  0.0875  0.1109
   59TMC2     C  919   0.282   4.015  12.655  0.4614  0.5463  0.3256
   59TMC2     O  920   0.172   3.970  12.686 -0.6767  0.0673 -0.1273
   59TMC2     H  921   0.524   4.088  12.548  1.8297 -2.7815 -0.5740
   59TMC2    H1  922   0.158   3.900  12.468  0.7179  0.5891  1.2627
   59TMC2    H2  923   0.453   3.917  12.163  0.1962 -0.8109  0.2866
   59TMC2    C7  924   0.194   3.909  12.203  0.1483 -0.0290 -0.2329
   59TMC2    C8  925   0.626   4.035  12.284  0.2096  0.1192 -0.4990
   59TMC2    O1  926   0.225   3.850  12.099 -0.4105  0.0992 -0.1930
   59TMC2    O2  927   0.640   4.085  12.173  0.2216 -0.3900 -0.0620
   59TMC2    O5  928   0.699   4.050  12.393 -0.0924 -0.2539 -0.2282
   59TMC2    H5  929   0.669   3.991  12.466  1.2213 -3.0419 -1.9621
   60MPD2     C  930   0.266   4.070  12.960 -0.2725 -0.3749 -0.4616
   60MPD2    C1  931   0.359   4.122  12.874 -0.6243  0.1135  1.3982
   60MPD2    C2  932   0.453   4.208  12.926 -0.6681 -0.1633 -0.0396
   60MPD2    C3  933   0.439   4.255  13.051 -0.2873 -0.0492  0.2598
   60MPD2    C4  934   0.344   4.210  13.134  0.0680  0.2089 -0.3598
   60MPD2    C5  935   0.263   4.108  13.090 -1.1726  0.3187 -0.2593
   60MPD2     H  936   0.531   4.236  12.857 -0.5833 -0.0103  0.1179
   60MPD2    H1  937   0.331   4.246  13.236  0.7013 -0.8332  0.0761
   60MPD2    H2  938   0.188   3.999  12.934  0.0318 -0.5131 -1.0013
   60MPD2    H3  939   0.195   4.058  13.158  0.8588 -0.7861  0.9657
   60MPD2     N  940   0.536   4.340  13.115  0.4883 -0.3553  0.2962
   60MPD2    H5  941   0.514   4.363  13.211 -0.1830  0.5375 -0.0695
   60MPD2    N1  942   0.368   4.081  12.738 -0.5333 -0.9159 -0.2581
   60MPD2    H7  943   0.449   4.116  12.689 -0.8280 -0.0166 -0.0935
   61TMC2    C1  944   3.975   0.569  15.766 -0.2844 -0.2322  0.5615
   61TMC2    C2  945   3.901   0.566  15.882  0.4636 -0.7087 -0.1916
   61TMC2    C3  946   3.866   0.692  15.937  0.1713 -0.2902  0.4613
   61TMC2    C4  947   4.000   0.686  15.704 -0.2460 -0.1604 -0.0747
   61TMC2    C5  948   3.956   0.803  15.756  0.2614 -0.4263 -0.0658
   61TMC2    C6  949   3.898   0.812  15.879  0.2633  0.2369  0.2425
   61TMC2     C  950   4.065   0.454  15.753 -0.6461  0.1731 -0.1113
   61TMC2     O  951   4.032   0.348  15.800  0.1477  0.1790  0.0332
   61TMC2     H  952   3.880   0.475  15.936  1.4999 -0.1960  1.0616
   61TMC2    H1  953   4.057   0.689  15.612 -1.4877  0.1889 -0.8318
   61TMC2    H2  954   3.901   0.907  15.930 -1.1404  0.7716 -0.6680
   61TMC2    C7  955   3.958   0.926  15.687  0.2976  0.4575 -0.8101
   61TMC2    C8  956   3.833   0.682  16.080  0.2709 -0.3281  0.2618
   61TMC2    O1  957   3.972   1.028  15.752 -0.7885 -0.1999 -0.5770
   61TMC2    O2  958   3.883   0.595  16.148  0.4608  0.1274 -0.4261
   61TMC2    O5  959   3.752   0.780  16.123  0.3176  0.2167 -0.3475
   61TMC2    H5  960   3.730   0.854  16.062  0.2796  0.8258  0.4001
   62MPD2     C  961   4.281   0.268  15.673  0.0894 -0.1268 -0.8966
   62MPD2    C1  962   4.280   0.397  15.642  0.0761  0.6388 -0.5469
   62MPD2    C2  963   4.372   0.443  15.551  0.4253  0.6849  0.2763
   62MPD2    C3  964   4.455   0.351  15.484  0.3663  0.2066  0.8731
   62MPD2    C4  965   4.454   0.215  15.514 -0.0296 -0.3815  0.3809
   62MPD2    C5  966   4.366   0.175  15.613 -0.6640  0.0536 -0.7337
   62MPD2     H  967   4.368   0.548  15.523 -1.6267  0.6419  0.4697
   62MPD2    H1  968   4.511   0.134  15.471 -0.9878 -1.3910  0.9920
   62MPD2    H2  969   4.221   0.222  15.751 -0.0231  0.2857 -0.7388
   62MPD2    H3  970   4.356   0.071  15.640  0.4637 -0.1371 -1.0575
   62MPD2     N  971   4.536   0.392  15.381 -0.3218  0.2957 -0.1844
   62MPD2    H5  972   4.575   0.318  15.324  0.1026  1.1681 -1.0417
   62MPD2    N1  973   4.175   0.489  15.685 -0.1747  0.0638  0.1184
   62MPD2    H7  974   4.191   0.586  15.659  0.9611 -0.2765 -0.4302
   63TMC2    C1  975   3.047   0.660  11.217 -0.0372  0.1077 -0.0289
   63TMC2    C2  976   3.074   0.728  11.337 -0.4465  0.1044 -0.4075
   63TMC2    C3  977   3.200   0.776  11.351 -0.2640  0.2441  0.0357
   63TMC2    C4  978   3.134   0.646  11.113 -0.6890 -0.1898  0.1787
   63TMC2    C5  979   3.260   0.698  11.138 -0.3138  0.8762  0.2658
   63TMC2    C6  980   3.296   0.760  11.255  0.3090 -0.2917 -0.4451
   63TMC2     C  981   2.928   0.578  11.221 -0.3120  0.0333 -0.0209
   63TMC2     O  982   2.830   0.618  11.279 -0.1395 -0.6991  0.3365
   63TMC2     H  983   2.998   0.763  11.405 -1.6453 -0.1468 -1.6003
   63TMC2    H1  984   3.118   0.595  11.018  1.0687 -0.8663  0.2366
   63TMC2    H2  985   3.399   0.792  11.268 -0.9872  3.2434  1.0054
   63TMC2    C7  986   3.349   0.692  11.031 -0.1641 -0.0897 -0.5501
   63TMC2    C8  987   3.237   0.853  11.475 -0.0270  0.6266  0.4257
   63TMC2    O1  988   3.302   0.653  10.924  0.0209  0.3236  0.2454
   63TMC2    O2  989   3.348   0.908  11.482 -0.1320 -0.1518  0.0437
   63TMC2    O5  990   3.184   0.780  11.578 -0.6518 -0.1962 -0.1965
   63TMC2    H5  991   3.090   0.760  11.558 -1.3948 -0.6309  3.6410
   64MPD2     C  992   2.691   0.138  11.100 -0.3202 -0.3513 -0.4184
   64MPD2    C1  993   2.826   0.119  11.083 -0.0307  0.2145 -0.5128
   64MPD2    C2  994   2.908   0.229  11.093 -0.4764 -0.4254 -0.2350
   64MPD2    C3  995   2.856   0.353  11.129 -0.0708  0.0230  0.1696
   64MPD2    C4  996   2.722   0.373  11.149  1.0901 -0.4376  0.2513
   64MPD2    C5  997   2.644   0.259  11.132 -0.0520  0.5112  0.0202
   64MPD2     H  998   3.012   0.225  11.060 -0.5985  0.6536 -0.7618
   64MPD2    H1  999   2.684   0.473  11.169 -0.1875 -0.5830 -1.3562
   64MPD2    H2 1000   2.619   0.059  11.083 -0.6794  0.0309 -0.6781
   64MPD2    H3 1001   2.539   0.283  11.148  0.1050  0.5398  1.0184
   64MPD2     N 1002   2.954   0.454  11.161 -0.1279  0.2228  0.2127
   64MPD2    H5 1003   3.053   0.439  11.143 -0.1555  0.5287 -0.1913
   64MPD2    N1 1004   2.884   4.732  11.049  0.1602 -0.3371  0.1207
   64MPD2    H7 1005   2.984   4.734  11.035  0.2352 -0.3109  0.6500
   65TMC2    C1 1006   0.497   0.309  15.696  0.1670  0.1424 -0.6161
   65TMC2    C2 1007   0.489   0.305  15.553 -0.8281 -0.1273 -1.1592
   65TMC2    C3 1008   0.543   0.413  15.490  0.3196 -0.4317  0.8020
   65TMC2    C4 1009   0.544   0.418  15.762  1.0072  0.1120 -0.5392
   65TMC2    C5 1010   0.591   0.524  15.687  0.2362  0.7503 -0.6406
   65TMC2    C6 1011   0.585   0.527  15.550 -0.9916 -0.0229 -0.3059
   65TMC2     C 1012   0.427   0.202  15.774 -0.4993  0.7406 -1.0281
   65TMC2     O 1013   0.409   0.231  15.893 -0.0199  0.4853 -0.4661
   65TMC2     H 1014   0.448   0.215  15.509 -2.9137 -1.3949  3.4576
   65TMC2    H1 1015   0.571   0.415  15.867  1.4084  2.2574 -0.5800
   65TMC2    H2 1016   0.645   0.598  15.494  0.8252  0.1289  1.8335
   65TMC2    C7 1017   0.576   0.656  15.743  0.2143  0.2869 -0.7041
   65TMC2    C8 1018   0.542   0.410  15.344  0.6043  0.5284  0.6046
   65TMC2    O1 1019   0.623   0.749  15.678  0.1432 -0.5192 -0.1396
   65TMC2    O2 1020   0.561   0.309  15.282  0.7062 -0.2556 -0.1871
   65TMC2    O5 1021   0.548   0.540  15.297 -0.3718  0.4350  0.0814
   65TMC2    H5 1022   0.491   0.602  15.347 -1.8297 -1.4225  0.7326
   66MPD2     C 1023   0.321   4.702  15.903 -0.3863 -0.5661 -0.4419
   66MPD2    C1 1024   0.339   4.709  15.768 -0.2934 -0.3474  0.6944
   66MPD2    C2 1025   0.296   4.604  15.683  0.1880  0.3405 -0.0540
   66MPD2    C3 1026   0.244   4.493  15.743 -0.0920  0.2796 -0.1461
   66MPD2    C4 1027   0.229   4.484  15.879  0.7595 -0.8199  0.0208
   66MPD2    C5 1028   0.265   4.588  15.958  0.5492 -0.4198  0.0038
   66MPD2     H 1029   0.322   4.608  15.578  0.1752  0.1450 -0.0642
   66MPD2    H1 1030   0.185   4.399  15.930 -1.1578 -0.0836 -0.4016
   66MPD2    H2 1031   0.345   0.036  15.980 -1.3981 -2.2045  1.3959
   66MPD2    H3 1032   0.257   4.585  16.066 -0.5731 -1.0097 -0.0998
   66MPD2     N 1033   0.183   4.383  15.682 -0.3985  0.6889 -0.3394
   66MPD2    H5 1034   0.144   4.315  15.747 -0.2815 -0.1122 -1.1108
   66MPD2    N1 1035   0.395   0.084  15.707 -0.5267  0.0816 -0.1282
   66MPD2    H7 1036   0.412   0.086  15.607 -0.1719  0.3313 -0.0637
   67TMC2    C1 1037   4.732   4.137  14.426  0.5126 -0.0440 -0.1140
   67TMC2    C2 1038   4.669   4.067  14.320 -0.7198  0.5453 -0.2879
   67TMC2    C3 1039   4.696   3.939  14.311 -0.2506  0.3367  0.0384
   67TMC2    C4 1040   0.089   4.085  14.503  0.3436 -0.2451  0.4512
   67TMC2    C5 1041   0.114   3.958  14.484 -0.3442  0.6247  0.7534
   67TMC2    C6 1042   0.050   3.880  14.398 -0.2133 -0.7059  0.5126
   67TMC2     C 1043   4.712   4.279  14.426  0.5860  0.2070  0.3037
   67TMC2     O 1044   0.031   4.339  14.518  0.6257 -0.0810  1.0249
   67TMC2     H 1045   4.626   4.112  14.231  2.1262 -0.2774 -2.0816
   67TMC2    H1 1046   0.137   4.147  14.578  2.4846 -2.1687  0.6582
   67TMC2    H2 1047   0.079   3.777  14.384 -2.8808 -1.2045 -1.4109
   67TMC2    C7 1048   0.229   3.896  14.544  0.5021  0.1015 -0.4117
   67TMC2    C8 1049   4.629   3.861  14.207 -0.5859  0.3403  0.4417
   67TMC2    O1 1050   0.281   3.800  14.487 -0.2096  0.3605 -0.1763
   67TMC2    O2 1051   4.569   3.906  14.112  0.5627 -0.0362 -0.4646
   67TMC2    O5 1052   4.596   3.733  14.258  0.5910  0.6058 -0.1101
   67TMC2    H5 1053   4.654   3.715  14.335 -3.0941  0.6894  2.6728
   68MPD2     C 1054   4.638   4.570  14.389  0.2779  0.3352  0.0010
   68MPD2    C1 1055   4.577   4.464  14.325 -0.3148 -0.8540 -0.8549
   68MPD2    C2 1056   4.479   4.493  14.233  0.2128  0.1329 -0.4499
   68MPD2    C3 1057   4.440   4.625  14.216  0.6172 -0.3126 -0.4794
   68MPD2    C4 1058   4.492   4.726  14.289 -0.1418  0.2386 -0.1763
   68MPD2    C5 1059   4.594   4.697  14.371  0.1901 -1.0824  0.5320
   68MPD2     H 1060   4.433   4.419  14.168 -2.6905  0.4762  1.2142
   68MPD2    H1 1061   4.453   0.088  14.286 -0.9135 -0.0687 -0.5587
   68MPD2    H2 1062   4.711   4.553  14.467 -0.8505 -0.1717  0.9560
   68MPD2    H3 1063   4.636   0.044  14.421 -0.3162 -0.6952  0.2906
   68MPD2     N 1064   4.350   4.668  14.115 -0.0818 -0.3636  0.1506
   68MPD2    H5 1065   4.330   0.028  14.108  1.3956 -0.0898 -0.1306
   68MPD2    N1 1066   4.610   4.323  14.344  0.4620  0.4117  0.2672
   68MPD2    H7 1067   4.555   4.255  14.293 -1.4626  1.0134  1.5375
   69TMC2    C1 1068   2.867   0.668  12.934 -0.2542  0.5504 -0.5546
   69TMC2    C2 1069   2.907   0.798  12.922 -0.8159 -0.2122 -0.4213
   69TMC2    C3 1070   2.951   0.851  12.802  0.7589 -0.1241  0.3689
   69TMC2    C4 1071   2.887   0.583  12.828 -0.2888  0.3877  0.2498
   69TMC2    C5 1072   2.943   0.636  12.714 -0.1553  0.4868 -0.2272
   69TMC2    C6 1073   2.973   0.770  12.696  0.4811  0.7217  0.1468
   69TMC2     C 1074   2.798   0.617  13.045  0.3565  0.5752  0.4313
   69TMC2     O 1075   2.722   0.520  13.037  0.2075  0.0113  0.0251
   69TMC2     H 1076   2.896   0.865  13.007  1.1334 -0.7921  0.2781
   69TMC2    H1 1077   2.867   0.477  12.838 -1.3471  0.5129 -0.5269
   69TMC2    H2 1078   3.028   0.796  12.607  0.7523 -0.5142 -0.0460
   69TMC2    C7 1079   3.003   0.543  12.609  0.3469 -0.3079  0.2347
   69TMC2    C8 1080   3.028   0.977  12.809 -0.2429  0.9225 -0.4583
   69TMC2    O1 1081   3.055   0.593  12.512  0.0620 -0.6389  0.8825
   69TMC2    O2 1082   3.044   1.034  12.917 -0.1058 -0.2943  0.1220
   69TMC2    O5 1083   2.996   1.033  12.695 -0.2150 -0.2221  0.4716
   69TMC2    H5 1084   2.936   0.987  12.633 -0.8602 -1.0859  1.7445
   70MPD2     C 1085   2.942   0.618  13.386 -0.2798  0.2677  0.1760
   70MPD2    C1 1086   2.851   0.595  13.286 -0.1622  0.0792 -0.4830
   70MPD2    C2 1087   2.744   0.516  13.314  0.3400 -0.0565  0.4301
   70MPD2    C3 1088   2.730   0.448  13.429 -0.0894  0.2226  0.4172
   70MPD2    C4 1089   2.822   0.469  13.528 -0.5036 -0.4536  0.1007
   70MPD2    C5 1090   2.923   0.559  13.512  0.6093  1.3026 -0.7828
   70MPD2     H 1091   2.664   0.504  13.242  0.4427  2.0527 -0.0536
   70MPD2    H1 1092   2.813   0.402  13.612  0.6142 -0.3239  0.3242
   70MPD2    H2 1093   3.027   0.685  13.375 -1.3919  1.4785 -1.0173
   70MPD2    H3 1094   2.992   0.573  13.594 -0.3102 -2.1588  0.5821
   70MPD2     N 1095   2.627   0.358  13.461 -0.0761 -0.0808 -1.1769
   70MPD2    H5 1096   2.635   0.308  13.549 -0.5010  2.0647  0.0790
   70MPD2    N1 1097   2.875   0.652  13.156 -0.6118  0.1494  0.4505
   70MPD2    H7 1098   2.954   0.715  13.149 -0.0169 -0.5733  0.6049
   71TMC2    C1 1099   4.505   0.910   1.076 -0.4641  0.0874 -0.1976
   71TMC2    C2 1100   4.586   0.927   1.183 -0.5518 -0.1820  0.2554
   71TMC2    C3 1101   4.596   0.821   1.279  0.7980  0.5905 -0.1211
   71TMC2    C4 1102   4.427   0.792   1.055 -0.1192  0.0033  0.3009
   71TMC2    C5 1103   4.442   0.690   1.148  0.4608  0.1306  0.0631
   71TMC2    C6 1104   4.525   0.703   1.259 -0.4435 -0.1214 -0.4726
   71TMC2     C 1105   4.516   0.996   0.969  0.1692  0.4016  0.1666
   71TMC2     O 1106   4.407   1.023   0.923 -0.1750  0.1448 -0.5637
   71TMC2     H 1107   4.626   1.025   1.204 -0.1085 -0.4028  0.4528
   71TMC2    H1 1108   4.381   0.777   0.958 -0.2368  0.9381  0.2080
   71TMC2    H2 1109   4.508   0.630   1.337 -0.2008  0.3302  0.0027
   71TMC2    C7 1110   4.420   0.562   1.102 -0.6488 -0.3183  0.0770
   71TMC2    C8 1111   4.683   0.827   1.381 -0.3128 -0.4909 -0.5690
   71TMC2    O1 1112   4.498   0.483   1.149  0.0544  0.7383  0.0522
   71TMC2    O2 1113   4.724   0.944   1.400 -0.7168  0.2202  0.0185
   71TMC2    O5 1114   0.016   0.707   1.402 -0.1812  0.3118 -0.0149
   71TMC2    H5 1115   4.721   0.630   1.351  1.6372 -0.6437  0.2184
   72MPD2     C 1116   0.091   1.197   0.611  0.0743  0.7080  0.2995
   72MPD2    C1 1117   4.690   1.212   0.628  0.0915  0.5906  0.6906
   72MPD2    C2 1118   4.630   1.151   0.744 -0.1010 -0.5091  0.1712
   72MPD2    C3 1119   4.702   1.072   0.824 -0.6609 -0.0616 -0.0459
   72MPD2    C4 1120   0.094   1.047   0.793  0.5245 -0.5872  0.8501
   72MPD2    C5 1121   0.158   1.107   0.692  0.6225  0.4130  0.2380
   72MPD2     H 1122   4.527   1.171   0.769 -0.0549  2.7881 -2.3672
   72MPD2    H1 1123   0.155   0.983   0.856 -0.4864 -0.1326  2.2956
   72MPD2    H2 1124   0.139   1.238   0.523 -2.0838 -0.1342 -1.2739
   72MPD2    H3 1125   0.263   1.086   0.674  1.1025  2.6131  0.4349
   72MPD2     N 1126   4.648   1.009   0.939  0.4172  0.8985  0.1183
   72MPD2    H5 1127   4.709   0.952   0.997  0.9688 -0.0566 -1.3905
   72MPD2    N1 1128   4.608   1.272   0.533  0.5018 -0.0391  0.2845
   72MPD2    H7 1129   4.508   1.269   0.552  1.0836  1.2968  3.4577
   73TMC2    C1 1130   3.943   2.822  14.062  0.1465  0.1557  0.9769
   73TMC2    C2 1131   3.970   2.946  14.108  0.7001  0.9126 -0.8500
   73TMC2    C3 1132   4.082   2.966  14.188 -0.5142  0.3279 -0.0805
   73TMC2    C4 1133   4.032   2.718  14.091 -0.1591 -0.0987 -0.0556
   73TMC2    C5 1134   4.151   2.744  14.165 -0.0340 -0.1336  0.7282
   73TMC2    C6 1135   4.176   2.867  14.209  0.3065  0.3215 -0.1834
   73TMC2     C 1136   3.924   2.812  13.919  0.5990 -0.2068 -0.2860
   73TMC2     O 1137   3.997   2.733  13.862 -0.2448 -0.1336  0.2486
   73TMC2     H 1138   3.893   3.018  14.084  0.9855  1.6274  0.3892
   73TMC2    H1 1139   4.020   2.618  14.050 -0.0415  0.3600 -1.1917
   73TMC2    H2 1140   4.272   2.888  14.256  0.3707  0.5457 -0.4176
   73TMC2    C7 1141   4.270   2.679  14.108 -0.0158 -0.1909  0.4333
   73TMC2    C8 1142   4.115   3.089  14.268  0.4811 -0.0247  0.0584
   73TMC2    O1 1143   4.377   2.699  14.166  0.9408 -0.0392  0.1053
   73TMC2    O2 1144   4.202   3.089  14.353  0.6514  0.2578  0.0808
   73TMC2    O5 1145   4.014   3.181  14.255 -0.5919  0.3327 -0.0395
   73TMC2    H5 1146   3.974   3.183  14.166 -3.6615  0.3190  1.3222
   74MPD2     C 1147   3.884   3.092  13.480 -0.4229  0.7451 -0.6232
   74MPD2    C1 1148   3.955   2.979  13.509 -0.6670 -0.3126 -0.2684
   74MPD2    C2 1149   3.931   2.909  13.623  0.1973 -0.8016 -0.3598
   74MPD2    C3 1150   3.843   2.956  13.722  0.0361 -0.7508 -1.0433
   74MPD2    C4 1151   3.790   3.079  13.698 -0.0514  0.4651 -0.1487
   74MPD2    C5 1152   3.795   3.136  13.580 -0.6597 -0.3064  0.0669
   74MPD2     H 1153   3.982   2.818  13.653  2.5368  0.6617  0.0464
   74MPD2    H1 1154   3.730   3.132  13.771  0.5188  2.3266 -1.0235
   74MPD2    H2 1155   3.908   3.160  13.399 -0.0552  1.6007  0.1942
   74MPD2    H3 1156   3.735   3.222  13.553 -1.4957 -0.6727  0.7637
   74MPD2     N 1157   3.841   2.911  13.862 -0.0627  0.0002  0.0804
   74MPD2    H5 1158   3.787   2.969  13.925 -1.0961 -1.5640  0.6147
   74MPD2    N1 1159   4.055   2.938  13.416 -0.5287  0.1769  0.2910
   74MPD2    H7 1160   4.072   2.995  13.334 -2.0333 -0.3232 -0.3839
   75TMC2    C1 1161   4.198   4.660  13.931  0.7712  0.4512  0.8001
   75TMC2    C2 1162   4.196   0.056  13.927  0.7460 -0.6581 -0.4933
   75TMC2    C3 1163   4.102   0.117  13.842  0.4850 -0.4828 -0.0050
   75TMC2    C4 1164   4.130   4.585  13.836 -0.0943 -0.1323  0.5378
   75TMC2    C5 1165   4.050   4.652  13.750 -0.2773  0.0740 -0.3738
   75TMC2    C6 1166   4.030   0.050  13.750 -0.4750  0.8807 -0.2210
   75TMC2     C 1167   4.278   4.586  14.029  0.2092 -0.0956 -0.1326
   75TMC2     O 1168   4.268   4.464  14.033 -0.1173  0.7790 -0.1960
   75TMC2     H 1169   4.234   0.116  14.009  2.0450 -0.8746 -0.9467
   75TMC2    H1 1170   4.131   4.477  13.845 -1.1015 -0.2687 -0.8504
   75TMC2    H2 1171   3.958   0.100  13.686  1.3022  1.8123 -1.5277
   75TMC2    C7 1172   3.970   4.568  13.663 -0.8159 -0.1715 -0.1982
   75TMC2    C8 1173   4.055   0.249  13.887 -0.5336 -0.4364  0.7805
   75TMC2    O1 1174   3.977   4.446  13.680  0.5225  0.3688 -0.5351
   75TMC2    O2 1175   4.078   0.281  14.007  0.3666 -0.5507  0.1495
   75TMC2    O5 1176   3.990   0.323  13.796 -0.2358 -0.2688 -0.3058
   75TMC2    H5 1177   3.985   0.277  13.710 -0.4833 -0.3877 -0.2262
   76TMC2    C1 1178   3.679   4.105  12.127  0.1223 -0.3529  0.1996
   76TMC2    C2 1179   3.594   3.992  12.127 -0.2238  0.2371 -0.1117
   76TMC2    C3 1180   3.609   3.906  12.232  0.0207 -0.8253  0.1080
   76TMC2    C4 1181   3.748   4.142  12.245 -0.6509 -0.3738  0.4437
   76TMC2    C5 1182   3.750   4.054  12.346 -0.7338 -0.2970  0.0994
   76TMC2    C6 1183   3.692   3.936  12.341 -0.4167 -0.0971  0.0975
   76TMC2     C 1184   3.643   4.216  12.035 -0.0620 -0.4306  0.3737
   76TMC2     O 1185   3.533   4.206  11.980  0.1513 -0.1916  0.3585
   76TMC2     H 1186   3.524   3.978  12.046  0.3032 -0.3350 -0.4661
   76TMC2    H1 1187   3.802   4.234  12.264 -0.7541 -0.3980  0.8536
   76TMC2    H2 1188   3.707   3.856  12.413  2.5829  1.1808  0.8666
   76TMC2    C7 1189   3.807   4.096  12.479 -0.4384 -0.3244 -0.0241
   76TMC2    C8 1190   3.545   3.782  12.232 -0.2159  0.5912  0.7907
   76TMC2    O1 1191   3.849   4.006  12.556  0.2503 -0.5001 -0.1066
   76TMC2    O2 1192   3.433   3.762  12.189  0.2385  0.1171  0.1598
   76TMC2    O5 1193   3.647   3.688  12.220 -0.1304 -0.3059 -0.3725
   76TMC2    H5 1194   3.731   3.734  12.239  0.2698 -1.0818 -0.2865
   77MPD2     C 1195   3.714   4.711  11.884 -0.2181  0.5033 -0.1622
   77MPD2    C1 1196   3.597   4.643  11.919 -0.0219  0.0430  0.3424
   77MPD2    C2 1197   3.601   4.509  11.971  0.2747 -0.2105  0.2006
   77MPD2    C3 1198   3.722   4.447  11.972 -0.5914  0.8226  0.1921
   77MPD2    C4 1199   3.830   4.517  11.942 -0.8549  0.0255  0.0653
   77MPD2    C5 1200   3.830   4.648  11.903 -0.1102 -0.7666 -0.0280
   77MPD2     H 1201   3.511   4.456  12.001 -0.1899  0.8143  0.6139
   77MPD2    H1 1202   3.928   4.479  11.965 -0.6802  0.3885 -0.0767
   77MPD2    H2 1203   3.729   0.073  11.845 -2.3526  1.1304  0.6436
   77MPD2    H3 1204   3.922   4.703  11.882  0.5362 -1.8061  0.0608
   77MPD2     N 1205   3.742   4.317  12.021  0.0898 -0.6353  0.0662
   77MPD2    H5 1206   3.838   4.287  12.036  0.9530  1.4656 -1.3850
   77MPD2    N1 1207   3.475   4.709  11.909  0.5571  0.0742 -0.1621
   77MPD2    H7 1208   3.392   4.658  11.938  1.6138 -1.9542 -0.7604
   78TMC2    C1 1209   4.113   0.715   0.572  0.3032 -0.1730 -0.0394
   78TMC2    C2 1210   4.106   0.858   0.568 -0.2179  0.0762  0.2016
   78TMC2    C3 1211   4.206   0.941   0.602  0.2128  0.3184 -0.5764
   78TMC2    C4 1212   4.230   0.658   0.610 -0.8515 -0.6195 -1.3481
   78TMC2    C5 1213   4.335   0.751   0.641  0.4546  0.0392  0.5851
   78TMC2    C6 1214   4.323   0.883   0.639  0.0944  0.5408 -0.2618
   78TMC2     C 1215   4.025   0.655   0.473  0.5739  0.6190  0.0259
   78TMC2     O 1216   3.922   0.717   0.446  0.0314  0.2556 -0.4791
   78TMC2     H 1217   4.013   0.902   0.535  0.8878  2.4838  0.3242
   78TMC2    H1 1218   4.233   0.551   0.627 -0.9331  0.2021  3.7507
   78TMC2    H2 1219   4.408   0.951   0.648  0.0794  0.5817 -0.4194
   78TMC2    C7 1220   4.460   0.708   0.694 -0.5854  0.2578 -0.5505
   78TMC2    C8 1221   4.216   1.079   0.565 -0.3583  0.0382 -0.1299
   78TMC2    O1 1222   4.544   0.791   0.706 -0.6929  0.1929 -0.0668
   78TMC2    O2 1223   4.320   1.127   0.517 -0.2879  0.0665 -0.0583
   78TMC2    O5 1224   4.095   1.140   0.558 -0.1617  0.0956  0.1918
   78TMC2    H5 1225   4.020   1.086   0.590  0.4030  0.1089  1.5309
   79MPD1     C 1226   3.849   0.338   0.108  0.7459 -0.1133  0.6892
   79MPD1    C1 1227   3.831   0.471   0.138  0.2892  0.0767 -0.8383
   79MPD1    C2 1228   3.907   0.538   0.235  0.2870  0.5111  0.1626
   79MPD1    C3 1229   3.990   0.468   0.315  0.5382 -0.5145  0.4763
   79MPD1    C4 1230   4.014   0.337   0.274 -0.4876 -0.6411 -0.1000
   79MPD1    C5 1231   3.948   0.270   0.175  0.5970 -0.2572  0.2174
   79MPD1     H 1232   3.896   0.646   0.246  2.1340  0.5976  1.2841
   79MPD1    H1 1233   4.093   0.285   0.329  0.4499 -0.0427 -0.8773
   79MPD1    H2 1234   3.796   0.281   0.033 -1.7454  2.4895  0.4993
   79MPD1    H3 1235   3.970   0.167   0.147  0.0706 -0.2575 -0.2128
   79MPD1     N 1236   4.065   0.534   0.412  0.2202 -0.1055 -0.6163
   79MPD1    H5 1237   4.138   0.480   0.457  0.2407  0.6797  0.3073
   79MPD1    N1 1238   3.759   0.541   0.035  1.1004 -0.3007 -0.7966
   79MPD1    H6 1239   3.683   0.480   0.006  1.3327 -0.4867 -1.0217
   79MPD1    H7 1240   3.715   0.627   0.069  2.3646  0.6728 -1.6143
   80TMC2    C1 1241   2.743   4.245  12.027  0.7966 -0.2033 -0.3601
   80TMC2    C2 1242   2.802   4.195  11.916  0.6574  0.0325 -0.0743
   80TMC2    C3 1243   2.714   4.132  11.839 -0.6604 -0.1223 -0.8201
   80TMC2    C4 1244   2.612   4.215  12.072 -0.3583 -0.3483 -0.0504
   80TMC2    C5 1245   2.527   4.166  11.977 -0.2265 -0.1206 -0.3369
   80TMC2    C6 1246   2.575   4.122  11.863 -0.0836  0.8292 -0.0498
   80TMC2     C 1247   2.842   4.300  12.121  0.2560 -0.3362  0.1484
   80TMC2     O 1248   2.962   4.271  12.102 -0.0792  0.0755  0.2044
   80TMC2     H 1249   2.906   4.207  11.885 -0.0852 -1.8669 -3.2950
   80TMC2    H1 1250   2.576   4.235  12.173 -1.4996  2.5048 -1.0126
   80TMC2    H2 1251   2.503   4.085  11.791  0.1474 -1.2301  0.7957
   80TMC2    C7 1252   2.385   4.174  12.001 -0.2132  0.1514 -0.1698
   80TMC2    C8 1253   2.763   4.093  11.705  0.0139 -0.6025  0.5968
   80TMC2    O1 1254   2.318   4.169  11.899 -0.7110 -0.4193  0.1662
   80TMC2    O2 1255   2.696   4.011  11.640 -0.6065 -0.1336 -0.2501
   80TMC2    O5 1256   2.832   4.194  11.664  0.4437 -0.6283 -0.0449
   80TMC2    H5 1257   2.853   4.258  11.736 -1.7238 -1.8707  1.6774
   81MPD2     C 1258   2.969   4.369  12.374  0.2860  0.0918 -0.1972
   81MPD2    C1 1259   2.851   4.423  12.337 -0.4420 -0.2944 -0.2867
   81MPD2    C2 1260   2.791   4.518  12.415 -0.0093  0.4719  0.0552
   81MPD2    C3 1261   2.846   4.567  12.530 -0.5350 -0.9771  0.3212
   81MPD2    C4 1262   2.972   4.517  12.565 -0.3161 -0.4076 -0.2075
   81MPD2    C5 1263   3.027   4.417  12.491 -0.3655  0.7893 -0.2505
   81MPD2     H 1264   2.700   4.564  12.378  0.4284  1.7872  0.6157
   81MPD2    H1 1265   3.018   4.554  12.656  3.4111 -0.1463 -2.1798
   81MPD2    H2 1266   3.015   4.286  12.322 -1.5330 -0.6169 -0.6867
   81MPD2    H3 1267   3.117   4.372  12.530 -0.9286 -0.0898  0.0400
   81MPD2     N 1268   2.799   4.668  12.618  0.2643 -0.3525 -0.1520
   81MPD2    H5 1269   2.838   4.655  12.711  1.6608 -0.0218 -0.7004
   81MPD2    N1 1270   2.787   4.393  12.215  0.0061 -0.9061 -0.0540
   81MPD2    H7 1271   2.692   4.428  12.208  0.9881  1.5112 -1.1569
   82TMC2    C1 1272   0.476   3.452  11.013  0.5825 -0.0458 -0.0290
   82TMC2    C2 1273   0.571   3.527  11.070  0.9845  0.2710 -0.5333
   82TMC2    C3 1274   0.601   3.484  11.200  0.1316  0.2941  0.2039
   82TMC2    C4 1275   0.420   3.341  11.073 -0.1993  0.0525 -0.2565
   82TMC2    C5 1276   0.448   3.314  11.207 -0.0297 -0.2987  0.0586
   82TMC2    C6 1277   0.547   3.384  11.266  0.4888  0.6522  0.6207
   82TMC2     C 1278   0.396   3.506  10.910 -0.4620  0.5209 -0.1408
   82TMC2     O 1279   0.354   3.425  10.834  0.5793  0.1871 -0.4125
   82TMC2     H 1280   0.612   3.619  11.030 -2.3137  2.1763  0.4589
   82TMC2    H1 1281   0.332   3.299  11.026 -0.4032  1.6731 -1.3171
   82TMC2    H2 1282   0.569   3.364  11.371  2.1093 -0.8880 -0.0127
   82TMC2    C7 1283   0.358   3.234  11.282  0.0647 -0.4713  0.1603
   82TMC2    C8 1284   0.728   3.537  11.246 -0.0421  0.5337  0.1695
   82TMC2    O1 1285   0.320   3.290  11.386  0.5870  0.1134  0.6172
   82TMC2    O2 1286   0.818   3.556  11.164 -0.0668  0.7695 -0.4001
   82TMC2    O5 1287   0.685   3.621  11.342  0.2716  0.1038 -0.4357
   82TMC2    H5 1288   0.598   3.592  11.376  0.5707  0.2965  0.4787
   83MPD2     C 1289   0.059   3.850  10.723  0.0540 -0.0283 -0.0321
   83MPD2    C1 1290   0.071   3.714  10.698 -0.3936 -0.5185 -0.0613
   83MPD2    C2 1291   0.172   3.643  10.758 -0.1553 -0.5909  0.1462
   83MPD2    C3 1292   0.260   3.700  10.846 -0.0706 -0.3909  0.0166
   83MPD2    C4 1293   0.243   3.832  10.871 -1.0417  0.1734 -0.1820
   83MPD2    C5 1294   0.151   3.904  10.808  1.1219 -0.3428  0.1588
   83MPD2     H 1295   0.189   3.546  10.712  1.4403 -0.2439  0.0139
   83MPD2    H1 1296   0.300   3.892  10.941 -0.7564 -1.0347  0.6156
   83MPD2    H2 1297   4.725   3.910  10.671  1.0138 -0.0051 -1.3697
   83MPD2    H3 1298   0.149   4.011  10.821 -4.1801 -0.3759 -0.4840
   83MPD2     N 1299   0.364   3.637  10.919 -0.3868 -0.3128 -0.3247
   83MPD2    H5 1300   0.409   3.690  10.993  2.0254 -0.0214 -2.0061
   83MPD2    N1 1301   4.721   3.654  10.600 -0.0241 -0.1119  0.2735
   83MPD2    H7 1302   4.662   3.713  10.542 -0.7779 -1.0719  0.0684
   84TMC2    C1 1303   2.008   3.134  10.708 -0.2251  0.0987 -0.6851
   84TMC2    C2 1304   2.104   3.213  10.653 -0.2943 -0.4040  0.2293
   84TMC2    C3 1305   2.154   3.177  10.530  0.2832  1.0156  0.4122
   84TMC2    C4 1306   1.967   3.023  10.642 -0.3278  0.5684 -0.0584
   84TMC2    C5 1307   1.997   3.010  10.512  0.3559  0.2347  0.4795
   84TMC2    C6 1308   2.102   3.076  10.456 -0.0463 -0.6074 -0.0883
   84TMC2     C 1309   1.950   3.154  10.841 -0.2676 -0.8723  0.1490
   84TMC2     O 1310   1.944   3.056  10.910 -0.4683  0.8945 -0.1429
   84TMC2     H 1311   2.137   3.300  10.709  0.4815 -0.3232 -0.3627
   84TMC2    H1 1312   1.885   2.977  10.696 -1.2683  1.7337 -0.5059
   84TMC2    H2 1313   2.130   3.048  10.355 -3.1726 -0.6658 -0.9423
   84TMC2    C7 1314   1.946   2.899  10.426 -0.6872 -0.1156  0.1295
   84TMC2    C8 1315   2.278   3.237  10.475  0.9859 -0.0055 -0.1350
   84TMC2    O1 1316   1.960   2.912  10.307 -1.1644  0.3195 -0.9290
   84TMC2    O2 1317   2.322   3.343  10.516 -0.1323  0.0629 -0.5016
   84TMC2    O5 1318   2.351   3.134  10.433  0.0177  0.3165  0.4004
   84TMC2    H5 1319   2.289   3.060  10.421  0.6378 -0.1597  0.1328
   85TMC2    C1 1320   2.616   1.733  15.961 -0.5498  0.1459 -0.6391
   85TMC2    C2 1321   2.635   1.861  16.000 -0.5767 -0.3624 -0.1200
   85TMC2    C3 1322   2.657   1.959  15.907 -0.0224 -0.5108  1.1835
   85TMC2    C4 1323   2.619   1.698  15.829  0.0505  0.1302 -0.3613
   85TMC2    C5 1324   2.640   1.798  15.738  0.5332 -0.1602  0.3343
   85TMC2    C6 1325   2.663   1.925  15.779 -0.6177  0.4939 -0.5422
   85TMC2     C 1326   2.610   1.634  16.070  0.5589  0.2828 -0.0904
   85TMC2     O 1327   2.635   1.684  16.177  0.1571 -0.6373 -0.9703
   85TMC2     H 1328   2.595   1.889  16.097  1.3322  0.0233  0.5560
   85TMC2    H1 1329   2.614   1.594  15.799  1.3984 -0.1985  0.5352
   85TMC2    H2 1330   2.699   2.000  15.709  0.7271 -0.8665 -1.3065
   85TMC2    C7 1331   2.688   1.747  15.607 -0.4256 -0.6974  0.0219
   85TMC2    C8 1332   2.634   2.104  15.932  0.0234 -0.2306  0.0722
   85TMC2    O1 1333   2.732   1.635  15.603 -0.0398 -0.2657 -0.4772
   85TMC2    O2 1334   2.584   2.177  15.845  0.0911  0.0572  0.4570
   85TMC2    O5 1335   2.659   2.134  16.061  0.1635 -0.2069 -0.1514
   85TMC2    H5 1336   2.696   2.057  16.110 -0.4947  0.7057  1.8199
   86MPD2     C 1337   2.508   1.202  16.295 -0.3795 -0.4814  0.5257
   86MPD2    C1 1338   2.450   1.198  16.173 -0.8096 -0.1732 -0.2807
   86MPD2    C2 1339   2.475   1.298  16.083  0.3454  0.6536  0.4892
   86MPD2    C3 1340   2.562   1.402  16.112 -0.7281  0.4426  0.3635
   86MPD2    C4 1341   2.624   1.402  16.236 -0.8669  0.8425 -0.4809
   86MPD2    C5 1342   2.599   1.300  16.321 -0.2156  1.0932 -0.1121
   86MPD2     H 1343   2.440   1.290  15.981 -1.2613 -0.7660  1.1308
   86MPD2    H1 1344   2.689   1.482  16.270  0.9523  0.2602 -2.6186
   86MPD2    H2 1345   2.512   1.117  16.362  0.7734 -2.0762 -1.5599
   86MPD2    H3 1346   2.664   1.295  16.408 -0.1235 -0.4827 -0.2701
   86MPD2     N 1347   2.577   1.509  16.024 -0.0448  0.6269  1.1614
   86MPD2    H5 1348   2.550   1.507  15.926 -1.3065  0.1614  1.5147
   86MPD2    N1 1349   2.379   1.092  16.131 -0.1920  0.7070  0.0644
   86MPD2    H7 1350   2.361   1.089  16.031 -3.2762  0.4600  0.6331
   87TMC2    C1 1351   0.729   3.791   1.039 -0.2982 -0.1791 -0.1357
   87TMC2    C2 1352   0.861   3.760   1.040  0.2357  0.3504 -0.2705
   87TMC2    C3 1353   0.934   3.831   1.134  0.1199  0.3539 -0.0543
   87TMC2    C4 1354   0.673   3.891   1.113 -0.1711  0.1696 -0.1772
   87TMC2    C5 1355   0.753   3.966   1.195 -0.2116  0.5894 -0.1965
   87TMC2    C6 1356   0.885   3.933   1.213  0.4541  0.1414 -0.0185
   87TMC2     C 1357   0.651   3.761   0.923  0.3725 -0.4276 -0.0886
   87TMC2     O 1358   0.554   3.832   0.892 -0.0327  0.3193 -0.2264
   87TMC2     H 1359   0.915   3.693   0.975  0.4859  0.8437 -0.5682
   87TMC2    H1 1360   0.569   3.921   1.104 -0.1757 -0.7648 -3.4577
   87TMC2    H2 1361   0.955   3.980   1.281  1.2340 -1.0337 -0.0143
   87TMC2    C7 1362   0.714   4.114   1.188 -0.8704  0.5217  0.1830
   87TMC2    C8 1363   1.076   3.799   1.143 -0.1665 -0.5736 -0.3291
   87TMC2    O1 1364   0.593   4.145   1.192 -0.3590 -0.3665 -0.0736
   87TMC2    O2 1365   1.143   3.756   1.052 -0.2198  0.6577 -0.1418
   87TMC2    O5 1366   1.093   3.758   1.270 -0.0568 -0.4756  0.1995
   87TMC2    H5 1367   1.025   3.790   1.332  0.6538  2.8158 -0.7394
   88MPD2     C 1368   0.979   4.371   1.225  0.8020 -0.0365 -0.4562
   88MPD2    C1 1369   0.849   4.320   1.206  0.2786 -0.0862 -0.3113
   88MPD2    C2 1370   0.742   4.411   1.194 -0.3774  0.2041 -0.6146
   88MPD2    C3 1371   0.765   4.545   1.214  0.0606  0.4479  0.5770
   88MPD2    C4 1372   0.891   4.589   1.241 -0.0887 -0.3509 -0.0393
   88MPD2    C5 1373   0.999   4.503   1.261  0.4230  0.3024  0.0446
   88MPD2     H 1374   0.641   4.381   1.170 -1.2002  1.4174  1.3502
   88MPD2    H1 1375   0.908   4.695   1.230  1.2787 -0.5596  0.0399
   88MPD2    H2 1376   1.064   4.305   1.234  0.1727 -1.0481 -1.8110
   88MPD2    H3 1377   1.096   4.543   1.287  0.8601 -0.7941  0.1108
   88MPD2     N 1378   0.661   4.638   1.204  0.0861  0.3958 -0.2448
   88MPD2    H5 1379   0.683   4.736   1.217 -1.3188  0.1910  3.6746
   88MPD2    N1 1380   0.830   4.183   1.189  0.1654  0.7471 -0.2559
   88MPD2    H7 1381   0.914   4.129   1.168  0.6463 -0.4236  4.6238
   89TMC2    C1 1382   1.066   2.253   0.879  0.2255  0.3485 -0.1199
   89TMC2    C2 1383   1.049   2.120   0.877  0.2800  0.3716  0.1253
   89TMC2    C3 1384   1.049   2.061   0.755  0.6853  0.8587  0.3066
   89TMC2    C4 1385   1.112   2.325   0.772 -0.1929 -0.1294  1.0717
   89TMC2    C5 1386   1.122   2.260   0.655  0.0346  0.2784  0.8607
   89TMC2    C6 1387   1.090   2.125   0.640  0.3721 -0.1450 -0.6408
   89TMC2     C 1388   1.053   2.325   1.005  1.4252  0.0662 -0.0288
   89TMC2     O 1389   1.134   2.417   1.032  0.1709 -0.0319  0.0919
   89TMC2     H 1390   1.035   2.056   0.963  0.3704 -1.1364 -0.9982
   89TMC2    H1 1391   1.154   2.423   0.791 -0.2688  0.6051 -2.6759
   89TMC2    H2 1392   1.098   2.082   0.541 -0.2429 -3.1828  0.6267
   89TMC2    C7 1393   1.161   2.325   0.528 -0.0251  0.1891  0.3962
   89TMC2    C8 1394   1.047   1.913   0.758  0.5098  0.2379 -0.7618
   89TMC2    O1 1395   1.225   2.263   0.442  0.7473 -0.6118  0.3127
   89TMC2    O2 1396   0.983   1.861   0.846 -0.3187 -0.4326 -0.5625
   89TMC2    O5 1397   1.139   1.851   0.685  0.2971  0.1089 -0.3373
   89TMC2    H5 1398   1.199   1.914   0.638  0.8548 -0.4287 -0.3467
   90MPD2     C 1399   0.847   2.316   1.472 -0.1015 -0.3382  0.0634
   90MPD2    C1 1400   0.780   2.219   1.396  0.6595 -0.3648 -0.1012
   90MPD2    C2 1401   0.829   2.207   1.265  0.0230  0.9775 -1.3025
   90MPD2    C3 1402   0.939   2.279   1.220  0.0079 -0.6882 -0.8083
   90MPD2    C4 1403   1.007   2.359   1.307  0.8627 -0.2512  0.4128
   90MPD2    C5 1404   0.957   2.378   1.431  0.0655  0.1021 -0.0098
   90MPD2     H 1405   0.774   2.145   1.195 -1.3634  1.2297 -0.4455
   90MPD2    H1 1406   1.090   2.420   1.274 -0.4817  1.4453  0.1523
   90MPD2    H2 1407   0.823   2.343   1.575 -1.5449 -1.2002 -0.0440
   90MPD2    H3 1408   0.998   2.452   1.498  1.5434 -1.3871  0.7280
   90MPD2     N 1409   0.963   2.260   1.083 -0.2442  0.3863  0.4353
   90MPD2    H5 1410   0.898   2.200   1.033  1.2056 -0.0658 -0.8994
   90MPD2    N1 1411   0.675   2.140   1.445 -0.1872 -0.1568  0.0553
   90MPD2    H7 1412   0.641   2.067   1.382  0.1219 -0.0163 -0.2791
   91TMC2    C1 1413   2.490   2.453  16.645  0.2709 -0.4814 -0.0152
   91TMC2    C2 1414   2.483   2.553  16.550  0.0184  0.4503  0.4150
   91TMC2    C3 1415   2.374   2.564  16.465 -0.7639 -0.5672 -0.1555
   91TMC2    C4 1416   2.396   2.354  16.639  0.6351 -0.2700 -0.0116
   91TMC2    C5 1417   2.289   2.361  16.549  0.3425 -0.6293  0.2498
   91TMC2    C6 1418   2.278   2.470  16.468  0.1271 -0.4290  0.1715
   91TMC2     C 1419   2.615   2.411  16.705 -0.3393  0.6530  0.4103
   91TMC2     O 1420   2.605   2.331  16.793 -0.4637 -0.4902 -0.2359
   91TMC2     H 1421   2.555   2.634  16.546  1.0598 -0.4123  1.7967
   91TMC2    H1 1422   2.424   2.258  16.682 -1.5202 -1.4264 -1.1313
   91TMC2    H2 1423   2.186   2.490  16.414  0.8246  0.3269 -0.7388
   91TMC2    C7 1424   2.184   2.272  16.576 -0.1716 -0.2766 -0.5396
   91TMC2    C8 1425   2.359   2.660  16.359 -0.3771  0.1496  0.3922
   91TMC2    O1 1426   2.199   2.213  16.686 -0.3498 -0.1590 -0.2421
   91TMC2    O2 1427   2.252   2.691  16.310 -0.4101 -0.1510  0.0481
   91TMC2    O5 1428   2.480   2.706  16.326 -0.7377 -0.1444 -0.1619
   91TMC2    H5 1429   2.555   2.665  16.375  0.3724 -1.8446 -3.3058
   92MPD2     C 1430   2.891   2.314  16.739  0.0199  0.0437  0.0800
   92MPD2    C1 1431   2.847   2.381  16.628 -0.6648 -0.2209  0.3127
   92MPD2    C2 1432   2.933   2.423  16.532 -0.3208  0.1302  0.6437
   92MPD2    C3 1433   3.061   2.382  16.533  0.1109 -1.1132 -0.0681
   92MPD2    C4 1434   3.107   2.311  16.644 -0.4324 -0.7011  0.0887
   92MPD2    C5 1435   3.025   2.296  16.753 -0.5492 -0.0810  0.4267
   92MPD2     H 1436   2.904   2.502  16.463  2.6608  0.3694 -0.3412
   92MPD2    H1 1437   3.214   2.301  16.654 -0.2428 -0.0284 -1.2831
   92MPD2    H2 1438   2.824   2.291  16.820 -1.4342  1.0425 -0.8311
   92MPD2    H3 1439   3.062   2.261  16.849 -0.6278 -1.0476  0.1123
   92MPD2     N 1440   3.147   2.436  16.439  0.3223  0.7756 -0.1881
   92MPD2    H5 1441   3.111   2.502  16.371 -1.1273  0.4865  0.2992
   92MPD2    N1 1442   2.715   2.427  16.616 -0.4293  0.9147  0.7804
   92MPD2    H7 1443   2.684   2.471  16.531 -0.1613  0.6315  0.5372
   93TMC2    C1 1444   4.532   2.077  14.263 -0.0013  0.0993  0.3166
   93TMC2    C2 1445   4.481   1.951  14.264  0.3961  0.6117  0.3112
   93TMC2    C3 1446   4.560   1.842  14.276  0.2260  0.1633  0.7907
   93TMC2    C4 1447   4.668   2.087  14.255  0.5687  0.4916  0.3842
   93TMC2    C5 1448   0.005   1.973  14.260 -0.3532  0.6261 -0.9169
   93TMC2    C6 1449   4.694   1.847  14.273 -0.1074 -0.2118  0.1442
   93TMC2     C 1450   4.454   2.194  14.308  0.0933  0.1024 -0.4780
   93TMC2     O 1451   4.511   2.303  14.307  0.3765  0.0284  0.1831
   93TMC2     H 1452   4.374   1.938  14.277  0.6712 -1.9991  0.0164
   93TMC2    H1 1453   4.713   2.186  14.258 -1.4554  1.4275  0.5695
   93TMC2    H2 1454   0.026   1.765  14.274 -0.1735 -0.2797 -1.0834
   93TMC2    C7 1455   0.147   1.989  14.238 -0.3699 -0.1279 -0.0789
   93TMC2    C8 1456   4.489   1.730  14.228 -0.6902 -0.0434  0.5068
   93TMC2    O1 1457   0.213   1.895  14.186  0.0300  0.0603  0.4030
   93TMC2    O2 1458   4.372   1.700  14.245 -0.1203  0.5093 -0.0295
   93TMC2    O5 1459   4.550   1.720  14.107  0.0939  0.6603  0.0856
   93TMC2    H5 1460   4.629   1.775  14.085  1.5290 -1.6853 -0.5598
   94MPD2     C 1461   4.239   2.406  14.362 -1.3401  0.4754 -0.2925
   94MPD2    C1 1462   4.221   2.267  14.359  0.7265  0.1614 -0.0484
   94MPD2    C2 1463   4.090   2.220  14.363 -0.2416 -0.5801  0.7476
   94MPD2    C3 1464   3.979   2.304  14.379  0.2990  0.7552 -0.3285
   94MPD2    C4 1465   4.002   2.434  14.383 -0.5578  0.7223  0.2656
   94MPD2    C5 1466   4.130   2.482  14.376  0.0244 -0.3328  0.4648
   94MPD2     H 1467   4.076   2.115  14.344 -2.7766 -0.2964  1.0480
   94MPD2    H1 1468   3.915   2.499  14.392  0.7974  2.4891  0.4550
   94MPD2    H2 1469   4.336   2.452  14.345  0.0082 -2.7174 -1.1050
   94MPD2    H3 1470   4.144   2.589  14.383  0.2583 -0.2194 -1.9648
   94MPD2     N 1471   3.843   2.266  14.363 -0.0385  0.6339  0.3171
   94MPD2    H5 1472   3.768   2.335  14.355  1.0603  1.7430 -0.3553
   94MPD2    N1 1473   4.322   2.167  14.333 -0.1074 -0.2601  0.0214
   94MPD2    H7 1474   4.287   2.072  14.327 -1.1367  0.1594 -0.6503
   95TMC2    C1 1475   4.135   0.030  16.055 -0.6332  0.2396 -0.1613
   95TMC2    C2 1476   3.997   0.040  16.073 -0.1231  0.1737  0.0458
   95TMC2    C3 1477   3.939   0.163  16.088 -0.0659 -0.3600  0.3446
   95TMC2    C4 1478   4.216   0.139  16.074 -0.0434  0.2633  0.1692
   95TMC2    C5 1479   4.144   0.265  16.077 -0.6330 -0.7444  0.2803
   95TMC2    C6 1480   4.009   0.280  16.090 -0.1650  0.2428  0.0352
   95TMC2     C 1481   4.194   4.648  15.991 -0.4700 -0.6734 -0.1303
   95TMC2     O 1482   4.296   4.659  15.933  0.0211  0.3433  0.0799
   95TMC2     H 1483   3.937   4.689  16.066  1.1811 -0.5614 -1.8387
   95TMC2    H1 1484   4.315   0.134  16.030  0.7079 -3.3879  2.2576
   95TMC2    H2 1485   3.960   0.376  16.086 -1.4775 -0.4737 -1.1414
   95TMC2    C7 1486   4.222   0.383  16.041  0.5361  0.5403 -0.3287
   95TMC2    C8 1487   3.800   0.170  16.128  0.6417 -0.1083 -0.8084
   95TMC2    O1 1488   4.334   0.358  15.990 -0.0273  0.5859  0.2269
   95TMC2    O2 1489   3.727   0.265  16.104  0.0505  0.2866 -0.5230
   95TMC2    O5 1490   3.780   0.081  16.227  0.1474  0.0108 -0.2918
   95TMC2    H5 1491   3.858   0.028  16.253 -0.5339 -0.5460  0.6168
   96MPD2     C 1492   4.210   4.145  15.869  0.1757  0.0788  0.1664
   96MPD2    C1 1493   4.273   4.250  15.808 -0.0507  0.0447 -0.0621
   96MPD2    C2 1494   4.246   4.378  15.855  0.2868  0.2650  0.0095
   96MPD2    C3 1495   4.159   4.412  15.959 -0.1634  0.1509 -0.0152
   96MPD2    C4 1496   4.100   4.299  16.015  0.6006 -0.5636 -0.5414
   96MPD2    C5 1497   4.121   4.172  15.972  0.0163 -0.1287  0.0853
   96MPD2     H 1498   4.287   4.464  15.805  1.2656  0.8518  1.7999
   96MPD2    H1 1499   4.029   4.302  16.097  0.6868  0.2937 -0.4958
   96MPD2    H2 1500   4.214   4.043  15.831 -1.3052  0.0856  0.0029
   96MPD2    H3 1501   4.056   4.095  16.012  0.4313 -0.9749 -0.8677
   96MPD2     N 1502   4.124   4.534  16.009  0.4752 -0.1195  0.0084
   96MPD2    H5 1503   4.047   4.531  16.075 -0.0553  0.1135 -0.6046
   96MPD2    N1 1504   4.374   4.227  15.710 -0.1812 -0.7394 -0.4070
   96MPD2    H7 1505   4.399   4.128  15.713 -0.4570 -0.7929  0.2069
   97TMC2    C1 1506   1.923   1.590   0.141 -0.1101  0.3688  0.0462
   97TMC2    C2 1507   2.003   1.509   0.071  0.3297  0.3050  0.0257
   97TMC2    C3 1508   2.049   1.559  17.700 -0.1481  0.7124  0.0908
   97TMC2    C4 1509   1.905   1.725   0.115 -0.1352 -0.0998  0.4535
   97TMC2    C5 1510   1.962   1.772   0.001 -0.0648 -0.3227 -0.2338
   97TMC2    C6 1511   2.023   1.687  17.662 -1.3270 -0.9390  0.2619
   97TMC2     C 1512   1.840   1.527   0.235  0.7568  0.3211 -1.0962
   97TMC2     O 1513   1.877   1.427   0.291 -0.0475 -0.0353  0.0432
   97TMC2     H 1514   2.005   1.402   0.088  0.8879 -0.3123 -3.7387
   97TMC2    H1 1515   1.865   1.793   0.189  1.2561  1.0069  0.1884
   97TMC2    H2 1516   2.059   1.739  17.573  0.3037 -2.5276 -0.0120
   97TMC2    C7 1517   1.988   1.916  17.737 -0.0506 -0.1344 -0.2573
   97TMC2    C8 1518   2.100   1.465  17.608  0.1919 -0.6043 -0.7645
   97TMC2    O1 1519   2.061   1.944  17.642  0.9376  0.2902  0.4999
   97TMC2    O2 1520   2.101   1.470  17.485 -0.0180  0.4608  0.2741
   97TMC2    O5 1521   2.176   1.381  17.673 -0.1701  0.1126  0.1432
   97TMC2    H5 1522   2.188   1.406   0.014 -0.1170 -0.2790  0.2377
   98MPD2     C 1523   1.422   1.462   0.521 -0.1804 -0.7085 -0.6114
   98MPD2    C1 1524   1.554   1.448   0.555 -0.0062  0.0001  0.3222
   98MPD2    C2 1525   1.648   1.492   0.464  0.1545 -0.0224  0.3299
   98MPD2    C3 1526   1.619   1.538   0.338  0.2234  0.1156  0.1026
   98MPD2    C4 1527   1.488   1.555   0.313 -0.7869 -0.2744 -0.3330
   98MPD2    C5 1528   1.391   1.516   0.401 -0.1567 -0.4803 -0.5649
   98MPD2     H 1529   1.751   1.499   0.497  0.6820 -0.8961 -1.1224
   98MPD2    H1 1530   1.449   1.600   0.223  1.5803  1.5044 -0.4663
   98MPD2    H2 1531   1.347   1.446   0.597  1.5335 -0.8771  1.0279
   98MPD2    H3 1532   1.286   1.532   0.378  0.7216  0.4241 -3.9272
   98MPD2     N 1533   1.717   1.583   0.247 -0.3425 -0.1273 -0.2520
   98MPD2    H5 1534   1.685   1.651   0.179 -1.0522  2.1656  2.3901
   98MPD2    N1 1535   1.577   1.417   0.692 -0.7557 -0.1584  0.1965
   98MPD2    H7 1536   1.496   1.399   0.751 -0.0029 -2.0204  0.6569
   99TMC2    C1 1537   1.194   2.985   2.085 -0.4129 -0.2970 -0.6426
   99TMC2    C2 1538   1.289   2.970   2.184  0.6716 -0.1867  0.6277
   99TMC2    C3 1539   1.251   2.961   2.318  0.8810 -0.1176  0.1969
   99TMC2    C4 1540   1.061   3.001   2.110  1.0121  0.9036 -0.0527
   99TMC2    C5 1541   1.024   2.981   2.242 -0.6128 -0.4328 -0.3835
   99TMC2    C6 1542   1.114   2.958   2.343  0.0235 -0.1930 -0.0581
   99TMC2     C 1543   1.242   2.992   1.948  1.2510  0.6228  0.1405
   99TMC2     O 1544   1.368   2.985   1.937 -0.5910 -0.4958 -0.1359
   99TMC2     H 1545   1.392   2.949   2.156  1.3073  2.3589  1.1231
   99TMC2    H1 1546   0.985   3.029   2.038  2.6594  2.8307 -1.0506
   99TMC2    H2 1547   1.079   2.964   2.446 -0.3615  1.3390 -0.2749
   99TMC2    C7 1548   0.882   3.007   2.285 -0.1640 -0.2632  0.9941
   99TMC2    C8 1549   1.350   2.907   2.404  0.0417 -0.5796 -0.5649
   99TMC2    O1 1550   0.870   3.065   2.391  0.2337  0.2042 -0.0242
   99TMC2    O2 1551   1.445   2.842   2.365 -0.4274  0.5887 -0.0677
   99TMC2    O5 1552   1.316   2.932   2.536 -0.5587  0.0485 -0.3033
   99TMC2    H5 1553   1.245   2.999   2.551 -2.4314 -1.9063 -0.4254
  100MPD2     C 1554   1.300   2.948   1.656 -0.5931 -0.1186 -0.8680
  100MPD2    C1 1555   1.174   2.961   1.713  0.2866  0.1503 -0.1355
  100MPD2    C2 1556   1.068   2.947   1.626  0.2195 -0.5604 -0.1224
  100MPD2    C3 1557   1.085   2.920   1.491  0.7618 -0.2266  0.2242
  100MPD2    C4 1558   1.211   2.924   1.439  0.7351 -0.5497  0.3080
  100MPD2    C5 1559   1.318   2.932   1.525 -0.2835 -0.1168 -0.1747
  100MPD2     H 1560   0.976   2.945   1.684  0.1151  1.4696 -0.2132
  100MPD2    H1 1561   1.230   2.922   1.333 -0.8268  1.9763 -0.0068
  100MPD2    H2 1562   1.381   2.953   1.728  0.0659  0.7285 -1.6747
  100MPD2    H3 1563   1.419   2.920   1.487 -0.3799 -0.7731 -0.2268
  100MPD2     N 1564   0.972   2.915   1.406  0.2906 -0.1176  0.6016
  100MPD2    H5 1565   0.885   2.919   1.459 -0.8742 -3.0300 -1.1071
  100MPD2    N1 1566   1.144   2.982   1.849 -0.0697  0.0365 -0.0933
  100MPD2    H7 1567   1.046   2.995   1.870 -0.2293 -0.3499 -0.6098
  101TMC2    C1 1568   1.142   0.223  12.478  0.0038 -0.1701  0.2025
  101TMC2    C2 1569   1.043   0.235  12.387 -0.2367  0.1021 -0.2972
  101TMC2    C3 1570   1.026   0.346  12.314 -0.0975  0.4747 -0.2407
  101TMC2    C4 1571   1.243   0.316  12.478 -0.3011  0.4331  0.3829
  101TMC2    C5 1572   1.231   0.415  12.384 -0.0423  0.4444  0.4661
  101TMC2    C6 1573   1.128   0.438  12.297 -0.2189  0.9517 -0.3626
  101TMC2     C 1574   1.125   0.132  12.588 -0.0509  0.0515  0.4921
  101TMC2     O 1575   1.011   0.114  12.629  0.3420 -0.2852  0.4770
  101TMC2     H 1576   0.951   0.178  12.397 -0.6184  0.5297 -1.2971
  101TMC2    H1 1577   1.324   0.312  12.551  1.2108  0.8636 -1.2772
  101TMC2    H2 1578   1.120   0.528  12.239 -1.1463  1.7910  1.0599
  101TMC2    C7 1579   1.342   0.506  12.372  0.2913 -0.3056  1.1503
  101TMC2    C8 1580   0.908   0.382  12.250 -0.5248  0.9268 -0.5772
  101TMC2    O1 1581   1.352   0.559  12.264 -0.0965 -0.4488  0.0570
  101TMC2    O2 1582   0.900   0.444  12.145  0.0606 -0.3793 -0.4961
  101TMC2    O5 1583   0.806   0.405  12.338  0.1386 -0.3754  0.2462
  101TMC2    H5 1584   0.823   0.373  12.430 -3.2754 -1.2465  0.5706
  102MPD2     C 1585   1.384   4.664  12.731  0.0865 -0.1011 -0.2439
  102MPD2    C1 1586   1.260   4.719  12.727  0.1984 -0.7152 -0.3365
  102MPD2    C2 1587   1.166   4.682  12.818 -0.2263 -0.0750  0.9156
  102MPD2    C3 1588   1.195   4.595  12.921  0.1580 -0.6669 -0.5840
  102MPD2    C4 1589   1.321   4.541  12.926  0.2789  0.4165  0.3137
  102MPD2    C5 1590   1.414   4.582  12.836 -0.3491  0.7114 -1.3815
  102MPD2     H 1591   1.073   4.737  12.828 -0.2738 -0.1249  0.7436
  102MPD2    H1 1592   1.358   4.496  13.017  2.5873  1.1375 -0.2600
  102MPD2    H2 1593   1.451   4.704  12.656 -0.0632  0.1911 -0.2234
  102MPD2    H3 1594   1.510   4.534  12.850 -1.5889 -1.4857 -0.5194
  102MPD2     N 1595   1.100   4.581  13.026  0.1096  0.7103  0.0635
  102MPD2    H5 1596   1.014   4.632  13.011  0.2861  0.6503 -1.1846
  102MPD2    N1 1597   1.244   0.075  12.625 -0.0564 -0.9665  0.5300
  102MPD2    H7 1598   1.326   0.103  12.573 -2.0318  0.3074 -1.9106
  103TMC2    C1 1599   3.757   0.133  12.652 -0.4034 -0.2644  0.2702
  103TMC2    C2 1600   3.782   0.213  12.540 -0.9551 -0.0978  0.1926
  103TMC2    C3 1601   3.804   0.343  12.566  0.2544 -0.2766  0.1788
  103TMC2    C4 1602   3.757   0.178  12.783  0.0040  0.4539  0.4741
  103TMC2    C5 1603   3.777   0.311  12.802  0.0338  0.3063  0.4398
  103TMC2    C6 1604   3.809   0.391  12.693 -0.7000  0.2039  0.4111
  103TMC2     C 1605   3.764   4.728  12.624  0.1742  0.3957  0.3395
  103TMC2     O 1606   3.726   4.695  12.512 -0.6461 -0.3902  0.0474
  103TMC2     H 1607   3.777   0.170  12.440  1.6493 -0.8463  0.3746
  103TMC2    H1 1608   3.728   0.113  12.864 -2.0365  0.3754 -0.3125
  103TMC2    H2 1609   3.822   0.498  12.698 -0.1649  0.2175 -1.7417
  103TMC2    C7 1610   3.771   0.371  12.933 -0.3216 -0.4378  0.2530
  103TMC2    C8 1611   3.837   0.433  12.459 -0.6552  0.1786  0.3402
  103TMC2    O1 1612   3.720   0.305  13.024  0.0471 -0.1334  0.5444
  103TMC2    O2 1613   3.911   0.531  12.471 -0.0382  0.2288 -0.4284
  103TMC2    O5 1614   3.743   0.414  12.364 -0.0656 -0.2982  0.4235
  103TMC2    H5 1615   3.683   0.340  12.388 -2.8577  2.5515  2.1775
  104MPD2     C 1616   3.836   4.445  12.854  0.2214  0.1607  1.0601
  104MPD2    C1 1617   3.814   4.508  12.737 -0.5349 -0.4419 -0.1524
  104MPD2    C2 1618   3.804   4.433  12.619  0.0216  0.0327 -0.8224
  104MPD2    C3 1619   3.817   4.292  12.626 -0.5644 -0.7293  0.4768
  104MPD2    C4 1620   3.838   4.232  12.743  0.3861 -0.2666  0.0317
  104MPD2    C5 1621   3.845   4.305  12.855 -0.1377 -0.3543 -0.2603
  104MPD2     H 1622   3.775   4.472  12.522 -1.1816 -0.5724 -0.7091
  104MPD2    H1 1623   3.841   4.125  12.761  2.2240 -0.1965  0.0916
  104MPD2    H2 1624   3.827   4.497  12.949  0.8387  1.1182  0.5910
  104MPD2    H3 1625   3.849   4.258  12.953 -0.5265  1.0816  0.4394
  104MPD2     N 1626   3.795   4.230  12.507 -0.0864  0.7860 -0.1197
  104MPD2    H5 1627   3.759   4.288  12.432  0.6266 -1.0602 -1.8813
  104MPD2    N1 1628   3.805   4.650  12.732  0.2976  0.3185 -0.3613
  104MPD2    H7 1629   3.834   4.695  12.819 -4.0518 -0.8522  1.6892
  105TMC2    C1 1630   0.276   3.692   0.034 -0.2468  0.5964 -0.1934
  105TMC2    C2 1631   0.172   3.656   0.108 -0.1040  0.0737 -0.0568
  105TMC2    C3 1632   0.169   3.693   0.239  0.0044  0.3455  0.3302
  105TMC2    C4 1633   0.381   3.767   0.089  0.1295 -0.6639 -0.0961
  105TMC2    C5 1634   0.378   3.790   0.224 -0.0602  0.4754 -0.2612
  105TMC2    C6 1635   0.268   3.763   0.298 -0.7219  0.5672  0.5358
  105TMC2     C 1636   0.306   3.630  17.659 -0.6361 -0.1969 -0.2590
  105TMC2     O 1637   0.249   3.524  17.642 -0.2898  0.1179  0.5114
  105TMC2     H 1638   0.092   3.601   0.060  0.3142 -1.4073  0.9579
  105TMC2    H1 1639   0.470   3.802   0.038  1.0900 -1.5014  0.9992
  105TMC2    H2 1640   0.266   3.790   0.403 -0.9840  1.8222  0.2109
  105TMC2    C7 1641   0.509   3.779   0.276  0.4044  0.0546  0.2055
  105TMC2    C8 1642   0.090   3.620   0.336 -1.0280 -0.5504  0.0599
  105TMC2    O1 1643   0.590   3.747   0.194  0.5138  0.1177 -0.2665
  105TMC2    O2 1644   0.113   3.619   0.458  0.1770 -0.2719 -0.3591
  105TMC2    O5 1645   4.705   3.591   0.286  0.8777 -0.1581 -0.3056
  105TMC2    H5 1646   4.701   3.635   0.199  0.3778  0.1912 -0.1067
  106MPD2     C 1647   0.617   3.577  17.240 -0.6270 -1.3428 -0.0232
  106MPD2    C1 1648   0.623   3.703  17.295 -0.7063  0.3848  0.1170
  106MPD2    C2 1649   0.543   3.738  17.402 -0.5315  0.3842 -0.6033
  106MPD2    C3 1650   0.456   3.652  17.462 -0.1125  0.9642 -0.2004
  106MPD2    C4 1651   0.457   3.522  17.422 -0.1714 -0.3598 -0.1271
  106MPD2    C5 1652   0.534   3.488  17.309  0.1000 -0.3879  0.1479
  106MPD2     H 1653   0.545   3.844  17.424  0.3580  0.2518 -0.0336
  106MPD2    H1 1654   0.414   3.439  17.476 -0.8974  0.0312 -0.0918
  106MPD2    H2 1655   0.694   3.540  17.174  1.4088  1.8161  0.5399
  106MPD2    H3 1656   0.532   3.385  17.277 -2.9211  0.1023 -1.2819
  106MPD2     N 1657   0.392   3.707  17.577  0.4697  0.2573  0.6340
  106MPD2    H5 1658   0.397   3.805  17.603 -0.7677  1.2373 -2.8366
  106MPD2    N1 1659   0.718   3.802  17.252 -0.1299 -0.6725  0.1056
  106MPD2    H7 1660   0.706   3.886  17.307 -1.1842  0.4586 -1.8368
  107TMC2    C1 1661   1.467   3.122  11.641 -0.8232 -0.0909 -0.1977
  107TMC2    C2 1662   1.504   2.989  11.630 -0.1351  0.1341 -0.1909
  107TMC2    C3 1663   1.598   2.953  11.540 -0.7160 -0.2416 -0.5534
  107TMC2    C4 1664   1.541   3.214  11.567 -0.4187  0.2791 -0.2768
  107TMC2    C5 1665   1.644   3.176  11.493 -0.7799 -0.0054 -0.6152
  107TMC2    C6 1666   1.673   3.048  11.472  0.6751 -0.8107  0.0286
  107TMC2     C 1667   1.355   3.152  11.728  0.4260 -0.4142 -0.4324
  107TMC2     O 1668   1.302   3.066  11.793  0.2724 -0.4565 -0.3253
  107TMC2     H 1669   1.448   2.906  11.672  1.6995 -1.0328 -0.0513
  107TMC2    H1 1670   1.510   3.318  11.573  1.4056  0.7909  0.1623
  107TMC2    H2 1671   1.769   3.018  11.432 -0.7732  1.0506 -4.9128
  107TMC2    C7 1672   1.721   3.287  11.442 -0.4308  0.3197 -0.3354
  107TMC2    C8 1673   1.610   2.826  11.485 -0.1820 -0.4291  0.0709
  107TMC2    O1 1674   1.709   3.403  11.476  0.8181 -0.1991  0.2093
  107TMC2    O2 1675   1.575   2.723  11.538  0.1671  0.0095 -0.5531
  107TMC2    O5 1676   1.591   2.850  11.353  0.0555  0.1948  0.0449
  107TMC2    H5 1677   1.567   2.944  11.338 -2.4054 -0.2046  1.5474
  108MPD2     C 1678   1.164   3.463  11.708  0.3457  0.7586 -0.5012
  108MPD2    C1 1679   1.208   3.346  11.767  0.9257  1.3819 -0.0424
  108MPD2    C2 1680   1.149   3.312  11.878 -0.5664  0.0782 -0.0452
  108MPD2    C3 1681   1.045   3.382  11.932  0.9594 -0.1234 -0.2696
  108MPD2    C4 1682   1.001   3.492  11.869  0.9577 -0.1303  0.3827
  108MPD2    C5 1683   1.070   3.545  11.764 -0.2825  0.6187  0.6049
  108MPD2     H 1684   1.183   3.218  11.920 -0.8131 -0.2824 -0.6602
  108MPD2    H1 1685   0.910   3.542  11.899  0.2139 -0.0435 -2.0228
  108MPD2    H2 1686   1.227   3.513  11.636  0.4000 -0.3638 -1.2411
  108MPD2    H3 1687   1.045   3.642  11.722 -1.3350  0.5881  1.1697
  108MPD2     N 1688   0.978   3.343  12.047 -0.2877  0.1860 -0.0208
  108MPD2    H5 1689   0.906   3.406  12.080  0.8205  1.0528  0.7506
  108MPD2    N1 1690   1.317   3.281  11.710  0.0615 -0.2635 -0.1350
  108MPD2    H7 1691   1.356   3.330  11.629  0.7109 -4.3247 -2.2520
  109TMC2    C1 1692   1.044   1.226   0.568 -0.5297 -0.0131 -0.0953
  109TMC2    C2 1693   1.093   1.214   0.441 -0.2352  0.8057 -0.4173
  109TMC2    C3 1694   1.224   1.183   0.427 -0.7408 -0.4467  0.0304
  109TMC2    C4 1695   1.113   1.194   0.683 -0.1460 -0.3782 -0.6167
  109TMC2    C5 1696   1.241   1.147   0.658  0.7949  0.1229  0.3702
  109TMC2    C6 1697   1.299   1.148   0.532 -0.5719 -0.3726  0.7435
  109TMC2     C 1698   0.909   1.262   0.577  0.0591 -0.7425  0.1617
  109TMC2     O 1699   0.867   1.352   0.510  0.4474  0.2460 -0.7582
  109TMC2     H 1700   1.027   1.226   0.356 -0.8428 -0.0719 -0.0659
  109TMC2    H1 1701   1.067   1.198   0.781  0.5362  0.3547 -0.3324
  109TMC2    H2 1702   1.398   1.107   0.515 -1.5632 -2.3834 -0.1674
  109TMC2    C7 1703   1.329   1.121   0.774 -0.2123 -0.0085  0.1713
  109TMC2    C8 1704   1.291   1.211   0.299  0.6265  0.7402  0.3951
  109TMC2    O1 1705   1.451   1.132   0.754  0.3936  0.0047  0.2935
  109TMC2    O2 1706   1.401   1.164   0.276 -0.4747 -0.2181 -0.1009
  109TMC2    O5 1707   1.229   1.310   0.234  0.2522  0.3079 -0.5998
  109TMC2    H5 1708   1.148   1.345   0.277  0.1842 -2.6748  1.6957
  110MPD2     C 1709   0.468   1.222   0.828 -0.5066  0.2683  0.5225
  110MPD2    C1 1710   0.547   1.121   0.875  0.4698  0.1140  0.2147
  110MPD2    C2 1711   0.674   1.117   0.823  0.6199 -0.1001 -0.5188
  110MPD2    C3 1712   0.710   1.202   0.720 -0.1548  0.3580  0.8364
  110MPD2    C4 1713   0.623   1.302   0.674 -0.3035  0.2244 -0.1348
  110MPD2    C5 1714   0.497   1.304   0.725 -0.2231  0.0131 -0.2389
  110MPD2     H 1715   0.746   1.045   0.862  2.2010  1.2237 -0.9851
  110MPD2    H1 1716   0.640   1.376   0.596 -2.5314  0.8975  0.0342
  110MPD2    H2 1717   0.370   1.234   0.873 -1.6293 -0.2407 -1.7890
  110MPD2    H3 1718   0.422   1.359   0.670 -0.3850 -0.4610 -0.4930
  110MPD2     N 1719   0.846   1.193   0.677 -0.4654 -0.4353 -0.3736
  110MPD2    H5 1720   0.890   1.113   0.720  1.5375  0.7642 -0.1804
  110MPD2    N1 1721   0.498   1.045   0.979 -0.3862  1.4393  0.4657
  110MPD2    H7 1722   0.407   1.079   1.011 -1.2374  0.2525 -0.6841
  111TMC2    C1 1723   1.544   4.606  11.411  0.4420 -0.8375  0.2239
  111TMC2    C2 1724   1.580   4.515  11.318  0.0242  0.0175 -0.0867
  111TMC2    C3 1725   1.712   4.519  11.273 -0.2442  0.0891  0.3690
  111TMC2    C4 1726   1.623   4.706  11.460 -0.1606  0.8365  0.0500
  111TMC2    C5 1727   1.753   4.704  11.410 -0.7004  0.2766  0.0798
  111TMC2    C6 1728   1.793   4.623  11.311 -0.1414  0.6594 -0.3417
  111TMC2     C 1729   1.403   4.625  11.405  0.0234 -0.2114 -0.0210
  111TMC2     O 1730   1.348   4.545  11.329 -0.1314  0.1696  0.1392
  111TMC2     H 1731   1.514   4.437  11.283 -0.6824  0.0104  1.2598
  111TMC2    H1 1732   1.584   0.037  11.533 -0.2537  1.9196 -1.0540
  111TMC2    H2 1733   1.892   4.639  11.270 -0.5429 -0.2069 -1.6571
  111TMC2    C7 1734   1.846   0.042  11.477 -0.5973 -0.2442  0.2339
  111TMC2    C8 1735   1.751   4.430  11.164  0.2450  0.0295 -1.1874
  111TMC2    O1 1736   1.807   0.147  11.523  0.3371  0.0790  0.5524
  111TMC2    O2 1737   1.675   4.358  11.095 -0.3588  0.3733 -0.5485
  111TMC2    O5 1738   1.882   4.417  11.164  0.1583  0.1106  0.4838
  111TMC2    H5 1739   1.930   4.461  11.237  1.3317 -1.5389  0.7214
  112MPD2     C 1740   0.930   4.718  11.563  0.1390 -0.5875  0.1618
  112MPD2    C1 1741   0.986   4.709  11.436 -0.0714 -0.2854  0.6937
  112MPD2    C2 1742   1.123   4.692  11.414  0.3399  0.3783 -0.3718
  112MPD2    C3 1743   1.209   4.693  11.528  0.1352  0.1184 -0.5874
  112MPD2    C4 1744   1.154   4.723  11.649  0.4590 -0.4757  0.3672
  112MPD2    C5 1745   1.023   4.734  11.668 -0.1700 -0.0132  0.6888
  112MPD2     H 1746   1.150   4.696  11.309  2.1983 -0.7802  0.0721
  112MPD2    H1 1747   1.212   0.004  11.738  1.0128 -0.2955 -0.0309
  112MPD2    H2 1748   0.826   4.737  11.586  0.7205  3.2404 -0.3852
  112MPD2    H3 1749   0.984   0.015  11.768 -0.1457  1.6129  0.3794
  112MPD2     N 1750   1.345   4.686  11.512 -0.2789  0.0316  0.0820
  112MPD2    H5 1751   1.400   4.714  11.592 -0.8791 -2.2770  1.3262
  112MPD2    N1 1752   0.907   4.715  11.314 -0.1529 -0.4857 -0.5974
  112MPD2    H7 1753   0.962   4.713  11.228 -0.1368  0.0227 -0.5937
  113TMC2    C1 1754   4.337   3.635   0.627 -0.2298 -0.5663  1.0204
  113TMC2    C2 1755   4.381   3.683   0.508  0.4912 -0.3124 -0.0203
  113TMC2    C3 1756   4.297   3.704   0.408 -0.2494  0.8436 -0.0767
  113TMC2    C4 1757   4.202   3.624   0.648 -0.8026  1.0115 -0.7577
  113TMC2    C5 1758   4.124   3.666   0.547  0.2104  0.5155 -0.6691
  113TMC2    C6 1759   4.162   3.692   0.417 -0.0492  0.2098  0.1005
  113TMC2     C 1760   4.438   3.572   0.704  0.1804 -0.5735 -0.0655
  113TMC2     O 1761   4.423   3.581   0.826 -0.5429  0.1124 -0.3105
  113TMC2     H 1762   4.485   3.713   0.499 -0.0302  1.7732  1.0674
  113TMC2    H1 1763   4.162   3.585   0.741 -2.1630  1.0986 -1.3060
  113TMC2    H2 1764   4.092   3.702   0.335  0.2858  2.9021  0.1343
  113TMC2    C7 1765   3.982   3.655   0.550 -0.3652  0.3624 -0.3522
  113TMC2    C8 1766   4.357   3.739   0.281 -0.6184 -0.1444  0.0114
  113TMC2    O1 1767   3.908   3.717   0.472 -0.4484 -0.7995  0.1554
  113TMC2    O2 1768   4.405   3.646   0.221 -0.4101 -0.1605  0.2508
  113TMC2    O5 1769   4.281   3.834   0.230 -0.3673 -0.1497 -0.0080
  113TMC2    H5 1770   4.240   3.892   0.297  1.5240 -0.9984  1.8727
  114MPD2     C 1771   0.129   3.295   0.772 -0.1292 -0.4813 -0.8334
  114MPD2    C1 1772   0.063   3.375   0.859 -0.2569  0.5651  0.0739
  114MPD2    C2 1773   4.685   3.441   0.811  0.0786 -0.6664  0.8134
  114MPD2    C3 1774   4.650   3.441   0.678 -0.0552  1.2064 -0.7434
  114MPD2    C4 1775   4.731   3.380   0.585  0.9776 -0.0201 -0.5162
  114MPD2    C5 1776   0.093   3.303   0.639  0.0566 -0.0923 -0.6445
  114MPD2     H 1777   4.638   3.505   0.885 -0.4073  1.8785 -1.6826
  114MPD2    H1 1778   4.707   3.387   0.480 -0.0798  2.5911 -0.1001
  114MPD2    H2 1779   0.218   3.240   0.800  1.6732  1.0190 -3.5346
  114MPD2    H3 1780   0.155   3.242   0.575 -0.2550  0.7945 -1.7927
  114MPD2     N 1781   4.533   3.506   0.631 -0.3125 -0.7496  0.1311
  114MPD2    H5 1782   4.524   3.499   0.530  0.2093 -0.0958  0.0378
  114MPD2    N1 1783   0.081   3.378   1.002 -0.2850 -0.1146 -0.1457
  114MPD2    H7 1784   0.028   3.436   1.066 -1.0117  0.3280 -1.1485
  115TMC2    C1 1785   0.408   1.244  17.742  0.2792  0.0167  0.4157
  115TMC2    C2 1786   0.525   1.201  17.696  0.2572  0.0936  0.4608
  115TMC2    C3 1787   0.598   1.295  17.623  0.6176 -0.3588  0.3576
  115TMC2    C4 1788   0.363   1.377  17.731 -0.7112  1.0964 -0.2404
  115TMC2    C5 1789   0.440   1.461  17.664  0.6366 -0.1049 -0.0401
  115TMC2    C6 1790   0.561   1.426  17.611 -0.2657  0.0329 -0.7863
  115TMC2     C 1791   0.301   1.139   0.013 -0.2939 -0.0899  0.7289
  115TMC2     O 1792   0.339   1.028   0.004  0.3760  0.1169  0.4398
  115TMC2     H 1793   0.563   1.107  17.732  2.6064  1.3713  1.3311
  115TMC2    H1 1794   0.264   1.409   0.009 -1.0950 -0.1813 -0.1564
  115TMC2    H2 1795   0.626   1.494  17.557 -0.1128  0.5484  0.0494
  115TMC2    C7 1796   0.372   1.580  17.622  0.3529  0.0797 -0.3638
  115TMC2    C8 1797   0.736   1.260  17.588 -0.5374  0.2458 -0.0392
  115TMC2    O1 1798   0.291   1.632  17.701 -0.1320  0.2197  0.1394
  115TMC2    O2 1799   0.825   1.344  17.564  0.0498  0.5958  0.4617
  115TMC2    O5 1800   0.747   1.130  17.564 -0.2812  0.1227 -0.4240
  115TMC2    H5 1801   0.664   1.079  17.571  0.1586 -0.4963  0.2096
  116MPD2     C 1802   4.566   0.971  17.723  0.2556 -0.2400  0.0038
  116MPD2    C1 1803   4.684   0.923  17.666 -0.0413  0.5527 -0.0053
  116MPD2    C2 1804   0.057   0.999  17.684  0.2886 -0.3893  0.2571
  116MPD2    C3 1805   0.061   1.110   0.023 -0.3690  0.0147  0.2175
  116MPD2    C4 1806   4.682   1.146   0.086 -0.6318  0.2786 -0.3843
  116MPD2    C5 1807   4.566   1.071   0.061  0.1878 -0.0578  0.5758
  116MPD2     H 1808   0.145   0.964  17.631  1.2807 -0.5634  2.0025
  116MPD2    H1 1809   4.670   1.237   0.144 -2.1118 -0.5812  0.6549
  116MPD2    H2 1810   4.476   0.912  17.712  0.6854 -1.4005  2.7480
  116MPD2    H3 1811   4.468   1.097   0.098 -0.8230 -2.6572 -0.3161
  116MPD2     N 1812   0.176   1.188   0.042 -0.3422  0.4312  0.2628
  116MPD2    H5 1813   0.166   1.277   0.089 -0.2005  0.3782  0.3930
  116MPD2    N1 1814   4.684   0.798  17.600  0.7761  0.3354  0.4173
  116MPD2    H7 1815   4.590   0.762  17.588  1.6607 -2.6799  2.3241
  117TMC2    C1 1816   3.375   2.637  14.045 -0.3274  0.0353 -0.4872
  117TMC2    C2 1817   3.454   2.588  14.144  0.6841 -0.0662  0.2570
  117TMC2    C3 1818   3.552   2.667  14.199 -0.5704  0.0080  0.3498
  117TMC2    C4 1819   3.391   2.772  14.009  0.2254  0.0242 -0.4639
  117TMC2    C5 1820   3.491   2.847  14.064  0.4779  1.1385 -0.4275
  117TMC2    C6 1821   3.576   2.797  14.167  0.5687 -0.6675  0.7928
  117TMC2     C 1822   3.276   2.553  13.985  0.4241  0.0043 -0.4872
  117TMC2     O 1823   3.281   2.434  14.020 -0.6917 -0.2162  0.1723
  117TMC2     H 1824   3.456   2.481  14.163  1.0955  0.1291  1.3061
  117TMC2    H1 1825   3.321   2.815  13.938 -1.0134 -0.1249  0.6677
  117TMC2    H2 1826   3.662   2.856  14.195  0.7119 -0.1849 -0.6345
  117TMC2    C7 1827   3.501   2.987  14.033  0.0580 -0.4332  0.4378
  117TMC2    C8 1828   3.643   2.611  14.294  0.0457 -0.6379  0.3662
  117TMC2    O1 1829   3.613   3.032  14.044 -0.5202 -0.7986  1.0018
  117TMC2    O2 1830   3.666   2.493  14.311  0.6321  0.2991 -0.5604
  117TMC2    O5 1831   3.665   2.706  14.390 -0.4819 -0.0666  0.3476
  117TMC2    H5 1832   3.635   2.798  14.375 -1.0204 -0.1678  0.8133
  118MPD2     C 1833   3.248   3.211  13.872 -0.2581 -0.4995  0.3968
  118MPD2    C1 1834   3.371   3.169  13.919 -0.6497 -1.2414 -0.3897
  118MPD2    C2 1835   3.482   3.249  13.885 -0.4311  0.3426  0.0176
  118MPD2    C3 1836   3.467   3.364  13.810  0.4307 -0.0081  0.1619
  118MPD2    C4 1837   3.340   3.394  13.760  0.1540 -0.7730  0.0027
  118MPD2    C5 1838   3.238   3.321  13.797 -0.4913  0.0779  0.0768
  118MPD2     H 1839   3.577   3.211  13.920 -0.3453  1.2528  0.7728
  118MPD2    H1 1840   3.342   3.475  13.689 -1.1489  0.8486  1.8229
  118MPD2    H2 1841   3.159   3.157  13.903 -1.1541 -1.3295 -3.6726
  118MPD2    H3 1842   3.141   3.360  13.770  0.8340  3.0032 -0.4918
  118MPD2     N 1843   3.568   3.436  13.750 -0.0877  0.1972 -0.2806
  118MPD2    H5 1844   3.534   3.510  13.689 -0.2814 -0.6300 -1.1719
  118MPD2    N1 1845   3.378   3.045  13.994 -0.1322  0.5648 -0.7855
  118MPD2    H7 1846   3.292   2.997  14.020 -0.2281  1.0220 -0.2503
  119TMC2    C1 1847   1.310   3.145  13.265  0.1123 -0.4406 -0.8637
  119TMC2    C2 1848   1.276   3.092  13.147  0.6167  0.3132  0.0919
  119TMC2    C3 1849   1.150   3.034  13.128 -0.3239  0.6288 -0.1336
  119TMC2    C4 1850   1.217   3.125  13.367 -0.0630 -0.3542 -0.6583
  119TMC2    C5 1851   1.096   3.083  13.342 -0.4327 -0.0954  0.4543
  119TMC2    C6 1852   1.058   3.028  13.228  0.0635  0.4498  0.1380
  119TMC2     C 1853   1.350   3.287  13.256  0.0300  0.3943  0.3688
  119TMC2     O 1854   1.311   3.356  13.350  0.2979  0.6301 -0.0421
  119TMC2     H 1855   1.346   3.104  13.064 -2.8577  0.2023 -2.8653
  119TMC2    H1 1856   1.248   3.159  13.466 -1.1643 -0.9570 -0.1052
  119TMC2    H2 1857   0.955   2.995  13.224 -0.1554  1.0892  0.5716
  119TMC2    C7 1858   0.996   3.147  13.422  0.1759  0.1614 -0.0329
  119TMC2    C8 1859   1.127   2.961  13.001 -0.7643 -0.1554  0.0746
  119TMC2    O1 1860   0.899   3.170  13.354 -0.5216  0.3245 -0.4563
  119TMC2    O2 1861   1.211   2.964  12.909  0.1015  0.2627  0.3273
  119TMC2    O5 1862   1.068   2.847  13.046  0.0775 -0.4216  0.0414
  119TMC2    H5 1863   1.030   2.853  13.136 -0.8023 -1.9200 -0.2133
  120MPD2     C 1864   1.577   3.665  12.998  0.7943  0.6993  0.5143
  120MPD2    C1 1865   1.498   3.672  13.109 -0.3361  0.4694 -0.7647
  120MPD2    C2 1866   1.459   3.556  13.167  0.5118  0.1308 -0.0059
  120MPD2    C3 1867   1.476   3.435  13.097  0.0546  0.0016  0.2665
  120MPD2    C4 1868   1.539   3.430  12.979 -0.1231  0.5210  0.3810
  120MPD2    C5 1869   1.594   3.546  12.931 -0.0017 -0.5870 -0.7080
  120MPD2     H 1870   1.407   3.560  13.261 -1.4370  0.5448 -1.1010
  120MPD2    H1 1871   1.546   3.335  12.927  2.3695  1.2468 -0.6420
  120MPD2    H2 1872   1.632   3.749  12.958 -0.2761  1.6550  1.0423
  120MPD2    H3 1873   1.649   3.538  12.838  1.4277  2.1031 -0.1230
  120MPD2     N 1874   1.427   3.312  13.144  0.4301  0.4411 -0.0892
  120MPD2    H5 1875   1.452   3.226  13.097 -2.6971  0.2855 -1.4675
  120MPD2    N1 1876   1.476   3.796  13.169 -0.2304 -0.6961  0.3106
  120MPD2    H7 1877   1.535   3.873  13.138 -1.2764 -0.2859 -0.6635
  121TMC2    C1 1878   3.116   0.979  14.279 -0.3983 -0.3652  0.2994
  121TMC2    C2 1879   3.228   0.991  14.355  0.0798 -0.0575 -0.6364
  121TMC2    C3 1880   3.231   0.906  14.469 -1.2494 -0.1054 -0.1191
  121TMC2    C4 1881   3.007   0.921  14.336 -0.1302  0.7715 -0.0520
  121TMC2    C5 1882   3.016   0.850  14.453 -0.2418 -0.1631  0.0059
  121TMC2    C6 1883   3.128   0.841  14.522  0.6969  0.5939  0.1045
  121TMC2     C 1884   3.094   1.058  14.156  0.0342 -0.0520 -0.5176
  121TMC2     O 1885   2.974   1.059  14.121 -0.2273  0.5224 -1.0771
  121TMC2     H 1886   3.315   1.052  14.333  0.3847 -0.5035 -0.6694
  121TMC2    H1 1887   2.928   0.904  14.264  0.9920  0.2865 -1.1725
  121TMC2    H2 1888   3.139   0.791  14.618  0.9490 -1.2637 -0.8850
  121TMC2    C7 1889   2.890   0.812  14.514  0.2493  0.0618 -0.3673
  121TMC2    C8 1890   3.362   0.872  14.524 -0.0800  0.0211  0.6943
  121TMC2    O1 1891   2.897   0.734  14.607  0.2574  0.1528 -0.0207
  121TMC2    O2 1892   3.375   0.864  14.651  0.6221 -0.0407  0.1944
  121TMC2    O5 1893   3.458   0.878  14.434 -0.1072  0.0858 -0.2048
  121TMC2    H5 1894   3.428   0.862  14.342 -0.3619 -1.2504  0.1032
  122MPD2     C 1895   3.072   1.268  13.946  0.0337 -0.3759 -0.5893
  122MPD2    C1 1896   3.193   1.215  13.994 -0.1239  0.5344  1.1186
  122MPD2    C2 1897   3.314   1.251  13.932 -0.4938 -0.0424  0.5034
  122MPD2    C3 1898   3.311   1.344  13.823 -0.3951  0.0213  0.2944
  122MPD2    C4 1899   3.186   1.380  13.767  0.8161 -0.8412 -0.3976
  122MPD2    C5 1900   3.071   1.357  13.838  0.1585 -0.2350  0.4337
  122MPD2     H 1901   3.401   1.211  13.982  0.4438 -1.3110 -2.1119
  122MPD2    H1 1902   3.189   1.455  13.689  1.4228  0.5145  0.9239
  122MPD2    H2 1903   2.973   1.246  13.982 -0.2099  0.6279 -0.6322
  122MPD2    H3 1904   2.978   1.384  13.791  1.5278  1.3760 -1.3163
  122MPD2     N 1905   3.426   1.376  13.748  0.3255 -0.3639 -0.4605
  122MPD2    H5 1906   3.422   1.449  13.678  1.2129  1.5389  1.5016
  122MPD2    N1 1907   3.202   1.117  14.095 -0.3617  0.2130 -0.6032
  122MPD2    H7 1908   3.292   1.082  14.126  0.5546  2.2598 -0.9614
  123TMC2    C1 1909   1.505   3.919  10.644 -0.3697  0.6828  0.1520
  123TMC2    C2 1910   1.489   4.048  10.699 -0.0361 -0.2216  0.2570
  123TMC2    C3 1911   1.565   4.146  10.637  0.3577 -0.4535 -0.5603
  123TMC2    C4 1912   1.578   3.900  10.528 -0.2604  0.3832 -0.4395
  123TMC2    C5 1913   1.643   4.004  10.468  0.4923  0.1227  1.1719
  123TMC2    C6 1914   1.642   4.124  10.524  0.4128  0.1867 -0.3119
  123TMC2     C 1915   1.427   3.808  10.701 -0.0592 -0.3191 -0.1484
  123TMC2     O 1916   1.355   3.848  10.792 -0.2823  0.0363 -0.3942
  123TMC2     H 1917   1.422   4.066  10.782 -0.0332 -1.7706  0.5930
  123TMC2    H1 1918   1.595   3.799  10.494 -1.5999  0.1417 -0.3913
  123TMC2    H2 1919   1.692   4.207  10.476 -0.9859  2.0362  1.3901
  123TMC2    C7 1920   1.722   3.991  10.346  0.1987 -0.2223 -0.4765
  123TMC2    C8 1921   1.569   4.269  10.709 -0.2081  0.7318  0.5585
  123TMC2    O1 1922   1.748   4.095  10.284 -0.2294  0.0181  0.0338
  123TMC2    O2 1923   1.527   4.277  10.822  0.1354  0.1709 -0.5190
  123TMC2    O5 1924   1.663   4.350  10.651  0.0146  0.3116  0.5500
  123TMC2    H5 1925   1.645   4.361  10.555  0.1445 -0.3870  0.4487
  124MPD2     C 1926   1.160   3.385  10.696 -0.3085  0.8084 -0.0723
  124MPD2    C1 1927   1.242   3.377  10.588  0.3711  0.6869 -0.6016
  124MPD2    C2 1928   1.335   3.484  10.573  0.7673 -0.3423  0.4851
  124MPD2    C3 1929   1.322   3.598  10.649 -1.1530  0.3160  0.7374
  124MPD2    C4 1930   1.218   3.610  10.735 -0.0346 -0.8697  0.8116
  124MPD2    C5 1931   1.141   3.505  10.766 -0.9189 -0.0480  0.3694
  124MPD2     H 1932   1.405   3.485  10.491  0.1925 -0.5114 -0.0089
  124MPD2    H1 1933   1.186   3.698  10.790  0.5046 -1.0561  1.4287
  124MPD2    H2 1934   1.088   3.305  10.715 -0.1541  0.6652 -0.0933
  124MPD2    H3 1935   1.058   3.519  10.834 -1.6204 -0.3176 -0.4213
  124MPD2     N 1936   1.420   3.697  10.626 -0.4259  0.7148 -0.3694
  124MPD2    H5 1937   1.498   3.679  10.564 -1.9978  1.6736 -2.6191
  124MPD2    N1 1938   1.239   3.262  10.509  0.2008  0.6531 -0.0642
  124MPD2    H7 1939   1.155   3.206  10.526 -1.2741  2.7170 -0.5124
  125TMC2    C1 1940   2.404   0.907   9.900  0.0950  0.5618 -0.6577
  125TMC2    C2 1941   2.282   0.964   9.923 -0.2173  0.6908 -0.3560
  125TMC2    C3 1942   2.271   1.099   9.913  0.1209  0.4892  0.1918
  125TMC2    C4 1943   2.505   0.978   9.842 -0.2391  0.4026  0.6353
  125TMC2    C5 1944   2.485   1.108   9.812 -0.1230 -0.6760  0.7961
  125TMC2    C6 1945   2.371   1.174   9.854 -0.4657  0.5253  0.0331
  125TMC2     C 1946   2.443   0.803   9.991 -0.4573  0.0270 -0.1579
  125TMC2     O 1947   2.549   0.823  10.049 -0.7193  0.0551 -0.7412
  125TMC2     H 1948   2.205   0.906   9.973  1.0169 -0.4055  0.2728
  125TMC2    H1 1949   2.604   0.934   9.834 -2.3661 -4.1922 -0.1800
  125TMC2    H2 1950   2.363   1.281   9.838  3.3248  0.6603 -1.0983
  125TMC2    C7 1951   2.592   1.188   9.751 -0.2859  0.1162  0.1326
  125TMC2    C8 1952   2.134   1.140   9.894  0.0105  0.1866 -0.8489
  125TMC2    O1 1953   2.554   1.301   9.720  0.3997 -0.0763 -0.5137
  125TMC2    O2 1954   2.097   1.256   9.885  0.0708 -0.9026  0.1262
  125TMC2    O5 1955   2.089   1.051   9.797  0.5911 -0.1095 -0.0488
  125TMC2    H5 1956   2.133   0.964   9.805 -0.0907 -0.0813  4.0052
  126MPD1     C 1957   2.324   0.333  10.187 -0.8663  0.2504  0.1446
  126MPD1    C1 1958   2.226   0.378  10.100  1.5156 -0.3360  0.2950
  126MPD1    C2 1959   2.243   0.501  10.034  0.6669 -0.4796  0.7012
  126MPD1    C3 1960   2.349   0.583  10.062  0.1271  0.5111 -0.5445
  126MPD1    C4 1961   2.432   0.550  10.171  0.8024  0.0374  0.2159
  126MPD1    C5 1962   2.426   0.423  10.228  0.0550  0.7601  0.1733
  126MPD1     H 1963   2.172   0.538   9.961  0.2255  0.3143  1.5280
  126MPD1    H1 1964   2.516   0.608  10.207  1.4997 -0.1619 -1.1077
  126MPD1    H2 1965   2.325   0.229  10.215  2.0536 -0.2124 -1.6181
  126MPD1    H3 1966   2.498   0.404  10.306  0.9017 -0.1290 -0.8285
  126MPD1     N 1967   2.354   0.700   9.991  0.3921  0.0688 -0.0621
  126MPD1    H5 1968   2.271   0.710   9.933  0.0805  1.9253  0.6934
  126MPD1    N1 1969   2.121   0.293  10.053  0.2301  0.4222 -0.5757
  126MPD1    H6 1970   2.086   0.233  10.126  0.1503  0.3691 -0.6579
  126MPD1    H7 1971   2.038   0.344  10.023 -1.4560 -2.2866 -0.4657
  127TMC2    C1 1972   3.061   4.234  10.194 -0.1776 -0.4635  0.0926
  127TMC2    C2 1973   3.105   4.133  10.270 -0.3186 -0.0077 -0.0514
  127TMC2    C3 1974   3.026   4.024  10.280 -0.6114  0.4765  0.3084
  127TMC2    C4 1975   2.941   4.226  10.138 -0.3066  0.9524  0.0743
  127TMC2    C5 1976   2.855   4.125  10.159  0.2342 -0.0162  0.2468
  127TMC2    C6 1977   2.894   4.021  10.237  0.1256 -0.3186 -0.2503
  127TMC2     C 1978   3.165   4.325  10.147  0.7363  0.3936 -0.0038
  127TMC2     O 1979   3.273   4.311  10.207 -0.2302 -0.3759  0.4541
  127TMC2     H 1980   3.208   4.141  10.303  0.4808 -2.9066 -1.8111
  127TMC2    H1 1981   2.896   4.300  10.073 -0.4493  1.0418  0.2733
  127TMC2    H2 1982   2.838   3.934  10.268  0.3716 -0.5511 -0.4511
  127TMC2    C7 1983   2.717   4.155  10.136  0.2992 -0.1351 -0.0305
  127TMC2    C8 1984   3.075   3.931  10.373 -0.1060  0.2894 -0.0594
  127TMC2    O1 1985   2.689   4.271  10.126 -0.3202  0.5370  0.0008
  127TMC2    O2 1986   3.175   3.954  10.437  0.2411 -0.9809 -0.6240
  127TMC2    O5 1987   3.036   3.806  10.326 -0.3638  0.3968  0.1226
  127TMC2    H5 1988   2.941   3.781  10.326 -0.3244  0.2484  0.2324
  128MPD2     C 1989   3.171   4.494   9.829 -1.1721 -0.2055 -0.2649
  128MPD2    C1 1990   3.214   4.469   9.958  0.3211 -0.0217  0.5253
  128MPD2    C2 1991   3.324   4.543  10.013 -0.0083 -0.2021  0.4309
  128MPD2    C3 1992   3.405   4.618   9.935 -0.0531 -0.6439  0.7880
  128MPD2    C4 1993   3.368   4.634   9.800 -0.7085 -0.2841 -0.1057
  128MPD2    C5 1994   3.256   4.569   9.749 -0.3372  0.1980 -0.3167
  128MPD2     H 1995   3.347   4.539  10.119 -0.0600 -2.7144  0.3543
  128MPD2    H1 1996   3.422   4.696   9.730  0.2260 -1.7489 -0.6708
  128MPD2    H2 1997   3.093   4.433   9.784 -0.4324 -2.0161  0.9212
  128MPD2    H3 1998   3.237   4.572   9.642 -1.3322 -2.4206 -0.2113
  128MPD2     N 1999   3.500   4.695  10.005 -0.0176  0.0323 -0.5973
  128MPD2    H5 2000   3.515   4.673  10.103 -1.5107  0.8393 -0.1896
  128MPD2    N1 2001   3.125   4.387  10.035  0.8386 -0.0586 -0.3336
  128MPD2    H7 2002   3.036   4.361   9.994  0.5524  0.5866 -0.1279
  129TMC2    C1 2003   3.039   4.344   1.412 -0.3766  0.0177  0.3711
  129TMC2    C2 2004   3.172   4.324   1.436 -0.0596  0.0723 -0.4121
  129TMC2    C3 2005   3.201   4.213   1.511 -0.3081  0.3392  0.2047
  129TMC2    C4 2006   2.953   4.240   1.430 -0.0468 -1.0294 -0.5885
  129TMC2    C5 2007   2.993   4.122   1.490 -0.5371 -0.9568 -0.3733
  129TMC2    C6 2008   3.121   4.114   1.544 -0.1312  0.2644  0.0036
  129TMC2     C 2009   3.017   4.411   1.288  0.4739  0.0447  0.7788
  129TMC2     O 2010   2.953   4.354   1.197 -0.5792  0.6755  0.0950
  129TMC2     H 2011   3.249   4.396   1.410 -0.0514 -0.2275 -1.2324
  129TMC2    H1 2012   2.850   4.240   1.394 -0.6762  0.5763  1.2275
  129TMC2    H2 2013   3.157   4.034   1.608 -2.4034 -0.0325  0.9070
  129TMC2    C7 2014   2.892   4.031   1.542  0.5907 -0.3308 -0.9179
  129TMC2    C8 2015   3.339   4.197   1.549 -0.5066  0.4019 -0.2071
  129TMC2    O1 2016   2.780   4.069   1.521 -0.1806 -0.0152 -0.0956
  129TMC2    O2 2017   3.411   4.296   1.560  0.0954  0.0260  0.1330
  129TMC2    O5 2018   3.371   4.070   1.553 -0.4314 -0.2451 -0.2894
  129TMC2    H5 2019   3.302   4.018   1.508  1.0235 -2.8235  0.4185
  130MPD2     C 2020   3.024   4.601   1.060  0.5184 -0.3723  0.1155
  130MPD2    C1 2021   3.065   4.633   1.186 -0.0886  0.4903 -0.8817
  130MPD2    C2 2022   3.123   0.019   1.202 -0.3497  0.1109 -0.4873
  130MPD2    C3 2023   3.127   0.109   1.093 -0.2115  0.3010 -0.1810
  130MPD2    C4 2024   3.099   0.069   0.965 -0.1554  0.6221 -0.4159
  130MPD2    C5 2025   3.039   4.684   0.950 -0.4833  0.3792  0.7701
  130MPD2     H 2026   3.155   0.046   1.302 -1.9048  2.0898 -0.5176
  130MPD2    H1 2027   3.110   0.135   0.880 -0.8682 -0.0284 -1.0171
  130MPD2    H2 2028   2.983   4.504   1.035 -0.3283 -0.0346  0.1923
  130MPD2    H3 2029   3.003   4.664   0.850 -2.5969 -2.3018  2.0449
  130MPD2     N 2030   3.168   0.243   1.122 -0.3576  0.0299 -0.6844
  130MPD2    H5 2031   3.200   0.264   1.216 -3.5110 -1.5300  0.7202
  130MPD2    N1 2032   3.063   4.542   1.294 -0.5869  0.1782  0.0563
  130MPD2    H7 2033   3.104   4.574   1.381 -0.1451  0.5921 -0.3040
  131TMC2    C1 2034   1.486   3.911   9.927  0.7665  0.5246  0.1241
  131TMC2    C2 2035   1.444   3.994  10.032 -0.1109 -0.2561  0.1944
  131TMC2    C3 2036   1.517   4.105  10.063  0.0950 -0.1006  0.1184
  131TMC2    C4 2037   1.595   3.953   9.855 -0.7270 -0.6262  0.2349
  131TMC2    C5 2038   1.653   4.073   9.885  0.5727  0.2596 -0.4418
  131TMC2    C6 2039   1.615   4.155   9.985  0.3089 -0.1931 -0.5233
  131TMC2     C 2040   1.433   3.778   9.922 -0.6725  0.2990  0.0590
  131TMC2     O 2041   1.358   3.748  10.016  0.1507 -0.0420  0.2742
  131TMC2     H 2042   1.358   3.969  10.092 -0.8780  0.7913 -0.4652
  131TMC2    H1 2043   1.653   3.887   9.792 -1.8044 -2.5941  1.2880
  131TMC2    H2 2044   1.666   4.246  10.014  0.2509  0.2114 -1.7117
  131TMC2    C7 2045   1.752   4.125   9.793 -0.3686  0.5438  0.6225
  131TMC2    C8 2046   1.474   4.170  10.188 -0.1551 -0.3900  0.5551
  131TMC2    O1 2047   1.819   4.040   9.737 -0.0427  0.1984 -0.0066
  131TMC2    O2 2048   1.400   4.116  10.266 -0.0398  0.0991 -0.6223
  131TMC2    O5 2049   1.492   4.304  10.181  0.0462 -0.2344  0.2184
  131TMC2    H5 2050   1.544   4.322  10.100 -0.4234  0.6078  0.1084
  132MPD2     C 2051   1.474   3.508   9.666 -0.6760  0.7046 -0.6236
  132MPD2    C1 2052   1.444   3.565   9.790  0.4515 -0.5739 -0.2192
  132MPD2    C2 2053   1.382   3.481   9.885  0.5669 -0.0570  0.1895
  132MPD2    C3 2054   1.363   3.343   9.859 -0.7617  0.1924 -0.2832
  132MPD2    C4 2055   1.388   3.289   9.731  0.5092  0.6127 -0.1140
  132MPD2    C5 2056   1.442   3.376   9.640  0.0599  0.1022 -0.0649
  132MPD2     H 2057   1.351   3.517   9.982 -0.7847 -0.2863 -0.1606
  132MPD2    H1 2058   1.389   3.182   9.714  0.1586  0.6983 -0.6376
  132MPD2    H2 2059   1.525   3.571   9.594 -1.4414  2.0363  0.0106
  132MPD2    H3 2060   1.464   3.346   9.538 -1.5551  1.4859 -0.8157
  132MPD2     N 2061   1.323   3.263   9.974 -0.0989  0.2702 -0.5652
  132MPD2    H5 2062   1.318   3.324  10.055 -0.4325  0.0772 -0.4421
  132MPD2    N1 2063   1.482   3.700   9.814  0.0013 -0.3137 -0.4187
  132MPD2    H7 2064   1.528   3.739   9.733 -2.1349  3.3886  0.1210
  133TMC2    C1 2065   0.515   0.416  10.154 -0.2116  0.0569 -0.9497
  133TMC2    C2 2066   0.646   0.436  10.169  0.0389 -0.7348  0.1693
  133TMC2    C3 2067   0.689   0.553  10.230  0.1005  0.1672 -0.4070
  133TMC2    C4 2068   0.420   0.502  10.211 -0.1430  0.1424  0.3914
  133TMC2    C5 2069   0.464   0.620  10.268  0.2060  0.2955 -0.6257
  133TMC2    C6 2070   0.599   0.649  10.273  0.0790  0.2064  0.3336
  133TMC2     C 2071   0.473   0.287  10.124  0.0113  0.4021 -0.2732
  133TMC2     O 2072   0.557   0.204  10.137  0.3979  0.8979 -0.5475
  133TMC2     H 2073   0.721   0.367  10.133  1.1292 -0.0387  1.0654
  133TMC2    H1 2074   0.313   0.489  10.199  0.0648 -0.2959 -1.0500
  133TMC2    H2 2075   0.635   0.729  10.336  0.8478 -0.7226  1.0850
  133TMC2    C7 2076   0.367   0.713  10.325  0.2354  0.7549  0.3931
  133TMC2    C8 2077   0.835   0.573  10.262 -0.0046  0.4436 -0.4312
  133TMC2    O1 2078   0.254   0.661  10.337  0.8961 -0.2233 -0.0958
  133TMC2    O2 2079   0.865   0.677  10.318 -0.0799  0.1269  0.5394
  133TMC2    O5 2080   0.925   0.474  10.222 -0.2148 -0.4686  0.4741
  133TMC2    H5 2081   0.891   0.382  10.209 -0.0141 -0.1828 -2.1057
  134MPD2     C 2082   0.144   0.212   9.985  0.1483 -1.2397 -0.3618
  134MPD2    C1 2083   0.273   0.183  10.016 -0.3352 -0.0774  0.4680
  134MPD2    C2 2084   0.331   0.068   9.981 -0.0735 -0.9214 -0.1437
  134MPD2    C3 2085   0.257   4.702   9.911  0.2125  0.4218 -0.7119
  134MPD2    C4 2086   0.121   4.735   9.887 -0.4245  1.3833 -0.3008
  134MPD2    C5 2087   0.071   0.119   9.925 -0.4090  0.0177  0.0758
  134MPD2     H 2088   0.435   0.041   9.995 -0.2711 -0.3398  2.4061
  134MPD2    H1 2089   0.059   4.675   9.822 -0.1515 -0.4612  1.1461
  134MPD2    H2 2090   0.098   0.309  10.001  0.8705 -1.3787  2.5834
  134MPD2    H3 2091   4.707   0.143   9.900 -0.5904  1.6408  2.4423
  134MPD2     N 2092   0.300   4.571   9.874  0.0681  0.2715 -0.2032
  134MPD2    H5 2093   0.224   4.511   9.846  1.0483  0.1417 -2.5421
  134MPD2    N1 2094   0.343   0.284  10.078  0.3141  0.1706 -0.1144
  134MPD2    H7 2095   0.294   0.373  10.080 -1.7718 -1.0254  2.1800
  135TMC2    C1 2096   2.410   1.573   9.594  0.9966 -0.3703 -0.1310
  135TMC2    C2 2097   2.340   1.483   9.514  0.7807  0.2279 -0.4891
  135TMC2    C3 2098   2.215   1.454   9.560 -0.0391  0.2705  0.2110
  135TMC2    C4 2099   2.363   1.619   9.708 -0.1307  0.4569  0.1070
  135TMC2    C5 2100   2.241   1.572   9.749  0.4484  0.2370 -0.5388
  135TMC2    C6 2101   2.167   1.487   9.681 -0.4099 -0.9334  0.0810
  135TMC2     C 2102   2.539   1.626   9.549  0.2618 -0.0721 -0.2740
  135TMC2     O 2103   2.596   1.712   9.616 -0.2797 -0.7869 -0.2775
  135TMC2     H 2104   2.359   1.473   9.408  2.7635 -1.3140 -0.0012
  135TMC2    H1 2105   2.426   1.687   9.764  0.8445 -0.8344  0.5652
  135TMC2    H2 2106   2.071   1.459   9.723  0.2114  0.5395  2.4809
  135TMC2    C7 2107   2.201   1.622   9.881  0.0718 -0.2057 -0.0385
  135TMC2    C8 2108   2.155   1.332   9.508 -0.4509  0.1102  0.4431
  135TMC2    O1 2109   2.251   1.729   9.907  0.3808 -0.4027  0.1273
  135TMC2    O2 2110   2.049   1.289   9.552 -0.1509 -0.1367  0.1407
  135TMC2    O5 2111   2.260   1.252   9.476 -0.0387 -0.1004 -0.1927
  135TMC2    H5 2112   2.352   1.284   9.482 -0.4828  1.0656  0.4960
  136MPD2     C 2113   2.796   1.668   9.394  0.9070 -0.1354  0.0680
  136MPD2    C1 2114   2.725   1.548   9.409 -0.1984 -1.4587  0.3070
  136MPD2    C2 2115   2.773   1.433   9.349 -0.4174 -0.9952 -0.0393
  136MPD2    C3 2116   2.894   1.432   9.274 -0.6371  0.5189 -0.1169
  136MPD2    C4 2117   2.959   1.551   9.263 -0.3470  0.1095  0.3066
  136MPD2    C5 2118   2.910   1.666   9.321  0.1469 -0.3426  0.4283
  136MPD2     H 2119   2.713   1.344   9.364  0.1189 -1.3489  0.0301
  136MPD2    H1 2120   3.053   1.567   9.212 -0.4252 -0.2259  0.0637
  136MPD2    H2 2121   2.770   1.765   9.436 -0.0006  0.4184 -1.7681
  136MPD2    H3 2122   2.961   1.762   9.324  0.5660 -0.6250  2.4375
  136MPD2     N 2123   2.947   1.324   9.200  0.3448 -0.0389  0.5346
  136MPD2    H5 2124   3.031   1.338   9.145  0.2294  0.0367  0.3807
  136MPD2    N1 2125   2.594   1.533   9.468  0.2035 -0.0846  0.3077
  136MPD2    H7 2126   2.538   1.456   9.432  2.3638 -2.2601  1.5681
  137TMC2    C1 2127   2.900   0.485   9.946 -0.0749 -0.1922 -0.3105
  137TMC2    C2 2128   3.027   0.533   9.924 -0.2916 -0.2064 -0.1081
  137TMC2    C3 2129   3.046   0.628   9.827 -0.8304  0.2145 -0.0743
  137TMC2    C4 2130   2.791   0.555   9.896 -0.5908  0.0599 -0.1589
  137TMC2    C5 2131   2.815   0.653   9.809 -0.0244 -0.1485  0.5364
  137TMC2    C6 2132   2.942   0.685   9.768 -0.7408  0.7198 -0.5049
  137TMC2     C 2133   2.883   0.379  10.043  0.4967 -0.6540 -0.3424
  137TMC2     O 2134   2.975   0.348  10.118 -0.1122 -0.6931  0.4122
  137TMC2     H 2135   3.114   0.501   9.981  0.1224  0.6485 -0.2675
  137TMC2    H1 2136   2.694   0.540   9.942 -1.4743  2.0260 -1.4039
  137TMC2    H2 2137   2.962   0.747   9.682 -0.6812  0.5698 -0.5991
  137TMC2    C7 2138   2.709   0.710   9.729  0.0421  0.3948 -0.2548
  137TMC2    C8 2139   3.172   0.628   9.754 -0.4626  0.4714  0.0827
  137TMC2    O1 2140   2.743   0.807   9.661  0.3100 -0.0766  0.4847
  137TMC2    O2 2141   3.284   0.602   9.805 -0.3285  0.2593 -0.3548
  137TMC2    O5 2142   3.148   0.604   9.620  0.5015  0.2816 -0.0240
  137TMC2    H5 2143   3.053   0.590   9.602 -0.0260  1.6696  1.6213
  138MPD2     C 2144   2.606   0.162  10.101  0.6488  0.8686 -0.0108
  138MPD2    C1 2145   2.711   0.243  10.144  0.3311  0.4710 -0.9457
  138MPD2    C2 2146   2.754   0.238  10.272 -0.1874  0.2468  0.1866
  138MPD2    C3 2147   2.694   0.153  10.368  0.3755  0.6841 -0.3048
  138MPD2    C4 2148   2.593   0.066  10.327 -0.0807 -0.2198  0.6884
  138MPD2    C5 2149   2.552   0.073  10.199  0.0137 -0.3962  0.0035
  138MPD2     H 2150   2.829   0.309  10.307 -0.9998  0.4218  1.5673
  138MPD2    H1 2151   2.555   4.724  10.388  0.2070 -0.4800  0.5237
  138MPD2    H2 2152   2.562   0.161  10.002  0.2964 -0.0499  0.1546
  138MPD2    H3 2153   2.470   0.008  10.169  0.6276 -1.5514  0.8380
  138MPD2     N 2154   2.723   0.155  10.503 -0.0254 -0.1127  0.4623
  138MPD2    H5 2155   2.784   0.231  10.533  1.6062 -0.1500 -2.7421
  138MPD2    N1 2156   2.761   0.336  10.045 -0.5381 -0.6099  0.5304
  138MPD2    H7 2157   2.693   0.350   9.970 -1.4297 -0.3188  1.3945
  139TMC2    C1 2158   2.903   3.409  13.257 -0.3422  0.2287  0.2155
  139TMC2    C2 2159   2.929   3.460  13.133 -0.0930 -0.7968 -0.5722
  139TMC2    C3 2160   2.847   3.556  13.079  0.1521  0.9318 -0.0837
  139TMC2    C4 2161   2.794   3.452  13.330 -0.2041 -0.5785  0.1427
  139TMC2    C5 2162   2.702   3.540  13.266 -0.7348 -0.1519 -0.0315
  139TMC2    C6 2163   2.730   3.593  13.140 -0.5392  0.6258  0.3300
  139TMC2     C 2164   3.007   3.325  13.302  0.0628  0.0474  0.2178
  139TMC2     O 2165   3.100   3.296  13.223 -0.4630 -0.1768 -0.1323
  139TMC2     H 2166   3.030   3.460  13.094  0.3454 -1.5345  0.5722
  139TMC2    H1 2167   2.782   3.431  13.435 -0.2647 -0.5124  0.1491
  139TMC2    H2 2168   2.671   3.675  13.099 -0.4427 -0.0789 -1.2275
  139TMC2    C7 2169   2.614   3.624  13.346  0.0244  0.2470  0.9488
  139TMC2    C8 2170   2.902   3.651  12.981  0.1168  0.0086  0.4961
  139TMC2    O1 2171   2.655   3.639  13.459 -0.3302 -0.7844  0.0771
  139TMC2    O2 2172   2.977   3.615  12.892 -0.1042 -0.3462 -0.3729
  139TMC2    O5 2173   2.905   3.767  13.047 -0.2059  0.0938 -0.1660
  139TMC2    H5 2174   2.871   3.765  13.139 -0.2757  0.0960 -0.1916
  140MPD2     C 2175   2.971   3.108  13.587  0.2775  0.6137  0.0479
  140MPD2    C1 2176   3.042   3.177  13.492 -0.1123  0.9597 -0.5144
  140MPD2    C2 2177   3.174   3.144  13.470  0.3050 -0.0353 -0.7576
  140MPD2    C3 2178   3.240   3.044  13.541 -0.0335  0.2371  0.4980
  140MPD2    C4 2179   3.172   2.989  13.644  0.6185  0.2613  0.2666
  140MPD2    C5 2180   3.038   3.020  13.668  1.2219  0.8490 -0.2365
  140MPD2     H 2181   3.227   3.210  13.402 -0.3232 -0.1168 -1.3213
  140MPD2    H1 2182   3.211   2.904  13.699  0.2193 -0.0081  0.1373
  140MPD2    H2 2183   2.867   3.131  13.610  0.2364 -0.0216  0.4862
  140MPD2    H3 2184   2.974   2.972  13.741 -0.2855  1.1044 -1.3771
  140MPD2     N 2185   3.372   3.002  13.506 -0.2157  0.3495  0.2725
  140MPD2    H5 2186   3.426   3.057  13.440 -0.7473  0.3754 -0.1347
  140MPD2    N1 2187   2.968   3.273  13.423 -0.5416 -0.0633 -0.3141
  140MPD2    H7 2188   2.870   3.288  13.444  0.2110  0.4464  2.8231
  141TMC2    C1 2189   4.023   4.620  14.357 -0.8994 -0.5247 -0.4444
  141TMC2    C2 2190   4.008   4.486  14.390 -0.5631  0.3146 -0.2165
  141TMC2    C3 2191   4.087   4.439  14.492  0.6456  0.2616 -0.3646
  141TMC2    C4 2192   4.097   4.710  14.429 -0.6189  0.1332 -0.5329
  141TMC2    C5 2193   4.176   4.657  14.526 -0.7112  0.0474 -0.2440
  141TMC2    C6 2194   4.165   4.523  14.567 -0.0305 -0.4509 -0.2991
  141TMC2     C 2195   3.947   4.678  14.243 -0.5553  0.4324 -0.2968
  141TMC2     O 2196   3.942   0.062  14.242  0.4822  0.0238  0.2102
  141TMC2     H 2197   3.949   4.412  14.338  0.3342 -0.1699 -0.5516
  141TMC2    H1 2198   4.103   0.074  14.393  1.3914  0.9479  2.1717
  141TMC2    H2 2199   4.223   4.496  14.654 -0.7438 -1.0211  0.0002
  141TMC2    C7 2200   4.234   0.014  14.621  0.3262  0.4548  0.4439
  141TMC2    C8 2201   4.064   4.303  14.547 -0.1056 -0.8294  0.2683
  141TMC2    O1 2202   4.329   4.731  14.694 -0.4114 -0.1041  0.3594
  141TMC2    O2 2203   3.961   4.235  14.529 -0.3138  0.5051 -0.0128
  141TMC2    O5 2204   4.164   4.280  14.630  0.2760  0.2605  0.1573
  141TMC2    H5 2205   4.246   4.332  14.611  1.8616 -1.5847  2.0016
  142TMC2    C1 2206   1.693   3.087   9.871 -0.1132  0.4771 -1.5321
  142TMC2    C2 2207   1.723   3.090   9.742 -0.2352 -0.0500 -0.5548
  142TMC2    C3 2208   1.761   3.207   9.691 -0.0491 -0.2424 -0.4010
  142TMC2    C4 2209   1.690   3.201   9.945 -0.2933 -0.2851 -0.0915
  142TMC2    C5 2210   1.734   3.319   9.898 -0.3977  0.4441  0.2134
  142TMC2    C6 2211   1.768   3.325   9.768  0.1609 -0.2967 -0.1398
  142TMC2     C 2212   1.600   2.982   9.913  0.2404 -0.9717 -0.3011
  142TMC2     O 2213   1.536   2.925   9.822  0.2926 -0.0977  0.3060
  142TMC2     H 2214   1.717   3.001   9.681 -1.9560 -0.7247  0.6098
  142TMC2    H1 2215   1.643   3.196  10.043  0.2341  1.2077  0.2266
  142TMC2    H2 2216   1.793   3.416   9.715  0.1372 -0.4619 -0.4364
  142TMC2    C7 2217   1.736   3.439   9.980 -0.8420 -0.0738  0.2314
  142TMC2    C8 2218   1.813   3.231   9.556  0.1332 -0.5478 -0.0452
  142TMC2    O1 2219   1.684   3.433  10.092  0.1991  0.4664  0.0121
  142TMC2    O2 2220   1.782   3.326   9.482 -0.0313 -0.0479  1.1483
  142TMC2    O5 2221   1.935   3.179   9.562 -0.0425 -0.7313  0.0369
  142TMC2    H5 2222   1.954   3.119   9.638  0.9199 -0.6572 -0.1435
  143MPD2     C 2223   1.355   2.693  10.263  0.9279 -0.4749  0.5097
  143MPD2    C1 2224   1.334   2.696  10.126 -0.0987 -0.6165  0.1571
  143MPD2    C2 2225   1.411   2.782  10.044  0.1478 -0.8178  1.1376
  143MPD2    C3 2226   1.515   2.854  10.103 -0.6305  0.1570 -0.3383
  143MPD2    C4 2227   1.532   2.840  10.238  0.0282 -0.1368  0.4040
  143MPD2    C5 2228   1.447   2.775  10.320 -0.2546 -0.3746 -0.6982
  143MPD2     H 2229   1.385   2.792   9.939 -0.9820  0.3745  1.5315
  143MPD2    H1 2230   1.606   2.907  10.282 -0.8286  1.5464 -0.6890
  143MPD2    H2 2231   1.285   2.636  10.323  1.0932 -2.2502 -0.9729
  143MPD2    H3 2232   1.464   2.773  10.427 -0.5614 -0.8868 -0.6584
  143MPD2     N 2233   1.603   2.949  10.047  0.0795  0.1395 -0.4460
  143MPD2    H5 2234   1.670   3.000  10.104 -0.4395 -0.0958  0.3777
  143MPD2    N1 2235   1.237   2.606  10.077 -0.2422  0.6718 -0.3581
  143MPD2    H7 2236   1.199   2.544  10.148  2.1848  0.3552  0.6447
  144TMC2    C1 2237   0.154   2.529   0.651 -1.0473  0.6748  0.3260
  144TMC2    C2 2238   0.148   2.413   0.581  0.4688 -0.3784  0.0244
  144TMC2    C3 2239   0.252   2.327   0.601 -0.6576  0.2942 -0.0238
  144TMC2    C4 2240   0.267   2.556   0.733  0.2608  0.8145  0.0103
  144TMC2    C5 2241   0.366   2.465   0.746  1.0629 -0.3741  1.0642
  144TMC2    C6 2242   0.361   2.352   0.679  0.1769 -0.5284 -0.2211
  144TMC2     C 2243   0.026   2.586   0.685  0.1818 -0.1347  0.2271
  144TMC2     O 2244   4.672   2.514   0.642  0.2043  0.6714 -0.2657
  144TMC2     H 2245   0.068   2.392   0.511  1.0161 -3.3372  0.2552
  144TMC2    H1 2246   0.271   2.649   0.789  1.5010  0.2859  0.7690
  144TMC2    H2 2247   0.435   2.273   0.689  0.9617  0.4893  2.0728
  144TMC2    C7 2248   0.459   2.461   0.859  0.2538 -0.4388 -0.1150
  144TMC2    C8 2249   0.238   2.199   0.534 -0.3955  0.3269  0.3539
  144TMC2    O1 2250   0.566   2.401   0.842 -0.6583 -0.4648  1.1673
  144TMC2    O2 2251   0.140   2.127   0.547 -0.4199 -0.1687  0.0328
  144TMC2    O5 2252   0.354   2.163   0.488 -0.1180  0.0062 -0.2424
  144TMC2    H5 2253   0.418   2.237   0.487 -0.4162  0.2647  0.0630
  145MPD2     C 2254   4.470   3.006   0.730 -0.1398 -0.6061  0.3419
  145MPD2    C1 2255   4.443   2.878   0.683 -0.7771  0.6318  0.1600
  145MPD2    C2 2256   4.537   2.779   0.686 -0.4117  0.4393 -0.5995
  145MPD2    C3 2257   4.666   2.813   0.728  0.0488  0.1484 -0.5382
  145MPD2    C4 2258   4.696   2.937   0.778  0.1639  0.0850  0.1565
  145MPD2    C5 2259   4.601   3.029   0.771  0.0018 -0.2009 -0.0800
  145MPD2     H 2260   4.519   2.678   0.652 -0.7255  0.9860 -2.0539
  145MPD2    H1 2261   0.053   2.947   0.828  0.1379  0.5538  0.1043
  145MPD2    H2 2262   4.407   3.093   0.738  0.6125  0.0373 -0.7133
  145MPD2    H3 2263   4.631   3.127   0.806 -1.7235  0.5314 -0.6524
  145MPD2     N 2264   0.032   2.716   0.729  0.2403 -0.5065 -0.7163
  145MPD2    H5 2265   0.120   2.753   0.764  0.2758 -1.5267  0.2915
  145MPD2    N1 2266   4.307   2.850   0.637  0.1246  0.4914 -0.2033
  145MPD2    H7 2267   4.295   2.757   0.599  2.2462 -0.4757  1.4470
  146TMC2    C1 2268   0.802   1.456  12.626  0.1168  0.5792  0.1574
  146TMC2    C2 2269   0.748   1.526  12.519 -0.4881  0.4679 -0.3470
  146TMC2    C3 2270   0.719   1.462  12.400 -0.2566  0.4920  0.0436
  146TMC2    C4 2271   0.864   1.329  12.604  0.6048  0.4387 -0.4072
  146TMC2    C5 2272   0.843   1.281  12.472  0.1584 -0.5488 -0.2571
  146TMC2    C6 2273   0.757   1.334  12.376  0.8258  0.3742 -0.1904
  146TMC2     C 2274   0.774   1.497  12.764 -0.2000 -0.3340  0.0545
  146TMC2     O 2275   0.717   1.603  12.793 -0.1682 -0.4624  0.4566
  146TMC2     H 2276   0.704   1.623  12.540  0.2817  0.8263 -0.3801
  146TMC2    H1 2277   0.921   1.278  12.680 -1.8753 -1.8449 -0.0979
  146TMC2    H2 2278   0.768   1.292  12.276  1.4909  0.6556 -0.2399
  146TMC2    C7 2279   0.888   1.143  12.442  0.3042  0.1391 -0.5478
  146TMC2    C8 2280   0.722   1.549  12.285  0.4398  0.4384 -0.0438
  146TMC2    O1 2281   0.823   1.083  12.361  0.5353  0.0490  0.4981
  146TMC2    O2 2282   0.815   1.551  12.204  0.1860  0.0125 -1.0083
  146TMC2    O5 2283   0.645   1.652  12.313 -0.2764  0.9094  0.0726
  146TMC2    H5 2284   0.577   1.629  12.381 -1.0136  0.1366 -0.9256
  147MPD2     C 2285   1.122   0.714  12.551  0.3687  0.1019 -0.0840
  147MPD2    C1 2286   1.202   0.814  12.605  0.7315  0.3960  0.5005
  147MPD2    C2 2287   1.156   0.946  12.585  0.4133  0.5412  0.6494
  147MPD2    C3 2288   1.044   0.978  12.517 -0.5574 -0.5844  0.9479
  147MPD2    C4 2289   0.973   0.868  12.470 -0.1872  0.4308 -0.3197
  147MPD2    C5 2290   1.010   0.738  12.477  0.5352  0.4383 -0.0159
  147MPD2     H 2291   1.205   1.028  12.635  1.2427 -1.2662  2.8229
  147MPD2    H1 2292   0.882   0.873  12.412  1.3970  3.4813 -2.5444
  147MPD2    H2 2293   1.149   0.614  12.584  0.9792 -0.4334 -2.1954
  147MPD2    H3 2294   0.948   0.656  12.444 -0.3068  0.8756  0.4785
  147MPD2     N 2295   1.003   1.114  12.513  0.3808  0.1003  0.0050
  147MPD2    H5 2296   1.048   1.184  12.571 -0.2327 -1.0565  1.8728
  147MPD2    N1 2297   1.310   0.775  12.689  0.1389  0.2899 -0.5427
  147MPD2    H7 2298   1.327   0.679  12.716  0.9006  1.9660  4.7742
  148TMC2    C1 2299   0.503   4.310  10.643 -0.0315  0.2724  0.4376
  148TMC2    C2 2300   0.460   4.426  10.705  0.0640 -0.0358  0.0307
  148TMC2    C3 2301   0.539   4.479  10.806  0.1240 -0.7593 -0.0631
  148TMC2    C4 2302   0.624   4.252  10.668 -0.6055 -0.4214  0.4620
  148TMC2    C5 2303   0.700   4.320  10.764  0.3192  0.5302 -0.1332
  148TMC2    C6 2304   0.663   4.440  10.830  0.2159 -0.4148 -0.2715
  148TMC2     C 2305   0.405   4.237  10.559  0.1092  0.7340  1.1015
  148TMC2     O 2306   0.307   4.307  10.529  0.1812 -0.1275 -0.5464
  148TMC2     H 2307   0.361   4.470  10.695 -0.4068 -1.2605 -0.6039
  148TMC2    H1 2308   0.668   4.173  10.609  1.1314 -1.8978  3.7811
  148TMC2    H2 2309   0.724   4.492  10.903 -1.7870  0.5545  0.7249
  148TMC2    C7 2310   0.833   4.261  10.770  0.3655  0.4360 -0.1645
  148TMC2    C8 2311   0.512   4.619  10.841 -0.0108 -1.3351  0.9500
  148TMC2    O1 2312   0.837   4.137  10.768 -0.0104 -0.0165  0.4520
  148TMC2    O2 2313   0.402   4.649  10.879 -0.2596 -0.1192  0.2294
  148TMC2    O5 2314   0.555   4.673  10.731  0.4855 -0.4095  0.5449
  148TMC2    H5 2315   0.634   4.627  10.695 -0.2367 -0.3007 -1.1645
  149MPD2     C 2316   0.231   4.031  10.419 -0.3183 -0.1768 -0.3108
  149MPD2    C1 2317   0.355   4.008  10.463 -0.9074 -1.0001 -0.3097
  149MPD2    C2 2318   0.406   3.881  10.460 -0.6430 -0.0131 -0.3834
  149MPD2    C3 2319   0.331   3.774  10.415 -0.0041 -0.3830  0.0517
  149MPD2    C4 2320   0.204   3.795  10.376  0.3481 -0.5237 -0.4818
  149MPD2    C5 2321   0.153   3.920  10.374  0.3897 -0.6951 -0.5891
  149MPD2     H 2322   0.505   3.863  10.498  0.3784  0.6348 -2.7191
  149MPD2    H1 2323   0.146   3.706  10.356 -1.2454  0.8570 -1.9722
  149MPD2    H2 2324   0.191   4.131  10.427  0.0504  0.0230 -1.0321
  149MPD2    H3 2325   0.049   3.934  10.347  0.0898 -2.2100 -0.2546
  149MPD2     N 2326   0.368   3.648  10.440 -0.7036  0.1999 -0.4328
  149MPD2    H5 2327   0.293   3.585  10.412 -1.0025  0.1064  0.6064
  149MPD2    N1 2328   0.437   4.110  10.524 -0.3187  0.3388  0.5912
  149MPD2    H7 2329   0.531   4.082  10.552 -0.4992 -2.0331 -1.2546
  150TMC2    C1 2330   3.057   3.946  12.048  0.0610 -0.1208  0.0749
  150TMC2    C2 2331   3.111   4.010  11.938 -0.3327  0.0622  0.4754
  150TMC2    C3 2332   3.210   4.102  11.953  0.7328 -0.5022 -0.0486
  150TMC2    C4 2333   3.106   3.967  12.173 -0.4187 -0.2215 -0.3029
  150TMC2    C5 2334   3.205   4.060  12.181  0.7987  0.4816  0.0834
  150TMC2    C6 2335   3.244   4.136  12.078  0.3196 -0.3446  0.1293
  150TMC2     C 2336   2.939   3.859  12.030  0.3166 -0.6731  0.1582
  150TMC2     O 2337   2.858   3.883  11.941 -0.1097 -0.4937  0.3477
  150TMC2     H 2338   3.066   4.000  11.839 -1.4337 -0.8799  1.0713
  150TMC2    H1 2339   3.047   3.931  12.257  0.1767  0.9356  0.6029
  150TMC2    H2 2340   3.317   4.214  12.092 -0.6816  0.3101  1.7360
  150TMC2    C7 2341   3.268   4.082  12.309  0.2747 -0.0364  0.1053
  150TMC2    C8 2342   3.212   4.214  11.864 -0.0703  0.2129 -0.6662
  150TMC2    O1 2343   3.329   4.191  12.317 -0.3792  0.1514 -0.0934
  150TMC2    O2 2344   3.112   4.240  11.802 -0.2158 -0.0197  0.4368
  150TMC2    O5 2345   3.319   4.296  11.874  0.3442 -0.9054 -0.1595
  150TMC2    H5 2346   3.377   4.247  11.937  3.1627 -0.3651 -2.3262
  151MPD2     C 2347   2.660   3.479  12.224  0.0962  0.3836 -0.7282
  151MPD2    C1 2348   2.619   3.588  12.159 -0.8972 -0.1147  0.4844
  151MPD2    C2 2349   2.709   3.686  12.132  0.4346  0.4165 -1.0264
  151MPD2    C3 2350   2.842   3.667  12.158  0.2671  0.4354  0.0456
  151MPD2    C4 2351   2.881   3.553  12.227  0.1449 -0.0585  0.1362
  151MPD2    C5 2352   2.792   3.454  12.252  0.2998  0.5268  0.0538
  151MPD2     H 2353   2.677   3.772  12.074 -0.4880 -0.6560 -2.1089
  151MPD2    H1 2354   2.984   3.528  12.248  0.2332  0.7958  0.7283
  151MPD2    H2 2355   2.578   3.413  12.246 -0.3638  0.8250 -1.1153
  151MPD2    H3 2356   2.817   3.360  12.300 -0.8305  0.2199  0.0391
  151MPD2     N 2357   2.941   3.765  12.129  0.1435 -0.2170 -0.2649
  151MPD2    H5 2358   3.032   3.742  12.168  0.0477  1.0206  0.6823
  151MPD2    N1 2359   2.479   3.621  12.150  0.1922 -0.5219 -0.3451
  151MPD2    H7 2360   2.423   3.539  12.172  2.2876 -2.3446 -1.7581
  152TMC2    C1 2361   2.626   3.593  12.549 -0.5394  0.4348  0.1342
  152TMC2    C2 2362   2.670   3.473  12.580  0.3372  0.2938 -0.5268
  152TMC2    C3 2363   2.803   3.462  12.610 -0.3732  0.5190  0.1268
  152TMC2    C4 2364   2.706   3.707  12.537  1.2195  0.1056  0.2509
  152TMC2    C5 2365   2.843   3.692  12.559  0.0048  0.2160  0.5929
  152TMC2    C6 2366   2.895   3.566  12.604 -0.4292  0.3212  0.4522
  152TMC2     C 2367   2.484   3.617  12.560 -0.6527  1.1845  0.4310
  152TMC2     O 2368   2.463   3.735  12.583 -0.9455 -0.1639 -0.0876
  152TMC2     H 2369   2.606   3.389  12.602 -0.0806  0.2762 -1.7984
  152TMC2    H1 2370   2.666   3.804  12.508 -0.5895 -0.3836  1.1306
  152TMC2    H2 2371   3.001   3.553  12.620 -0.2937 -0.9571 -1.6395
  152TMC2    C7 2372   2.927   3.810  12.552 -0.3233 -0.0628 -0.1235
  152TMC2    C8 2373   2.852   3.334  12.658 -0.7298  0.7512 -0.3364
  152TMC2    O1 2374   2.881   3.895  12.481 -0.0025  0.2176 -0.0705
  152TMC2    O2 2375   2.790   3.231  12.666 -0.2909 -0.2483 -0.1127
  152TMC2    O5 2376   2.932   3.381  12.760  0.7344 -0.0274 -0.2713
  152TMC2    H5 2377   2.928   3.479  12.755  2.2263  0.0770  0.5368
  153MPD2     C 2378   2.183   3.419  12.554 -0.0669  0.0699 -0.8911
  153MPD2    C1 2379   2.263   3.523  12.594 -0.5671 -0.4356  0.5914
  153MPD2    C2 2380   2.211   3.626  12.662  0.4639 -0.6913 -0.4521
  153MPD2    C3 2381   2.073   3.636  12.684  0.2254  0.9606 -0.4950
  153MPD2    C4 2382   1.993   3.534  12.634  0.7370  0.1911 -0.3557
  153MPD2    C5 2383   2.050   3.424  12.580 -0.5186 -0.3483  0.5528
  153MPD2     H 2384   2.269   3.709  12.700 -1.0457 -0.4839  1.4174
  153MPD2    H1 2385   1.885   3.526  12.647  0.7504  0.7789  0.1367
  153MPD2    H2 2386   2.219   3.334  12.499  1.4323 -0.1952  0.4806
  153MPD2    H3 2387   1.988   3.341  12.550 -1.2161  1.2301 -2.4193
  153MPD2     N 2388   2.017   3.748  12.746 -0.2981  0.2762  0.3065
  153MPD2    H5 2389   2.076   3.809  12.800 -0.2257  0.9038 -0.4929
  153MPD2    N1 2390   2.394   3.514  12.554 -0.2600  0.0847 -0.2190
  153MPD2    H7 2391   2.428   3.425  12.520  2.8408  0.9110  0.6815
  154TMC2    C1 2392   0.223   3.707   0.854  0.3079  0.5676 -0.7362
  154TMC2    C2 2393   0.259   3.708   0.983  0.1663 -0.3184  0.5337
  154TMC2    C3 2394   0.362   3.624   1.016  0.8164 -0.1168 -0.0461
  154TMC2    C4 2395   0.279   3.630   0.750 -0.5220 -0.1370  0.2488
  154TMC2    C5 2396   0.381   3.547   0.792 -0.4762 -0.5085 -0.1162
  154TMC2    C6 2397   0.427   3.545   0.921 -0.2124 -0.6363 -0.2462
  154TMC2     C 2398   0.089   3.752   0.836 -0.3707 -0.3083 -0.5308
  154TMC2     O 2399   0.010   3.752   0.927  0.2066 -0.5233 -0.1845
  154TMC2     H 2400   0.206   3.769   1.055 -0.4717 -2.1346  1.6002
  154TMC2    H1 2401   0.227   3.627   0.655  0.8180  2.1457 -0.5789
  154TMC2    H2 2402   0.495   3.469   0.957 -1.8735 -2.4134 -0.8030
  154TMC2    C7 2403   0.409   3.428   0.717  0.3217 -0.0288 -0.1286
  154TMC2    C8 2404   0.430   3.630   1.138  0.3856  0.1755 -1.0291
  154TMC2    O1 2405   0.454   3.335   0.781 -0.3598 -0.0365 -0.1924
  154TMC2    O2 2406   0.510   3.540   1.159 -0.5563  0.3536 -0.2566
  154TMC2    O5 2407   0.323   3.637   1.219  0.1089 -0.3585 -0.1684
  154TMC2    H5 2408   0.293   3.729   1.235 -1.2573 -0.7987 -0.1918
  155MPD2     C 2409   4.687   3.909   0.533 -0.8397 -0.0929  0.3241
  155MPD2    C1 2410   4.688   3.865   0.665 -0.0055 -0.1700  0.3824
  155MPD2    C2 2411   4.572   3.886   0.738  0.8648 -0.0122 -0.4715
  155MPD2    C3 2412   4.468   3.967   0.698  0.3791 -0.2289  0.5763
  155MPD2    C4 2413   4.470   4.006   0.565 -0.1791  0.1320  0.6573
  155MPD2    C5 2414   4.582   3.979   0.487  0.0591  0.1280 -0.5932
  155MPD2     H 2415   4.557   3.850   0.839  1.8999 -0.0782 -0.3376
  155MPD2    H1 2416   4.395   4.067   0.516 -1.0621 -0.5078  1.2168
  155MPD2    H2 2417   0.039   3.892   0.477 -0.4798 -0.9268  1.1555
  155MPD2    H3 2418   4.592   4.014   0.385  0.4153  0.6083 -0.3932
  155MPD2     N 2419   4.362   3.999   0.788 -0.6852 -0.1878  0.2761
  155MPD2    H5 2420   4.382   3.953   0.877 -1.8138 -1.0512  0.0716
  155MPD2    N1 2421   0.070   3.802   0.711  0.1067 -0.0340  0.4274
  155MPD2    H7 2422   0.151   3.802   0.650 -0.7233  2.0630 -0.6654
  156TMC2    C1 2423   2.437   1.145  11.917  0.7682  0.0817 -0.6319
  156TMC2    C2 2424   2.333   1.176  12.002  0.1095  0.7137 -0.3586
  156TMC2    C3 2425   2.222   1.212  11.938  0.5837  0.3757  0.0347
  156TMC2    C4 2426   2.434   1.151  11.783 -0.0410  0.5423 -0.3193
  156TMC2    C5 2427   2.312   1.188  11.733  0.3158 -0.4209 -0.0347
  156TMC2    C6 2428   2.205   1.210  11.805  0.9297 -0.1978  0.3997
  156TMC2     C 2429   2.566   1.152  11.978 -0.4218 -0.1437 -0.2343
  156TMC2     O 2430   2.564   1.214  12.082 -0.6855  0.2033  0.1521
  156TMC2     H 2431   2.334   1.167  12.110  3.7658 -0.6699 -0.5334
  156TMC2    H1 2432   2.521   1.142  11.718  0.9868 -0.7638  1.2143
  156TMC2    H2 2433   2.109   1.246  11.770  1.4797  0.9132  0.0574
  156TMC2    C7 2434   2.315   1.264  11.608  0.2947  0.0921  0.0505
  156TMC2    C8 2435   2.118   1.274  12.020 -0.6368  0.2351  0.8977
  156TMC2    O1 2436   2.419   1.323  11.570  0.5381  0.2661 -0.4772
  156TMC2    O2 2437   2.050   1.357  11.969  0.3467 -0.0991 -0.6073
  156TMC2    O5 2438   2.097   1.222  12.141  0.6963  0.0514  0.2554
  156TMC2    H5 2439   2.144   1.139  12.160  0.0587 -0.2992  0.2922
  157MPD2     C 2440   2.874   0.964  11.908 -0.1355 -0.2367 -0.4565
  157MPD2    C1 2441   2.797   1.055  11.964 -0.4000 -0.8375 -0.7648
  157MPD2    C2 2442   2.852   1.130  12.064 -0.0014  0.7334 -0.1532
  157MPD2    C3 2443   2.990   1.125  12.091 -0.0964 -0.1958 -0.2571
  157MPD2    C4 2444   3.067   1.035  12.027  0.3928 -0.0817 -0.1874
  157MPD2    C5 2445   3.007   0.955  11.933 -0.3308  0.2295 -0.2485
  157MPD2     H 2446   2.794   1.215  12.099 -1.2139 -1.0588  2.1752
  157MPD2    H1 2447   3.175   1.027  12.036  0.6450  2.7939 -0.6233
  157MPD2    H2 2448   2.829   0.889  11.844 -0.3382 -1.3727  1.0050
  157MPD2    H3 2449   3.074   0.889  11.879 -1.5620 -0.0801 -1.3835
  157MPD2     N 2450   3.037   1.216  12.187 -0.0330  0.6869 -0.1717
  157MPD2    H5 2451   2.964   1.260  12.243 -0.5897  2.1173 -2.0112
  157MPD2    N1 2452   2.656   1.059  11.926 -0.4567 -0.5278  0.2067
  157MPD2    H7 2453   2.630   1.009  11.841 -0.8473 -2.3986  1.4104
  158TMC2    C1 2454   3.162   0.446  13.947 -0.6243 -0.4792 -0.4579
  158TMC2    C2 2455   3.199   0.565  13.895  0.0216 -0.5457  0.1116
  158TMC2    C3 2456   3.103   0.653  13.850  0.3133  0.2095  0.4879
  158TMC2    C4 2457   3.027   0.421  13.956  0.2906 -0.0715  0.5614
  158TMC2    C5 2458   2.937   0.511  13.909  0.2987  0.3282  0.7695
  158TMC2    C6 2459   2.968   0.632  13.857 -0.1784  0.3347  0.8451
  158TMC2     C 2460   3.261   0.403  14.048 -0.1954  0.6682 -0.2575
  158TMC2     O 2461   3.345   0.484  14.094 -0.1095 -0.1581 -0.4148
  158TMC2     H 2462   3.301   0.602  13.899  0.1163 -1.0693  2.5923
  158TMC2    H1 2463   2.998   0.333  14.012  0.6988 -0.8658 -0.4690
  158TMC2    H2 2464   2.893   0.702  13.823  0.0176  0.0073 -0.2579
  158TMC2    C7 2465   2.791   0.473  13.901  0.0042  0.1145  0.4423
  158TMC2    C8 2466   3.142   0.793  13.863  0.2948 -0.4379  1.0693
  158TMC2    O1 2467   2.713   0.561  13.919 -0.3489 -0.3437  0.1239
  158TMC2    O2 2468   3.238   0.824  13.934 -0.1597  0.1546 -0.4569
  158TMC2    O5 2469   3.045   0.876  13.830 -0.4595 -0.1306 -0.5912
  158TMC2    H5 2470   2.982   0.838  13.764  0.1431 -0.2599 -1.0906
  159MPD2     C 2471   3.579   0.049  14.249 -0.3981  0.0948  0.4230
  159MPD2    C1 2472   3.476   4.727  14.184 -0.3960 -0.7372 -0.4795
  159MPD2    C2 2473   3.377   0.063  14.121  0.5238 -0.4172  0.7613
  159MPD2    C3 2474   3.374   0.201  14.125  0.1133  0.3919  0.9464
  159MPD2    C4 2475   3.479   0.265  14.194 -0.2754  0.6420  0.5983
  159MPD2    C5 2476   3.575   0.186  14.258  0.1532 -0.4078  0.5296
  159MPD2     H 2477   3.302   0.016  14.058  2.1270  1.0141 -2.1829
  159MPD2    H1 2478   3.486   0.371  14.212  1.8202  0.9301 -1.8514
  159MPD2    H2 2479   3.659   4.734  14.298 -0.8024  0.8538  1.9351
  159MPD2    H3 2480   3.658   0.239  14.302  0.0558 -0.9583  1.3804
  159MPD2     N 2481   3.272   0.268  14.058 -0.0921  0.2888  0.2676
  159MPD2    H5 2482   3.199   0.207  14.022  0.3914  1.3935 -2.5851
  159MPD2    N1 2483   3.489   4.589  14.166 -0.2694  0.3209 -0.4469
  159MPD2    H7 2484   3.567   4.552  14.220 -0.5847  1.2012  0.6184
  160TMC2    C1 2485   3.168   2.780   1.275 -0.9323 -0.0744  0.4791
  160TMC2    C2 2486   3.242   2.711   1.360 -0.5581  0.3573 -0.5274
  160TMC2    C3 2487   3.368   2.768   1.384 -0.8634 -0.3747  0.1935
  160TMC2    C4 2488   3.215   2.895   1.212 -0.4241 -0.2922  0.0701
  160TMC2    C5 2489   3.337   2.942   1.229 -0.1860  0.8281 -0.1136
  160TMC2    C6 2490   3.414   2.882   1.324  0.0214 -0.9927 -0.4525
  160TMC2     C 2491   3.033   2.726   1.241  0.0765 -0.5659 -0.5471
  160TMC2     O 2492   3.009   2.606   1.258  0.4710 -0.2755  0.1340
  160TMC2     H 2493   3.213   2.613   1.397 -0.7048  1.0494  1.2062
  160TMC2    H1 2494   3.154   2.938   1.134 -1.1529  1.7517  1.7744
  160TMC2    H2 2495   3.516   2.914   1.340 -0.5299 -0.3399  1.7087
  160TMC2    C7 2496   3.371   3.067   1.174  0.5422  0.6693 -0.4257
  160TMC2    C8 2497   3.460   2.686   1.460 -0.7269  0.0740 -0.0040
  160TMC2    O1 2498   3.291   3.102   1.088  0.4696 -0.0286 -0.6717
  160TMC2    O2 2499   3.584   2.685   1.444 -0.2378 -0.5985 -0.2701
  160TMC2    O5 2500   3.393   2.641   1.566  0.2321 -0.0295  0.4606
  160TMC2    H5 2501   3.311   2.691   1.586  0.5403  0.0333  1.5516
  161MPD2     C 2502   2.758   2.706   1.148 -0.4608 -0.0864 -0.6469
  161MPD2    C1 2503   2.817   2.826   1.172  0.1296  0.0965  0.4972
  161MPD2    C2 2504   2.742   2.944   1.170 -0.3230  0.3559  0.0741
  161MPD2    C3 2505   2.615   2.942   1.116 -0.0503 -0.1013  0.4024
  161MPD2    C4 2506   2.556   2.818   1.088 -0.0406 -0.1683 -1.3214
  161MPD2    C5 2507   2.627   2.701   1.109 -0.1496 -0.0268  0.4223
  161MPD2     H 2508   2.795   3.038   1.177  0.4781  0.0841 -2.3009
  161MPD2    H1 2509   2.451   2.816   1.062  0.0201 -0.4031 -1.5479
  161MPD2    H2 2510   2.810   2.611   1.154  0.3195  0.4084  0.6521
  161MPD2    H3 2511   2.577   2.609   1.081  1.3188 -0.4112 -0.9512
  161MPD2     N 2512   2.541   3.059   1.079 -0.0268 -0.5336  0.1761
  161MPD2    H5 2513   2.455   3.043   1.027  0.6602  0.6964 -1.3145
  161MPD2    N1 2514   2.951   2.833   1.208  0.7131  0.0629  0.5438
  161MPD2    H7 2515   2.996   2.922   1.227 -1.4722  1.9767 -3.3948
  162TMC2    C1 2516   1.534   4.522   1.293  0.5310  0.5090  0.5141
  162TMC2    C2 2517   1.447   4.420   1.304  0.3426  0.3904  0.1656
  162TMC2    C3 2518   1.472   4.331   1.397  0.2420  0.6349  0.5695
  162TMC2    C4 2519   1.631   4.551   1.385  0.0338  0.1222 -0.0504
  162TMC2    C5 2520   1.660   4.443   1.470 -0.3734  0.4147 -0.1013
  162TMC2    C6 2521   1.578   4.335   1.482  0.5471 -0.3046  0.3182
  162TMC2     C 2522   1.506   4.618   1.185 -0.3152 -0.1003  0.0008
  162TMC2     O 2523   1.389   4.622   1.143 -0.2023  0.4350 -1.0471
  162TMC2     H 2524   1.370   4.415   1.228  0.3718  0.9779  0.1009
  162TMC2    H1 2525   1.704   4.630   1.368 -0.6951  0.7375 -0.3010
  162TMC2    H2 2526   1.597   4.263   1.560 -1.3793  1.0423  2.0236
  162TMC2    C7 2527   1.800   4.433   1.516 -0.3801  0.4237 -0.1236
  162TMC2    C8 2528   1.367   4.232   1.423  0.1223  0.5099  0.1020
  162TMC2    O1 2529   1.865   4.537   1.529  0.0919 -0.0085  0.4480
  162TMC2    O2 2530   1.353   4.169   1.532  0.3522 -0.3574  0.5437
  162TMC2    O5 2531   1.330   4.188   1.302  0.3295  0.1552 -0.3661
  162TMC2    H5 2532   1.379   4.235   1.231 -1.3711  1.0905 -0.9198
  163MPD2     C 2533   1.688   0.147   0.786  0.1273 -0.1355  0.7776
  163MPD2    C1 2534   1.561   0.097   0.810 -0.1181  0.4694  0.1361
  163MPD2    C2 2535   1.533   0.046   0.933 -0.0430 -0.5590 -0.1329
  163MPD2    C3 2536   1.635   0.027   1.024 -0.5364  0.5227  0.3322
  163MPD2    C4 2537   1.762   0.079   0.998 -0.6469  0.0963 -0.1177
  163MPD2    C5 2538   1.786   0.154   0.887  0.3656  0.0496 -0.2859
  163MPD2     H 2539   1.438   0.007   0.966 -0.8952 -0.0949 -2.0299
  163MPD2    H1 2540   1.834   0.057   1.076 -2.3715 -1.0048  1.1690
  163MPD2    H2 2541   1.713   0.190   0.689  1.4425 -1.0402  0.7083
  163MPD2    H3 2542   1.887   0.182   0.861  0.6683 -0.1547  0.6659
  163MPD2     N 2543   1.617   4.687   1.143 -0.1658 -0.1678 -0.1147
  163MPD2    H5 2544   1.696   4.676   1.205 -1.3449  0.0756  1.4338
  163MPD2    N1 2545   1.467   0.114   0.706 -0.2122  0.7119 -0.3230
  163MPD2    H7 2546   1.504   0.133   0.613  0.8386  2.5547  0.4738
  164TMC2    C1 2547   1.280   4.204  11.101  0.3649  0.1584 -0.7379
  164TMC2    C2 2548   1.337   4.315  11.056 -0.1390  0.0002 -0.3828
  164TMC2    C3 2549   1.262   4.423  11.017  0.0975  0.3246  0.2227
  164TMC2    C4 2550   1.143   4.192  11.106  0.3220  0.0956 -0.6612
  164TMC2    C5 2551   1.067   4.301  11.064  0.9940  0.3764 -0.9617
  164TMC2    C6 2552   1.125   4.417  11.019  0.1725 -0.1718 -0.0672
  164TMC2     C 2553   1.352   4.103  11.171  0.6398 -0.2650  0.1476
  164TMC2     O 2554   1.422   4.131  11.268  0.2192 -0.1461 -0.3101
  164TMC2     H 2555   1.445   4.321  11.065 -0.0210 -0.6325 -1.3132
  164TMC2    H1 2556   1.099   4.110  11.161  1.3012  0.5115  0.7525
  164TMC2    H2 2557   1.066   4.503  10.990  0.7031  0.8461  1.8471
  164TMC2    C7 2558   0.935   4.299  11.109 -0.1042 -0.4058 -0.0689
  164TMC2    C8 2559   1.328   4.547  10.986  0.1500 -0.5563  1.0574
  164TMC2    O1 2560   0.877   4.406  11.124  0.1286  0.4714 -0.2172
  164TMC2    O2 2561   1.259   4.646  10.996  0.2174 -0.2019  0.0531
  164TMC2    O5 2562   1.417   4.521  10.892 -0.0227 -0.4829  0.1106
  164TMC2    H5 2563   1.444   4.427  10.895  1.1496 -0.0649  2.0593
  165TMC2    C1 2564   3.643   1.815   1.043 -0.3243 -0.2082  0.0002
  165TMC2    C2 2565   3.581   1.743   0.949 -0.3550 -0.6927  0.5793
  165TMC2    C3 2566   3.481   1.802   0.880 -0.2075  0.4528  0.2842
  165TMC2    C4 2567   3.606   1.934   1.087 -0.0908  0.1046  0.1071
  165TMC2    C5 2568   3.504   1.986   1.009  0.0332  0.2578 -0.5338
  165TMC2    C6 2569   3.445   1.927   0.905  0.3575 -0.1847 -0.5966
  165TMC2     C 2570   3.743   1.747   1.125 -0.2222  0.6834 -0.2179
  165TMC2     O 2571   3.740   1.624   1.142 -0.0022 -0.0779 -0.0075
  165TMC2     H 2572   3.601   1.636   0.947 -2.6171 -1.0902 -0.5614
  165TMC2    H1 2573   3.649   1.990   1.169  0.4297  0.3589 -0.3413
  165TMC2    H2 2574   3.375   1.979   0.841 -1.1482 -2.1330 -0.5326
  165TMC2    C7 2575   3.482   2.125   1.034 -0.1397  0.1538 -0.3056
  165TMC2    C8 2576   3.395   1.736   0.785  0.0269 -0.5801 -0.0237
  165TMC2    O1 2577   3.582   2.183   1.074  0.2357  0.0311 -0.1787
  165TMC2    O2 2578   3.298   1.792   0.736  0.2424 -0.0452 -0.1151
  165TMC2    O5 2579   3.468   1.655   0.710  0.2552  0.4954  0.6377
  165TMC2    H5 2580   3.551   1.613   0.742  0.8815  0.8249 -0.5629
  166MPD2     C 2581   4.232   1.742   1.294  0.4000  0.7227  0.2581
  166MPD2    C1 2582   4.136   1.642   1.305  0.3184  0.7167 -0.4704
  166MPD2    C2 2583   4.014   1.678   1.254 -0.1130  0.1822  0.4197
  166MPD2    C3 2584   3.979   1.798   1.193 -0.0744 -0.4175 -0.0785
  166MPD2    C4 2585   4.080   1.891   1.190  0.3476  0.3082 -0.4257
  166MPD2    C5 2586   4.203   1.863   1.242 -1.0029 -0.9054  0.2706
  166MPD2     H 2587   3.922   1.622   1.266 -0.1272  0.6167  2.3413
  166MPD2    H1 2588   4.071   1.988   1.142  0.0835  0.3495 -0.2882
  166MPD2    H2 2589   4.334   1.732   1.329  0.1689 -3.9624 -0.4178
  166MPD2    H3 2590   4.278   1.940   1.232 -0.9574 -1.0853 -0.7803
  166MPD2     N 2591   3.849   1.837   1.146  0.6596 -0.2623  0.6824
  166MPD2    H5 2592   3.834   1.933   1.117  1.3752 -0.9796 -2.1418
  166MPD2    N1 2593   4.161   1.521   1.376 -0.3912 -0.4336  0.1778
  166MPD2    H7 2594   4.253   1.513   1.420  0.9326  0.6271 -2.4223
  167TMC2    C1 2595   1.680   4.477  12.354 -0.3873 -0.1939 -0.4026
  167TMC2    C2 2596   1.787   4.540  12.400  0.7533 -0.4164 -0.3608
  167TMC2    C3 2597   1.825   4.519  12.531  0.4319 -0.3217 -0.1549
  167TMC2    C4 2598   1.605   4.391  12.429 -0.2914  0.1595  0.3560
  167TMC2    C5 2599   1.647   4.370  12.551  0.7810  0.2722 -0.1915
  167TMC2    C6 2600   1.756   4.427  12.608 -0.8563 -0.1030 -0.1855
  167TMC2     C 2601   1.656   4.478  12.210 -0.2417 -0.0145  0.4435
  167TMC2     O 2602   1.756   4.486  12.137  0.1006 -0.7283  0.3928
  167TMC2     H 2603   1.829   4.616  12.335  4.8875 -1.7394  0.7490
  167TMC2    H1 2604   1.508   4.361  12.392 -0.2809 -0.0443  0.4904
  167TMC2    H2 2605   1.778   4.407  12.712 -1.7765 -2.0535 -0.3716
  167TMC2    C7 2606   1.571   4.275  12.628 -0.1811  0.0043 -0.1007
  167TMC2    C8 2607   1.933   4.598  12.592  0.1725  0.0425  0.1060
  167TMC2    O1 2608   1.569   4.283  12.751  0.1070 -0.0008  0.1490
  167TMC2    O2 2609   1.940   4.612  12.714 -0.1818 -0.1332 -0.2866
  167TMC2    O5 2610   2.016   4.638  12.492  0.5662  0.0915  0.2991
  167TMC2    H5 2611   2.016   4.578  12.415  1.3853  0.2432  0.1831
  168MPD2     C 2612   1.504   4.448  11.945  1.0590 -0.7871 -0.0908
  168MPD2    C1 2613   1.452   4.450  12.071  0.0386 -0.2280  0.0564
  168MPD2    C2 2614   1.314   4.437  12.083 -0.4275 -0.7299  1.8095
  168MPD2    C3 2615   1.240   4.421  11.966  0.4166 -0.4405 -0.0117
  168MPD2    C4 2616   1.294   4.417  11.844  0.2586 -0.3902 -0.0805
  168MPD2    C5 2617   1.433   4.423  11.832 -0.4398  0.1776 -0.3205
  168MPD2     H 2618   1.262   4.432  12.178 -0.1063  1.1905  2.0801
  168MPD2    H1 2619   1.246   4.389  11.751  1.4799 -0.0885 -0.8059
  168MPD2    H2 2620   1.608   4.471  11.927  1.0091  0.5201  1.2356
  168MPD2    H3 2621   1.479   4.404  11.736 -2.3828 -1.7160 -0.8652
  168MPD2     N 2622   1.100   4.405  11.985 -0.0360 -0.5501  0.0328
  168MPD2    H5 2623   1.070   4.419  12.081 -0.0157 -0.4777  0.0289
  168MPD2    N1 2624   1.520   4.486  12.188  0.6927 -0.4606 -0.9842
  168MPD2    H7 2625   1.461   4.493  12.271  0.5535 -1.0522 -1.0366
  169MPD1     C 2626   1.975   4.547  10.105 -0.3430 -0.2642  0.2786
  169MPD1    C1 2627   1.942   4.416  10.119 -0.3280 -0.2929  0.5845
  169MPD1    C2 2628   2.011   4.322  10.040 -0.2901 -0.4292  0.1508
  169MPD1    C3 2629   2.114   4.357   9.956 -0.0036 -0.7586 -0.2477
  169MPD1    C4 2630   2.137   4.490   9.936 -0.1600 -0.2557  0.0738
  169MPD1    C5 2631   2.073   4.577  10.016 -0.0536  0.4997  0.2959
  169MPD1     H 2632   1.971   4.221  10.047  1.1175 -1.0494 -0.7454
  169MPD1    H1 2633   2.208   4.531   9.865  0.5099  0.0458  0.9186
  169MPD1    H2 2634   1.929   4.621  10.170 -1.3252  0.2225 -0.9644
  169MPD1    H3 2635   2.114   4.678  10.012  0.5684  0.0649 -3.7600
  169MPD1     N 2636   2.173   4.252   9.882 -0.0991 -0.4962  0.0075
  169MPD1    H5 2637   2.134   4.160   9.893 -0.8468 -0.2613 -0.6699
  169MPD1    N1 2638   1.822   4.383  10.191  0.0641 -0.1341 -0.2764
  169MPD1    H6 2639   1.827   4.421  10.285 -1.8117  0.3612 -0.3748
  169MPD1    H7 2640   1.826   4.286  10.222  0.5484  0.2000  0.6922
  170MPD1     C 2641   1.301   1.170  13.529  0.9311 -0.5220 -0.1886
  170MPD1    C1 2642   1.376   1.142  13.648  0.1427  0.4649 -0.2068
  170MPD1    C2 2643   1.428   1.241  13.725 -0.1070 -0.0449  0.1294
  170MPD1    C3 2644   1.398   1.374  13.694 -0.5902 -0.1073 -0.0095
  170MPD1    C4 2645   1.326   1.399  13.577 -0.2080  0.5051 -0.6297
  170MPD1    C5 2646   1.274   1.300  13.500 -0.4443 -0.4794  0.5550
  170MPD1     H 2647   1.490   1.215  13.810 -0.1137  0.0521  0.1636
  170MPD1    H1 2648   1.289   1.495  13.543  1.6629  1.0404 -1.1994
  170MPD1    H2 2649   1.263   1.097  13.459 -1.1076  0.6729 -0.3037
  170MPD1    H3 2650   1.217   1.326  13.411  0.9532 -0.7143 -0.4217
  170MPD1     N 2651   1.450   1.481  13.773  0.0617 -0.1501 -0.4052
  170MPD1    H5 2652   1.508   1.446  13.849 -0.9349 -0.7727  0.0695
  170MPD1    N1 2653   1.414   1.011  13.672  0.3956 -0.4417  0.4177
  170MPD1    H6 2654   1.351   0.945  13.626  1.8163 -0.7159 -1.1404
  170MPD1    H7 2655   1.434   0.986  13.769  2.7145  0.6695  0.2296
  171MPD1     C 2656   0.348   3.502  15.364 -0.3887  0.5920  0.4255
  171MPD1    C1 2657   0.261   3.391  15.352  0.4105  0.3850  0.4251
  171MPD1    C2 2658   0.280   3.287  15.444 -0.4049 -0.9858 -0.6485
  171MPD1    C3 2659   0.381   3.289  15.535  0.1332  0.1982 -0.0835
  171MPD1    C4 2660   0.466   3.400  15.535 -0.6941  0.5439  0.1969
  171MPD1    C5 2661   0.455   3.497  15.446  0.0048  0.4134  0.3811
  171MPD1     H 2662   0.221   3.197  15.427  0.8300 -1.8576 -0.2827
  171MPD1    H1 2663   0.552   3.403  15.601  0.4795 -0.5656 -1.2989
  171MPD1    H2 2664   0.334   3.595  15.310 -0.8077  2.2541  3.4122
  171MPD1    H3 2665   0.518   3.585  15.454 -1.1080  1.0057  2.8409
  171MPD1     N 2666   0.413   3.189  15.625  0.4049  0.2193 -0.3470
  171MPD1    H5 2667   0.474   3.222  15.699  0.5713  0.6179 -0.6650
  171MPD1    N1 2668   0.146   3.393  15.273  0.6389 -0.2044 -0.0493
  171MPD1    H6 2669   0.107   3.302  15.250  2.8689 -1.3386  0.6902
  171MPD1    H7 2670   0.155   3.445  15.186 -0.4025  0.2029  0.0819
  172MPD1     C 2671   3.819   2.463   0.459 -0.5613  0.3513  0.4715
  172MPD1    C1 2672   3.904   2.517   0.547  0.0895 -0.5510  0.1984
  172MPD1    C2 2673   4.039   2.497   0.517 -0.4442 -0.4818 -0.9898
  172MPD1    C3 2674   4.082   2.464   0.388 -0.5433 -0.1720  0.6945
  172MPD1    C4 2675   3.992   2.414   0.300 -0.4230  0.2621  0.4312
  172MPD1    C5 2676   3.866   2.408   0.341 -0.0440  0.9779 -0.7655
  172MPD1     H 2677   4.111   2.542   0.585 -3.1935  2.3181  0.0833
  172MPD1    H1 2678   4.035   2.367   0.213 -1.1398  3.1633 -1.5013
  172MPD1    H2 2679   3.717   2.444   0.489 -1.1498  0.6355 -1.3143
  172MPD1    H3 2680   3.802   2.347   0.278  2.7367  0.6303 -3.2474
  172MPD1     N 2681   4.213   2.482   0.343 -0.0084 -0.1901  0.3756
  172MPD1    H5 2682   4.234   2.447   0.250  0.1646  0.9311 -0.0084
  172MPD1    N1 2683   3.854   2.543   0.677 -0.2101 -0.4475 -0.8205
  172MPD1    H6 2684   3.910   2.616   0.720 -0.9806 -0.6148  0.4612
  172MPD1    H7 2685   3.761   2.584   0.671  0.3745  1.2050  1.4532
  173MPD1     C 2686   1.518   2.619  14.230  0.0744  0.5412 -1.0145
  173MPD1    C1 2687   1.381   2.602  14.259  0.1027 -0.5154 -0.2970
  173MPD1    C2 2688   1.342   2.504  14.344  0.1395  0.0671 -0.5716
  173MPD1    C3 2689   1.435   2.445  14.422  0.1061  0.0870  0.5403
  173MPD1    C4 2690   1.569   2.461  14.404  0.1382 -0.1534  0.3026
  173MPD1    C5 2691   1.609   2.546  14.302  0.3162  0.1324  0.0703
  173MPD1     H 2692   1.236   2.499  14.367  0.3605  1.6736  0.8093
  173MPD1    H1 2693   1.646   2.422  14.470  0.9859  1.6389  0.3579
  173MPD1    H2 2694   1.553   2.681  14.149  1.6313  2.9142  1.4884
  173MPD1    H3 2695   1.712   2.573  14.283 -0.3515  0.9534 -2.2987
  173MPD1     N 2696   1.379   2.363  14.523  0.0232  0.2250 -0.2438
  173MPD1    H5 2697   1.278   2.359  14.534 -0.0014 -0.9452 -0.9319
  173MPD1    N1 2698   1.293   2.667  14.176  0.2239  0.5039 -0.2021
  173MPD1    H6 2699   1.325   2.754  14.134 -2.7810  0.4479 -2.6179
  173MPD1    H7 2700   1.196   2.664  14.206  0.7194 -0.6437  1.2486
  174MPD1     C 2701   1.868   1.708  15.116  0.5112 -0.2442  0.0902
  174MPD1    C1 2702   1.742   1.699  15.174 -0.1583 -0.3738 -1.0519
  174MPD1    C2 2703   1.636   1.747  15.097  0.0324  0.4852  0.2520
  174MPD1    C3 2704   1.658   1.806  14.975 -0.8310  0.2786  0.1421
  174MPD1    C4 2705   1.783   1.812  14.920  0.7237  0.2362 -0.0279
  174MPD1    C5 2706   1.883   1.756  14.993 -0.0551  0.3575 -0.3238
  174MPD1     H 2707   1.536   1.736  15.137  0.2482  2.1495  1.2339
  174MPD1    H1 2708   1.806   1.856  14.824  0.3681 -0.8193 -0.5927
  174MPD1    H2 2709   1.959   1.680  15.169  0.9354  2.3903  0.7642
  174MPD1    H3 2710   1.983   1.747  14.953  0.7504 -0.3214  1.8701
  174MPD1     N 2711   1.566   1.888  14.895  0.5318 -0.4950  0.4449
  174MPD1    H5 2712   1.606   1.929  14.812 -0.0839 -0.9109 -0.0534
  174MPD1    N1 2713   1.735   1.673  15.309  0.1528  0.7192 -0.1381
  174MPD1    H6 2714   1.808   1.613  15.347  0.9778  1.1738 -1.0235
  174MPD1    H7 2715   1.644   1.639  15.338  1.5398 -2.1003  0.9650
  175MPD1     C 2716   3.734   4.137  15.685 -0.3813 -0.3071 -0.6494
  175MPD1    C1 2717   3.852   4.077  15.670  0.4847  0.7023 -0.7419
  175MPD1    C2 2718   3.902   4.004  15.779 -0.2061  0.3597  0.3413
  175MPD1    C3 2719   3.814   3.976  15.884 -0.1741 -0.1691 -0.2105
  175MPD1    C4 2720   3.691   4.036  15.896  0.1273  0.2010 -0.2526
  175MPD1    C5 2721   3.656   4.127  15.797 -0.7515 -0.7296  0.4727
  175MPD1     H 2722   3.999   3.959  15.764 -1.6909 -2.5790 -0.3577
  175MPD1    H1 2723   3.628   4.017  15.982  1.3778 -2.3292  0.1150
  175MPD1    H2 2724   3.684   4.205  15.617  0.0993 -0.0271 -0.7211
  175MPD1    H3 2725   3.568   4.189  15.809  0.4772  1.3038 -1.1757
  175MPD1     N 2726   3.849   3.893  16.000 -0.3103  0.1711 -0.0303
  175MPD1    H5 2727   3.768   3.877  16.060  0.5122  2.8723  1.7620
  175MPD1    N1 2728   3.924   4.100  15.557 -0.2804  0.3151  0.3650
  175MPD1    H6 2729   3.868   4.128  15.476  2.0244 -1.7727 -1.9508
  175MPD1    H7 2730   4.000   4.037  15.531 -2.4693 -0.7519 -3.4426
  176MPD1     C 2731   1.118   0.703   0.388  0.3493 -0.6986  0.6616
  176MPD1    C1 2732   1.237   0.765   0.426  0.0543 -0.5133 -1.0846
  176MPD1    C2 2733   1.319   0.824   0.326 -0.7749 -0.7509  0.5871
  176MPD1    C3 2734   1.268   0.835   0.196  0.1950  0.3835 -0.2898
  176MPD1    C4 2735   1.151   0.773   0.163 -0.0107  0.4412 -0.1760
  176MPD1    C5 2736   1.073   0.715   0.257  0.0588  0.1980  0.1970
  176MPD1     H 2737   1.418   0.864   0.348 -1.2191  0.0672  1.0929
  176MPD1    H1 2738   1.119   0.766   0.059 -1.8793  0.7231  0.3767
  176MPD1    H2 2739   1.070   0.642   0.463 -0.4398 -0.0637  0.6744
  176MPD1    H3 2740   0.979   0.672   0.226  1.3584 -1.6601 -1.1715
  176MPD1     N 2741   1.352   0.904   0.102 -0.5991 -0.5592 -0.6753
  176MPD1    H5 2742   1.433   0.953   0.139  1.6392 -2.4415 -3.0686
  176MPD1    N1 2743   1.293   0.734   0.543  0.2795 -0.2416  0.2407
  176MPD1    H6 2744   1.371   0.791   0.574 -0.1794 -0.8557  2.5512
  176MPD1    H7 2745   1.228   0.728   0.621  1.6514 -1.5931  1.2574
  177MPD1     C 2746   3.625   4.671  10.813  0.4087  0.8119  0.1518
  177MPD1    C1 2747   3.586   4.586  10.715 -0.1962 -0.3913  0.6354
  177MPD1    C2 2748   3.621   4.612  10.583 -0.2902 -0.0274 -0.1686
  177MPD1    C3 2749   3.712   4.710  10.553  0.1941 -0.1781  0.9702
  177MPD1    C4 2750   3.757   0.049  10.662 -0.7276  0.0174  0.4068
  177MPD1    C5 2751   3.721   0.022  10.793  0.1442  0.3920 -0.2712
  177MPD1     H 2752   3.587   4.549  10.502  0.2263 -0.8850  0.2879
  177MPD1    H1 2753   3.835   0.122  10.652  0.8121 -1.6590  0.1553
  177MPD1    H2 2754   3.601   4.657  10.917 -0.4432 -1.8264 -0.3873
  177MPD1    H3 2755   3.758   0.092  10.867  3.8838 -1.6428 -0.2402
  177MPD1     N 2756   3.743   0.006  10.421  0.3591  0.2477  0.0782
  177MPD1    H5 2757   3.708   4.678  10.353  1.1989  0.5643 -0.6722
  177MPD1    N1 2758   3.482   4.497  10.745 -0.1211 -0.1428 -0.7855
  177MPD1    H6 2759   3.485   4.460  10.840  3.5523 -1.5033 -1.4431
  177MPD1    H7 2760   3.484   4.421  10.677 -2.0603 -2.3980  1.6575
  178MPD1     C 2761   2.299   0.975   0.703 -0.4976  0.2779 -0.6832
  178MPD1    C1 2762   2.190   1.001   0.617 -0.0450 -0.1478  0.2111
  178MPD1    C2 2763   2.224   1.016   0.480  0.5969 -0.0781 -0.1107
  178MPD1    C3 2764   2.348   0.994   0.423 -0.5053  0.9934 -0.3524
  178MPD1    C4 2765   2.446   0.952   0.512 -0.9290 -0.1592 -0.5216
  178MPD1    C5 2766   2.419   0.950   0.646 -0.3214  0.4382 -0.0915
  178MPD1     H 2767   2.154   1.069   0.417  0.0210 -0.9973 -0.2432
  178MPD1    H1 2768   2.549   0.930   0.488 -1.0750 -0.0674 -1.2325
  178MPD1    H2 2769   2.292   0.970   0.811 -0.9158 -0.8948 -0.7597
  178MPD1    H3 2770   2.499   0.914   0.709 -0.5319  0.7312  0.3419
  178MPD1     N 2771   2.377   1.011   0.291 -0.6892 -0.4934 -0.0707
  178MPD1    H5 2772   2.475   1.000   0.268 -1.4769 -2.1200 -2.7091
  178MPD1    N1 2773   2.069   1.048   0.665  0.6262  0.4402 -0.2211
  178MPD1    H6 2774   1.996   1.041   0.594  1.5605 -0.2212 -1.1087
  178MPD1    H7 2775   2.043   0.992   0.747  0.6436 -0.1530 -0.6242
  179MPD1     C 2776   1.783   3.769  14.978 -0.5861  0.0184 -0.1305
  179MPD1    C1 2777   1.876   3.770  15.084  0.0247  0.1809  0.6643
  179MPD1    C2 2778   1.834   3.794  15.215  0.3246  0.2912  0.0269
  179MPD1    C3 2779   1.704   3.846  15.238  0.3544  0.3220  0.4690
  179MPD1    C4 2780   1.620   3.854  15.130 -0.3237 -0.0328 -0.1404
  179MPD1    C5 2781   1.655   3.814  15.004 -0.5718 -0.8851 -0.4915
  179MPD1     H 2782   1.911   3.782  15.290  1.0100  0.2710 -0.6724
  179MPD1    H1 2783   1.523   3.899  15.149 -0.2068 -1.2458  3.3860
  179MPD1    H2 2784   1.806   3.739  14.876  1.4340  1.6664 -0.1326
  179MPD1    H3 2785   1.575   3.816  14.931 -1.1188  1.6500  0.1942
  179MPD1     N 2786   1.651   3.887  15.360  0.0775 -0.0920  0.2918
  179MPD1    H5 2787   1.556   3.922  15.360  0.6459  1.4506 -0.7918
  179MPD1    N1 2788   2.002   3.716  15.065 -0.1876  0.5146 -0.3369
  179MPD1    H6 2789   2.073   3.723  15.138  0.6893 -1.1065 -1.0280
  179MPD1    H7 2790   2.037   3.741  14.972 -1.5216  0.6361 -0.8109
  180MPD1     C 2791   0.896   0.858  15.276 -0.0033  0.1363 -0.2880
  180MPD1    C1 2792   1.015   0.867  15.223  1.0841 -0.3505  0.3368
  180MPD1    C2 2793   1.031   0.826  15.090 -0.8375 -0.6230  0.6741
  180MPD1    C3 2794   0.930   0.776  15.006  0.5156 -0.0420 -0.3641
  180MPD1    C4 2795   0.809   0.770  15.067  0.6029  0.4733  0.5921
  180MPD1    C5 2796   0.798   0.813  15.201  0.0496  0.0207  0.3340
  180MPD1     H 2797   1.121   0.859  15.039  0.2067 -1.1724  2.1612
  180MPD1    H1 2798   0.718   0.748  15.012  2.2722  2.1257 -2.7886
  180MPD1    H2 2799   0.872   0.891  15.377 -0.0644 -2.3148  0.5060
  180MPD1    H3 2800   0.701   0.813  15.249 -0.0763  1.1607  0.0650
  180MPD1     N 2801   0.945   0.743  14.868  0.3453 -0.2709 -0.0132
  180MPD1    H5 2802   1.039   0.732  14.830  0.5700 -1.0820  0.7848
  180MPD1    N1 2803   1.131   0.910  15.289 -0.2921 -0.2287 -0.2063
  180MPD1    H6 2804   1.123   0.914  15.390  1.1279 -0.7649 -0.0713
  180MPD1    H7 2805   1.221   0.886  15.248 -0.0313  1.0490 -0.3651
  181MPD1     C 2806   3.441   3.082   8.935  0.6894  0.0620  0.4364
  181MPD1    C1 2807   3.529   3.154   9.011 -0.6601  0.0031  0.5194
  181MPD1    C2 2808   3.512   3.144   9.149 -0.3628  0.5191 -0.1560
  181MPD1    C3 2809   3.434   3.049   9.212 -0.0565 -0.0327 -0.2890
  181MPD1    C4 2810   3.353   2.972   9.132  0.0328 -0.0597 -0.2122
  181MPD1    C5 2811   3.366   2.987   8.996  0.4924  0.3678 -0.7806
  181MPD1     H 2812   3.594   3.191   9.203 -1.9097  1.4213  1.3947
  181MPD1    H1 2813   3.286   2.894   9.164  1.1816 -0.4956  1.1451
  181MPD1    H2 2814   3.455   3.073   8.828 -1.7193  5.1993 -0.2784
  181MPD1    H3 2815   3.294   2.929   8.940 -0.0561 -0.4399  0.7602
  181MPD1     N 2816   3.447   3.015   9.349 -0.3992  0.5018  0.1164
  181MPD1    H5 2817   3.380   2.948   9.387 -0.2661  0.1022 -0.3624
  181MPD1    N1 2818   3.633   3.231   8.954  0.7255 -0.1141 -0.0916
  181MPD1    H6 2819   3.668   3.303   9.017  1.3443  0.5163 -1.1585
  181MPD1    H7 2820   3.612   3.279   8.866 -1.8597 -2.1700 -0.5969
  182MPD1     C 2821   4.353   0.954   1.463  0.3755 -0.1434 -0.5725
  182MPD1    C1 2822   4.354   0.825   1.521  0.2218  0.5691 -0.0794
  182MPD1    C2 2823   4.263   0.736   1.472 -0.1448  0.5771 -0.3028
  182MPD1    C3 2824   4.196   0.758   1.354  0.3063 -0.7653 -0.0530
  182MPD1    C4 2825   4.205   0.888   1.293 -0.1861 -0.4175  1.4552
  182MPD1    C5 2826   4.278   0.982   1.349 -0.2765 -0.7190  0.7504
  182MPD1     H 2827   4.251   0.642   1.525 -1.9684  0.8893 -0.1699
  182MPD1    H1 2828   4.165   0.914   1.196  0.9604 -1.2145  0.7734
  182MPD1    H2 2829   4.410   1.037   1.504 -1.2151  0.4317  0.4703
  182MPD1    H3 2830   4.279   1.083   1.309 -0.9928 -0.6137  1.0000
  182MPD1     N 2831   4.125   0.655   1.289 -0.5460 -0.5591 -0.0027
  182MPD1    H5 2832   4.084   0.677   1.199 -0.2204  0.2387  0.0468
  182MPD1    N1 2833   4.422   0.803   1.645  0.6263  0.5660 -0.4310
  182MPD1    H6 2834   4.436   0.704   1.660  0.8927  0.6948  0.1841
  182MPD1    H7 2835   4.510   0.855   1.654  1.3321 -0.1959 -2.6930
  183MPD1     C 2836   3.271   0.962   9.856  0.0232 -0.2161 -0.4996
  183MPD1    C1 2837   3.404   0.936   9.874 -0.3555  0.8394 -0.1583
  183MPD1    C2 2838   3.488   1.044   9.881  0.6290  0.1810 -0.5859
  183MPD1    C3 2839   3.443   1.173   9.870  0.5420 -0.1306  0.5284
  183MPD1    C4 2840   3.306   1.203   9.858  0.6801  0.2265  0.6560
  183MPD1    C5 2841   3.225   1.094   9.848  0.1945 -0.0991  0.9963
  183MPD1     H 2842   3.593   1.025   9.897  0.7326  2.3719  1.4011
  183MPD1    H1 2843   3.258   1.300   9.850 -0.1417 -0.3514 -1.4571
  183MPD1    H2 2844   3.194   0.886   9.864  0.0989 -0.3031 -0.6065
  183MPD1    H3 2845   3.119   1.116   9.844  0.4180  0.9788  0.8407
  183MPD1     N 2846   3.538   1.273   9.888  0.7579 -0.3065  0.2845
  183MPD1    H5 2847   3.631   1.238   9.908  0.8576 -0.6786 -0.8200
  183MPD1    N1 2848   3.452   0.807   9.865  0.1651  0.6682  0.1795
  183MPD1    H6 2849   3.545   0.808   9.907 -0.1203 -0.6208  0.8285
  183MPD1    H7 2850   3.385   0.733   9.883 -0.5992  1.7711  1.8775
  184MPD1     C 2851   2.799   4.489  10.570 -0.1583  0.1871 -0.2717
  184MPD1    C1 2852   2.734   4.446  10.456  0.5407 -0.1014  0.6604
  184MPD1    C2 2853   2.774   4.503  10.338 -0.6409 -0.1245  0.1277
  184MPD1    C3 2854   2.886   4.582  10.325  0.2451  0.1033  0.0404
  184MPD1    C4 2855   2.955   4.615  10.438  0.0590  0.3129 -0.2494
  184MPD1    C5 2856   2.910   4.576  10.560 -0.0202 -0.3732  0.2993
  184MPD1     H 2857   2.713   4.482  10.250  0.8842  3.0052 -1.6815
  184MPD1    H1 2858   3.044   4.677  10.432  0.3887 -0.1841 -0.4566
  184MPD1    H2 2859   2.772   4.457  10.670  1.2609 -1.0191 -0.2762
  184MPD1    H3 2860   2.941   4.617  10.655  0.9237  0.1773 -0.2513
  184MPD1     N 2861   2.929   4.642  10.204  0.0383  0.4851 -0.2360
  184MPD1    H5 2862   3.004   4.711  10.208  1.0815 -0.6643  0.1322
  184MPD1    N1 2863   2.620   4.364  10.458 -0.3415  0.2258  0.3743
  184MPD1    H6 2864   2.605   4.317  10.369  0.4214  0.8576 -0.0826
  184MPD1    H7 2865   2.616   4.286  10.524  0.9170  0.6778  0.9951
  185MPD1     C 2866   2.666   4.456   9.270  0.2978  0.2497  0.0409
  185MPD1    C1 2867   2.697   4.589   9.252  0.0926 -0.0397  0.8065
  185MPD1    C2 2868   2.736   4.656   9.370  0.3399 -0.2111  0.0006
  185MPD1    C3 2869   2.748   4.591   9.488  0.1702  0.0116 -1.0764
  185MPD1    C4 2870   2.715   4.469   9.502 -0.6145  0.4316 -0.6536
  185MPD1    C5 2871   2.670   4.400   9.396 -0.0201 -0.0787 -0.5906
  185MPD1     H 2872   2.755   0.023   9.372 -0.7186 -0.0831  2.7263
  185MPD1    H1 2873   2.724   4.421   9.599  0.4505 -0.3183 -1.1198
  185MPD1    H2 2874   2.638   4.383   9.195  0.3654  0.7909 -0.5079
  185MPD1    H3 2875   2.651   4.294   9.407  2.2266 -0.2332  1.8314
  185MPD1     N 2876   2.793   4.647   9.607 -0.4909  0.0082  0.6579
  185MPD1    H5 2877   2.789   4.594   9.693 -2.0531  0.7300  1.0396
  185MPD1    N1 2878   2.726   4.653   9.129 -0.5595  0.4949  0.1485
  185MPD1    H6 2879   2.711   0.015   9.128 -1.7745  0.3175  0.0371
  185MPD1    H7 2880   2.667   4.615   9.055 -0.5825 -0.8732  0.8652
  186MPD1     C 2881   1.830   4.725  15.369 -0.0265 -0.2500 -0.6535
  186MPD1    C1 2882   1.725   4.727  15.456  0.0427  0.1897  0.0140
  186MPD1    C2 2883   1.757   0.018  15.590  0.0120  0.1469 -0.1835
  186MPD1    C3 2884   1.887   0.030  15.642  0.4146 -0.0228 -0.3117
  186MPD1    C4 2885   1.986   0.000  15.553 -1.0362  0.2591 -0.3968
  186MPD1    C5 2886   1.958   4.719  15.420  0.2153  0.1849 -0.2199
  186MPD1     H 2887   1.672   0.023  15.658  0.5457  3.2007  0.2362
  186MPD1    H1 2888   2.092   0.002  15.577 -0.7954 -1.4411 -1.3061
  186MPD1    H2 2889   1.820   4.710  15.262 -1.1528  0.2547 -0.6251
  186MPD1    H3 2890   2.033   4.711  15.342 -0.9681 -0.3054 -1.2996
  186MPD1     N 2891   1.913   0.071  15.771 -0.2920  0.2220  0.3450
  186MPD1    H5 2892   2.012   0.084  15.791 -0.3507  1.0874  0.0981
  186MPD1    N1 2893   1.589   4.737  15.413  0.6501 -0.3509 -0.3323
  186MPD1    H6 2894   1.577   4.679  15.330  0.9600  0.6098 -1.0594
  186MPD1    H7 2895   1.528   4.693  15.481  1.2842 -0.3920  0.2158
  187MPD1     C 2896   1.879   1.565  17.271 -0.4310  0.2251  0.3713
  187MPD1    C1 2897   1.801   1.477  17.331  0.7762 -0.2447 -0.3569
  187MPD1    C2 2898   1.664   1.482  17.337  0.7948 -0.6757  0.9556
  187MPD1    C3 2899   1.605   1.586  17.269  0.4762  0.1143  0.3837
  187MPD1    C4 2900   1.682   1.681  17.204  0.0110 -0.0516  0.1441
  187MPD1    C5 2901   1.819   1.669  17.203 -0.3063  0.4736  0.2432
  187MPD1     H 2902   1.614   1.403  17.390 -1.6454 -0.9678 -1.7689
  187MPD1    H1 2903   1.637   1.769  17.161 -0.5251 -0.0777  0.6400
  187MPD1    H2 2904   1.987   1.563  17.267 -0.4122  2.6733 -0.1321
  187MPD1    H3 2905   1.882   1.750  17.170  0.3357  0.6002  1.7790
  187MPD1     N 2906   1.467   1.599  17.254  0.5415  0.1262 -0.0227
  187MPD1    H5 2907   1.443   1.675  17.190 -0.0174 -0.1075 -0.0818
  187MPD1    N1 2908   1.857   1.372  17.403 -0.3435 -0.2397 -0.5824
  187MPD1    H6 2909   1.815   1.352  17.494 -2.9052  0.4561 -1.6097
  187MPD1    H7 2910   1.958   1.389  17.401 -0.5622  1.0276 -0.7320
  188MPD1     C 2911   0.313   1.513  10.843  0.1483 -0.8559 -0.2255
  188MPD1    C1 2912   0.203   1.436  10.884  0.0225 -0.2357 -0.3195
  188MPD1    C2 2913   0.180   1.309  10.845 -0.1401 -0.0273  0.7003
  188MPD1    C3 2914   0.277   1.249  10.771 -0.4793 -0.6297 -0.2065
  188MPD1    C4 2915   0.382   1.317  10.726  0.2281  0.2903  0.1331
  188MPD1    C5 2916   0.396   1.447  10.757  0.2602  0.6910 -0.0474
  188MPD1     H 2917   0.091   1.261  10.885 -1.2642  0.8634 -0.7221
  188MPD1    H1 2918   0.455   1.264  10.667 -1.5682  0.5748 -2.3449
  188MPD1    H2 2919   0.301   1.620  10.849  0.5135 -0.9224  1.6426
  188MPD1    H3 2920   0.487   1.489  10.716  0.3761  1.2865  0.8265
  188MPD1     N 2921   0.269   1.109  10.738  0.0951  0.5988  1.3169
  188MPD1    H5 2922   0.344   1.070  10.682  0.7203  1.5408  1.4868
  188MPD1    N1 2923   0.093   1.504  10.943 -0.5562 -0.5968  0.5689
  188MPD1    H6 2924   0.125   1.563  11.019  1.8613 -2.7081  1.2072
  188MPD1    H7 2925   0.030   1.436  10.985  0.1343 -0.4234  1.8834
  189MPD1     C 2926   3.050   2.285   0.233  0.8663  0.7883 -0.0228
  189MPD1    C1 2927   2.965   2.204   0.169  0.2658 -0.3671  0.1802
  189MPD1    C2 2928   2.842   2.261   0.138 -0.2495  0.2181 -0.8959
  189MPD1    C3 2929   2.808   2.396   0.163  0.1814 -0.5007 -0.2149
  189MPD1    C4 2930   2.907   2.476   0.215  0.4103  0.2503  0.1292
  189MPD1    C5 2931   3.029   2.420   0.242 -0.4519  0.6970  0.3962
  189MPD1     H 2932   2.766   2.195   0.098  1.1728 -1.8066 -0.2584
  189MPD1    H1 2933   2.886   2.582   0.223  0.0670  0.0916  1.3601
  189MPD1    H2 2934   3.148   2.245   0.257  0.4471 -0.9573 -1.1450
  189MPD1    H3 2935   3.113   2.481   0.272 -0.5743  1.2982 -0.4686
  189MPD1     N 2936   2.680   2.439   0.129  0.1034  0.4924  0.3373
  189MPD1    H5 2937   2.624   2.371   0.079  2.3724 -2.3027  1.5521
  189MPD1    N1 2938   2.979   2.060   0.173  0.0288  0.4484  0.4290
  189MPD1    H6 2939   2.924   2.016   0.099  0.6012  0.4251  0.0195
  189MPD1    H7 2940   3.073   2.021   0.173 -0.0160  0.3462 -0.1724
  190MPD1     C 2941   1.197   0.784  15.605  0.0933  0.2764  0.2927
  190MPD1    C1 2942   1.243   0.916  15.606  0.5575  0.3080  0.8438
  190MPD1    C2 2943   1.380   0.926  15.588  0.2666 -0.5180 -0.1129
  190MPD1    C3 2944   1.463   0.815  15.592 -0.7715  0.0128 -0.4653
  190MPD1    C4 2945   1.411   0.692  15.611 -0.1096  0.6385 -0.1311
  190MPD1    C5 2946   1.278   0.685  15.626 -0.3023 -0.4881  0.0243
  190MPD1     H 2947   1.417   1.028  15.592 -0.7147 -0.2796  3.2725
  190MPD1    H1 2948   1.463   0.597  15.609 -1.4873 -0.1909  3.1327
  190MPD1    H2 2949   1.098   0.748  15.580  0.8537 -1.9119  0.4688
  190MPD1    H3 2950   1.229   0.588  15.629 -1.5073  0.1214  0.0824
  190MPD1     N 2951   1.605   0.838  15.586 -0.2899  0.1604 -0.8852
  190MPD1    H5 2952   1.632   0.936  15.577  3.1025 -0.5486  1.5236
  190MPD1    N1 2953   1.150   1.019  15.593 -0.0733 -0.5653  0.3758
  190MPD1    H6 2954   1.066   0.996  15.644  1.0798 -0.1652  2.4379
  190MPD1    H7 2955   1.189   1.110  15.614  2.2878 -1.9565  2.0522
  191MPD1     C 2956   0.374   2.522  12.976 -0.0362  0.6387  0.1571
  191MPD1    C1 2957   0.370   2.613  12.875 -0.6961 -0.0641  0.7568
  191MPD1    C2 2958   0.441   2.582  12.766  0.2940 -0.3898 -0.3129
  191MPD1    C3 2959   0.548   2.498  12.765  0.4453  0.0105 -0.0505
  191MPD1    C4 2960   0.569   2.427  12.880 -0.4126  0.5105 -0.1040
  191MPD1    C5 2961   0.476   2.434  12.985  0.0304  0.1657  0.3432
  191MPD1     H 2962   0.421   2.624  12.668  0.7028  0.6968  0.0750
  191MPD1    H1 2963   0.640   2.345  12.886 -1.3338 -0.2750  0.2411
  191MPD1    H2 2964   0.302   2.528  13.057  0.1253  1.3949  0.2447
  191MPD1    H3 2965   0.486   2.374  13.074 -0.5583 -1.0491 -0.4080
  191MPD1     N 2966   0.631   2.501  12.653  0.6449  0.0911  0.1090
  191MPD1    H5 2967   0.605   2.564  12.578  1.0883  1.6047  1.2411
  191MPD1    N1 2968   0.262   2.698  12.861 -0.6440  0.6716 -0.3982
  191MPD1    H6 2969   0.285   2.774  12.798  1.5347  2.0913  2.0765
  191MPD1    H7 2970   0.235   2.748  12.946 -0.0187  0.3847 -0.0297
  192MPD1     C 2971   0.882   3.037  11.865 -0.5751  0.3922  0.0747
  192MPD1    C1 2972   0.785   3.024  11.960  0.1432  0.8481 -0.2725
  192MPD1    C2 2973   0.800   2.942  12.069  0.0328 -0.2212  0.1705
  192MPD1    C3 2974   0.913   2.861  12.084  0.1539 -0.2122  0.5767
  192MPD1    C4 2975   1.005   2.867  11.987  0.4938 -0.7767  0.7206
  192MPD1    C5 2976   0.985   2.950  11.881  0.0715  0.2237  0.2945
  192MPD1     H 2977   0.718   2.933  12.138  0.2761 -1.9777  0.2314
  192MPD1    H1 2978   1.096   2.809  11.984 -0.0828 -1.6147 -1.0099
  192MPD1    H2 2979   0.879   3.103  11.780  2.3347  1.2798  0.6449
  192MPD1    H3 2980   1.068   2.953  11.812 -0.6659 -1.1626 -0.6566
  192MPD1     N 2981   0.931   2.753  12.175 -0.0095 -0.3829 -0.0135
  192MPD1    H5 2982   1.008   2.692  12.153  0.7795  0.6032 -0.0019
  192MPD1    N1 2983   0.652   3.082  11.944 -0.3806 -0.4514  0.4221
  192MPD1    H6 2984   0.612   3.104  12.035  0.2836  0.7083  0.4310
  192MPD1    H7 2985   0.662   3.158  11.877 -0.9309  0.9029  1.8750
  193MPD1     C 2986   0.318   2.830  16.155 -0.3013 -0.2090  0.3553
  193MPD1    C1 2987   0.281   2.965  16.149 -0.4714 -0.0768 -0.4265
  193MPD1    C2 2988   0.359   3.067  16.205 -0.1745  0.2381  0.7179
  193MPD1    C3 2989   0.481   3.038  16.259 -0.1563 -0.0286  0.4558
  193MPD1    C4 2990   0.523   2.906  16.263 -0.0775 -0.3054 -0.2126
  193MPD1    C5 2991   0.440   2.807  16.207 -0.1759  0.6707  0.0975
  193MPD1     H 2992   0.329   3.171  16.194 -0.0094  0.3237  1.0901
  193MPD1    H1 2993   0.615   2.871  16.309  1.6254  2.1274 -1.8265
  193MPD1    H2 2994   0.246   2.756  16.121  0.9125 -0.7694 -0.9900
  193MPD1    H3 2995   0.469   2.702  16.215  1.0620  0.8265 -2.0421
  193MPD1     N 2996   0.562   3.134  16.323  1.0745  0.1971  0.0526
  193MPD1    H5 2997   0.646   3.095  16.363  1.7048 -0.1667 -1.6151
  193MPD1    N1 2998   0.150   2.994  16.120  0.4585 -0.6001  0.4934
  193MPD1    H6 2999   0.144   3.089  16.084  0.5461 -0.3540  1.1241
  193MPD1    H7 3000   0.096   2.931  16.061 -0.8655  1.8544 -0.9248
  194MPD1     C 3001   2.661   0.356   0.377  0.4104  0.6273 -0.0969
  194MPD1    C1 3002   2.610   0.255   0.301  0.2361 -0.2248 -0.8060
  194MPD1    C2 3003   2.682   0.219   0.190 -0.1517 -0.4785 -0.0666
  194MPD1    C3 3004   2.798   0.282   0.152  0.0294 -0.4942 -0.4112
  194MPD1    C4 3005   2.831   0.391   0.221  0.0945 -0.1562  0.1669
  194MPD1    C5 3006   2.774   0.423   0.340 -0.0928 -0.1114  0.8049
  194MPD1     H 3007   2.650   0.133   0.133 -1.4950  1.1632 -1.8210
  194MPD1    H1 3008   2.919   0.450   0.196 -0.0564  0.2230  0.5344
  194MPD1    H2 3009   2.621   0.388   0.473 -1.2064  1.5602 -1.0746
  194MPD1    H3 3010   2.818   0.503   0.399  1.6439 -0.6513  0.2606
  194MPD1     N 3011   2.870   0.241   0.038 -0.8347  0.1884  0.8564
  194MPD1    H5 3012   2.935   0.308  17.752  0.4302 -0.4541  1.8546
  194MPD1    N1 3013   2.497   0.175   0.329 -0.0543  0.2186 -0.1009
  194MPD1    H6 3014   2.424   0.225   0.378  0.1999 -0.4818  0.9977
  194MPD1    H7 3015   2.452   0.136   0.247 -1.4411 -0.2780  0.9110
  195MPD1     C 3016   0.482   2.505  17.732 -1.2637  0.0895  0.7793
  195MPD1    C1 3017   0.562   2.476  17.630 -0.2409  0.2242  0.4917
  195MPD1    C2 3018   0.618   2.348  17.618  0.3350  0.8451 -0.2731
  195MPD1    C3 3019   0.593   2.247  17.711 -0.5440  0.0343 -0.0504
  195MPD1    C4 3020   0.500   2.279   0.053  0.5078  0.3882 -0.7400
  195MPD1    C5 3021   0.451   2.403   0.065 -0.1282  0.1089  0.1496
  195MPD1     H 3022   0.664   2.321  17.524 -0.8792  0.9734 -0.8988
  195MPD1    H1 3023   0.475   2.211   0.134  2.1173  2.6988  1.6597
  195MPD1    H2 3024   0.422   2.595  17.738 -0.2140  0.7346  1.6362
  195MPD1    H3 3025   0.384   2.430   0.147  0.3050  2.2957 -0.1986
  195MPD1     N 3026   0.659   2.116  17.724 -0.5226  0.3117 -0.4718
  195MPD1    H5 3027   0.623   2.051   0.039 -1.5909  1.2268 -0.1550
  195MPD1    N1 3028   0.588   2.575  17.535 -0.0092  0.2461  0.2549
  195MPD1    H6 3029   0.594   2.670  17.572 -0.9313  0.5109 -0.2866
  195MPD1    H7 3030   0.671   2.550  17.482  0.5264 -0.1537  1.2887
  196MPD1     C 3031   4.018   0.889   0.016  0.6579  0.4424  0.0055
  196MPD1    C1 3032   4.055   0.995  17.693 -0.0874  0.2363  0.0969
  196MPD1    C2 3033   4.131   1.097  17.753 -0.2309  0.6559  0.3372
  196MPD1    C3 3034   4.155   1.087   0.137  0.7081  0.8886  0.4758
  196MPD1    C4 3035   4.113   0.982   0.215 -0.2431 -0.2030  0.4222
  196MPD1    C5 3036   4.039   0.887   0.157  0.5240  0.8277  1.0092
  196MPD1     H 3037   4.171   1.182  17.699  3.9000  0.5531  3.2633
  196MPD1    H1 3038   4.122   0.980   0.322  1.3810 -1.9969  0.2467
  196MPD1    H2 3039   3.982   0.798  17.724  1.8325 -0.8212  1.6310
  196MPD1    H3 3040   3.995   0.814   0.223 -1.2690  1.7263  0.8105
  196MPD1     N 3041   4.220   1.194   0.211  0.2657 -0.1084 -0.1211
  196MPD1    H5 3042   4.252   1.175   0.305  0.8935  0.1161 -0.2909
  196MPD1    N1 3043   4.041   0.993  17.552  0.4596 -0.5347 -0.9725
  196MPD1    H6 3044   4.024   1.088  17.521  1.0025 -0.5424 -1.3054
  196MPD1    H7 3045   3.963   0.938  17.517  1.4477 -3.0928  0.8318
  197MPD1     C 3046   4.299   3.045  17.496 -0.1794 -0.4238 -0.3116
  197MPD1    C1 3047   4.199   3.042  17.400  0.1254  0.6701  0.1186
  197MPD1    C2 3048   4.209   3.128  17.294 -0.4619 -0.5193  0.3783
  197MPD1    C3 3049   4.328   3.195  17.265 -0.3764  0.3861 -0.3302
  197MPD1    C4 3050   4.439   3.165  17.343 -0.0618  0.0223  0.5291
  197MPD1    C5 3051   4.418   3.099  17.460 -0.1371 -0.7088 -0.2396
  197MPD1     H 3052   4.125   3.136  17.226 -0.3411 -0.2941  0.2560
  197MPD1    H1 3053   4.537   3.206  17.322 -0.2592  0.2618  0.0843
  197MPD1    H2 3054   4.281   3.001  17.593 -1.2306 -1.0762 -0.8037
  197MPD1    H3 3055   4.491   3.088  17.539  0.4684  1.4415 -0.4978
  197MPD1     N 3056   4.336   3.280  17.151 -0.6173  0.3672 -0.5735
  197MPD1    H5 3057   4.431   3.311  17.132 -0.7476  1.1626  0.0943
  197MPD1    N1 3058   4.074   2.988  17.434  0.1263 -0.3093 -0.4345
  197MPD1    H6 3059   4.018   2.966  17.352  0.7267  0.5774 -1.0899
  197MPD1    H7 3060   4.081   2.908  17.496 -0.7845 -1.1425 -1.3978
  198MPD1     C 3061   0.623   2.014  16.055 -0.0274  0.5963 -0.5236
  198MPD1    C1 3062   0.666   2.050  15.930 -0.1358  0.0829  0.1665
  198MPD1    C2 3063   0.808   2.058  15.906 -0.4285 -0.5196  0.6466
  198MPD1    C3 3064   0.897   2.048  16.011 -0.0554 -0.1980  0.0251
  198MPD1    C4 3065   0.846   2.031  16.135  0.7769 -0.5136 -0.4388
  198MPD1    C5 3066   0.708   2.019  16.158  0.5802 -0.2945  0.6479
  198MPD1     H 3067   0.842   2.067  15.803 -0.8781  2.2115  0.7302
  198MPD1    H1 3068   0.909   2.042  16.222  0.9541  2.9422 -0.9820
  198MPD1    H2 3069   0.518   1.993  16.073 -0.2819  1.2161 -1.3132
  198MPD1    H3 3070   0.664   2.004  16.256  1.3867  3.7880  1.6637
  198MPD1     N 3071   1.036   2.055  15.985 -0.5117  0.6609 -0.0542
  198MPD1    H5 3072   1.076   2.089  15.898  0.4089 -0.5923 -0.1139
  198MPD1    N1 3073   0.579   2.030  15.826  0.0099  0.3173 -0.1044
  198MPD1    H6 3074   0.605   2.085  15.744  2.3481 -1.0143 -0.2671
  198MPD1    H7 3075   0.482   2.053  15.846 -0.3692 -0.3609 -1.1598
  199MPD1     C 3076   2.835   2.555  10.190 -0.5462  0.3322 -0.0488
  199MPD1    C1 3077   2.888   2.684  10.198  0.1372  0.0817 -0.6355
  199MPD1    C2 3078   2.895   2.746  10.080  0.5316  0.2478  0.2791
  199MPD1    C3 3079   2.848   2.694   9.956  0.1163 -0.6513 -0.2591
  199MPD1    C4 3080   2.806   2.564   9.951 -0.2537 -0.3997  0.5955
  199MPD1    C5 3081   2.793   2.503  10.070  0.8038 -0.0909  0.2176
  199MPD1     H 3082   2.934   2.847  10.085  0.2214  0.3156  1.2890
  199MPD1    H1 3083   2.789   2.504   9.862 -0.5555  0.0828  0.3237
  199MPD1    H2 3084   2.818   2.494  10.278 -2.3609  1.4045  0.3516
  199MPD1    H3 3085   2.763   2.399  10.064 -1.8399  0.6478  0.7120
  199MPD1     N 3086   2.844   2.763   9.833  0.2743  0.0721 -0.2759
  199MPD1    H5 3087   2.801   2.713   9.756  0.8264  0.2181 -0.6808
  199MPD1    N1 3088   2.912   2.742  10.320  0.0735  0.0787  0.7564
  199MPD1    H6 3089   2.992   2.804  10.311  0.4066 -0.1536  2.1575
  199MPD1    H7 3090   2.923   2.688  10.406 -0.2486 -1.6017 -0.2517
  200MPD1     C 3091   2.164   3.367  14.961  0.3228 -0.5982  0.4492
  200MPD1    C1 3092   2.145   3.283  14.850 -0.2142 -0.0981  0.2165
  200MPD1    C2 3093   2.248   3.270  14.767 -0.0249  1.0360  0.1261
  200MPD1    C3 3094   2.374   3.320  14.781  0.3898  0.6016  0.6744
  200MPD1    C4 3095   2.399   3.388  14.897 -0.4741  0.5143 -0.0854
  200MPD1    C5 3096   2.290   3.411  14.980  0.1058  0.0410  0.6964
  200MPD1     H 3097   2.224   3.208  14.682  0.9042  0.9989 -0.1071
  200MPD1    H1 3098   2.494   3.437  14.913  1.8687 -4.2183  0.4014
  200MPD1    H2 3099   2.094   3.407  15.033  1.1918  0.8878  0.4724
  200MPD1    H3 3100   2.308   3.474  15.066  0.6644 -0.0756  0.6683
  200MPD1     N 3101   2.471   3.297  14.678 -0.6032  0.3208  0.5778
  200MPD1    H5 3102   2.457   3.222  14.612  2.4766 -0.4934  0.8626
  200MPD1    N1 3103   2.013   3.246  14.804 -0.1715  0.5857 -1.5301
  200MPD1    H6 3104   2.007   3.153  14.764 -0.0329 -1.5948  3.4785
  200MPD1    H7 3105   1.954   3.243  14.887 -0.1813 -1.1139 -1.5904
  201MPD1     C 3106   4.365   1.291  14.003  0.4429 -0.6090  0.0318
  201MPD1    C1 3107   4.396   1.170  13.942 -0.1430 -0.1799 -0.2803
  201MPD1    C2 3108   4.522   1.131  13.925 -0.1989 -0.0653 -0.0080
  201MPD1    C3 3109   4.624   1.202  13.987  0.9286 -0.0417  0.1623
  201MPD1    C4 3110   4.591   1.318  14.057 -0.1516 -0.9740 -0.6611
  201MPD1    C5 3111   4.460   1.356  14.073  0.2622  0.4905  1.2731
  201MPD1     H 3112   4.543   1.035  13.879  0.2980 -0.6263  1.3727
  201MPD1    H1 3113   4.661   1.377  14.115 -2.2761  1.8144 -0.9417
  201MPD1    H2 3114   4.262   1.325  13.994  0.8492  0.3749 -1.0455
  201MPD1    H3 3115   4.437   1.446  14.128 -1.2124  2.7994 -3.1369
  201MPD1     N 3116   0.020   1.145  13.980 -0.1686  0.1397 -0.5135
  201MPD1    H5 3117   0.027   1.057  13.930 -0.5498  0.3504 -0.9387
  201MPD1    N1 3118   4.287   1.106  13.878  0.4681  0.6489 -0.2612
  201MPD1    H6 3119   4.289   1.004  13.875 -2.1441  0.6370 -1.9146
  201MPD1    H7 3120   4.197   1.135  13.914  0.7263  1.0122  0.0864
  202MPD1     C 3121   3.596   0.488   9.048  0.7641 -0.5577  0.0321
  202MPD1    C1 3122   3.608   0.367   9.121  0.0055 -0.1006  0.5913
  202MPD1    C2 3123   3.711   0.374   9.221  1.3501  0.1060 -0.4128
  202MPD1    C3 3124   3.779   0.494   9.260 -0.0637  0.8578  0.4312
  202MPD1    C4 3125   3.744   0.611   9.191  0.0809  0.1037  0.0334
  202MPD1    C5 3126   3.659   0.599   9.081 -0.1623 -0.2969 -0.3873
  202MPD1     H 3127   3.707   0.279   9.272 -1.9714  1.4234  1.7556
  202MPD1    H1 3128   3.794   0.706   9.204 -1.2608  1.0705 -1.9241
  202MPD1    H2 3129   3.541   0.498   8.954  1.8438  1.2848 -0.4006
  202MPD1    H3 3130   3.638   0.684   9.018 -1.2107 -0.7935 -0.7212
  202MPD1     N 3131   3.877   0.495   9.360  0.2364  0.2538 -0.0523
  202MPD1    H5 3132   3.899   0.408   9.407  0.9386  1.6541  2.2255
  202MPD1    N1 3133   3.591   0.240   9.058 -0.4249 -0.5656 -0.4085
  202MPD1    H6 3134   3.581   0.167   9.129 -3.9798  2.2196  1.9718
  202MPD1    H7 3135   3.508   0.242   8.999  0.8733  1.4303 -2.1527
  203MPD1     C 3136   2.484   1.724  12.490 -0.6043 -0.0768 -0.7984
  203MPD1    C1 3137   2.583   1.631  12.493 -0.5552  0.3918 -0.0208
  203MPD1    C2 3138   2.707   1.671  12.533  0.3835  0.2571 -0.1283
  203MPD1    C3 3139   2.727   1.796  12.580 -0.0610  0.5179  0.1107
  203MPD1    C4 3140   2.618   1.889  12.579  0.1347 -0.2701  0.2273
  203MPD1    C5 3141   2.495   1.846  12.539 -0.4819 -0.0507  0.1795
  203MPD1     H 3142   2.797   1.613  12.517  0.8739  1.1305 -0.5199
  203MPD1    H1 3143   2.630   1.995  12.600 -0.1764 -0.2589  0.3406
  203MPD1    H2 3144   2.392   1.685  12.448 -1.1346  0.3650 -0.0496
  203MPD1    H3 3145   2.417   1.920  12.528  1.4516  1.6777 -1.8126
  203MPD1     N 3146   2.854   1.845  12.614 -0.6328 -0.0263 -0.7279
  203MPD1    H5 3147   2.933   1.782  12.615 -0.4015  0.2517 -2.1601
  203MPD1    N1 3148   2.571   1.508  12.423  0.0300  0.2592 -0.6061
  203MPD1    H6 3149   2.624   1.432  12.465  2.4994  0.5760 -3.1462
  203MPD1    H7 3150   2.475   1.475  12.426 -0.6233  2.1701 -0.7414
  204MPD1     C 3151   2.721   3.429  17.633 -0.7160  0.7686 -0.1927
  204MPD1    C1 3152   2.731   3.439  17.500  0.0294 -0.0096  0.2416
  204MPD1    C2 3153   2.810   3.355  17.428 -0.7915 -0.5354  0.3082
  204MPD1    C3 3154   2.899   3.272  17.487  0.0541 -0.0991 -0.8425
  204MPD1    C4 3155   2.906   3.278  17.622 -0.2594 -0.3287 -0.6268
  204MPD1    C5 3156   2.811   3.346  17.697 -0.1493  0.4685  0.2553
  204MPD1     H 3157   2.810   3.358  17.320  0.5442 -0.0870  0.3090
  204MPD1    H1 3158   2.976   3.217  17.676  0.9457  0.9330 -0.7596
  204MPD1    H2 3159   2.655   3.493  17.691 -0.7413 -0.4065  1.0881
  204MPD1    H3 3160   2.828   3.346   0.050  0.8028  1.6517  0.1022
  204MPD1     N 3161   2.987   3.187  17.414  0.3412 -0.6555  0.0333
  204MPD1    H5 3162   2.990   3.199  17.314 -0.5829  1.2826  0.2432
  204MPD1    N1 3163   2.643   3.536  17.439 -0.2824  0.1481 -0.7625
  204MPD1    H6 3164   2.695   3.579  17.362  0.4686  0.3814 -0.1208
  204MPD1    H7 3165   2.604   3.608  17.499  1.6490 -0.5003  1.2572
  205MPD1     C 3166   4.335   2.323   0.015  0.0487 -0.4171 -0.5055
  205MPD1    C1 3167   4.302   2.201   0.080 -0.2210  0.6128 -0.3524
  205MPD1    C2 3168   4.175   2.160   0.047 -0.0377  0.5440  0.2939
  205MPD1    C3 3169   4.078   2.229  17.724 -0.8657 -0.0570 -0.0606
  205MPD1    C4 3170   4.115   2.354  17.686  0.1631 -0.2537 -0.0958
  205MPD1    C5 3171   4.246   2.395  17.697 -0.8185  0.1364 -0.3049
  205MPD1     H 3172   4.156   2.057   0.076 -0.1670  0.1183 -1.3272
  205MPD1    H1 3173   4.053   2.412  17.619 -0.3561 -0.5563  0.1281
  205MPD1    H2 3174   4.438   2.357   0.012 -0.4369  1.1287  0.9095
  205MPD1    H3 3175   4.263   2.494  17.656 -0.0023 -1.0656 -2.8424
  205MPD1     N 3176   3.942   2.190  17.704  0.5706  0.2303 -0.1297
  205MPD1    H5 3177   3.893   2.269  17.665  0.2803  0.0852 -0.0560
  205MPD1    N1 3178   4.393   2.109   0.138  0.3296  0.3908 -0.1271
  205MPD1    H6 3179   4.460   2.157   0.198  1.2025  0.0956 -0.8752
  205MPD1    H7 3180   4.351   2.035   0.194  0.6782  0.0452 -0.3160
  206MPD1     C 3181   2.847   1.247  17.204 -0.4883 -0.6545 -0.0293
  206MPD1    C1 3182   2.877   1.115  17.218  0.5071  0.2324  0.4199
  206MPD1    C2 3183   2.914   1.048  17.104  0.5503  0.0844  0.4189
  206MPD1    C3 3184   2.912   1.100  16.979 -0.7584 -0.9408  0.6518
  206MPD1    C4 3185   2.865   1.232  16.966  0.8930 -0.5872  0.0900
  206MPD1    C5 3186   2.828   1.298  17.081 -0.2340  0.0166  0.2255
  206MPD1     H 3187   2.943   0.944  17.119 -1.6249 -0.6940 -0.8488
  206MPD1    H1 3188   2.849   1.288  16.874  0.0107  0.4807  0.9003
  206MPD1    H2 3189   2.812   1.311  17.285  3.2118 -1.1562  1.9536
  206MPD1    H3 3190   2.788   1.398  17.067 -0.1204 -0.1396 -1.2512
  206MPD1     N 3191   2.946   1.034  16.860  0.1063 -0.1209  0.3821
  206MPD1    H5 3192   2.936   1.079  16.769  1.3609  2.0837  1.3290
  206MPD1    N1 3193   2.899   1.057  17.343 -0.3534  0.3639 -0.4088
  206MPD1    H6 3194   2.887   0.956  17.337 -0.0653  0.4322 -2.0024
  206MPD1    H7 3195   2.833   1.099  17.408  0.8817 -1.1070  1.8226
  207MPD1     C 3196   0.349   2.378   9.501 -0.2780 -0.3751  0.1353
  207MPD1    C1 3197   0.362   2.498   9.567 -0.5302 -0.5958 -0.5539
  207MPD1    C2 3198   0.480   2.515   9.643  0.9879  0.2793 -0.2437
  207MPD1    C3 3199   0.571   2.404   9.657 -0.2437 -0.0742 -0.1223
  207MPD1    C4 3200   0.552   2.290   9.584 -1.1913  0.5755 -0.6038
  207MPD1    C5 3201   0.441   2.279   9.504 -0.1605  0.6185 -0.4416
  207MPD1     H 3202   0.501   2.606   9.697  1.0525  0.5687 -0.7531
  207MPD1    H1 3203   0.622   2.208   9.596 -2.8312 -0.8159 -0.5184
  207MPD1    H2 3204   0.262   2.361   9.440 -1.7137  0.3309  1.9666
  207MPD1    H3 3205   0.424   2.193   9.441  0.0137 -0.8008  1.4564
  207MPD1     N 3206   0.686   2.402   9.737 -0.7258  0.0594 -0.6051
  207MPD1    H5 3207   0.737   2.314   9.743 -1.0082 -0.1713 -1.5329
  207MPD1    N1 3208   0.270   2.602   9.545 -0.3258  0.0828 -0.3200
  207MPD1    H6 3209   0.295   2.669   9.616  0.9161  0.9206 -1.5556
  207MPD1    H7 3210   0.177   2.560   9.554 -0.8385  1.1837 -0.4279
  208MPD1     C 3211   4.154   1.489   0.947  0.7875  0.6101 -0.2463
  208MPD1    C1 3212   4.159   1.360   0.906 -0.6054  0.0326  0.0179
  208MPD1    C2 3213   4.043   1.313   0.845  0.3649  0.1437  0.3209
  208MPD1    C3 3214   3.920   1.381   0.838 -0.4608 -0.2517  0.2871
  208MPD1    C4 3215   3.925   1.513   0.876  0.4278 -0.4086  0.2513
  208MPD1    C5 3216   4.039   1.567   0.931  0.8541  0.3854  0.3316
  208MPD1     H 3217   4.047   1.206   0.829 -1.4762  0.1037  0.0528
  208MPD1    H1 3218   3.835   1.574   0.881  1.2119  0.9293 -2.1249
  208MPD1    H2 3219   4.241   1.535   0.992 -1.0365  1.7489  2.1643
  208MPD1    H3 3220   4.038   1.669   0.968 -0.5389  0.3101  0.5017
  208MPD1     N 3221   3.808   1.310   0.791 -0.6672 -0.3018 -0.5435
  208MPD1    H5 3222   3.843   1.215   0.780 -2.5878 -1.1863  1.0712
  208MPD1    N1 3223   4.287   1.304   0.891 -0.5246 -0.4421 -0.1841
  208MPD1    H6 3224   4.287   1.202   0.896  0.0970 -0.3638  1.4715
  208MPD1    H7 3225   4.342   1.326   0.974 -1.8586 -0.5127  0.7342
  209MPD1     C 3226   0.617   2.385  11.410 -0.8122 -0.0797  0.2984
  209MPD1    C1 3227   0.515   2.291  11.405 -0.3846  0.2178  0.3437
  209MPD1    C2 3228   0.535   2.194  11.302 -0.0086 -0.4707  0.4952
  209MPD1    C3 3229   0.643   2.199  11.217 -0.6099 -0.8418 -0.4731
  209MPD1    C4 3230   0.736   2.300  11.224  0.5842  0.5985  0.5715
  209MPD1    C5 3231   0.709   2.396  11.323 -0.2756 -0.2036 -0.1882
  209MPD1     H 3232   0.460   2.118  11.282  1.9355 -2.0645 -0.7826
  209MPD1    H1 3233   0.820   2.316  11.157  1.2408 -0.2073  1.2044
  209MPD1    H2 3234   0.617   2.464  11.484 -0.8538 -2.7657  3.1514
  209MPD1    H3 3235   0.781   2.476  11.331 -1.6361  0.6446  3.2843
  209MPD1     N 3236   0.650   2.092  11.120 -0.0316 -0.0488 -0.0364
  209MPD1    H5 3237   0.588   2.012  11.131  1.2689 -1.4099 -2.6735
  209MPD1    N1 3238   0.420   2.278  11.508 -0.3734  0.1332 -0.1814
  209MPD1    H6 3239   0.394   2.368  11.547  0.0032  0.0964  0.1466
  209MPD1    H7 3240   0.335   2.236  11.471 -0.6017  1.4525 -1.1605
  210MPD1     C 3241   0.506   1.274  11.208  0.3687  0.4925  0.2511
  210MPD1    C1 3242   0.586   1.261  11.100 -0.2129 -0.0541  0.1966
  210MPD1    C2 3243   0.617   1.370  11.025 -0.0742 -0.3104 -0.0496
  210MPD1    C3 3244   0.572   1.497  11.069 -0.5028 -0.6554  0.2078
  210MPD1    C4 3245   0.480   1.508  11.171 -0.1683  0.2439 -0.4521
  210MPD1    C5 3246   0.450   1.393  11.241  0.8040 -0.4176  0.0046
  210MPD1     H 3247   0.678   1.352  10.937 -0.4878  1.6539 -0.7351
  210MPD1    H1 3248   0.434   1.600  11.206 -0.0146 -1.0264  3.1055
  210MPD1    H2 3249   0.477   1.183  11.259  0.0206 -0.2743 -1.3138
  210MPD1    H3 3250   0.380   1.406  11.323  0.0237 -0.8803 -0.5847
  210MPD1     N 3251   0.613   1.619  11.009 -0.9503  0.4581 -0.2139
  210MPD1    H5 3252   0.571   1.706  11.039  0.3993  1.2996 -0.7671
  210MPD1    N1 3253   0.602   1.130  11.052 -0.1685 -0.9199  0.3557
  210MPD1    H6 3254   0.597   1.051  11.116  0.4581 -2.5909 -1.6525
  210MPD1    H7 3255   0.678   1.119  10.985 -1.4081 -1.1041 -1.0146
  211MPD1     C 3256   3.809   1.908  15.866 -0.2334  0.7088 -0.2961
  211MPD1    C1 3257   3.677   1.865  15.894  0.2601  0.1182 -0.3103
  211MPD1    C2 3258   3.588   1.963  15.942 -0.0631  0.3107  0.3380
  211MPD1    C3 3259   3.637   2.087  15.977 -0.0183 -0.6693  0.3611
  211MPD1    C4 3260   3.766   2.128  15.948 -0.4166  0.2283 -0.4029
  211MPD1    C5 3261   3.850   2.033  15.904  0.6603  0.4485  0.1351
  211MPD1     H 3262   3.483   1.939  15.956  0.1061  0.1353  1.3013
  211MPD1    H1 3263   3.804   2.228  15.965 -0.6806 -0.0223  1.6558
  211MPD1    H2 3264   3.887   1.840  15.834 -0.3698  0.4924 -0.1668
  211MPD1    H3 3265   3.955   2.062  15.904  0.9030 -0.4487 -0.2862
  211MPD1     N 3266   3.541   2.179  16.030 -0.5505  0.4758  0.0893
  211MPD1    H5 3267   3.458   2.130  16.062 -0.7681  1.1895  0.6182
  211MPD1    N1 3268   3.625   1.742  15.856  0.1160 -1.0160 -0.6552
  211MPD1    H6 3269   3.543   1.714  15.908 -0.2967 -2.0809 -1.8731
  211MPD1    H7 3270   3.698   1.673  15.869  1.6056  1.0570  1.9297
  212MPD1     C 3271   2.695   0.823  16.554  0.6402 -0.0801  0.7150
  212MPD1    C1 3272   2.687   0.834  16.695  0.8935  0.1081  0.0519
  212MPD1    C2 3273   2.668   0.708  16.760 -0.6349  0.1219  0.1598
  212MPD1    C3 3274   2.669   0.583  16.703 -0.3789 -1.0778 -0.0037
  212MPD1    C4 3275   2.675   0.579  16.569  0.2015  0.1686  0.0999
  212MPD1    C5 3276   2.692   0.699  16.499 -0.1489  0.2768 -0.2879
  212MPD1     H 3277   2.650   0.721  16.866  2.4040 -0.9072  0.8120
  212MPD1    H1 3278   2.673   0.487  16.512  0.4538 -0.2853  0.8208
  212MPD1    H2 3279   2.708   0.910  16.491  0.6002 -1.2590 -0.9220
  212MPD1    H3 3280   2.693   0.688  16.392  1.4302  3.2086 -0.5728
  212MPD1     N 3281   2.641   0.462  16.774 -0.1239 -0.1173 -0.0558
  212MPD1    H5 3282   2.609   0.381  16.723  1.1157 -1.1844  0.8295
  212MPD1    N1 3283   2.653   0.958  16.753 -0.0461 -0.8082  0.0392
  212MPD1    H6 3284   2.715   1.033  16.725 -0.0849 -1.1959 -1.0883
  212MPD1    H7 3285   2.650   0.967  16.855 -1.4017 -1.3839  0.0525
  213MPD1     C 3286   0.162   1.513  16.104  0.0721 -0.5984  0.4394
  213MPD1    C1 3287   0.272   1.560  16.048 -0.9956 -0.0772  0.1496
  213MPD1    C2 3288   0.330   1.476  15.951  0.2378 -0.0768  0.1696
  213MPD1    C3 3289   0.250   1.372  15.898 -0.6853  0.4010 -0.9388
  213MPD1    C4 3290   0.123   1.345  15.942  0.1740 -0.0573 -0.1238
  213MPD1    C5 3291   0.082   1.423  16.045  0.1241  0.0393 -0.0995
  213MPD1     H 3292   0.427   1.505  15.914  0.2439  2.8894  2.5377
  213MPD1    H1 3293   0.055   1.269  15.907 -0.8101  1.2828 -1.0787
  213MPD1    H2 3294   0.111   1.578  16.175 -0.6904 -0.8977  0.1684
  213MPD1    H3 3295   4.729   1.393  16.094  0.8415 -1.3324  0.3914
  213MPD1     N 3296   0.305   1.296  15.796  0.0841  0.1819 -0.7549
  213MPD1    H5 3297   0.402   1.312  15.771  0.8539  1.3551  2.9457
  213MPD1    N1 3298   0.362   1.642  16.117  0.1188  0.3173  0.0824
  213MPD1    H6 3299   0.439   1.687  16.067  0.4461 -1.2363 -0.8072
  213MPD1    H7 3300   0.317   1.717  16.169 -0.3609 -0.0102  0.1465
  214MPD1     C 3301   0.079   0.312  15.526 -0.1582  0.6300  0.1851
  214MPD1    C1 3302   0.122   0.388  15.422  0.3729  0.3934 -0.1630
  214MPD1    C2 3303   0.189   0.510  15.441 -0.0578  0.3394  0.2730
  214MPD1    C3 3304   0.181   0.566  15.559 -0.2065 -0.5131  0.1700
  214MPD1    C4 3305   0.128   0.493  15.664  0.6132 -0.2747  0.1459
  214MPD1    C5 3306   0.074   0.369  15.650 -0.4501 -0.9861 -0.3817
  214MPD1     H 3307   0.235   0.561  15.357 -1.4821  0.0927 -0.6481
  214MPD1    H1 3308   0.133   0.534  15.764  0.0506  0.7406 -0.2446
  214MPD1    H2 3309   0.044   0.209  15.521  2.3764 -0.1522 -1.2192
  214MPD1    H3 3310   0.048   0.305  15.734 -1.7192 -1.9308 -1.4863
  214MPD1     N 3311   0.237   0.694  15.587  0.8791 -0.0550 -0.4319
  214MPD1    H5 3312   0.222   0.732  15.680  0.0369 -0.5736 -0.3557
  214MPD1    N1 3313   0.134   0.327  15.296  0.6103  0.4764  0.0972
  214MPD1    H6 3314   0.056   0.264  15.274 -0.0283  0.8405  1.3303
  214MPD1    H7 3315   0.113   0.402  15.230  0.5830  2.0301  1.8563
  215MPD1     C 3316   1.284   1.403  10.590  0.7045  0.2161  0.2525
  215MPD1    C1 3317   1.230   1.436  10.711 -0.1571 -0.0126  0.1130
  215MPD1    C2 3318   1.204   1.571  10.737 -0.1570 -0.9490  0.0463
  215MPD1    C3 3319   1.246   1.673  10.656 -0.0552  0.3933  0.7486
  215MPD1    C4 3320   1.305   1.643  10.538 -0.3243  0.6450 -0.1059
  215MPD1    C5 3321   1.333   1.509  10.513 -0.0549  0.4133 -0.0063
  215MPD1     H 3322   1.155   1.604  10.828 -1.6993 -1.7128 -0.4990
  215MPD1    H1 3323   1.336   1.718  10.465 -0.5601 -0.3039 -1.1780
  215MPD1    H2 3324   1.297   1.296  10.575  0.1836  0.3274 -0.9432
  215MPD1    H3 3325   1.385   1.487  10.421 -2.8913  0.2806 -1.5925
  215MPD1     N 3326   1.231   1.804  10.705  0.2306  0.6232 -0.1550
  215MPD1    H5 3327   1.208   1.807  10.803  1.5605 -1.8657  0.2384
  215MPD1    N1 3328   1.167   1.339  10.791  0.2579 -0.3832  0.2329
  215MPD1    H6 3329   1.174   1.358  10.890 -1.2055 -1.7042  0.5798
  215MPD1    H7 3330   1.198   1.246  10.763  2.3972 -0.2501  2.1608
  216MPD1     C 3331   2.434   4.680  17.537  0.3947  0.3687 -0.3080
  216MPD1    C1 3332   2.422   4.586  17.445  0.2339  0.3989 -0.0206
  216MPD1    C2 3333   2.482   4.460  17.475 -0.4004 -0.5391  0.1876
  216MPD1    C3 3334   2.569   4.446  17.578 -0.5379  0.0565  0.3111
  216MPD1    C4 3335   2.589   4.556  17.657 -0.0038 -0.2529 -0.4643
  216MPD1    C5 3336   2.519   4.670  17.645 -0.3492 -0.2940  0.6871
  216MPD1     H 3337   2.457   4.375  17.412 -0.0381 -0.7384  0.3148
  216MPD1    H1 3338   2.659   4.556  17.739 -0.5636 -1.7843  0.0056
  216MPD1    H2 3339   2.382   0.035  17.521  0.4791  0.9676  2.9698
  216MPD1    H3 3340   2.519   0.008  17.721  0.2239  0.8295 -0.4475
  216MPD1     N 3341   2.645   4.326  17.596 -0.0390 -0.4103 -0.2826
  216MPD1    H5 3342   2.619   4.254  17.530  1.5849 -0.0145 -1.3377
  216MPD1    N1 3343   2.341   4.599  17.331  0.2462 -0.1884  0.0463
  216MPD1    H6 3344   2.364   4.535  17.255 -0.2973 -0.2059 -0.0974
  216MPD1    H7 3345   2.342   4.695  17.297  2.8752 -0.5531 -0.8920
  217MPD1     C 3346   2.696   0.322   9.243  0.4951  0.5069 -0.1751
  217MPD1    C1 3347   2.825   0.334   9.193  0.6320 -0.3215  1.0318
  217MPD1    C2 3348   2.870   0.460   9.159 -0.4502 -0.3028  0.5476
  217MPD1    C3 3349   2.806   0.580   9.191  0.0654  0.1971 -0.1142
  217MPD1    C4 3350   2.682   0.568   9.252 -0.0207 -0.8310  0.3432
  217MPD1    C5 3351   2.634   0.440   9.278  0.0959 -0.0641 -0.0959
  217MPD1     H 3352   2.965   0.470   9.107 -0.5261 -0.0168  0.4642
  217MPD1    H1 3353   2.623   0.654   9.281  3.2666  0.7142  2.3613
  217MPD1    H2 3354   2.641   0.229   9.254 -3.0043  2.6001 -0.3107
  217MPD1    H3 3355   2.532   0.434   9.314  0.4392  0.7083  0.9865
  217MPD1     N 3356   2.853   0.711   9.159  0.2480 -0.7527  0.2200
  217MPD1    H5 3357   2.802   0.794   9.188 -0.2069 -0.8359 -0.3423
  217MPD1    N1 3358   2.894   0.222   9.150 -0.5554  0.2700  0.2366
  217MPD1    H6 3359   2.877   0.135   9.199  1.1852 -0.8859 -1.2069
  217MPD1    H7 3360   2.994   0.239   9.145 -0.7749  1.2743 -0.8155
  218MPD1     C 3361   4.434   2.697  12.927 -0.5495 -0.2961  0.0405
  218MPD1    C1 3362   4.548   2.765  12.903  0.1876  0.6302  0.6435
  218MPD1    C2 3363   4.657   2.704  12.854 -0.5932  0.2493 -0.0180
  218MPD1    C3 3364   4.652   2.576  12.807 -0.2249 -1.1268  0.2526
  218MPD1    C4 3365   4.530   2.514  12.811 -0.2380  0.4547 -0.7891
  218MPD1    C5 3366   4.424   2.566  12.885 -0.2476  0.0618  0.7161
  218MPD1     H 3367   0.017   2.748  12.864 -0.7802  1.2047 -2.2922
  218MPD1    H1 3368   4.508   2.420  12.763 -0.4191 -0.1761  0.5346
  218MPD1    H2 3369   4.351   2.744  12.978 -0.8178  1.6337 -2.1873
  218MPD1    H3 3370   4.323   2.527  12.889 -0.9342  1.6190 -1.3509
  218MPD1     N 3371   0.026   2.511  12.750 -0.3433  0.6186  0.6652
  218MPD1    H5 3372   0.111   2.564  12.736 -0.2633  0.1512 -0.5719
  218MPD1    N1 3373   4.555   2.897  12.951 -0.1122  0.5226  1.0673
  218MPD1    H6 3374   4.472   2.955  12.962 -0.1301  0.7990 -0.5032
  218MPD1    H7 3375   4.626   2.957  12.908  0.3231 -0.1832  0.8005
  219MPD1     C 3376   0.709   2.465  11.997  0.0297 -0.4187 -0.2365
  219MPD1    C1 3377   0.596   2.534  12.023  0.2457  0.2830 -0.2878
  219MPD1    C2 3378   0.527   2.502  12.138 -0.4439 -0.0483 -0.4193
  219MPD1    C3 3379   0.569   2.399  12.224 -0.3263 -0.0603  0.7883
  219MPD1    C4 3380   0.689   2.330  12.190  0.0428  0.4400  0.1842
  219MPD1    C5 3381   0.756   2.368  12.080  0.4831  0.3489  0.4022
  219MPD1     H 3382   0.434   2.553  12.161  0.9811  1.7611  1.3294
  219MPD1    H1 3383   0.728   2.253  12.254 -2.5972  0.1312  1.4172
  219MPD1    H2 3384   0.766   2.489  11.908  0.6812 -2.2855 -0.3320
  219MPD1    H3 3385   0.847   2.315  12.056 -0.6518 -1.4036 -0.0370
  219MPD1     N 3386   0.501   2.367  12.341 -0.0845  0.2723 -0.1858
  219MPD1    H5 3387   0.542   2.290  12.392  0.4953  0.2060 -0.7530
  219MPD1    N1 3388   0.534   2.613  11.923  0.9265 -0.7276 -0.3550
  219MPD1    H6 3389   0.457   2.674  11.948  1.6247 -0.1814  0.4429
  219MPD1    H7 3390   0.598   2.660  11.860 -1.1265  1.8652 -0.5242
  220MPD1     C 3391   0.223   1.662   9.720 -0.6339 -0.0403  0.5528
  220MPD1    C1 3392   0.117   1.691   9.802 -0.0762 -0.0626 -0.6381
  220MPD1    C2 3393   0.138   1.780   9.902 -0.5501  0.7917 -0.2399
  220MPD1    C3 3394   0.239   1.873   9.905 -0.3541  0.6538  0.6764
  220MPD1    C4 3395   0.338   1.854   9.810  0.5837 -0.0889  0.6977
  220MPD1    C5 3396   0.328   1.746   9.726  0.3702 -0.4099  0.1571
  220MPD1     H 3397   0.057   1.786   9.973  0.4451  1.4157  0.8357
  220MPD1    H1 3398   0.432   1.908   9.810  0.9392 -0.7154 -0.5054
  220MPD1    H2 3399   0.215   1.581   9.648 -1.7976  0.0772  0.5444
  220MPD1    H3 3400   0.409   1.719   9.658 -0.3086 -1.3322 -0.2800
  220MPD1     N 3401   0.235   1.976  10.000 -0.4909 -0.3436  0.2438
  220MPD1    H5 3402   0.163   1.983  10.071  0.1695 -0.3814  0.9182
  220MPD1    N1 3403   4.739   1.615   9.789  0.5752 -0.1869 -0.2813
  220MPD1    H6 3404   4.732   1.571   9.697 -1.8459  0.1634 -0.2878
  220MPD1    H7 3405   4.654   1.669   9.803  1.1413  0.6589 -0.1340
  221MPD1     C 3406   2.948   2.058  16.410  0.3423 -0.3861 -0.1140
  221MPD1    C1 3407   2.888   1.940  16.376 -0.3083 -0.2982 -0.4038
  221MPD1    C2 3408   2.961   1.831  16.327  0.3473  0.2016  0.0904
  221MPD1    C3 3409   3.098   1.827  16.348 -0.0116 -0.0678  1.0613
  221MPD1    C4 3410   3.159   1.941  16.398  0.6134 -0.0366 -0.1593
  221MPD1    C5 3411   3.082   2.056  16.422 -0.0692 -0.1163 -0.2111
  221MPD1     H 3412   2.906   1.744  16.293 -0.0695 -0.0300  1.3659
  221MPD1    H1 3413   3.261   1.948  16.434  0.2549 -2.5934  1.3389
  221MPD1    H2 3414   2.895   2.152  16.426  1.3369  0.2371 -0.5035
  221MPD1    H3 3415   3.134   2.143  16.460  0.3319 -0.7126  0.6134
  221MPD1     N 3416   3.182   1.720  16.323  0.2540  0.0954  0.2623
  221MPD1    H5 3417   3.278   1.723  16.354 -0.0994  0.4998  1.3011
  221MPD1    N1 3418   2.759   1.956  16.329  0.9051  0.4385 -0.3567
  221MPD1    H6 3419   2.707   2.025  16.382  0.9582  0.1809  0.0306
  221MPD1    H7 3420   2.704   1.870  16.332  2.1404 -0.3126  1.0144
  222MPD1     C 3421   2.786   0.193  17.219  0.3955 -0.0936 -0.2638
  222MPD1    C1 3422   2.700   0.133  17.314  0.5979 -0.1984 -0.8202
  222MPD1    C2 3423   2.663   0.204  17.434  0.2195 -0.1000  0.3665
  222MPD1    C3 3424   2.708   0.334  17.453 -0.1329  0.0104 -0.5715
  222MPD1    C4 3425   2.784   0.391  17.357  0.1614 -0.2082 -0.3344
  222MPD1    C5 3426   2.825   0.321  17.245 -0.1814 -0.0685 -0.2264
  222MPD1     H 3427   2.606   0.155  17.512 -2.1669  1.4156 -0.4476
  222MPD1    H1 3428   2.807   0.497  17.360  1.3299 -0.5022  1.1095
  222MPD1    H2 3429   2.822   0.139  17.132 -0.3229 -1.9294  0.5822
  222MPD1    H3 3430   2.895   0.375  17.181  3.7179 -2.5786  1.8991
  222MPD1     N 3431   2.667   0.413  17.561 -0.8055  0.2342  0.2460
  222MPD1    H5 3432   2.695   0.510  17.559  0.6763 -0.2289 -1.0767
  222MPD1    N1 3433   2.696   4.736  17.312 -0.2303  0.7704  0.6324
  222MPD1    H6 3434   2.700   4.700  17.217 -0.4711  0.7587  0.6250
  222MPD1    H7 3435   2.604   4.706  17.346 -0.0587  1.2371  1.5160
  223MPD1     C 3436   2.014   0.178   0.538 -0.2436 -0.3413 -0.5217
  223MPD1    C1 3437   2.057   0.125   0.417 -0.4593 -1.1432  0.4571
  223MPD1    C2 3438   2.153   0.196   0.344  0.0697  0.0225 -0.4340
  223MPD1    C3 3439   2.189   0.323   0.367 -0.1210 -0.1599 -0.3212
  223MPD1    C4 3440   2.125   0.385   0.473 -0.4454 -0.0099  0.3092
  223MPD1    C5 3441   2.038   0.311   0.552 -0.1421 -0.5910  0.8268
  223MPD1     H 3442   2.204   0.150   0.260  0.6179  0.2002 -0.1966
  223MPD1    H1 3443   2.139   0.490   0.496 -1.4790 -0.1431  1.5053
  223MPD1    H2 3444   1.952   0.126   0.610 -1.1233  0.7932 -0.4526
  223MPD1    H3 3445   2.001   0.371   0.635  0.7551 -0.1854  0.9312
  223MPD1     N 3446   2.263   0.393   0.268 -0.2800  0.2900 -0.2638
  223MPD1    H5 3447   2.294   0.345   0.185  0.0678  2.2615 -1.2796
  223MPD1    N1 3448   2.034   4.729   0.392 -0.2283  0.1338 -0.4041
  223MPD1    H6 3449   1.942   4.715   0.432  0.3007  0.2956  0.8655
  223MPD1    H7 3450   2.046   4.697   0.296 -1.2193  1.9181 -1.1133
  224MPD1     C 3451   2.803   1.396  10.010 -0.1027  0.3845 -0.2855
  224MPD1    C1 3452   2.776   1.511   9.937  0.0655 -0.6181  0.7170
  224MPD1    C2 3453   2.888   1.594   9.910  0.4263 -0.1632 -0.8950
  224MPD1    C3 3454   3.019   1.558   9.919 -0.0346  0.2659  0.4124
  224MPD1    C4 3455   3.039   1.436   9.978  0.1241 -0.7361  0.2388
  224MPD1    C5 3456   2.935   1.362  10.035 -0.0047  1.0542  0.5052
  224MPD1     H 3457   2.867   1.685   9.855 -1.1533 -0.3020 -0.5309
  224MPD1    H1 3458   3.139   1.396   9.991  1.0932  0.8356 -2.2923
  224MPD1    H2 3459   2.719   1.334  10.037 -0.0499  1.1619  1.6211
  224MPD1    H3 3460   2.955   1.268  10.084 -0.1323 -0.1096 -1.6797
  224MPD1     N 3461   3.131   1.625   9.860  0.1976  0.6082  0.6469
  224MPD1    H5 3462   3.223   1.581   9.867 -0.2945 -0.4208  0.6340
  224MPD1    N1 3463   2.644   1.548   9.908  0.5128  0.5969  0.0268
  224MPD1    H6 3464   2.595   1.460   9.891  1.2376  0.8987 -3.5253
  224MPD1    H7 3465   2.635   1.610   9.828  0.7926  1.2763  0.5216
  225MPD1     C 3466   0.473   2.914  12.579 -0.1204  0.3487  0.1793
  225MPD1    C1 3467   0.431   2.820  12.488 -0.6136 -0.4689 -0.5890
  225MPD1    C2 3468   0.292   2.802  12.478  0.6056 -0.1923 -0.4698
  225MPD1    C3 3469   0.202   2.886  12.551  0.2943  0.3793 -0.0046
  225MPD1    C4 3470   0.251   2.989  12.624  0.6186 -0.6695  0.2451
  225MPD1    C5 3471   0.379   2.999  12.645 -0.0263  0.0959  0.3686
  225MPD1     H 3472   0.248   2.723  12.418 -0.6824 -1.6466  2.3928
  225MPD1    H1 3473   0.190   3.066  12.672  3.2575 -0.5330  3.4056
  225MPD1    H2 3474   0.579   2.916  12.599 -0.4157  0.9850  1.6522
  225MPD1    H3 3475   0.423   3.061  12.722 -0.3526  1.8761 -0.8789
  225MPD1     N 3476   0.062   2.876  12.555  0.0910  0.4860 -0.1709
  225MPD1    H5 3477   0.010   2.950  12.600 -1.2684  0.1164 -1.1274
  225MPD1    N1 3478   0.518   2.722  12.434  0.1837 -0.0628 -0.0683
  225MPD1    H6 3479   0.476   2.680  12.351 -0.8292 -2.1623  1.4915
  225MPD1    H7 3480   0.596   2.769  12.389  0.6695 -0.4112  0.4098
  226MPD1     C 3481   3.665   2.633   9.318 -0.3477  0.2365 -0.1022
  226MPD1    C1 3482   3.628   2.517   9.383 -0.9522 -0.5843  0.4043
  226MPD1    C2 3483   3.665   2.511   9.521  0.1974 -1.0760  0.1222
  226MPD1    C3 3484   3.712   2.615   9.594  0.5892 -0.2972  0.3128
  226MPD1    C4 3485   3.729   2.733   9.526  0.3960 -0.5994 -0.7117
  226MPD1    C5 3486   3.717   2.740   9.390  0.6756  1.0148 -0.0389
  226MPD1     H 3487   3.646   2.418   9.575 -2.1400 -0.0061  1.1586
  226MPD1    H1 3488   3.781   2.821   9.563  1.1750 -1.6178  0.6055
  226MPD1    H2 3489   3.668   2.636   9.210 -1.2695  1.6602 -0.0847
  226MPD1    H3 3490   3.744   2.836   9.348  1.2200  1.0823  0.4722
  226MPD1     N 3491   3.738   2.600   9.732 -0.6157 -0.5239  0.5853
  226MPD1    H5 3492   3.727   2.508   9.772  0.2935 -1.1367 -0.5407
  226MPD1    N1 3493   3.607   2.397   9.305 -0.5481  0.6073 -0.2993
  226MPD1    H6 3494   3.555   2.405   9.218 -0.7844 -1.4001 -0.3498
  226MPD1    H7 3495   3.556   2.325   9.357  0.4403  1.1698  1.4602
  227MPD1     C 3496   4.330   3.179  10.341  0.1125 -0.6051 -0.1447
  227MPD1    C1 3497   4.291   3.181  10.205  0.0804  0.5063 -0.7326
  227MPD1    C2 3498   4.193   3.096  10.159 -0.4250  0.3458 -0.1931
  227MPD1    C3 3499   4.148   2.992  10.245 -0.6447  0.0321 -0.6800
  227MPD1    C4 3500   4.187   2.991  10.375 -0.1726  0.3358 -0.0126
  227MPD1    C5 3501   4.280   3.077  10.423 -0.2822 -0.3633 -0.5593
  227MPD1     H 3502   4.156   3.096  10.057  1.0764  1.8044 -0.7470
  227MPD1    H1 3503   4.150   2.915  10.443 -2.5844 -0.4179 -2.1604
  227MPD1    H2 3504   4.387   3.261  10.383 -0.8443 -0.7028  1.3246
  227MPD1    H3 3505   4.295   3.081  10.530 -1.2083  1.6978 -0.5020
  227MPD1     N 3506   4.044   2.914  10.195  0.3952  0.3048  0.2112
  227MPD1    H5 3507   4.000   2.945  10.109  0.3908  0.7564  0.3784
  227MPD1    N1 3508   4.325   3.292  10.123 -0.0852  0.5240  0.5483
  227MPD1    H6 3509   4.415   3.327  10.157  0.1633 -0.5513  1.0118
  227MPD1    H7 3510   4.348   3.263  10.028  2.3063 -0.4182  1.4119
  228MPD1     C 3511   2.246   0.878  12.914 -0.0865 -0.0539  0.0776
  228MPD1    C1 3512   2.173   0.992  12.903 -0.1063 -0.2299  0.9000
  228MPD1    C2 3513   2.044   1.000  12.938  0.1951 -0.1499  0.7525
  228MPD1    C3 3514   1.976   0.886  12.981 -0.0525  0.2467  0.5877
  228MPD1    C4 3515   2.050   0.772  12.996 -0.3206  0.5707  0.4644
  228MPD1    C5 3516   2.182   0.769  12.962  0.2484  0.5145 -0.0831
  228MPD1     H 3517   1.986   1.090  12.920  1.0820  0.4355  0.8293
  228MPD1    H1 3518   2.011   0.676  13.026  1.2814  0.2267  1.4856
  228MPD1    H2 3519   2.352   0.868  12.893  0.5232  2.3980  1.9520
  228MPD1    H3 3520   2.232   0.673  12.968 -1.8209 -0.5484  0.2451
  228MPD1     N 3521   1.832   0.884  12.998 -0.3375 -0.3995  0.3112
  228MPD1    H5 3522   1.765   0.955  12.973  1.7539  1.5846  0.4005
  228MPD1    N1 3523   2.242   1.107  12.870 -0.0343 -0.4624 -0.5854
  228MPD1    H6 3524   2.317   1.086  12.804 -0.5197 -2.2089 -0.5703
  228MPD1    H7 3525   2.192   1.182  12.823 -1.3251 -0.8917  0.1336
  229MPD1     C 3526   1.410   4.516  14.419  0.0404  0.6947  1.3248
  229MPD1    C1 3527   1.374   4.517  14.553 -0.0871  0.0813 -0.1968
  229MPD1    C2 3528   1.438   4.425  14.639  0.7044  0.1767 -0.0560
  229MPD1    C3 3529   1.552   4.357  14.594 -0.4206 -0.2031 -0.0695
  229MPD1    C4 3530   1.584   4.363  14.464 -0.5327  0.2068  0.2439
  229MPD1    C5 3531   1.515   4.443  14.378  0.3853  0.3943 -0.1406
  229MPD1     H 3532   1.394   4.403  14.736  0.6801  0.6995  0.0548
  229MPD1    H1 3533   1.660   4.310  14.407 -0.2679 -0.9416  1.6566
  229MPD1    H2 3534   1.368   4.579  14.341 -2.5564 -1.5197  0.9048
  229MPD1    H3 3535   1.546   4.456  14.275 -1.4072  0.6429 -0.6510
  229MPD1     N 3536   1.641   4.274  14.661  0.5006 -0.1350 -0.0656
  229MPD1    H5 3537   1.698   4.216  14.600  0.6838 -0.6113  0.5613
  229MPD1    N1 3538   1.250   4.579  14.577 -0.0986 -0.1595 -0.1247
  229MPD1    H6 3539   1.257   4.679  14.557 -1.2266 -0.0593 -0.0210
  229MPD1    H7 3540   1.237   4.585  14.678  1.0020 -0.3644  0.0279
  230MPD1     C 3541   2.232   4.341  15.554  0.1792 -0.0655 -0.3651
  230MPD1    C1 3542   2.292   4.238  15.479 -0.1805 -0.0198 -0.3442
  230MPD1    C2 3543   2.218   4.188  15.373  0.4165 -0.7866  1.0668
  230MPD1    C3 3544   2.089   4.240  15.340  0.6235  0.5288 -0.1292
  230MPD1    C4 3545   2.041   4.340  15.414  0.4063  0.2813  0.5559
  230MPD1    C5 3546   2.107   4.387  15.522 -0.7723  0.1900 -0.0915
  230MPD1     H 3547   2.261   4.110  15.312  2.2047  1.4668 -0.5050
  230MPD1    H1 3548   1.957   4.403  15.388 -0.0068  0.5565  2.5674
  230MPD1    H2 3549   2.291   4.376  15.638 -1.3263  1.4221  0.0643
  230MPD1    H3 3550   2.064   4.469  15.578 -0.1315  0.3375  0.1806
  230MPD1     N 3551   2.034   4.192  15.218 -0.3634  0.6146 -0.3408
  230MPD1    H5 3552   2.089   4.143  15.149  0.3772 -1.1039  1.4530
  230MPD1    N1 3553   2.417   4.177  15.517 -0.0918 -0.3247 -0.0822
  230MPD1    H6 3554   2.467   4.227  15.591  0.6771  0.3273 -1.0466
  230MPD1    H7 3555   2.483   4.180  15.440  0.4921 -0.5590  0.3989
  231MPD1     C 3556   4.552   1.326  15.604  0.4954 -0.4685 -0.7758
  231MPD1    C1 3557   4.542   1.314  15.465  0.1391 -0.3934  0.0701
  231MPD1    C2 3558   4.652   1.357  15.397  0.0283  0.4141 -0.6995
  231MPD1    C3 3559   0.031   1.403  15.456 -0.5214  0.2303 -0.2275
  231MPD1    C4 3560   0.033   1.418  15.586 -0.1581 -0.4500  0.4605
  231MPD1    C5 3561   4.668   1.372  15.666  0.1999  0.3332 -0.0516
  231MPD1     H 3562   4.645   1.326  15.293 -2.8595 -2.0831  0.2611
  231MPD1    H1 3563   0.121   1.458  15.636 -0.9193  3.1112 -1.0584
  231MPD1    H2 3564   4.468   1.292  15.664 -0.2193  0.6002 -1.1917
  231MPD1    H3 3565   4.681   1.387  15.773  1.4495  0.9470 -0.2899
  231MPD1     N 3566   0.138   1.428  15.362  0.1750 -0.4682  0.1000
  231MPD1    H5 3567   0.109   1.422  15.265  0.0528 -1.1057  0.1757
  231MPD1    N1 3568   4.424   1.258  15.399  0.5115 -0.1488  0.2099
  231MPD1    H6 3569   4.350   1.258  15.469  1.4722 -0.2241  1.2265
  231MPD1    H7 3570   4.410   1.307  15.311 -1.9530 -0.4850  0.4402
  232MPD1     C 3571   1.779   4.096   0.563 -0.1609  0.1795 -0.2199
  232MPD1    C1 3572   1.827   4.013   0.461 -0.1311  0.5433 -0.3765
  232MPD1    C2 3573   1.780   4.016   0.336 -0.1589  0.8697 -0.9515
  232MPD1    C3 3574   1.667   4.091   0.315  0.7231  0.3678 -0.5829
  232MPD1    C4 3575   1.613   4.168   0.415  0.4041  0.1753  0.4392
  232MPD1    C5 3576   1.671   4.179   0.537  0.0591  0.5933  0.5389
  232MPD1     H 3577   1.812   3.942   0.263  1.8933  0.8696 -0.0524
  232MPD1    H1 3578   1.520   4.221   0.400 -0.3326 -1.2772 -0.1279
  232MPD1    H2 3579   1.826   4.099   0.660  0.8820 -1.3307 -0.6861
  232MPD1    H3 3580   1.630   4.250   0.608 -1.1571 -1.0094  1.4337
  232MPD1     N 3581   1.614   4.090   0.181 -0.1279  0.1295  0.3256
  232MPD1    H5 3582   1.659   4.023   0.120 -1.5045 -1.0247  0.5803
  232MPD1    N1 3583   1.949   3.945   0.494  0.3949 -0.0907 -0.2045
  232MPD1    H6 3584   1.970   3.863   0.438 -2.0738  0.0298 -1.3378
  232MPD1    H7 3585   1.962   3.911   0.589  0.2117  0.6941  0.1058
  233MPD1     C 3586   3.662   3.609   1.589 -0.3338  0.7873 -1.0779
  233MPD1    C1 3587   3.571   3.590   1.488 -0.5892 -0.0154 -0.4361
  233MPD1    C2 3588   3.531   3.707   1.411 -0.2653 -0.5639 -0.0403
  233MPD1    C3 3589   3.606   3.822   1.419  0.0294  0.4119  0.0190
  233MPD1    C4 3590   3.699   3.827   1.526  0.7240  0.5265 -0.2219
  233MPD1    C5 3591   3.729   3.723   1.604  0.1458  0.2251  0.3392
  233MPD1     H 3592   3.448   3.701   1.341 -1.1788  0.3169  0.9657
  233MPD1    H1 3593   3.739   3.925   1.548 -0.8495  1.3808 -1.2443
  233MPD1    H2 3594   3.668   3.534   1.667 -0.2943  0.1297 -1.7030
  233MPD1    H3 3595   3.800   3.741   1.684  0.8336 -0.3658 -0.1336
  233MPD1     N 3596   3.592   3.933   1.337  0.0757 -0.1539  0.1235
  233MPD1    H5 3597   3.652   4.010   1.365  1.0944 -1.4957  1.6073
  233MPD1    N1 3598   3.496   3.473   1.479 -0.4627 -0.2127  0.1036
  233MPD1    H6 3599   3.553   3.401   1.524 -0.1383  0.0066  0.0408
  233MPD1    H7 3600   3.473   3.455   1.381  0.7364  0.1962 -0.2441
  234MPD1     C 3601   4.663   0.697   9.584 -0.0070 -1.0030  0.0945
  234MPD1    C1 3602   4.632   0.809   9.661  0.6681 -0.2429 -0.6522
  234MPD1    C2 3603   4.548   0.897   9.615 -0.4299 -0.6684 -0.5104
  234MPD1    C3 3604   4.477   0.884   9.497 -0.1871 -0.7317 -0.0505
  234MPD1    C4 3605   4.511   0.782   9.411  0.4394 -0.0866 -0.4010
  234MPD1    C5 3606   4.604   0.690   9.458 -0.0942 -0.0929  0.4782
  234MPD1     H 3607   4.518   0.983   9.673  0.4981  1.3834 -3.0649
  234MPD1    H1 3608   4.464   0.776   9.313 -2.1245  0.8520  0.7692
  234MPD1    H2 3609   0.004   0.633   9.619  1.7548  0.4511 -1.2865
  234MPD1    H3 3610   4.630   0.611   9.388 -0.9813  1.6334 -1.7900
  234MPD1     N 3611   4.376   0.979   9.462  0.4722 -0.4314 -0.8280
  234MPD1    H5 3612   4.358   1.051   9.532  2.5144  1.1231 -1.8890
  234MPD1    N1 3613   4.706   0.839   9.777  0.3778 -0.5411 -0.1015
  234MPD1    H6 3614   4.667   0.904   9.845  3.1181 -0.2508  1.1892
  234MPD1    H7 3615   4.728   0.754   9.827 -0.4583 -0.5236  0.3030
  235MPD1     C 3616   0.484   2.872  10.119 -0.2759  0.5575  0.5339
  235MPD1    C1 3617   0.571   2.832  10.025  0.0617 -1.1115 -0.2669
  235MPD1    C2 3618   0.708   2.865  10.038  0.2589  0.1112 -1.0477
  235MPD1    C3 3619   0.760   2.923  10.152 -0.0522  0.7936  0.1790
  235MPD1    C4 3620   0.674   2.933  10.254 -0.6818 -0.6187  0.3220
  235MPD1    C5 3621   0.540   2.908  10.237  0.0880  0.1682 -0.2929
  235MPD1     H 3622   0.767   2.829   9.955  0.0452 -0.2684 -1.0331
  235MPD1    H1 3623   0.706   2.973  10.349 -3.3921  0.4144  0.8040
  235MPD1    H2 3624   0.377   2.871  10.105 -0.4135  3.0337  1.4567
  235MPD1    H3 3625   0.471   2.928  10.319 -1.6327 -6.1780 -0.1114
  235MPD1     N 3626   0.898   2.948  10.164 -0.3668 -0.4532 -0.0375
  235MPD1    H5 3627   0.941   2.936  10.073  0.9177  1.7874  0.2797
  235MPD1    N1 3628   0.530   2.777   9.901 -0.7804  0.0216 -0.0758
  235MPD1    H6 3629   0.457   2.716   9.935 -0.9452  0.2662  0.0107
  235MPD1    H7 3630   0.603   2.728   9.849 -0.2655  0.1310  0.5522
  236MPD1     C 3631   0.922   3.271   9.771 -0.4187 -0.2496 -0.9575
  236MPD1    C1 3632   0.794   3.233   9.774  0.0949 -0.2464 -0.6729
  236MPD1    C2 3633   0.723   3.249   9.894 -0.2346 -0.9664 -0.0681
  236MPD1    C3 3634   0.777   3.295  10.009  0.2003 -0.9938  0.0096
  236MPD1    C4 3635   0.913   3.311  10.004 -0.9413 -0.5237  0.1246
  236MPD1    C5 3636   0.980   3.306   9.884  0.1760 -0.2682 -0.8739
  236MPD1     H 3637   0.616   3.228   9.897 -0.8170  2.1595  1.3958
  236MPD1    H1 3638   0.981   3.347  10.080 -1.0670  1.0224 -0.4882
  236MPD1    H2 3639   0.985   3.287   9.684  0.9784  0.7234  0.2222
  236MPD1    H3 3640   1.085   3.332   9.882  0.2419 -0.5138 -0.6437
  236MPD1     N 3641   0.702   3.319  10.131  0.3106  0.2006  0.2695
  236MPD1    H5 3642   0.739   3.364  10.214 -1.8510 -1.0914  1.9278
  236MPD1    N1 3643   0.726   3.199   9.655  0.1791 -0.1804  0.0036
  236MPD1    H6 3644   0.637   3.150   9.662 -0.4921  1.4279  3.0834
  236MPD1    H7 3645   0.784   3.149   9.589  0.9090 -2.0033  2.0397
  237MPD1     C 3646   0.742   2.758  15.450  0.5782  0.3440  0.0801
  237MPD1    C1 3647   0.720   2.622  15.461 -0.3105 -0.5015 -0.2646
  237MPD1    C2 3648   0.601   2.566  15.415 -0.5399  0.1359 -0.3567
  237MPD1    C3 3649   0.496   2.650  15.376 -0.5706  0.1323 -0.3906
  237MPD1    C4 3650   0.513   2.786  15.373 -0.4408  0.1885 -0.2138
  237MPD1    C5 3651   0.634   2.840  15.417  0.4539  0.0331 -0.3148
  237MPD1     H 3652   0.589   2.459  15.409  0.9704 -0.1581  1.8087
  237MPD1    H1 3653   0.442   2.858  15.333 -1.6008 -0.5144  0.5660
  237MPD1    H2 3654   0.836   2.804  15.476  0.5244  1.2080 -1.2043
  237MPD1    H3 3655   0.656   2.946  15.418  0.1538  0.0713  2.8126
  237MPD1     N 3656   0.382   2.585  15.318  0.2950  0.3707 -0.4147
  237MPD1    H5 3657   0.391   2.485  15.332 -0.7385  0.2512 -0.6752
  237MPD1    N1 3658   0.832   2.541  15.495 -0.4563  0.0982 -0.0931
  237MPD1    H6 3659   0.805   2.455  15.543  0.3659  0.0509  0.2838
  237MPD1    H7 3660   0.899   2.585  15.558 -0.0981 -2.0294  1.0310
  238MPD1     C 3661   2.314   1.607  14.792 -0.7662  0.2106  0.5100
  238MPD1    C1 3662   2.312   1.469  14.814 -0.0422 -0.2847  0.8135
  238MPD1    C2 3663   2.184   1.405  14.808  0.1397  0.2356  0.4804
  238MPD1    C3 3664   2.078   1.465  14.737 -0.3926 -0.1175  0.0926
  238MPD1    C4 3665   2.089   1.590  14.706  0.0904  0.1731 -0.8963
  238MPD1    C5 3666   2.202   1.664  14.735  0.0546 -0.1738  0.2155
  238MPD1     H 3667   2.181   1.301  14.838  2.1169 -0.6381 -2.2771
  238MPD1    H1 3668   2.014   1.649  14.655  0.2644 -0.0026 -1.3572
  238MPD1    H2 3669   2.401   1.671  14.798 -0.6739  0.2823 -1.4785
  238MPD1    H3 3670   2.203   1.769  14.708  0.8779 -0.3595 -0.4823
  238MPD1     N 3671   1.957   1.391  14.708 -0.0515  0.6184 -0.1080
  238MPD1    H5 3672   1.889   1.448  14.659 -1.5055 -0.6761  0.4303
  238MPD1    N1 3673   2.410   1.406  14.891 -0.8405 -0.0785  0.3717
  238MPD1    H6 3674   2.505   1.434  14.867 -0.8449 -2.5860 -2.5348
  238MPD1    H7 3675   2.411   1.305  14.895 -1.0416 -0.1334 -0.9391
  239MPD1     C 3676   1.966   1.978  15.592  0.1293  0.1474  0.3408
  239MPD1    C1 3677   2.000   1.916  15.474  0.6252 -0.2745  0.0967
  239MPD1    C2 3678   2.012   1.986  15.354  0.2685 -0.9138  0.2864
  239MPD1    C3 3679   1.993   2.115  15.345  0.5440 -0.6505 -0.0853
  239MPD1    C4 3680   1.966   2.180  15.464 -0.0985 -0.4589  0.3288
  239MPD1    C5 3681   1.950   2.117  15.583  0.1082 -0.2351  0.1961
  239MPD1     H 3682   2.027   1.924  15.266  1.9048 -3.2340  2.1841
  239MPD1    H1 3683   1.959   2.287  15.449 -2.2978 -0.9182 -1.9162
  239MPD1    H2 3684   1.935   1.926  15.682 -2.6960 -1.8866 -1.8020
  239MPD1    H3 3685   1.891   2.159  15.664  1.2940  1.1169  0.3622
  239MPD1     N 3686   2.005   2.189  15.225 -0.3033  0.2242  0.0837
  239MPD1    H5 3687   1.979   2.287  15.229 -1.0667 -0.0073  0.7142
  239MPD1    N1 3688   2.007   1.777  15.476  0.0357 -0.0567 -0.6029
  239MPD1    H6 3689   2.046   1.764  15.569 -0.6913 -0.2038 -0.3176
  239MPD1    H7 3690   2.083   1.743  15.416 -0.0596 -0.3499 -0.5587
  240MPD1     C 3691   1.071   2.150  14.364  0.2020  0.3067 -0.6927
  240MPD1    C1 3692   0.986   2.074  14.441  0.1856 -0.2230 -0.2788
  240MPD1    C2 3693   1.032   1.983  14.534 -0.2350 -0.2099  0.1009
  240MPD1    C3 3694   1.170   1.954  14.537  0.5477 -0.8490 -0.3319
  240MPD1    C4 3695   1.252   2.033  14.461  0.4601 -0.7869  0.2615
  240MPD1    C5 3696   1.203   2.118  14.366 -0.2943  0.2991 -0.0206
  240MPD1     H 3697   0.966   1.922  14.594 -1.9192  0.6731 -0.8696
  240MPD1    H1 3698   1.360   2.033  14.470  0.4347 -0.5372  0.5656
  240MPD1    H2 3699   1.048   2.227  14.291 -2.4866  1.1493  1.0440
  240MPD1    H3 3700   1.267   2.173  14.298  0.4276 -0.8779 -0.2808
  240MPD1     N 3701   1.213   1.837  14.607 -0.2745 -0.5266  0.4174
  240MPD1    H5 3702   1.138   1.779  14.641  2.1370 -2.9314  1.5894
  240MPD1    N1 3703   0.847   2.110  14.440 -0.1919  0.5238 -0.1832
  240MPD1    H6 3704   0.779   2.038  14.461 -1.7005  1.7624 -0.8497
  240MPD1    H7 3705   0.832   2.144  14.346  1.1736 -1.2128 -1.0193
  241MPD1     C 3706   1.636   1.161  15.274 -0.8481  0.3122  0.2007
  241MPD1    C1 3707   1.722   1.236  15.201  0.2339  0.2493  0.1158
  241MPD1    C2 3708   1.669   1.299  15.094  0.2543  0.1598 -0.5305
  241MPD1    C3 3709   1.534   1.301  15.066  0.2870 -0.5440 -0.3126
  241MPD1    C4 3710   1.445   1.227  15.147  0.4285 -0.3322  0.2978
  241MPD1    C5 3711   1.494   1.159  15.252 -0.0214  0.1379 -0.3461
  241MPD1     H 3712   1.736   1.347  15.025  0.1358  1.6199  0.3636
  241MPD1    H1 3713   1.339   1.221  15.127  0.5228  0.7306 -0.5346
  241MPD1    H2 3714   1.673   1.108  15.361  0.2814 -0.9098 -1.0096
  241MPD1    H3 3715   1.436   1.087  15.308  0.1575  0.7302  0.5943
  241MPD1     N 3716   1.479   1.371  14.952  0.4785 -0.1464 -0.1417
  241MPD1    H5 3717   1.382   1.345  14.941  0.3532  0.0543  0.4660
  241MPD1    N1 3718   1.864   1.216  15.211 -0.0081 -0.2956 -0.5762
  241MPD1    H6 3719   1.890   1.196  15.307  0.8549 -0.8938 -0.9339
  241MPD1    H7 3720   1.909   1.301  15.176 -1.1768  0.2821 -0.6799
  242MPD1     C 3721   1.043   4.519  15.794 -0.1229  0.8184 -0.2303
  242MPD1    C1 3722   1.112   4.639  15.789 -0.1318 -0.2510 -0.0367
  242MPD1    C2 3723   1.116   4.713  15.671  0.1818  0.3311 -0.3521
  242MPD1    C3 3724   1.086   4.645  15.550 -0.2545 -0.0283  0.8079
  242MPD1    C4 3725   1.038   4.516  15.550 -0.6791  0.1188 -0.4122
  242MPD1    C5 3726   1.002   4.465  15.672  0.8404 -0.5370  0.3212
  242MPD1     H 3727   1.139   0.080  15.677  2.2842 -0.1435 -0.1123
  242MPD1    H1 3728   1.020   4.458  15.461 -1.2866  2.6655 -1.9330
  242MPD1    H2 3729   1.022   4.458  15.881  0.1341 -0.0227 -0.7648
  242MPD1    H3 3730   0.968   4.363  15.686  1.4873 -0.5932  1.4270
  242MPD1     N 3731   1.109   4.695  15.417  0.1760  0.0897 -0.6767
  242MPD1    H5 3732   1.087   4.623  15.347  0.6534 -0.9311  0.2268
  242MPD1    N1 3733   1.135   4.703  15.913 -1.2356  0.5144  0.1156
  242MPD1    H6 3734   1.154   4.644  15.993  2.9798  0.5599 -0.8639
  242MPD1    H7 3735   1.208   0.036  15.912  0.1565 -0.9052  1.0180
  243MPD1     C 3736   2.046   3.665  17.529  0.1555  0.0157 -0.2705
  243MPD1    C1 3737   2.169   3.663  17.590 -0.9003  0.0587 -0.8538
  243MPD1    C2 3738   2.276   3.603  17.524  0.3459  0.5333 -0.1360
  243MPD1    C3 3739   2.264   3.551  17.393 -0.6145 -0.1481  0.5480
  243MPD1    C4 3740   2.142   3.560  17.332 -0.3270  0.0275 -0.1858
  243MPD1    C5 3741   2.036   3.614  17.403  0.0533 -0.0571 -0.1107
  243MPD1     H 3742   2.374   3.601  17.569  0.4790  0.7556 -0.4224
  243MPD1    H1 3743   2.120   3.520  17.234  0.9602 -0.4765 -0.2595
  243MPD1    H2 3744   1.954   3.694  17.580 -1.6677 -2.3771 -2.2151
  243MPD1    H3 3745   1.941   3.608  17.352  1.0713  0.4453 -2.0947
  243MPD1     N 3746   2.374   3.487  17.326  0.0661  0.0236 -0.0917
  243MPD1    H5 3747   2.458   3.467  17.380  1.0419 -1.0108 -2.0103
  243MPD1    N1 3748   2.186   3.723  17.718 -0.0536 -0.0734  0.5559
  243MPD1    H6 3749   2.255   3.684   0.028  0.4205 -0.9078 -0.4711
  243MPD1    H7 3750   2.101   3.740   0.018  1.3049  1.3905  2.2422
  244MPD1     C 3751   2.886   2.603  17.106  0.3807  0.3438  1.4845
  244MPD1    C1 3752   2.924   2.692  17.008  0.7546  0.4504 -0.0061
  244MPD1    C2 3753   2.880   2.821  17.023 -0.2037  0.0677  0.1649
  244MPD1    C3 3754   2.811   2.875  17.130  0.2284  0.4266  0.8952
  244MPD1    C4 3755   2.777   2.781  17.224 -0.0224 -0.0023  0.0027
  244MPD1    C5 3756   2.810   2.651  17.213 -0.2789  0.2777 -0.9411
  244MPD1     H 3757   2.912   2.892  16.947 -0.3349  0.2028  0.2363
  244MPD1    H1 3758   2.715   2.816  17.307  2.2279  1.8568  0.9019
  244MPD1    H2 3759   2.911   2.498  17.104  2.1855  0.8755 -2.5651
  244MPD1    H3 3760   2.786   2.569  17.280 -1.4949  1.1571 -0.2826
  244MPD1     N 3761   2.776   3.007  17.125  0.2477 -0.2023 -0.6589
  244MPD1    H5 3762   2.799   3.055  17.038  0.3278 -1.0731 -1.1244
  244MPD1    N1 3763   3.030   2.660  16.922 -0.0512 -0.7184  0.2965
  244MPD1    H6 3764   3.025   2.569  16.876 -0.2746  1.2197 -3.4663
  244MPD1    H7 3765   3.059   2.734  16.859 -0.6493 -0.1576  0.6797
  245MPD1     C 3766   4.493   3.428  13.364  1.0378 -1.0698 -0.2268
  245MPD1    C1 3767   4.619   3.441  13.410 -0.3043 -0.7863  0.7594
  245MPD1    C2 3768   4.643   3.549  13.494  0.2699  0.3233 -0.1318
  245MPD1    C3 3769   4.535   3.630  13.542 -0.2712 -0.4403  0.6779
  245MPD1    C4 3770   4.407   3.602  13.503 -0.4685 -0.5905  0.3032
  245MPD1    C5 3771   4.385   3.504  13.413 -0.2039  0.1237  0.0635
  245MPD1     H 3772   0.007   3.577  13.511  1.3503 -1.9748 -3.0211
  245MPD1    H1 3773   4.325   3.657  13.547  3.0287  2.4041  3.0750
  245MPD1    H2 3774   4.474   3.343  13.299  0.3810 -1.2102  0.1551
  245MPD1    H3 3775   4.286   3.481  13.375  1.3130 -1.8837 -2.6253
  245MPD1     N 3776   4.568   3.741  13.627 -0.5917 -0.8639  0.2472
  245MPD1    H5 3777   4.667   3.741  13.646 -0.5233 -1.7520 -0.1587
  245MPD1    N1 3778   4.722   3.378  13.344 -0.1844 -0.8189  0.0549
  245MPD1    H6 3779   0.067   3.369  13.400 -0.7307 -1.5352  0.7421
  245MPD1    H7 3780   4.690   3.290  13.305 -2.9837  0.1211  0.2035
  246MPD1     C 3781   0.213   1.195  10.410  0.2535 -0.0696 -0.0945
  246MPD1    C1 3782   0.342   1.202  10.366  0.0278 -0.0978 -0.0930
  246MPD1    C2 3783   0.403   1.090  10.329 -0.1302  0.2752 -0.5004
  246MPD1    C3 3784   0.347   0.964  10.362 -0.1203 -0.2313 -0.6920
  246MPD1    C4 3785   0.225   0.960  10.420  0.4584 -0.7136 -0.1302
  246MPD1    C5 3786   0.152   1.075  10.437 -0.2313  0.8063  0.2393
  246MPD1     H 3787   0.495   1.104  10.274  0.6500  1.0273  1.0064
  246MPD1    H1 3788   0.176   0.864  10.425 -0.0840 -0.1917  4.3260
  246MPD1    H2 3789   0.151   1.284  10.405  1.0322  0.6140  2.1386
  246MPD1    H3 3790   0.044   1.077  10.446 -0.0877 -2.3892  2.4768
  246MPD1     N 3791   0.418   0.842  10.338  0.4355  0.1927  0.2733
  246MPD1    H5 3792   0.513   0.854  10.306  0.4588 -2.2439 -0.5989
  246MPD1    N1 3793   0.396   1.326  10.325  0.0205 -0.0111 -0.0756
  246MPD1    H6 3794   0.354   1.409  10.366 -0.8792 -1.0681  1.1327
  246MPD1    H7 3795   0.497   1.329  10.340  0.4940 -0.9869 -3.0870
  247MPD1     C 3796   4.293   0.895  16.002 -0.0079 -0.2799 -0.3670
  247MPD1    C1 3797   4.358   0.800  15.935 -0.2760 -0.7182  0.3077
  247MPD1    C2 3798   4.318   0.662  15.962 -1.0514  0.2159 -0.8273
  247MPD1    C3 3799   4.220   0.634  16.055 -0.4377 -0.4292  0.0618
  247MPD1    C4 3800   4.166   0.739  16.129 -0.3922  0.0804  0.0722
  247MPD1    C5 3801   4.205   0.865  16.100  0.2278  0.1286 -0.5787
  247MPD1     H 3802   4.373   0.584  15.911 -0.7915  0.2924 -0.6668
  247MPD1    H1 3803   4.105   0.726  16.218  0.2334 -1.9439  0.2093
  247MPD1    H2 3804   4.310   1.001  15.986 -3.1644  0.3207  0.2436
  247MPD1    H3 3805   4.156   0.938  16.163 -1.1661 -0.4646 -0.9652
  247MPD1     N 3806   4.170   0.505  16.082  0.1577  0.2689  0.2707
  247MPD1    H5 3807   4.087   0.501  16.141 -0.4938 -0.6154 -0.7085
  247MPD1    N1 3808   4.435   0.837  15.822  0.0614 -0.4622 -0.3908
  247MPD1    H6 3809   4.508   0.771  15.794  0.8203 -0.4483  1.5747
  247MPD1    H7 3810   4.476   0.930  15.811 -3.4593  0.8953 -2.2271
  248MPD1     C 3811   0.460   3.188   0.268  0.7946  0.3285 -0.1876
  248MPD1    C1 3812   0.406   3.313   0.244  0.2032 -0.4936 -0.0339
  248MPD1    C2 3813   0.382   3.394   0.352 -0.2281 -0.6053 -0.0338
  248MPD1    C3 3814   0.418   3.347   0.479 -0.7248  0.1822 -0.0455
  248MPD1    C4 3815   0.473   3.226   0.506  0.1404 -0.6074  0.4143
  248MPD1    C5 3816   0.491   3.152   0.394 -0.2377 -0.5794 -0.6129
  248MPD1     H 3817   0.340   3.493   0.341 -1.6613 -1.0391  1.5691
  248MPD1    H1 3818   0.498   3.179   0.601 -1.6578 -2.2392  0.0843
  248MPD1    H2 3819   0.502   3.122   0.193 -0.4241  1.0444 -1.5023
  248MPD1    H3 3820   0.529   3.050   0.401  2.5070  0.5777  1.3702
  248MPD1     N 3821   0.387   3.443   0.577  0.8099  0.0643  0.7502
  248MPD1    H5 3822   0.364   3.538   0.552  3.7804  0.2154 -1.3602
  248MPD1    N1 3823   0.417   3.370   0.115 -0.3478  0.0569 -0.2664
  248MPD1    H6 3824   0.355   3.450   0.108  0.6795  0.7791 -0.9412
  248MPD1    H7 3825   0.404   3.312   0.032  3.5892  0.2559 -1.0319
  249MPD1     C 3826   0.906   2.152   9.594  0.3609  0.4969 -0.2739
  249MPD1    C1 3827   0.986   2.096   9.683  0.3579 -0.3422 -0.4516
  249MPD1    C2 3828   1.106   2.157   9.730 -0.9134  0.0843 -0.7435
  249MPD1    C3 3829   1.135   2.288   9.681  0.4397  0.0861 -0.1170
  249MPD1    C4 3830   1.048   2.343   9.583  0.4374  0.0290 -0.3090
  249MPD1    C5 3831   0.934   2.275   9.543  0.2579  0.1520  0.4175
  249MPD1     H 3832   1.176   2.115   9.801 -1.0229 -3.4166 -2.7148
  249MPD1    H1 3833   1.067   2.441   9.540  1.1033 -1.4493 -3.3551
  249MPD1    H2 3834   0.824   2.098   9.549  0.8570 -0.3968 -0.1073
  249MPD1    H3 3835   0.875   2.320   9.464 -0.9036 -1.9005  0.1066
  249MPD1     N 3836   1.255   2.349   9.728  0.6176  0.0416 -0.3724
  249MPD1    H5 3837   1.308   2.290   9.791  0.2083  0.3406  0.2529
  249MPD1    N1 3838   0.970   1.964   9.727  0.0995 -0.2649  0.2626
  249MPD1    H6 3839   1.035   1.934   9.800 -1.1212 -0.6731  1.1737
  249MPD1    H7 3840   0.875   1.942   9.755 -0.2475  0.7289 -0.1212
  250MPD2     C 3841   3.101   2.304  13.366  0.4920 -0.5187  0.0851
  250MPD2    C1 3842   2.994   2.373  13.328 -0.0274 -0.1025  0.6072
  250MPD2    C2 3843   2.888   2.311  13.260 -0.1277 -0.3450  0.5527
  250MPD2    C3 3844   2.899   2.176  13.220 -0.3300  0.2595  0.4386
  250MPD2    C4 3845   3.010   2.109  13.269 -0.3883  0.5146  0.1302
  250MPD2    C5 3846   3.110   2.169  13.346  0.1730  0.9711 -0.0954
  250MPD2     H 3847   2.805   2.369  13.222 -0.9740 -1.0408  1.3606
  250MPD2    H1 3848   3.029   2.005  13.241 -1.4109  0.4061 -0.1614
  250MPD2    H2 3849   3.185   2.354  13.413  0.7719  0.8855 -1.9413
  250MPD2    H3 3850   3.200   2.113  13.367  0.2914  1.2737  0.2099
  250MPD2     N 3851   2.797   2.115  13.141 -0.8525 -0.2854 -0.0296
  250MPD2    H5 3852   2.808   2.015  13.140 -0.6480 -0.2854  2.0783
  250MPD2    N1 3853   2.992   2.511  13.346 -0.4996  0.3115  0.0915
  250MPD2    H7 3854   3.081   2.544  13.381 -0.5485 -1.3012  1.7360
  251TMC3    C1 3855   2.925   2.737  13.314  0.1551 -0.4291  0.2194
  251TMC3    C2 3856   2.828   2.825  13.278  0.3751  0.2629 -0.0748
  251TMC3    C3 3857   2.862   2.947  13.227  0.1432 -0.5409  0.1242
  251TMC3    C4 3858   3.057   2.772  13.294 -0.5409 -0.2804  0.4541
  251TMC3    C5 3859   3.085   2.894  13.239 -0.5013 -0.3976  0.8283
  251TMC3    C6 3860   2.993   2.988  13.205  0.0213 -0.4545 -0.9259
  251TMC3     C 3861   2.888   2.594  13.322  0.2367 -0.0721 -0.6278
  251TMC3     O 3862   2.771   2.564  13.309  0.3487  0.4406  0.0596
  251TMC3     H 3863   2.726   2.788  13.286  0.8287 -0.9520  0.1317
  251TMC3    H1 3864   3.131   2.695  13.313  0.9230  1.4429  1.7714
  251TMC3    H2 3865   3.014   3.090  13.174  0.4333  0.5651  2.7068
  251TMC3    C7 3866   3.224   2.913  13.204 -0.4270  1.0287  0.1655
  251TMC3    C8 3867   2.765   3.054  13.250  0.4440 -0.0016 -0.3490
  251TMC3    O1 3868   3.299   2.826  13.236  0.0230 -0.1628 -0.1301
  251TMC3    O2 3869   2.697   3.049  13.349 -0.4137  0.3441  0.0046
  252TMC3    C1 3870   2.356   4.141   9.784 -0.1234  0.2844 -0.7835
  252TMC3    C2 3871   2.494   4.158   9.770 -0.3455  0.1162  0.1105
  252TMC3    C3 3872   2.568   4.046   9.784 -0.1955  0.1976  0.0062
  252TMC3    C4 3873   2.300   4.017   9.811 -0.1509 -0.6247  0.6902
  252TMC3    C5 3874   2.382   3.910   9.799 -0.1384 -0.3710 -0.2034
  252TMC3    C6 3875   2.521   3.922   9.801 -0.0903  0.3680 -0.6750
  252TMC3     C 3876   2.284   4.265   9.804 -0.0742  0.0843  0.8351
  252TMC3     O 3877   2.348   4.361   9.769 -0.0617 -0.4075 -0.4880
  252TMC3     H 3878   2.540   4.256   9.772  0.3823 -0.2336  0.3013
  252TMC3    H1 3879   2.197   4.004   9.780  0.0677 -1.5178  0.3629
  252TMC3    H2 3880   2.583   3.833   9.802 -2.7043 -1.4349  1.3172
  252TMC3    C7 3881   2.321   3.783   9.762  0.6253 -0.7782  1.3113
  252TMC3    C8 3882   2.715   4.068   9.796  0.2951  0.0725  0.3512
  252TMC3    O1 3883   2.203   3.782   9.729 -0.2113  0.1666  0.1404
  252TMC3    O2 3884   2.748   4.174   9.745 -0.3310 -0.2136 -0.5789
  253MPD2     C 3885   4.326   2.749  15.059  0.5129  0.0665 -0.1618
  253MPD2    C1 3886   4.277   2.876  15.069 -0.2362  0.2656  0.2457
  253MPD2    C2 3887   4.342   2.972  15.145  0.0077  0.3748 -0.9121
  253MPD2    C3 3888   4.457   2.942  15.218  0.2852  0.7142  0.6120
  253MPD2    C4 3889   4.503   2.813  15.204  0.0149 -0.0271  0.4495
  253MPD2    C5 3890   4.445   2.725  15.120  0.2953 -0.3170  0.7697
  253MPD2     H 3891   4.304   3.073  15.138  0.6641  0.7031  0.1789
  253MPD2    H1 3892   4.589   2.790  15.266  0.9267 -0.0131 -0.7901
  253MPD2    H2 3893   4.273   2.665  15.014 -0.5041  1.1161 -0.9298
  253MPD2    H3 3894   4.487   2.625  15.124 -3.2170 -1.8397 -0.4702
  253MPD2     N 3895   4.509   3.032  15.320 -0.9512 -0.3252 -0.5375
  253MPD2    H5 3896   4.587   2.992  15.372 -1.3055  0.5812  0.7004
  253MPD2    N1 3897   4.160   2.898  14.990  0.0810 -0.2150  0.0507
  253MPD2    H7 3898   4.108   2.821  14.950 -0.1842 -0.2918  0.5469
  254TMC3    C1 3899   4.490   3.201  15.489 -0.0940  0.0133  0.0454
  254TMC3    C2 3900   4.382   3.247  15.558  0.3888  0.5617 -0.5249
  254TMC3    C3 3901   4.407   3.278  15.689 -0.3939 -0.1400  0.1143
  254TMC3    C4 3902   4.616   3.174  15.544 -0.0400  1.3431  0.1198
  254TMC3    C5 3903   4.629   3.198  15.679  0.6112  0.2111  0.3225
  254TMC3    C6 3904   4.524   3.244  15.751  0.6187  0.0015 -0.1349
  254TMC3     C 3905   4.450   3.151  15.357  0.2447 -0.0353 -0.1688
  254TMC3     O 3906   4.365   3.219  15.301 -0.3219  0.5316 -0.3360
  254TMC3     H 3907   4.288   3.273  15.510  0.7660 -1.0715 -2.1539
  254TMC3    H1 3908   4.692   3.125  15.484  1.0413  1.3563  1.4799
  254TMC3    H2 3909   4.540   3.270  15.855  0.4201 -2.0520  0.4083
  254TMC3    C7 3910   4.700   3.090  15.743  0.2475  0.0939 -0.5035
  254TMC3    C8 3911   4.296   3.285  15.783  0.3454  0.3425 -0.0527
  254TMC3    O1 3912   0.037   3.028  15.673  0.0207  0.5033 -0.4562
  254TMC3    O2 3913   4.308   3.217  15.884  0.5056  0.0638  0.0563
  255MPD2     C 3914   1.913   0.528  10.839 -0.1902 -0.2267  0.3313
  255MPD2    C1 3915   2.009   0.616  10.794 -0.7305  0.2674  0.6692
  255MPD2    C2 3916   2.148   0.582  10.788 -0.5163  0.0855 -0.1290
  255MPD2    C3 3917   2.188   0.462  10.839 -0.0130  0.2448 -0.3716
  255MPD2    C4 3918   2.093   0.378  10.894 -0.2726 -1.6315 -0.1798
  255MPD2    C5 3919   1.959   0.405  10.882 -0.2018  0.4454 -0.2425
  255MPD2     H 3920   2.225   0.652  10.757 -2.9856  2.2376 -1.3410
  255MPD2    H1 3921   2.120   0.286  10.944  0.5353 -1.5943 -0.5439
  255MPD2    H2 3922   1.810   0.561  10.851 -0.0361  0.2574  0.2895
  255MPD2    H3 3923   1.892   0.324  10.910  0.4081 -0.2734 -0.8520
  255MPD2     N 3924   2.329   0.428  10.833  0.8495 -0.6278 -0.1047
  255MPD2    H5 3925   2.382   0.501  10.786 -2.5045  0.9994 -1.3947
  255MPD2    N1 3926   1.957   0.739  10.749 -0.1126 -0.4624  0.0176
  255MPD2    H7 3927   1.856   0.737  10.759 -0.1096  0.4521  0.1911
  256TMC3    C1 3928   1.928   0.920  10.610 -0.1910 -1.2657  0.1975
  256TMC3    C2 3929   1.969   1.047  10.580 -0.0649 -0.0548 -0.2822
  256TMC3    C3 3930   1.916   1.116  10.473 -0.2476  0.1537  0.1299
  256TMC3    C4 3931   1.840   0.853  10.529  0.0086 -0.3604 -0.3303
  256TMC3    C5 3932   1.786   0.922  10.423  1.1057 -0.2299  0.5614
  256TMC3    C6 3933   1.826   1.052  10.388 -0.3819 -0.2017  0.3413
  256TMC3     C 3934   2.021   0.834  10.677  0.4216  0.3045 -0.1211
  256TMC3     O 3935   2.141   0.855  10.674  0.2720  0.3884  0.1740
  256TMC3     H 3936   2.052   1.090  10.634  0.1144 -0.0340 -0.5741
  256TMC3    H1 3937   1.796   0.760  10.563  1.0184  0.1987  2.5441
  256TMC3    H2 3938   1.776   1.106  10.308 -0.7634 -0.1398  0.6169
  256TMC3    C7 3939   1.717   0.835  10.327 -0.0108 -0.6510 -0.3467
  256TMC3    C8 3940   1.949   1.255  10.465  0.0974  0.2989 -0.0492
  256TMC3    O1 3941   1.733   0.869  10.210 -0.0993 -0.4205  0.1255
  256TMC3    O2 3942   1.982   1.308  10.567 -0.3517  0.0772  0.1967
  257MPD2     C 3943   1.586   2.476  13.696  0.1265 -0.3426 -0.0374
  257MPD2    C1 3944   1.590   2.375  13.603 -0.4018 -0.2412 -0.6441
  257MPD2    C2 3945   1.570   2.243  13.651  0.5368 -0.6404 -0.0028
  257MPD2    C3 3946   1.539   2.217  13.786  0.4409  0.1368  0.0273
  257MPD2    C4 3947   1.522   2.322  13.873 -0.4495 -0.1557 -0.2759
  257MPD2    C5 3948   1.551   2.445  13.828 -0.1503 -0.6135 -0.2243
  257MPD2     H 3949   1.577   2.156  13.588  2.3539 -1.1916  0.9489
  257MPD2    H1 3950   1.487   2.316  13.976 -1.1347 -2.2775 -0.6361
  257MPD2    H2 3951   1.596   2.581  13.671  1.2856 -0.7962 -1.4231
  257MPD2    H3 3952   1.548   2.523  13.903  0.2052  0.1593 -1.0083
  257MPD2     N 3953   1.515   2.080  13.821  0.0561 -0.1702  0.2107
  257MPD2    H5 3954   1.506   2.010  13.747  0.5616  1.3291 -1.2641
  257MPD2    N1 3955   1.629   2.410  13.474 -0.2423 -0.1718  0.6161
  257MPD2    H7 3956   1.633   2.509  13.451  0.0735  0.3474  2.8851
  258TMC3    C1 3957   1.497   1.910  13.965 -0.0473 -0.4690  0.5954
  258TMC3    C2 3958   1.435   1.825  13.876  0.0806  0.1433 -0.4247
  258TMC3    C3 3959   1.488   1.696  13.862 -0.5855 -0.0340 -0.0088
  258TMC3    C4 3960   1.607   1.875  14.042  0.0571  0.3214 -0.2526
  258TMC3    C5 3961   1.657   1.745  14.027  0.6030 -0.4097  0.7089
  258TMC3    C6 3962   1.593   1.653  13.941 -0.1786  0.4152 -0.3786
  258TMC3     C 3963   1.484   2.045  13.946 -0.8659  0.5294 -0.0745
  258TMC3     O 3964   1.492   2.117  14.047  0.3397  0.6011 -1.4311
  258TMC3     H 3965   1.367   1.864  13.801  0.9679  1.0374 -0.7664
  258TMC3    H1 3966   1.649   1.935  14.122 -0.1757  0.6345 -0.3674
  258TMC3    H2 3967   1.638   1.555  13.925 -0.1011  0.5402 -0.9091
  258TMC3    C7 3968   1.761   1.700  14.113 -1.0984  0.6834 -0.9809
  258TMC3    C8 3969   1.422   1.617  13.760  0.3346 -0.4345 -0.4907
  258TMC3    O1 3970   1.773   1.582  14.104  0.2621 -0.7767 -0.2537
  258TMC3    O2 3971   1.321   1.670  13.712  0.6048  0.1401 -0.0984
  259MPD2     C 3972   0.967   3.929   0.773  0.0972  0.1371  0.3874
  259MPD2    C1 3973   1.017   3.847   0.676 -0.8361  0.4476  0.5283
  259MPD2    C2 3974   0.985   3.874   0.546  0.0826  0.0721 -0.0390
  259MPD2    C3 3975   0.887   3.970   0.522 -0.0937  0.4891 -0.6371
  259MPD2    C4 3976   0.827   4.041   0.622  0.6228  0.0409 -0.0070
  259MPD2    C5 3977   0.873   4.017   0.744  0.4500 -0.5907  0.1276
  259MPD2     H 3978   1.029   3.824   0.460 -0.9575 -0.6844 -0.1338
  259MPD2    H1 3979   0.739   4.102   0.608 -1.0720 -1.9357  2.0315
  259MPD2    H2 3980   0.992   3.940   0.878 -0.1740 -2.0199  0.6829
  259MPD2    H3 3981   0.822   4.076   0.818 -0.3414  0.1440 -1.0090
  259MPD2     N 3982   0.849   3.993   0.388 -0.8028  0.0140 -0.8005
  259MPD2    H5 3983   0.880   3.917   0.329 -4.6393  0.2201 -3.0634
  259MPD2    N1 3984   1.098   3.744   0.726 -0.0859  0.1170  0.3865
  259MPD2    H7 3985   1.100   3.728   0.826 -0.5545 -0.3112  0.3269
  260TMC3    C1 3986   0.741   4.083   0.193 -0.2236 -0.1469  0.0564
  260TMC3    C2 3987   0.685   4.189   0.126  0.3468  0.0440 -0.7614
  260TMC3    C3 3988   0.690   4.184  17.743 -0.3701 -0.3485 -0.1504
  260TMC3    C4 3989   0.793   3.973   0.125  0.9816 -0.1172 -0.2905
  260TMC3    C5 3990   0.786   3.978  17.742 -0.2566 -0.3295  0.0915
  260TMC3    C6 3991   0.747   4.088  17.671 -0.2385 -0.4212  0.5425
  260TMC3     C 3992   0.764   4.089   0.342 -0.2259 -0.1883  0.8140
  260TMC3     O 3993   0.696   4.174   0.404 -0.4202 -0.3691  0.4237
  260TMC3     H 3994   0.650   4.277   0.178  2.3959  1.1116 -1.1764
  260TMC3    H1 3995   0.814   3.878   0.175  1.3485 -0.9494 -2.0334
  260TMC3    H2 3996   0.727   4.075  17.565 -0.7857  1.6348  0.3834
  260TMC3    C7 3997   0.802   3.851  17.664  0.0344 -0.4984 -0.3912
  260TMC3    C8 3998   0.732   4.309  17.687  0.0152  0.2600  1.1623
  260TMC3    O1 3999   0.842   3.858  17.550 -0.3873  0.2260 -0.3816
  260TMC3    O2 4000   0.676   4.407  17.735 -0.3351  0.3271  0.2048
  261MPD2     C 4001   2.080   2.199  12.796  0.4377  0.0878  0.2498
  261MPD2    C1 4002   2.193   2.223  12.721  0.6463 -0.0933  0.4883
  261MPD2    C2 4003   2.200   2.338  12.636 -0.2950 -0.1038  0.7909
  261MPD2    C3 4004   2.093   2.424  12.612 -0.0551 -0.1027 -0.9660
  261MPD2    C4 4005   1.986   2.404  12.698 -0.4904 -0.0865 -0.2954
  261MPD2    C5 4006   1.986   2.297  12.795  0.4496 -0.2272 -0.4978
  261MPD2     H 4007   2.293   2.353  12.584  0.6861  0.4125  2.6878
  261MPD2    H1 4008   1.904   2.474  12.696  1.7686  2.6124  2.4551
  261MPD2    H2 4009   2.076   2.126  12.876  1.6225 -0.1470  0.0956
  261MPD2    H3 4010   1.903   2.292  12.865  0.5385 -0.9415 -0.4385
  261MPD2     N 4011   2.102   2.519  12.508 -0.2247  0.1109 -0.4427
  261MPD2    H5 4012   2.178   2.520  12.441 -0.8850 -1.8255 -1.2339
  261MPD2    N1 4013   2.307   2.140  12.737  0.4199 -0.3048 -0.7849
  261MPD2    H7 4014   2.402   2.166  12.714  0.9297 -2.3050 -0.8811
  262TMC3    C1 4015   2.014   2.675  12.355 -0.6546 -0.1378  0.0634
  262TMC3    C2 4016   1.948   2.792  12.349  0.1811  0.4730  0.0433
  262TMC3    C3 4017   1.946   2.854  12.224 -0.1306 -0.5772  0.9689
  262TMC3    C4 4018   2.081   2.613  12.255 -0.2077 -0.4506 -0.3345
  262TMC3    C5 4019   2.079   2.676  12.133  0.0935 -0.0898  0.3481
  262TMC3    C6 4020   2.009   2.794  12.114  0.3163 -0.2513 -0.0367
  262TMC3     C 4021   1.998   2.607  12.482 -0.6230  0.0803  0.1947
  262TMC3     O 4022   1.890   2.619  12.538 -0.6183  0.3464 -0.0570
  262TMC3     H 4023   1.904   2.844  12.434  0.5909 -0.7327  0.9810
  262TMC3    H1 4024   2.123   2.513  12.250  2.2812  0.4896  1.8311
  262TMC3    H2 4025   1.988   2.840  12.018 -1.5308 -0.2577  0.3525
  262TMC3    C7 4026   2.136   2.608  12.021 -0.3492 -0.3648  0.0995
  262TMC3    C8 4027   1.935   2.995  12.208  0.1521  0.4935  0.3720
  262TMC3    O1 4028   2.135   2.485  12.021 -0.3441 -0.1633  0.5019
  262TMC3    O2 4029   2.009   3.039  12.121  0.0810  0.2093 -0.1981
  263MPD2     C 4030   3.199   1.546  11.466 -0.3033 -1.3839 -0.6130
  263MPD2    C1 4031   3.258   1.671  11.481  0.2293  0.0073 -0.1084
  263MPD2    C2 4032   3.211   1.771  11.390  0.2993  0.1634 -0.5822
  263MPD2    C3 4033   3.128   1.732  11.286  0.4917 -0.0820  0.5036
  263MPD2    C4 4034   3.075   1.611  11.271 -0.3025 -0.1864 -0.4292
  263MPD2    C5 4035   3.121   1.519  11.358 -0.1738 -0.5666  0.0586
  263MPD2     H 4036   3.247   1.873  11.395 -1.8074  0.8739  0.3538
  263MPD2    H1 4037   3.002   1.590  11.193  0.5564 -0.3430 -1.2006
  263MPD2    H2 4038   3.225   1.466  11.534  1.9803 -0.2919 -0.2007
  263MPD2    H3 4039   3.077   1.420  11.354 -0.4555 -0.4734  0.7748
  263MPD2     N 4040   3.100   1.843  11.200  0.4842 -0.7960  0.5613
  263MPD2    H5 4041   3.133   1.933  11.234 -1.0044 -0.2306  0.5001
  263MPD2    N1 4042   3.345   1.687  11.595 -0.3259  0.1066 -0.4692
  263MPD2    H7 4043   3.357   1.609  11.659 -0.2478 -0.6906 -1.4547
  264TMC3    C1 4044   3.058   1.962  11.005 -0.1620 -0.5047  0.2074
  264TMC3    C2 4045   3.001   2.066  11.078  0.0816  0.3406  0.2267
  264TMC3    C3 4046   2.985   2.184  11.014  0.7968  0.1441  0.1052
  264TMC3    C4 4047   3.104   1.979  10.878 -0.1883  0.5196  0.0451
  264TMC3    C5 4048   3.101   2.102  10.824  0.2236  0.5298 -0.4917
  264TMC3    C6 4049   3.035   2.203  10.889  0.1225  0.3993  0.1631
  264TMC3     C 4050   3.064   1.835  11.068 -0.5135 -0.4819  0.4472
  264TMC3     O 4051   3.022   1.731  11.014 -0.7826 -0.5219  0.0794
  264TMC3     H 4052   2.961   2.048  11.177  1.3248 -0.9930  0.4922
  264TMC3    H1 4053   3.145   1.890  10.831 -3.5016  0.0720 -2.0123
  264TMC3    H2 4054   3.010   2.287  10.826 -0.6761 -0.8297 -1.1461
  264TMC3    C7 4055   3.228   2.144  10.765  0.0400  0.0237 -0.0564
  264TMC3    C8 4056   2.993   2.314  11.081  0.9681  0.5139 -0.1315
  264TMC3    O1 4057   3.310   2.062  10.722 -0.5298  0.0817 -0.3119
  264TMC3    O2 4058   3.057   2.395  11.014  0.4730 -0.1339  0.2781
  265MPD2     C 4059   0.313   2.343  15.632  0.2175  0.4484  0.4124
  265MPD2    C1 4060   0.432   2.398  15.677  0.0739 -0.1833 -1.0822
  265MPD2    C2 4061   0.548   2.330  15.648  0.4254 -0.5540 -0.4581
  265MPD2    C3 4062   0.552   2.222  15.562 -0.2648 -0.0454 -0.2706
  265MPD2    C4 4063   0.434   2.174  15.510  0.8920  0.5480  0.4730
  265MPD2    C5 4064   0.316   2.225  15.555 -0.1182 -0.5459  1.2594
  265MPD2     H 4065   0.637   2.373  15.693  0.3253  1.0970 -1.8149
  265MPD2    H1 4066   0.419   2.091  15.442  0.0142  0.2975  0.9727
  265MPD2    H2 4067   0.223   2.399  15.652 -0.0152  0.4587 -0.6760
  265MPD2    H3 4068   0.226   2.189  15.507 -0.2244  0.8325  0.4489
  265MPD2     N 4069   0.674   2.155  15.519  0.4123 -1.1043  0.6765
  265MPD2    H5 4070   0.665   2.077  15.455  0.1777 -0.9971  0.5760
  265MPD2    N1 4071   0.443   2.518  15.754  0.1075  0.5127 -0.6003
  265MPD2    H7 4072   0.534   2.536  15.794  0.3735 -1.6693 -0.1821
  266TMC3    C1 4073   0.384   2.748  15.797  0.4073  0.3017 -0.6012
  266TMC3    C2 4074   0.489   2.766  15.881 -0.8984  0.0832 -0.0818
  266TMC3    C3 4075   0.549   2.891  15.876 -0.0936 -0.2076 -0.0989
  266TMC3    C4 4076   0.328   2.853  15.727  0.2503 -0.5184 -0.5747
  266TMC3    C5 4077   0.396   2.963  15.718  0.0430  0.6185 -0.0247
  266TMC3    C6 4078   0.514   2.983  15.785 -0.0680  0.0634  0.3490
  266TMC3     C 4079   0.348   2.615  15.751 -0.8111  0.0382  0.6654
  266TMC3     O 4080   0.234   2.618  15.710 -0.3206 -0.0731 -0.3862
  266TMC3     H 4081   0.524   2.683  15.941 -1.5768 -0.6815 -0.7489
  266TMC3    H1 4082   0.239   2.844  15.666 -0.9130  2.1151  0.7412
  266TMC3    H2 4083   0.588   3.060  15.765  0.7765 -1.4976 -2.5185
  266TMC3    C7 4084   0.351   3.066  15.619 -0.0510 -0.4790 -0.1121
  266TMC3    C8 4085   0.666   2.918  15.964 -0.5191  0.1287 -0.0475
  266TMC3    O1 4086   0.296   3.014  15.521 -0.0486  0.2229  0.0801
  266TMC3    O2 4087   0.738   2.823  15.985  0.7181  0.3663 -0.1405
  267MPD2     C 4088   3.510   3.832   0.287  0.3854  0.0932 -0.1177
  267MPD2    C1 4089   3.414   3.908   0.356 -0.3916 -0.5243 -0.1498
  267MPD2    C2 4090   3.290   3.921   0.296  0.0812 -0.0287  0.5547
  267MPD2    C3 4091   3.275   3.878   0.165  0.5158 -0.2430  0.3441
  267MPD2    C4 4092   3.365   3.791   0.108 -0.0903  0.3228  0.7530
  267MPD2    C5 4093   3.481   3.772   0.168 -0.1746 -0.3085  0.5092
  267MPD2     H 4094   3.219   3.988   0.343 -0.1327  0.1055  0.0405
  267MPD2    H1 4095   3.342   3.755   0.009  0.0652  1.6125  0.2591
  267MPD2    H2 4096   3.604   3.822   0.340 -1.1183  0.5676  2.6666
  267MPD2    H3 4097   3.554   3.699   0.134  0.9700  0.5185  1.1704
  267MPD2     N 4098   3.154   3.900   0.089 -0.4413  0.2339 -0.0573
  267MPD2    H5 4099   3.167   3.877  17.744 -0.2033 -1.7493  0.4485
  267MPD2    N1 4100   3.466   3.969   0.478 -0.0842 -0.3598  0.6636
  267MPD2    H7 4101   3.565   3.958   0.495 -0.3367 -3.2279  0.2984
  268TMC3    C1 4102   3.484   4.151   0.625  0.3815 -0.1158  0.5107
  268TMC3    C2 4103   3.505   4.273   0.576  0.3099  0.3366  0.2643
  268TMC3    C3 4104   3.606   4.348   0.625 -0.3762 -0.4445 -0.0226
  268TMC3    C4 4105   3.562   4.087   0.723  0.2397 -0.5483 -0.0774
  268TMC3    C5 4106   3.656   4.167   0.772  0.0769  0.2612 -0.8963
  268TMC3    C6 4107   3.684   4.296   0.725 -0.5029  0.4813  0.0215
  268TMC3     C 4108   3.398   4.074   0.542  0.0253  0.4947  0.1038
  268TMC3     O 4109   3.285   4.120   0.514  0.3900 -0.2227  0.1414
  268TMC3     H 4110   3.442   4.303   0.493  2.0656  1.2242 -0.7481
  268TMC3    H1 4111   3.541   3.986   0.756  0.4316 -0.0570  1.5354
  268TMC3    H2 4112   3.748   4.364   0.780  1.7079  0.7593 -2.8951
  268TMC3    C7 4113   3.728   4.115   0.881 -0.0173 -0.3806  0.0198
  268TMC3    C8 4114   3.639   4.471   0.558  0.4042  0.3028 -0.5004
  268TMC3    O1 4115   3.730   3.996   0.889  0.0151  0.4666  0.3521
  268TMC3    O2 4116   3.735   4.531   0.595  0.6674 -0.9146 -0.0903
  269MPD2     C 4117   3.541   3.216  15.627  0.7460  0.4130  0.2422
  269MPD2    C1 4118   3.418   3.259  15.655  0.8000 -0.4356 -0.0382
  269MPD2    C2 4119   3.400   3.398  15.674  0.2347  0.0552 -0.3844
  269MPD2    C3 4120   3.492   3.495  15.669  0.4350  0.3762  0.1847
  269MPD2    C4 4121   3.616   3.449  15.621 -1.2424  0.2210  0.3165
  269MPD2    C5 4122   3.636   3.314  15.596 -0.3123 -0.8720 -0.0371
  269MPD2     H 4123   3.295   3.416  15.695 -0.0249 -1.7769 -0.0846
  269MPD2    H1 4124   3.695   3.519  15.600 -1.5449  0.2563 -0.6783
  269MPD2    H2 4125   3.571   3.115  15.602  0.6173  0.3728  0.2536
  269MPD2    H3 4126   3.730   3.275  15.558  1.1678  1.4075  1.3018
  269MPD2     N 4127   3.465   3.629  15.697  0.2450  0.0690  0.3385
  269MPD2    H5 4128   3.370   3.652  15.724  0.6210 -0.4596  2.1027
  269MPD2    N1 4129   3.323   3.158  15.671  0.2402 -0.0674 -0.0700
  269MPD2    H7 4130   3.367   3.066  15.671 -0.5675 -0.4532 -0.4340
  270TMC3    C1 4131   3.111   3.053  15.702 -0.0900  0.3692  0.4325
  270TMC3    C2 4132   2.979   3.053  15.659  0.7183 -0.3512  0.4474
  270TMC3    C3 4133   2.909   2.939  15.683  0.6479 -0.1478 -0.2463
  270TMC3    C4 4134   3.176   2.940  15.748  0.2628 -0.1646 -0.1406
  270TMC3    C5 4135   3.100   2.827  15.764 -0.9410 -0.0262 -0.2230
  270TMC3    C6 4136   2.969   2.823  15.723 -0.5140 -0.5980  0.1698
  270TMC3     C 4137   3.185   3.178  15.693 -0.3183  1.0625  0.3138
  270TMC3     O 4138   3.123   3.280  15.691 -0.6087  0.1015 -0.0284
  270TMC3     H 4139   2.943   3.147  15.620 -3.1953 -2.1169 -0.1748
  270TMC3    H1 4140   3.275   2.940  15.791  0.1358  2.2992  0.1583
  270TMC3    H2 4141   2.908   2.734  15.723  0.1524 -1.0478 -0.8674
  270TMC3    C7 4142   3.183   2.708  15.745 -0.1640 -0.3640  0.1657
  270TMC3    C8 4143   2.803   2.909  15.586  0.3283 -0.1609  0.2694
  270TMC3    O1 4144   3.293   2.729  15.690  0.2484  0.1985  0.5660
  270TMC3    O2 4145   2.701   2.850  15.620 -0.5203  0.4165 -0.3450
  271MPD2     C 4146   2.517   2.459  13.800  0.0935 -0.1196  0.3296
  271MPD2    C1 4147   2.465   2.548  13.891  0.6299 -1.5445  0.5218
  271MPD2    C2 4148   2.359   2.629  13.863  0.1530 -0.1346 -0.6391
  271MPD2    C3 4149   2.277   2.593  13.758 -0.3017  0.5778 -0.2774
  271MPD2    C4 4150   2.332   2.502  13.666 -0.7926 -0.1821  0.2054
  271MPD2    C5 4151   2.445   2.433  13.688 -0.4973 -0.6679  0.6459
  271MPD2     H 4152   2.324   2.696  13.940  0.7435 -1.9974  1.2686
  271MPD2    H1 4153   2.275   2.460  13.585 -2.6168  1.7704  0.4814
  271MPD2    H2 4154   2.617   2.418  13.806  0.2700  0.6230  2.4853
  271MPD2    H3 4155   2.475   2.366  13.609 -0.4559  0.0124  0.0885
  271MPD2     N 4156   2.151   2.654  13.742  0.1666 -0.2767 -0.0366
  271MPD2    H5 4157   2.084   2.605  13.683 -0.2215 -1.5242  1.4444
  271MPD2    N1 4158   2.540   2.572  14.007 -0.2377  0.4437  0.3847
  271MPD2    H7 4159   2.528   2.656  14.063 -2.4476  1.9016 -2.2995
  272TMC3    C1 4160   2.696   2.538  14.189 -0.3790 -0.1914 -1.2326
  272TMC3    C2 4161   2.823   2.500  14.213 -0.8402 -0.5440 -0.4820
  272TMC3    C3 4162   2.864   2.514  14.344  0.2274 -0.0384  0.1777
  272TMC3    C4 4163   2.615   2.595  14.281 -0.3964  0.4584  0.5226
  272TMC3    C5 4164   2.664   2.616  14.402 -0.2530  0.7426 -0.3141
  272TMC3    C6 4165   2.787   2.570  14.445  0.0974 -0.5343  0.2250
  272TMC3     C 4166   2.644   2.495  14.056 -0.4810 -0.2049 -0.7107
  272TMC3     O 4167   2.686   2.387  14.018 -0.4190 -0.1022  0.1672
  272TMC3     H 4168   2.889   2.476  14.131  0.6727  1.0361  0.2946
  272TMC3    H1 4169   2.514   2.630  14.263 -0.8568 -0.5081  1.2152
  272TMC3    H2 4170   2.816   2.569  14.550  0.2189 -1.0123  0.1821
  272TMC3    C7 4171   2.565   2.668  14.495  0.9879  0.2428  0.3676
  272TMC3    C8 4172   2.984   2.439  14.367  0.2058  0.5654  0.1816
  272TMC3    O1 4173   2.450   2.635  14.469 -0.3474  0.2949 -0.0457
  272TMC3    O2 4174   3.050   2.405  14.268  0.3278 -0.4068 -0.4446
  273MPD2     C 4175   3.541   0.895  12.020 -0.0233 -0.3613  0.4424
  273MPD2    C1 4176   3.667   0.937  11.980  0.1478  0.8076 -0.1621
  273MPD2    C2 4177   3.676   0.978  11.850 -0.6237  0.1912 -0.4549
  273MPD2    C3 4178   3.586   0.966  11.749  0.0655  0.1373 -0.2565
  273MPD2    C4 4179   3.462   0.918  11.791 -0.0348 -1.0980 -0.3707
  273MPD2    C5 4180   3.443   0.884  11.924  0.8581 -0.3702  0.2890
  273MPD2     H 4181   3.778   1.008  11.829  0.0430 -1.1949  0.7719
  273MPD2    H1 4182   3.372   0.910  11.730 -0.8465 -0.2228  0.7148
  273MPD2    H2 4183   3.518   0.875  12.124  0.5231  2.3270  1.0784
  273MPD2    H3 4184   3.348   0.848  11.960 -0.6044  1.3640 -1.7984
  273MPD2     N 4185   3.615   0.981  11.612 -0.2195 -0.2761  0.5289
  273MPD2    H5 4186   3.538   0.959  11.550 -1.4814  0.0462  1.9797
  273MPD2    N1 4187   3.768   0.950  12.078 -0.0002  0.5916 -0.6319
  273MPD2    H7 4188   3.742   0.944  12.176 -0.3391  0.0261 -0.7601
  274TMC3    C1 4189   3.745   1.043  11.422  0.2218 -0.8505  0.1480
  274TMC3    C2 4190   3.639   1.035  11.337 -0.0618  1.1233 -0.0247
  274TMC3    C3 4191   3.669   1.067  11.207  0.6952  0.2291 -0.3070
  274TMC3    C4 4192   3.876   1.080  11.380 -0.3530 -0.2344 -0.1824
  274TMC3    C5 4193   3.897   1.124  11.251 -0.1391  0.0548 -0.0671
  274TMC3    C6 4194   3.791   1.118  11.165 -1.0430 -0.5540 -0.3410
  274TMC3     C 4195   3.737   1.030  11.569  0.3127  0.2349 -0.0190
  274TMC3     O 4196   3.822   1.084  11.637  0.6467  0.0617 -0.0710
  274TMC3     H 4197   3.535   1.012  11.357 -0.0451 -0.6201 -2.0856
  274TMC3    H1 4198   3.966   1.075  11.441 -0.0369  1.7683 -0.4705
  274TMC3    H2 4199   3.772   1.188  11.085  2.1428  0.7493  0.0509
  274TMC3    C7 4200   3.969   1.249  11.243  0.7866  0.3946 -0.2797
  274TMC3    C8 4201   3.561   1.047  11.113  0.2274 -0.4577 -0.3489
  274TMC3    O1 4202   3.982   1.297  11.130 -0.6899 -0.7115 -0.1706
  274TMC3    O2 4203   3.449   1.015  11.155  0.3337  0.3667  0.0029
  275MPD2     C 4204   3.860   3.643  14.280 -0.1473 -0.3189 -0.5167
  275MPD2    C1 4205   3.777   3.742  14.338 -0.2772 -0.2600  0.9836
  275MPD2    C2 4206   3.643   3.747  14.299 -0.4137  0.2807  0.6596
  275MPD2    C3 4207   3.589   3.665  14.201  0.2894 -0.6106 -0.4968
  275MPD2    C4 4208   3.676   3.570  14.152 -0.3096 -0.6359  0.2323
  275MPD2    C5 4209   3.808   3.549  14.198  0.4592  1.0044 -0.2591
  275MPD2     H 4210   3.578   3.822  14.342 -0.5362 -0.0712  1.0858
  275MPD2    H1 4211   3.638   3.491  14.087  2.0009 -2.2556  0.8595
  275MPD2    H2 4212   3.960   3.619  14.315 -0.0188  0.3581 -0.4158
  275MPD2    H3 4213   3.856   3.458  14.162  1.0204  0.8814  0.8287
  275MPD2     N 4214   3.452   3.666  14.163  0.7032 -0.1252 -0.7352
  275MPD2    H5 4215   3.421   3.597  14.095  0.3954  0.5193 -1.2448
  275MPD2    N1 4216   3.813   3.842  14.435  0.3074 -0.5206  0.2498
  275MPD2    H7 4217   3.738   3.905  14.463  0.3871 -0.8362  1.1612
  276TMC3    C1 4218   3.927   3.955  14.606 -0.1467  0.2391  0.2784
  276TMC3    C2 4219   3.812   3.985  14.676  0.0602  0.0046  0.0997
  276TMC3    C3 4220   3.819   4.060  14.796  0.2663  0.8038 -0.2877
  276TMC3    C4 4221   4.042   3.972  14.676  0.3457  0.0586  0.2631
  276TMC3    C5 4222   4.047   4.048  14.792  0.2015  0.7566 -0.8050
  276TMC3    C6 4223   3.938   4.101  14.850  0.1860  0.3561 -0.0573
  276TMC3     C 4224   3.932   3.854  14.502 -0.2761 -0.2694  0.5439
  276TMC3     O 4225   4.034   3.788  14.481 -0.0928 -0.0961  0.3100
  276TMC3     H 4226   3.711   3.978  14.639 -0.8595 -0.3581  2.6590
  276TMC3    H1 4227   4.133   3.935  14.630  1.2144  0.3844  1.7387
  276TMC3    H2 4228   3.947   4.174  14.930 -0.3734 -0.0820  0.4023
  276TMC3    C7 4229   4.172   4.057  14.868  0.5790 -0.2173 -0.1385
  276TMC3    C8 4230   3.753   4.003  14.906  0.0995  1.0175 -0.1511
  276TMC3    O1 4231   4.192   4.155  14.933 -0.1897  0.1607 -0.2026
  276TMC3    O2 4232   3.740   4.074  15.003 -0.2554  0.2830  0.2883
  277MPD2     C 4233   1.134   2.416  13.393 -0.3231  0.3231  0.0375
  277MPD2    C1 4234   0.995   2.403  13.416  0.1153 -0.1442  0.0993
  277MPD2    C2 4235   0.956   2.323  13.523  0.0074 -0.2030 -0.1232
  277MPD2    C3 4236   1.053   2.256  13.600 -0.2097 -0.7977  0.0306
  277MPD2    C4 4237   1.186   2.266  13.571 -0.3575  0.3584 -0.0554
  277MPD2    C5 4238   1.225   2.350  13.469  0.7587  0.3868 -0.2602
  277MPD2     H 4239   0.853   2.297  13.539  0.6682 -3.0681 -0.4705
  277MPD2    H1 4240   1.261   2.209  13.625  0.3573  3.3611  2.1136
  277MPD2    H2 4241   1.173   2.486  13.320 -2.3499  0.5052 -0.8733
  277MPD2    H3 4242   1.329   2.366  13.443  0.9845  1.7353  1.4859
  277MPD2     N 4243   1.010   2.169  13.702 -0.2271 -0.2040  0.3320
  277MPD2    H5 4244   0.913   2.188  13.724 -0.8852 -0.9720 -1.9769
  277MPD2    N1 4245   0.899   2.473  13.333  0.4761  0.2055  0.5268
  277MPD2    H7 4246   0.929   2.534  13.257 -2.8364  2.6462  1.1617
  278TMC3    C1 4247   1.008   2.034  13.886  0.5910  0.3412 -0.1230
  278TMC3    C2 4248   1.026   1.904  13.913  0.1999  0.3940 -0.2042
  278TMC3    C3 4249   0.946   1.849  14.011  0.6591  0.2380 -0.7428
  278TMC3    C4 4250   0.921   2.121  13.951 -0.0319 -0.7108 -0.2189
  278TMC3    C5 4251   0.844   2.057  14.045 -0.1467 -0.3689  0.3068
  278TMC3    C6 4252   0.864   1.930  14.083 -0.6783  0.2731 -0.1179
  278TMC3     C 4253   1.088   2.087  13.780 -1.0386 -0.1857  0.2044
  278TMC3     O 4254   1.208   2.049  13.761  0.6240 -0.1101  0.7522
  278TMC3     H 4255   1.090   1.836  13.858 -1.4910  0.0505 -1.7305
  278TMC3    H1 4256   0.932   2.228  13.937  2.0601 -0.6778  1.7106
  278TMC3    H2 4257   0.805   1.891  14.165 -1.4719 -0.0846 -0.8660
  278TMC3    C7 4258   0.763   2.138  14.131 -0.4571  0.3251 -0.1562
  278TMC3    C8 4259   0.956   1.712  14.055  0.6142  0.1619  0.6011
  278TMC3    O1 4260   0.816   2.241  14.163 -0.0170 -0.1237  0.4200
  278TMC3    O2 4261   1.067   1.663  14.034 -0.2541 -0.2454  0.4387
  279MPD2     C 4262   0.163   2.101   0.127  0.8183 -0.9412  0.5194
  279MPD2    C1 4263   0.097   2.212   0.078 -0.0226  0.1028  0.0379
  279MPD2    C2 4264   0.132   2.260  17.707  0.9980 -0.1948  0.5562
  279MPD2    C3 4265   0.227   2.200  17.631  0.3223 -0.6313  0.8233
  279MPD2    C4 4266   0.288   2.086  17.676  0.1665 -0.2735  0.8342
  279MPD2    C5 4267   0.259   2.040   0.046  0.0518  0.2592  0.3553
  279MPD2     H 4268   0.089   2.354  17.674  0.6784 -0.3064  0.6485
  279MPD2    H1 4269   0.368   2.036  17.623 -0.4604 -2.3294  1.8488
  279MPD2    H2 4270   0.142   2.058   0.224 -0.5207  0.9754  1.0772
  279MPD2    H3 4271   0.317   1.956   0.083 -0.1753  1.2793  3.0586
  279MPD2     N 4272   0.276   2.251  17.513  0.9041 -0.2888 -0.4684
  279MPD2    H5 4273   0.353   2.202  17.470  0.2973  0.9760 -2.9862
  279MPD2    N1 4274   0.009   2.274   0.160  0.1600  0.2239 -0.4911
  279MPD2    H7 4275   4.731   2.227   0.249  1.3850  1.7111  0.5232
  280TMC3    C1 4276   4.642   2.456   0.267 -0.2267  1.0173  0.5709
  280TMC3    C2 4277   4.509   2.447   0.297 -0.0536 -0.2256  0.2199
  280TMC3    C3 4278   4.442   2.558   0.347 -0.1676 -0.0255  0.3117
  280TMC3    C4 4279   4.701   2.575   0.285 -0.2933  0.1013  0.4058
  280TMC3    C5 4280   4.640   2.686   0.337  0.3657 -0.0490 -0.0701
  280TMC3    C6 4281   4.510   2.682   0.358  0.1415 -0.1542  0.4102
  280TMC3     C 4282   4.681   2.390   0.142 -0.1705 -0.7447  0.3392
  280TMC3     O 4283   4.666   2.460   0.042 -0.8031 -0.5915  0.0470
  280TMC3     H 4284   4.458   2.353   0.282  1.5532 -0.7676 -1.6599
  280TMC3    H1 4285   0.062   2.597   0.248 -1.0571  2.2206 -0.4254
  280TMC3    H2 4286   4.461   2.769   0.402  1.6399 -0.0480  1.8579
  280TMC3    C7 4287   4.703   2.812   0.329  0.4536  0.1686  0.3496
  280TMC3    C8 4288   4.317   2.543   0.413 -0.8063  0.1724  0.3616
  280TMC3    O1 4289   0.083   2.823   0.337  0.6814 -0.0686 -0.7209
  280TMC3    O2 4290   4.317   2.608   0.517 -1.1045 -0.2413 -0.2988
  281TMC3    C1 4291   3.549   2.848  13.481  0.1289  0.4409  0.4003
  281TMC3    C2 4292   3.612   2.917  13.378  0.4918  0.4413 -0.1277
  281TMC3    C3 4293   3.681   2.856  13.281  0.0855  0.4627  0.0313
  281TMC3    C4 4294   3.575   2.721  13.491 -0.1408 -0.5697  0.7060
  281TMC3    C5 4295   3.651   2.659  13.397  0.7285 -0.1762  0.1743
  281TMC3    C6 4296   3.688   2.719  13.284  0.5649 -0.1703  0.0881
  281TMC3     C 4297   3.443   2.902  13.563 -0.1297  0.5330  0.0582
  281TMC3     O 4298   3.403   2.821  13.647 -0.6134  0.2085  0.0606
  281TMC3     H 4299   3.602   3.025  13.375 -1.0750  0.2676 -1.2640
  281TMC3    H1 4300   3.547   2.662  13.578  0.9756 -1.9297  0.1405
  281TMC3    H2 4301   3.728   2.659  13.202 -1.1856  0.1149 -0.9749
  281TMC3    C7 4302   3.649   2.509  13.392  0.5194  0.3790  0.1547
  281TMC3    C8 4303   3.773   2.919  13.192 -0.2568 -0.3238 -0.0074
  281TMC3    O1 4304   3.632   2.452  13.284  0.4286 -0.5257  0.1595
  281TMC3    O2 4305   3.873   2.858  13.174 -0.4126  0.2817  0.0001
  282MPD2     C 4306   0.638   3.947  14.855  0.3610 -0.7571 -0.3369
  282MPD2    C1 4307   0.531   4.009  14.908  0.6632  0.6639  0.3819
  282MPD2    C2 4308   0.408   4.008  14.843  0.0974 -0.0015 -0.7340
  282MPD2    C3 4309   0.395   3.938  14.722 -0.3238 -1.0029 -0.3258
  282MPD2    C4 4310   0.499   3.858  14.673  0.1696  0.1053  0.1089
  282MPD2    C5 4311   0.617   3.864  14.745  0.1361 -0.1063 -0.0754
  282MPD2     H 4312   0.323   4.065  14.877 -0.3918 -0.6566 -0.8672
  282MPD2    H1 4313   0.500   3.835  14.567  1.0029  0.6216 -0.0013
  282MPD2    H2 4314   0.733   3.951  14.905  1.6632 -0.8535 -2.8024
  282MPD2    H3 4315   0.702   3.824  14.690  1.1698  1.4851  0.3917
  282MPD2     N 4316   0.279   3.967  14.655 -0.3191  0.3364  0.6402
  282MPD2    H5 4317   0.213   4.034  14.693 -0.6339 -0.0186  0.7197
  282MPD2    N1 4318   0.532   4.080  15.032  0.0868  0.2242  0.3956
  282MPD2    H7 4319   0.452   4.115  15.084  0.1875  2.1158 -0.7476
  283TMC3    C1 4320   0.611   4.185  15.224 -0.6649  0.4645 -1.0028
  283TMC3    C2 4321   0.679   4.294  15.249 -0.7409 -0.3580  0.4310
  283TMC3    C3 4322   0.643   4.354  15.365  0.3750  0.5240 -0.3197
  283TMC3    C4 4323   0.520   4.127  15.308 -0.3997 -0.1327  0.1410
  283TMC3    C5 4324   0.476   4.196  15.416  0.0734 -0.4255  0.8296
  283TMC3    C6 4325   0.539   4.316  15.444 -0.5241 -0.6612  0.4827
  283TMC3     C 4326   0.648   4.111  15.105 -0.4878 -0.1046 -0.0764
  283TMC3     O 4327   0.766   4.119  15.066  0.2994  0.1357 -0.5037
  283TMC3     H 4328   0.754   4.333  15.181 -0.9504 -1.2460 -0.3064
  283TMC3    H1 4329   0.470   4.034  15.284 -1.3205  0.1680  0.8913
  283TMC3    H2 4330   0.506   4.368  15.532  1.1817  1.8301 -0.3607
  283TMC3    C7 4331   0.411   4.130  15.529  0.3041  0.2175 -0.2069
  283TMC3    C8 4332   0.680   4.496  15.378  0.4853 -0.3037  0.9016
  283TMC3    O1 4333   0.424   4.194  15.635 -0.1820  0.7306  0.2574
  283TMC3    O2 4334   0.718   4.559  15.277 -0.0986 -0.3191 -0.1542
  284MPD2     C 4335   2.801   3.375  11.898  0.3383  0.0744  0.0656
  284MPD2    C1 4336   2.903   3.311  11.958 -0.2376  0.5046 -0.1667
  284MPD2    C2 4337   2.876   3.194  12.025  0.4513  0.3557 -0.3486
  284MPD2    C3 4338   2.752   3.140  12.032  0.5791  0.3663  0.0017
  284MPD2    C4 4339   2.649   3.207  11.966  0.4195 -0.4300 -0.8266
  284MPD2    C5 4340   2.679   3.322  11.903 -0.6294  0.2140  0.0302
  284MPD2     H 4341   2.957   3.153  12.085  0.8957 -0.5319 -1.5659
  284MPD2    H1 4342   2.550   3.166  11.949 -0.1735  0.4989  0.4094
  284MPD2    H2 4343   2.807   3.472  11.849  0.4708 -0.5884 -1.2376
  284MPD2    H3 4344   2.597   3.372  11.852 -2.1365 -0.4305  1.8320
  284MPD2     N 4345   2.725   3.015  12.096 -0.6373 -0.3032 -0.1585
  284MPD2    H5 4346   2.640   3.016  12.152 -0.9199  1.3071 -0.6226
  284MPD2    N1 4347   3.037   3.346  11.938  0.7160  0.3561 -0.2870
  284MPD2    H7 4348   3.107   3.282  11.975  0.5165  0.6965  0.6857
  285TMC3    C1 4349   3.226   3.494  11.932 -0.0564 -0.8175 -0.3825
  285TMC3    C2 4350   3.307   3.391  11.971  0.0675 -0.0135 -0.5218
  285TMC3    C3 4351   3.441   3.409  11.952 -0.0641 -0.1811  1.2826
  285TMC3    C4 4352   3.276   3.610  11.888 -0.3382  0.2164  0.2110
  285TMC3    C5 4353   3.415   3.632  11.889 -0.3769 -0.0138  0.3552
  285TMC3    C6 4354   3.497   3.527  11.907 -0.4532  0.7665  0.1324
  285TMC3     C 4355   3.082   3.477  11.914 -0.3078 -0.0230 -0.0130
  285TMC3     O 4356   3.025   3.576  11.869  0.2933 -0.2969  1.0875
  285TMC3     H 4357   3.279   3.296  12.014  0.8914  0.3421  0.8378
  285TMC3    H1 4358   3.202   3.681  11.855  0.1215  0.3061 -0.6264
  285TMC3    H2 4359   3.605   3.533  11.897 -0.1759  0.2953  2.9755
  285TMC3    C7 4360   3.479   3.757  11.849  0.1644  0.4469 -0.4950
  285TMC3    C8 4361   3.527   3.292  11.945 -0.4276  0.4029  0.6436
  285TMC3    O1 4362   3.404   3.851  11.831  0.4337  0.2638  0.2788
  285TMC3    O2 4363   3.475   3.185  11.949 -0.2534 -0.2495  0.3050
  286MPD2     C 4364   4.086   2.680   1.398  0.6025 -0.0213  0.5105
  286MPD2    C1 4365   4.025   2.640   1.278 -0.3630 -1.4685 -0.1367
  286MPD2    C2 4366   4.091   2.536   1.206 -1.1813  0.6297 -0.3414
  286MPD2    C3 4367   4.198   2.465   1.257 -0.0688  0.3299  0.4118
  286MPD2    C4 4368   4.252   2.499   1.380  0.5544  0.4557 -0.0013
  286MPD2    C5 4369   4.196   2.602   1.448 -0.3913  0.4921  0.5159
  286MPD2     H 4370   4.050   2.517   1.107 -0.8461  1.3472 -0.6176
  286MPD2    H1 4371   4.332   2.447   1.430  1.2708  1.1966 -0.3670
  286MPD2    H2 4372   4.045   2.762   1.454 -2.3998 -1.3368  0.2222
  286MPD2    H3 4373   4.227   2.634   1.547 -1.2058 -1.8788  1.5213
  286MPD2     N 4374   4.267   2.363   1.189 -0.1330 -0.2541 -0.2147
  286MPD2    H5 4375   4.359   2.341   1.228 -0.7303  0.0994  1.4097
  286MPD2    N1 4376   3.918   2.705   1.224  0.1999  0.3835  0.0114
  286MPD2    H7 4377   3.863   2.661   1.151  0.4709  1.6365 -0.9287
  287TMC3    C1 4378   4.292   2.175   1.036 -0.2827 -0.6025 -0.4416
  287TMC3    C2 4379   4.225   2.098   0.945  0.2748 -0.6004  0.2856
  287TMC3    C3 4380   4.292   1.988   0.906 -0.4075 -0.2919 -0.4169
  287TMC3    C4 4381   4.404   2.137   1.105 -0.3055 -0.0748 -0.8194
  287TMC3    C5 4382   4.460   2.021   1.060 -0.3264 -0.0824 -0.1734
  287TMC3    C6 4383   4.412   1.946   0.951 -0.6767 -0.6808 -0.4518
  287TMC3     C 4384   4.215   2.296   1.080 -0.0841  0.6594 -0.0525
  287TMC3     O 4385   4.108   2.314   1.027  0.6547  0.0544 -0.1478
  287TMC3     H 4386   4.129   2.128   0.904  0.4707 -1.1191 -0.5507
  287TMC3    H1 4387   4.455   2.190   1.185 -0.3013  0.4970 -1.1978
  287TMC3    H2 4388   4.460   1.853   0.923  1.0579 -0.1764  0.9227
  287TMC3    C7 4389   4.589   1.986   1.112 -0.4813 -0.6652 -0.0044
  287TMC3    C8 4390   4.226   1.894   0.818  0.5193  0.6603  0.2414
  287TMC3    O1 4391   4.610   2.023   1.225 -0.0751  0.3623 -0.7261
  287TMC3    O2 4392   4.288   1.790   0.786  0.1824  0.0619  0.1144
  288TMC3    C1 4393   1.376   2.028  14.862 -0.0500 -0.6420 -0.5418
  288TMC3    C2 4394   1.236   2.045  14.882 -0.0427  0.3128 -0.4486
  288TMC3    C3 4395   1.175   2.142  14.811 -0.3652 -0.0208  0.1459
  288TMC3    C4 4396   1.451   2.112  14.776 -0.4623  0.0626  0.2374
  288TMC3    C5 4397   1.380   2.202  14.702  0.1659  0.0145  0.0497
  288TMC3    C6 4398   1.247   2.223  14.726  0.1378 -0.1666  0.1004
  288TMC3     C 4399   1.435   1.906  14.935  0.0108 -0.4412  0.7648
  288TMC3     O 4400   1.372   1.838  15.020  0.9155  0.6712  0.1838
  288TMC3     H 4401   1.193   1.988  14.963  1.0283  1.3480  0.8486
  288TMC3    H1 4402   1.559   2.118  14.778 -0.4357 -0.0780 -1.0545
  288TMC3    H2 4403   1.186   2.302  14.681  0.5516  0.3317  0.4215
  288TMC3    C7 4404   1.453   2.273  14.599  0.2075 -0.4571  0.5705
  288TMC3    C8 4405   1.036   2.166  14.841  0.5292  0.7050  0.3188
  288TMC3    O1 4406   1.573   2.247  14.581  0.4879 -0.2098  0.0956
  288TMC3    O2 4407   1.000   2.284  14.831  0.2090  0.2396  0.5188
  289MPD2     C 4408   1.151   1.018  14.400 -0.2082  0.2777 -0.6071
  289MPD2    C1 4409   1.105   1.112  14.487 -0.1947  0.2888  0.9171
  289MPD2    C2 4410   0.981   1.094  14.545  0.1914  0.3611  0.1431
  289MPD2    C3 4411   0.896   0.993  14.504  0.4011  0.3232 -0.2420
  289MPD2    C4 4412   0.945   0.903  14.415  0.1349 -0.3172 -0.0836
  289MPD2    C5 4413   1.073   0.915  14.364  0.2094 -0.1585  0.3186
  289MPD2     H 4414   0.945   1.156  14.626  0.5451 -0.5680  1.0112
  289MPD2    H1 4415   0.889   0.817  14.382  1.6921 -1.6073  0.6270
  289MPD2    H2 4416   1.251   1.014  14.359 -0.7216  3.3247 -2.1628
  289MPD2    H3 4417   1.120   0.836  14.305 -1.7113  0.1905 -1.6914
  289MPD2     N 4418   0.759   0.980  14.538 -0.1996  0.4733  0.0389
  289MPD2    H5 4419   0.702   0.923  14.476  1.2566  0.7228 -1.5193
  289MPD2    N1 4420   1.187   1.207  14.533  0.0038  0.0383  0.4725
  289MPD2    H7 4421   1.284   1.191  14.507  0.4385  0.0917  2.0799
  290TMC3    C1 4422   0.563   1.073  14.623 -0.4175  0.0189 -0.0610
  290TMC3    C2 4423   0.526   1.200  14.618  0.9346  0.0644  0.1710
  290TMC3    C3 4424   0.423   1.226  14.528  0.0604 -0.0310 -0.1448
  290TMC3    C4 4425   0.503   0.973  14.554  0.3972 -0.1693  0.4723
  290TMC3    C5 4426   0.395   1.003  14.472  0.8592  0.2585  0.3536
  290TMC3    C6 4427   0.356   1.131  14.450 -0.3168  0.6162  1.1477
  290TMC3     C 4428   0.703   1.059  14.638  0.6218 -0.5918 -0.9147
  290TMC3     O 4429   0.756   1.121  14.729  0.3916 -0.2285 -0.4118
  290TMC3     H 4430   0.588   1.273  14.669  2.2828 -1.7076  1.0293
  290TMC3    H1 4431   0.532   0.870  14.571  0.7854  0.0232  0.9694
  290TMC3    H2 4432   0.273   1.163  14.388  0.7089  1.3771  0.1489
  290TMC3    C7 4433   0.312   0.900  14.418 -1.1460 -0.4801  0.2395
  290TMC3    C8 4434   0.432   1.361  14.475 -0.5960  0.4635  0.2563
  290TMC3    O1 4435   0.229   0.931  14.336  0.2511 -0.3663  0.2748
  290TMC3    O2 4436   0.381   1.374  14.365  0.4617  0.6541  0.4618
  291MPD2     C 4437   0.350   1.431   0.337  0.0929  0.2047 -0.5932
  291MPD2    C1 4438   0.476   1.377   0.324 -0.2589 -0.4163 -0.2811
  291MPD2    C2 4439   0.575   1.456   0.267  0.4478  0.5176 -0.0944
  291MPD2    C3 4440   0.555   1.587   0.232  0.7205 -0.0531  0.2934
  291MPD2    C4 4441   0.431   1.633   0.261  0.2849  0.6958 -0.5027
  291MPD2    C5 4442   0.331   1.564   0.308 -0.2221 -0.6105 -0.7714
  291MPD2     H 4443   0.672   1.407   0.262  1.0734  1.5886  1.5526
  291MPD2    H1 4444   0.402   1.736   0.244 -2.7611 -0.5533 -2.7830
  291MPD2    H2 4445   0.260   1.375   0.358  0.2900 -0.3188 -1.1479
  291MPD2    H3 4446   0.244   1.622   0.337  1.6422  1.1375  1.4269
  291MPD2     N 4447   0.643   1.667   0.155 -0.0938  0.2162 -0.9200
  291MPD2    H5 4448   0.613   1.763   0.138 -1.0341 -0.2841 -2.0294
  291MPD2    N1 4449   0.506   1.240   0.359 -0.3965  0.5038 -0.1841
  291MPD2    H7 4450   0.597   1.204   0.329 -0.9652 -0.5496 -0.6379
  292TMC3    C1 4451   0.461   1.014   0.382 -0.2228 -0.9567 -0.9705
  292TMC3    C2 4452   0.552   0.993   0.488  0.0189  0.5912 -0.0122
  292TMC3    C3 4453   0.568   0.863   0.532 -0.4026 -0.2633  0.7146
  292TMC3    C4 4454   0.377   0.915   0.347 -0.0594 -0.2674  0.5531
  292TMC3    C5 4455   0.400   0.790   0.400 -0.0953  0.7343 -0.6607
  292TMC3    C6 4456   0.497   0.758   0.485 -0.3980 -0.0573 -0.5230
  292TMC3     C 4457   0.412   1.147   0.381 -0.6815  0.5136 -0.3285
  292TMC3     O 4458   0.291   1.154   0.362 -0.0695 -0.6507  0.8488
  292TMC3     H 4459   0.620   1.067   0.527  1.3387  0.4639 -2.0862
  292TMC3    H1 4460   0.295   0.939   0.280 -0.8429  1.9968  2.2907
  292TMC3    H2 4461   0.527   0.655   0.502 -1.8536 -0.5075 -0.6958
  292TMC3    C7 4462   0.339   0.682   0.329  0.3198  0.3851  0.4088
  292TMC3    C8 4463   0.657   0.820   0.629  0.2545 -0.2536  0.4288
  292TMC3    O1 4464   0.408   0.578   0.330 -0.5398  0.3939 -0.2154
  292TMC3    O2 4465   0.765   0.874   0.635 -0.3430  0.0389  0.3335
  293MPD2     C 4466   1.496   1.694  13.245 -0.2491  0.0673 -0.6759
  293MPD2    C1 4467   1.540   1.812  13.200 -0.6966 -0.0922 -0.9430
  293MPD2    C2 4468   1.607   1.891  13.291 -0.5392  0.5377  0.3505
  293MPD2    C3 4469   1.642   1.848  13.415 -1.1052 -0.6793  0.3623
  293MPD2    C4 4470   1.613   1.718  13.452  0.1061  0.5242 -0.0145
  293MPD2    C5 4471   1.539   1.644  13.365 -0.3836 -0.7337  0.3909
  293MPD2     H 4472   1.637   1.992  13.265  0.6848  0.4795  1.5757
  293MPD2    H1 4473   1.637   1.669  13.546  2.0107  2.8156  0.7080
  293MPD2    H2 4474   1.442   1.623  13.184 -0.6711 -1.1204  1.0724
  293MPD2    H3 4475   1.516   1.547  13.407  1.8736 -1.3847  0.1455
  293MPD2     N 4476   1.722   1.933  13.491 -0.6814  0.6700 -0.4796
  293MPD2    H5 4477   1.748   2.020  13.446 -1.3150  0.5232 -1.1309
  293MPD2    N1 4478   1.529   1.854  13.062  0.0310 -0.7401  0.1405
  293MPD2    H7 4479   1.494   1.782  12.999  3.6371 -0.8597 -1.7191
  294TMC3    C1 4480   1.590   1.944  12.846 -0.0486 -0.3686 -0.2901
  294TMC3    C2 4481   1.459   1.955  12.804 -0.2462 -0.1027 -0.0783
  294TMC3    C3 4482   1.451   1.998  12.674 -0.3920 -0.4541  0.1913
  294TMC3    C4 4483   1.700   1.953  12.769 -0.0981 -0.9040  0.1434
  294TMC3    C5 4484   1.673   1.986  12.639  0.0847  0.2856 -0.1591
  294TMC3    C6 4485   1.552   2.001  12.584  0.0215 -0.5094 -0.4270
  294TMC3     C 4486   1.598   1.952  12.994  0.3903 -0.7591 -0.5494
  294TMC3     O 4487   1.689   2.022  13.032  0.7399 -0.1638  0.5925
  294TMC3     H 4488   1.377   1.968  12.874  0.5359 -1.2603  1.0543
  294TMC3    H1 4489   1.798   1.960  12.814 -0.7462 -0.2349  1.4272
  294TMC3    H2 4490   1.533   2.014  12.478 -0.2114 -0.9170 -0.4352
  294TMC3    C7 4491   1.793   2.013  12.563 -0.3674  0.4997  0.2814
  294TMC3    C8 4492   1.314   1.994  12.620 -0.9072 -0.2491  0.3476
  294TMC3    O1 4493   1.893   1.962  12.611  0.3165  0.0672 -0.6662
  294TMC3    O2 4494   1.226   2.029  12.697  0.2670 -0.4227  0.1738
  295MPD2     C 4495   3.389   1.303   0.966 -0.0141 -0.9007  0.3770
  295MPD2    C1 4496   3.297   1.220   0.905  0.2585  0.1511 -0.3137
  295MPD2    C2 4497   3.307   1.090   0.936  0.4103 -0.4669 -0.3767
  295MPD2    C3 4498   3.384   1.047   1.037 -0.0091 -0.1363  0.0969
  295MPD2    C4 4499   3.474   1.124   1.099 -0.0271  0.4766 -0.0173
  295MPD2    C5 4500   3.479   1.259   1.061  0.0321  0.3841 -0.0154
  295MPD2     H 4501   3.249   1.020   0.877  1.6829 -1.6325 -0.2495
  295MPD2    H1 4502   3.534   1.096   1.184  0.1839 -1.7894 -0.9094
  295MPD2    H2 4503   3.399   1.409   0.947  1.0724 -0.8951  0.9801
  295MPD2    H3 4504   3.530   1.328   1.128  0.8207 -0.3197  0.1107
  295MPD2     N 4505   3.376   0.909   1.075  0.1814 -0.1860  0.8771
  295MPD2    H5 4506   3.455   0.879   1.130 -0.5650 -2.5783  0.6874
  295MPD2    N1 4507   3.215   1.261   0.800 -0.8182 -0.3510 -0.3650
  295MPD2    H7 4508   3.171   1.184   0.750 -1.3448 -0.1986 -0.1380
  296TMC3    C1 4509   3.306   0.683   1.098 -0.5987  0.3297  0.0152
  296TMC3    C2 4510   3.404   0.666   1.200  0.8230  0.3447  0.0743
  296TMC3    C3 4511   3.427   0.535   1.234 -0.1709  0.4181 -0.3214
  296TMC3    C4 4512   3.236   0.582   1.050 -0.3659  0.2028  0.3098
  296TMC3    C5 4513   3.256   0.455   1.096  1.3030 -0.5114  0.4182
  296TMC3    C6 4514   3.355   0.431   1.183  0.1687 -0.4762  0.1459
  296TMC3     C 4515   3.290   0.812   1.037  0.8483 -0.3018  0.3779
  296TMC3     O 4516   3.186   0.824   0.976 -0.0997 -0.2186  0.2476
  296TMC3     H 4517   3.445   0.748   1.258  1.4936  0.8642 -1.1354
  296TMC3    H1 4518   3.158   0.607   0.979 -0.3905  0.4953  0.4361
  296TMC3    H2 4519   3.384   0.329   1.204  0.5672 -0.7431 -1.6829
  296TMC3    C7 4520   3.189   0.341   1.029 -0.0386 -0.9728  0.0585
  296TMC3    C8 4521   3.537   0.499   1.329  0.1573 -0.6875 -0.0452
  296TMC3    O1 4522   3.129   0.367   0.924 -0.4149  0.0240 -0.5606
  296TMC3    O2 4523   3.566   0.383   1.350  0.1439 -0.4929 -1.0136
  297MPD2     C 4524   4.376   3.246  16.251 -0.1790  0.0831  0.6862
  297MPD2    C1 4525   4.381   3.379  16.213 -0.4580  0.1677  0.6949
  297MPD2    C2 4526   4.500   3.435  16.169 -0.7149  0.2082  0.0706
  297MPD2    C3 4527   4.613   3.366  16.158  0.1185  0.0765 -0.4176
  297MPD2    C4 4528   4.606   3.231  16.180  0.0271  0.3602  0.8207
  297MPD2    C5 4529   4.493   3.171  16.230  0.2323 -0.5076 -0.2036
  297MPD2     H 4530   4.498   3.541  16.148 -0.2492  0.3669  0.8439
  297MPD2    H1 4531   4.697   3.173  16.170  0.2674  0.3439  3.1017
  297MPD2    H2 4532   4.289   3.202  16.298 -1.7700  1.9630 -0.5284
  297MPD2    H3 4533   4.495   3.064  16.249 -1.1460 -0.0106  2.8138
  297MPD2     N 4534   4.734   3.418  16.109 -0.3262  0.5926 -0.2966
  297MPD2    H5 4535   4.732   3.519  16.103 -0.0644  0.5661 -0.7995
  297MPD2    N1 4536   4.268   3.466  16.220  0.2224  0.5094 -0.2994
  297MPD2    H7 4537   4.290   3.557  16.180 -2.5428  0.6211 -1.5515
  298TMC3    C1 4538   4.048   3.540  16.261 -0.2546 -0.0208 -0.1390
  298TMC3    C2 4539   4.059   3.638  16.157 -0.6218  0.3286  0.8354
  298TMC3    C3 4540   3.963   3.735  16.149  0.1114  0.0405 -1.3260
  298TMC3    C4 4541   3.935   3.529  16.338  0.2501  0.9277 -0.5671
  298TMC3    C5 4542   3.840   3.627  16.318 -0.1592 -1.3862 -0.3066
  298TMC3    C6 4543   3.851   3.729  16.223  0.2855  0.4487  0.2591
  298TMC3     C 4544   4.146   3.439  16.279 -0.2360  1.0795  1.3962
  298TMC3     O 4545   4.118   3.350  16.358 -0.8594  0.4049 -0.0598
  298TMC3     H 4546   4.155   3.649  16.108 -0.6323  1.0467  0.9810
  298TMC3    H1 4547   3.932   3.450  16.413 -1.8013 -0.0244 -1.6579
  298TMC3    H2 4548   3.780   3.810  16.232  2.0952  2.0373  0.3282
  298TMC3    C7 4549   3.732   3.641  16.417 -0.3484  0.1052  0.1495
  298TMC3    C8 4550   3.970   3.828  16.033 -0.1953  0.0364  0.5371
  298TMC3    O1 4551   3.766   3.590  16.522 -0.0748  0.1425  0.2716
  298TMC3    O2 4552   4.077   3.835  15.979 -0.2756 -0.5434 -0.1302
  299MPD2     C 4553   0.320   2.346  10.490 -0.2199  0.5911 -0.0702
  299MPD2    C1 4554   0.290   2.476  10.535 -0.9272 -0.0117  0.1514
  299MPD2    C2 4555   0.157   2.513  10.577  0.1081  0.2627 -0.1294
  299MPD2    C3 4556   0.051   2.424  10.558 -1.4652 -0.2902 -0.7788
  299MPD2    C4 4557   0.086   2.291  10.532  0.2798  0.1168  0.7194
  299MPD2    C5 4558   0.220   2.258  10.513  0.6861 -0.0149 -0.2795
  299MPD2     H 4559   0.145   2.615  10.612  0.5024  0.5080 -0.7161
  299MPD2    H1 4560   0.009   2.215  10.546  0.0204 -0.0072 -1.5170
  299MPD2    H2 4561   0.419   2.305  10.478  0.5167  2.1414  0.6696
  299MPD2    H3 4562   0.248   2.154  10.509  2.1489  0.4381 -1.6455
  299MPD2     N 4563   4.660   2.467  10.585  0.0255 -0.0535  0.2361
  299MPD2    H5 4564   4.587   2.397  10.577 -1.0472  0.9740  1.2237
  299MPD2    N1 4565   0.403   2.564  10.546  0.4238 -0.1148 -0.0443
  299MPD2    H7 4566   0.482   2.532  10.492 -0.2671 -0.1300 -1.0441
  300TMC3    C1 4567   4.485   2.612  10.644  0.1867 -0.3473  0.0970
  300TMC3    C2 4568   4.443   2.746  10.652  0.2926  0.2223  0.4087
  300TMC3    C3 4569   4.317   2.770  10.703  0.7796 -0.5324 -0.6815
  300TMC3    C4 4570   4.407   2.511  10.687 -0.3188  0.6784 -0.1619
  300TMC3    C5 4571   4.284   2.544  10.739  0.1100  0.2189 -1.0517
  300TMC3    C6 4572   4.238   2.670  10.751  0.1022 -0.2811  0.2394
  300TMC3     C 4573   4.627   2.595  10.607 -0.2444  0.3471  0.4134
  300TMC3     O 4574   4.687   2.704  10.585  0.6098 -0.2881  0.2441
  300TMC3     H 4575   4.501   2.827  10.609  0.3852  0.7052  1.4698
  300TMC3    H1 4576   4.436   2.408  10.703  0.0941  0.8125 -0.0498
  300TMC3    H2 4577   4.141   2.681  10.798 -0.1799 -1.1600 -0.1393
  300TMC3    C7 4578   4.200   2.436  10.781 -0.1949 -0.2204 -0.2341
  300TMC3    C8 4579   4.296   2.907  10.752  0.0981 -0.4276 -0.5681
  300TMC3    O1 4580   4.187   2.344  10.702 -0.0957 -0.2949 -0.2380
  300TMC3    O2 4581   4.394   2.979  10.755 -0.2086  0.8585  0.3657
  301MPD2     C 4582   2.614   4.101   1.223  0.4384 -0.1591  0.1969
  301MPD2    C1 4583   2.484   4.060   1.190  0.6028 -0.3588  0.2342
  301MPD2    C2 4584   2.464   3.928   1.156  0.4076 -0.1678  0.5824
  301MPD2    C3 4585   2.565   3.834   1.164  0.1543 -0.7591  0.4581
  301MPD2    C4 4586   2.687   3.879   1.196  0.1870 -0.0293 -0.2414
  301MPD2    C5 4587   2.714   4.006   1.226 -0.8265 -0.1173  0.3733
  301MPD2     H 4588   2.364   3.905   1.123  0.6095  2.6275 -2.0273
  301MPD2    H1 4589   2.768   3.807   1.203  1.5081  1.5823  1.0955
  301MPD2    H2 4590   2.641   4.201   1.254 -0.2983 -0.1280  0.7311
  301MPD2    H3 4591   2.817   4.040   1.223 -1.2972  1.3017  0.2393
  301MPD2     N 4592   2.544   3.695   1.128 -0.0326  0.4073 -0.6843
  301MPD2    H5 4593   2.629   3.640   1.114  1.2031  2.0413  0.4081
  301MPD2    N1 4594   2.374   4.139   1.182  0.2153  0.2142  0.0147
  301MPD2    H7 4595   2.287   4.090   1.163 -0.9462  1.5137  1.9155
  302TMC3    C1 4596   2.456   3.513   1.014 -0.4172 -0.6135 -1.0582
  302TMC3    C2 4597   2.516   3.422   1.092  0.1219  0.0588  0.0419
  302TMC3    C3 4598   2.507   3.296   1.042  1.0150 -0.4228  1.4724
  302TMC3    C4 4599   2.382   3.487   0.899 -0.7247  0.6831  0.3639
  302TMC3    C5 4600   2.374   3.356   0.861 -0.2715 -0.5146 -0.4652
  302TMC3    C6 4601   2.443   3.259   0.931  0.0940  0.0711  0.1914
  302TMC3     C 4602   2.429   3.638   1.078 -0.2557  0.2641  0.1101
  302TMC3     O 4603   2.314   3.682   1.074  0.0040 -0.0375 -0.4486
  302TMC3     H 4604   2.578   3.436   1.180 -1.8834  0.9915  1.3015
  302TMC3    H1 4605   2.330   3.573   0.857  1.7801  0.5953 -3.0191
  302TMC3    H2 4606   2.417   3.157   0.904 -0.0611 -0.0058  0.6359
  302TMC3    C7 4607   2.311   3.321   0.740 -0.3746 -0.1965 -0.4135
  302TMC3    C8 4608   2.577   3.184   1.112 -0.2475 -1.0635  0.6463
  302TMC3    O1 4609   2.334   3.215   0.682  0.4897 -0.2212 -0.5045
  302TMC3    O2 4610   2.666   3.220   1.187  0.4550 -0.2776  0.1228
  303MPD2     C 4611   2.801   2.152  10.201 -0.4055  0.4275 -0.0824
  303MPD2    C1 4612   2.668   2.135  10.186  0.5333  0.1748 -0.3268
  303MPD2    C2 4613   2.612   2.083  10.066 -0.3468  0.3043  0.1369
  303MPD2    C3 4614   2.697   2.080   9.955  0.4476  0.3137  0.8835
  303MPD2    C4 4615   2.832   2.112   9.962 -0.0717 -0.0362  0.4326
  303MPD2    C5 4616   2.882   2.143  10.089 -0.4660 -0.5750 -0.1121
  303MPD2     H 4617   2.504   2.076  10.066 -0.3444  0.3342  1.7524
  303MPD2    H1 4618   2.894   2.125   9.874 -0.5398  0.7141  0.2158
  303MPD2    H2 4619   2.845   2.182  10.295  2.3831 -0.1474 -1.2196
  303MPD2    H3 4620   2.987   2.165  10.101 -0.7465  0.5736  0.2642
  303MPD2     N 4621   2.646   2.072   9.821  0.1635 -0.4014  0.3418
  303MPD2    H5 4622   2.714   2.075   9.745 -0.4317 -0.7252 -0.2081
  303MPD2    N1 4623   2.588   2.157  10.303 -0.0494  0.0559 -0.0234
  303MPD2    H7 4624   2.630   2.219  10.372  3.4486 -2.1615 -0.1683
  304TMC3    C1 4625   2.397   2.197  10.433  0.5061  0.5953  0.5642
  304TMC3    C2 4626   2.358   2.307  10.371  0.3034 -0.2518 -0.2551
  304TMC3    C3 4627   2.239   2.366  10.403 -0.2762  0.0609 -0.6652
  304TMC3    C4 4628   2.300   2.131  10.505 -0.0082 -0.1594  0.8884
  304TMC3    C5 4629   2.179   2.181  10.533 -0.7733  0.8215  0.8419
  304TMC3    C6 4630   2.142   2.305  10.480 -0.6232  0.5095  1.6403
  304TMC3     C 4631   2.463   2.111  10.337  0.2244  0.5229 -1.1065
  304TMC3     O 4632   2.393   2.028  10.286 -0.2474  0.1670  0.0194
  304TMC3     H 4633   2.421   2.340  10.289  2.2168 -1.2640  0.7983
  304TMC3    H1 4634   2.331   2.031  10.534  1.6297 -0.1550 -0.7972
  304TMC3    H2 4635   2.043   2.343  10.503 -1.8335 -1.9516  0.4816
  304TMC3    C7 4636   2.070   2.092  10.511 -0.0248 -0.1246 -0.6042
  304TMC3    C8 4637   2.174   2.426  10.294 -0.4717 -0.0544  0.2483
  304TMC3    O1 4638   1.985   2.131  10.439 -0.2408  0.0758 -0.0341
  304TMC3    O2 4639   2.231   2.521  10.243 -0.3416 -0.2459  0.2575
  305MPD2     C 4640   0.847   4.664  13.952  0.0565 -0.1955 -0.6219
  305MPD2    C1 4641   0.787   4.547  13.929  0.0260  0.8557 -0.3148
  305MPD2    C2 4642   0.800   4.496  13.798 -0.6582 -0.5248 -0.9310
  305MPD2    C3 4643   0.877   4.566  13.701 -0.2534  0.9040 -0.0802
  305MPD2    C4 4644   0.939   4.682  13.735 -0.4452 -0.0862 -0.8753
  305MPD2    C5 4645   0.921   4.735  13.858 -0.2465  0.3010  0.3118
  305MPD2     H 4646   0.766   4.394  13.783 -3.1993 -0.3420  3.6856
  305MPD2    H1 4647   0.992   0.007  13.665 -0.2566  1.4525  0.6774
  305MPD2    H2 4648   0.829   4.713  14.047 -0.1422  2.5148 -2.0604
  305MPD2    H3 4649   0.963   0.094  13.880 -1.8447  0.4927  2.4860
  305MPD2     N 4650   0.878   4.526  13.567  0.2133  0.7662  0.7255
  305MPD2    H5 4651   0.944   4.578  13.510  0.2223 -1.1702 -0.9887
  305MPD2    N1 4652   0.740   4.477  14.044 -0.1109 -0.2119 -0.5511
  305MPD2    H7 4653   0.780   4.508  14.132  1.4434 -1.1965 -0.9168
  306TMC3    C1 4654   0.709   4.275  14.145 -0.1055 -0.5024 -0.4806
  306TMC3    C2 4655   0.811   4.186  14.116  0.0432 -0.1989 -0.2430
  306TMC3    C3 4656   0.903   4.160  14.220  0.1251 -0.3606 -0.8085
  306TMC3    C4 4657   0.694   4.334  14.262  0.7927  0.3014  0.0869
  306TMC3    C5 4658   0.785   4.301  14.361 -0.7140 -0.0771  0.9333
  306TMC3    C6 4659   0.892   4.216  14.342  0.4889  0.6208  0.0977
  306TMC3     C 4660   0.675   4.356  14.030 -0.2403 -0.4175 -0.1809
  306TMC3     O 4661   0.622   4.298  13.939 -0.2120 -0.3520 -0.4603
  306TMC3     H 4662   0.833   4.154  14.015  1.4725  2.1040 -0.6672
  306TMC3    H1 4663   0.611   4.398  14.288 -1.1204 -1.8034 -0.8475
  306TMC3    H2 4664   0.956   4.187  14.425  0.3068 -2.3995 -0.7964
  306TMC3    C7 4665   0.728   4.319  14.496 -0.4137 -0.4463  0.0492
  306TMC3    C8 4666   0.974   4.041  14.202  0.2857  0.0222  0.2382
  306TMC3    O1 4667   0.615   4.287  14.512 -0.0786 -0.0683  0.0733
  306TMC3    O2 4668   0.919   3.951  14.142 -0.4155  0.2855  0.2125
  307MPD2     C 4669   3.501   2.638   0.276  0.2900 -0.8261  0.6395
  307MPD2    C1 4670   3.411   2.742   0.279  0.1499 -0.1710 -0.0403
  307MPD2    C2 4671   3.295   2.727   0.358 -0.2839 -0.6972  1.1230
  307MPD2    C3 4672   3.275   2.610   0.428  0.6554 -0.8247 -0.4804
  307MPD2    C4 4673   3.356   2.499   0.410  0.1753 -0.7586 -0.0889
  307MPD2    C5 4674   3.471   2.520   0.336  0.1447 -0.2948  0.4702
  307MPD2     H 4675   3.226   2.810   0.371 -0.4128 -0.8049  1.1211
  307MPD2    H1 4676   3.345   2.398   0.450  1.1002 -0.9613 -0.3458
  307MPD2    H2 4677   3.594   2.622   0.224 -0.5835 -2.6181 -0.3456
  307MPD2    H3 4678   3.537   2.435   0.328  0.6482  0.1137  0.2350
  307MPD2     N 4679   3.155   2.598   0.498  0.4487 -0.2644 -0.5740
  307MPD2    H5 4680   3.096   2.680   0.495 -0.5021 -0.9222 -0.0887
  307MPD2    N1 4681   3.436   2.875   0.229 -0.0079 -0.2540 -0.2162
  307MPD2    H7 4682   3.361   2.939   0.251  1.0699  0.4805  1.3203
  308TMC3    C1 4683   2.770   2.495   0.664 -0.3615 -0.7761 -0.7088
  308TMC3    C2 4684   2.757   2.628   0.698 -0.2032 -0.3742 -0.1608
  308TMC3    C3 4685   2.875   2.690   0.729  0.4916  0.4112 -0.0950
  308TMC3    C4 4686   2.890   2.435   0.630  0.8781  0.0277 -0.1799
  308TMC3    C5 4687   3.000   2.508   0.647  0.0828 -0.7042  0.6760
  308TMC3    C6 4688   2.992   2.634   0.703  0.4168 -0.2978  0.4257
  308TMC3     C 4689   2.663   2.439   0.583  0.0955  0.1191  0.0255
  308TMC3     O 4690   2.670   2.315   0.570 -0.3590 -0.0336  0.1993
  308TMC3     H 4691   2.662   2.666   0.734  1.1270  2.1832  0.6742
  308TMC3    H1 4692   2.916   2.333   0.604 -0.7268  0.0890 -2.1072
  308TMC3    H2 4693   3.083   2.693   0.713 -0.2025  0.4674  1.4565
  308TMC3    C7 4694   3.107   2.485   0.556  0.3149 -0.1334 -0.1959
  308TMC3    C8 4695   2.885   2.818   0.797  0.8417  0.4090  0.7374
  308TMC3    O1 4696   3.147   2.371   0.556 -0.1350  0.6121  0.4154
  308TMC3    O2 4697   2.972   2.835   0.879 -0.5025 -0.8660  0.3398
  309MPD2     C 4698   2.471   3.019  17.002  0.8669  0.2139 -0.3183
  309MPD2    C1 4699   2.428   3.103  16.904  0.2190 -0.3057  0.7440
  309MPD2    C2 4700   2.306   3.163  16.919 -0.0672 -0.1567 -0.8855
  309MPD2    C3 4701   2.215   3.114  17.015  0.1095 -0.3534  0.1926
  309MPD2    C4 4702   2.263   3.040  17.119 -0.5009  0.9186 -0.0207
  309MPD2    C5 4703   2.394   2.997  17.117  0.3627  0.1400  0.4360
  309MPD2     H 4704   2.270   3.237  16.848  0.7127  0.9256 -0.1677
  309MPD2    H1 4705   2.201   3.004  17.200  0.0658 -3.8754 -1.7236
  309MPD2    H2 4706   2.567   2.969  17.009  1.1509  0.8935  0.6702
  309MPD2    H3 4707   2.432   2.945  17.204 -0.7948 -0.4342  0.5972
  309MPD2     N 4708   2.087   3.173  17.029  0.0046 -0.0209 -0.3474
  309MPD2    H5 4709   2.029   3.157  17.112 -0.4529  2.2105 -0.2241
  309MPD2    N1 4710   2.514   3.156  16.801  0.0220 -0.6505  0.0536
  309MPD2    H7 4711   2.475   3.233  16.748  0.9710 -0.5828 -0.5530
  310TMC3    C1 4712   2.713   3.207  16.673 -0.3030 -0.1569 -0.0192
  310TMC3    C2 4713   2.633   3.271  16.574 -0.4063 -0.9080 -0.3800
  310TMC3    C3 4714   2.688   3.296  16.452  0.3497  0.0716 -0.1763
  310TMC3    C4 4715   2.847   3.182  16.645 -0.2510 -0.1672  0.0422
  310TMC3    C5 4716   2.897   3.212  16.517 -0.3953  0.2062  0.3952
  310TMC3    C6 4717   2.818   3.265  16.422  0.2030  0.0949 -0.1985
  310TMC3     C 4718   2.655   3.134  16.781  0.4085  0.3710 -0.2598
  310TMC3     O 4719   2.734   3.071  16.843 -0.0430 -0.4224  0.0943
  310TMC3     H 4720   2.528   3.290  16.593 -0.0006  2.8349 -1.9452
  310TMC3    H1 4721   2.914   3.132  16.713  0.3843  1.4429  0.5957
  310TMC3    H2 4722   2.851   3.266  16.319  0.7222  1.7262 -0.0117
  310TMC3    C7 4723   3.019   3.147  16.473  0.4733  0.1142 -0.4233
  310TMC3    C8 4724   2.602   3.332  16.346 -0.1583  0.2112 -0.3340
  310TMC3    O1 4725   3.045   3.040  16.525 -0.1352  0.5200  0.2381
  310TMC3    O2 4726   2.484   3.310  16.365 -0.1239 -0.0544 -0.3177
  311MPD2     C 4727   4.257   3.886  12.692  0.4452  0.5005  0.4360
  311MPD2    C1 4728   4.222   4.018  12.732 -0.4839  0.1034  0.0384
  311MPD2    C2 4729   4.115   4.036  12.821  0.9304 -0.7300 -0.1211
  311MPD2    C3 4730   4.046   3.927  12.869 -0.2537 -0.3350  0.3497
  311MPD2    C4 4731   4.091   3.798  12.828  0.3865  0.4545 -0.2099
  311MPD2    C5 4732   4.185   3.778  12.736  0.1534 -0.1366  0.2217
  311MPD2     H 4733   4.085   4.133  12.857 -0.0848 -1.8367  1.9842
  311MPD2    H1 4734   4.043   3.707  12.861  0.7279  0.5517  0.5583
  311MPD2    H2 4735   4.337   3.857  12.624 -0.5900 -2.7842  0.6049
  311MPD2    H3 4736   4.208   3.675  12.711 -0.0631 -0.0492 -0.3446
  311MPD2     N 4737   3.944   3.945  12.963  0.1635 -0.5680 -0.0444
  311MPD2    H5 4738   3.940   4.038  13.003 -3.8767 -0.3258 -0.9566
  311MPD2    N1 4739   4.295   4.134  12.697 -0.0919 -0.3285 -0.3229
  311MPD2    H7 4740   4.276   4.222  12.745  1.1365 -1.0091  1.4114
  312TMC3    C1 4741   3.758   3.900  13.098  0.0896 -0.4028  0.1639
  312TMC3    C2 4742   3.629   3.852  13.069 -0.6150 -0.0578 -0.3099
  312TMC3    C3 4743   3.522   3.935  13.081 -0.3627  0.9095 -0.2393
  312TMC3    C4 4744   3.775   4.018  13.163 -0.2146  0.2038 -0.9135
  312TMC3    C5 4745   3.657   4.096  13.167 -0.5879 -0.7690 -0.1410
  312TMC3    C6 4746   3.538   4.060  13.115  0.6416  1.1358 -0.2811
  312TMC3     C 4747   3.858   3.845  13.006 -0.6230 -0.4721  0.0947
  312TMC3     O 4748   3.848   3.728  12.971  0.1158 -0.4527  0.1774
  312TMC3     H 4749   3.612   3.759  13.016 -0.5982 -0.9292  1.2130
  312TMC3    H1 4750   3.875   4.057  13.177  0.0362 -0.9913  0.6795
  312TMC3    H2 4751   3.445   4.114  13.133 -0.4271 -0.5441 -0.8287
  312TMC3    C7 4752   3.682   4.237  13.166  0.3265  0.0383  0.3722
  312TMC3    C8 4753   3.416   3.903  12.989  0.1140 -0.0795 -0.3110
  312TMC3    O1 4754   3.616   4.302  13.081 -0.2923 -0.2555  0.6292
  312TMC3    O2 4755   3.383   3.792  12.959 -0.1996  0.2233 -0.1078
  313MPD2     C 4756   3.419   3.193  11.500  0.4603 -0.3458  0.3152
  313MPD2    C1 4757   3.303   3.150  11.432 -0.0504  0.2365  0.0385
  313MPD2    C2 4758   3.318   3.067  11.324  0.7346  0.2112  0.4326
  313MPD2    C3 4759   3.438   3.004  11.294 -0.3373 -0.2736 -0.0463
  313MPD2    C4 4760   3.547   3.031  11.377  0.1606  0.3952 -0.0366
  313MPD2    C5 4761   3.537   3.131  11.466  0.0806  0.5134 -0.3305
  313MPD2     H 4762   3.233   3.057  11.257 -0.0962  1.3255  1.3104
  313MPD2    H1 4763   3.648   3.006  11.348 -0.1927 -0.3328 -0.6522
  313MPD2    H2 4764   3.418   3.268  11.578 -0.0851 -1.7326  1.6440
  313MPD2    H3 4765   3.628   3.174  11.504  1.1458 -2.3649  0.3088
  313MPD2     N 4766   3.445   2.940  11.167 -0.4805 -0.4394 -0.0678
  313MPD2    H5 4767   3.364   2.944  11.105 -1.1262 -0.0940  0.7990
  313MPD2    N1 4768   3.174   3.212  11.459  0.3515  0.5116 -0.0231
  313MPD2    H7 4769   3.098   3.186  11.397  0.8759  0.7493 -0.7750
  314TMC3    C1 4770   3.060   3.411  11.501 -0.4225  0.1620 -0.1518
  314TMC3    C2 4771   3.113   3.543  11.529 -0.2308  0.6979 -0.5227
  314TMC3    C3 4772   3.132   3.626  11.422  0.5357  0.2111  0.1190
  314TMC3    C4 4773   3.003   3.383  11.384 -0.0221 -0.0496  0.0155
  314TMC3    C5 4774   3.015   3.477  11.281  0.0444  0.0633  0.2760
  314TMC3    C6 4775   3.075   3.605  11.296  0.2790  0.6273  0.8998
  314TMC3     C 4776   3.154   3.313  11.553 -0.3854  0.1556 -1.0875
  314TMC3     O 4777   3.234   3.362  11.631  0.2719 -0.2214  0.2206
  314TMC3     H 4778   3.149   3.551  11.631  0.2468  1.2614 -0.7314
  314TMC3    H1 4779   2.955   3.286  11.378  0.6109 -0.4758  1.7609
  314TMC3    H2 4780   3.089   3.676  11.216  1.5201 -0.6428 -0.0119
  314TMC3    C7 4781   2.964   3.426  11.156  0.4751 -0.5093 -0.6887
  314TMC3    C8 4782   3.265   3.682  11.423 -0.2806 -0.1067  0.4437
  314TMC3    O1 4783   2.894   3.327  11.165 -0.1883 -0.5447  0.4654
  314TMC3    O2 4784   3.292   3.760  11.333 -0.3449  0.8538 -0.4182
  315MPD2     C 4785   3.736   3.308   0.350  0.5671 -0.1189  0.2551
  315MPD2    C1 4786   3.858   3.243   0.355  0.0348 -0.5787 -0.2988
  315MPD2    C2 4787   3.964   3.305   0.289 -0.6986 -0.2281 -0.0827
  315MPD2    C3 4788   3.956   3.418   0.210 -0.2406  0.0685  0.5454
  315MPD2    C4 4789   3.834   3.490   0.224  0.1829  0.3091  0.9453
  315MPD2    C5 4790   3.722   3.426   0.286  0.0372  0.5235  0.0480
  315MPD2     H 4791   4.060   3.257   0.281  0.0549  1.1237  0.8646
  315MPD2    H1 4792   3.814   3.585   0.176  1.1210  0.2467  0.4353
  315MPD2    H2 4793   3.654   3.268   0.409  0.1722  1.1468  0.5583
  315MPD2    H3 4794   3.634   3.487   0.299  0.6755  1.5652 -0.5282
  315MPD2     N 4795   4.060   3.461   0.131  0.3815 -0.4236 -0.2076
  315MPD2    H5 4796   4.147   3.410   0.124  0.2539 -0.3654 -2.2756
  315MPD2    N1 4797   3.888   3.123   0.421 -0.2584  0.3149 -0.1328
  315MPD2    H7 4798   3.984   3.090   0.429  0.0753  0.7524 -2.3514
  316TMC3    C1 4799   4.180   3.576  17.725 -0.6264 -0.7378 -0.0604
  316TMC3    C2 4800   4.281   3.486   0.005 -0.2311 -0.3384  0.7980
  316TMC3    C3 4801   4.385   3.479  17.670 -0.3911  0.3863 -0.0753
  316TMC3    C4 4802   4.184   3.650  17.613 -0.9381  0.5699  0.0031
  316TMC3    C5 4803   4.282   3.627  17.523 -0.0527 -0.5088 -0.4025
  316TMC3    C6 4804   4.387   3.550  17.550 -0.4330 -0.4579 -0.9341
  316TMC3     C 4805   4.063   3.569   0.047 -0.4979 -0.1753  1.1628
  316TMC3     O 4806   3.978   3.656   0.024 -0.3443  0.0417 -0.6876
  316TMC3     H 4807   4.289   3.435   0.100  0.3099 -0.0954  0.8816
  316TMC3    H1 4808   4.111   3.725  17.587 -1.3135  0.5624  1.0441
  316TMC3    H2 4809   4.464   3.521  17.479  1.6170  0.8192  0.7808
  316TMC3    C7 4810   4.258   3.662  17.389  0.1805 -0.4118  0.2810
  316TMC3    C8 4811   4.507   3.407  17.707  0.0358 -0.0800 -1.0477
  316TMC3    O1 4812   4.339   3.635  17.299 -0.2590  0.5875 -0.6422
  316TMC3    O2 4813   4.611   3.455  17.658  0.3577  0.2683 -0.0032
  317MPD2     C 4814   0.793   1.537  13.055 -0.8100  0.0750 -0.0058
  317MPD2    C1 4815   0.797   1.409  12.988  0.4127 -1.0423 -0.6478
  317MPD2    C2 4816   0.810   1.299  13.073 -0.4023  0.0136  0.2719
  317MPD2    C3 4817   0.809   1.314  13.210  0.2736  0.2939 -0.0630
  317MPD2    C4 4818   0.808   1.441  13.266  0.1336  0.1133  0.0322
  317MPD2    C5 4819   0.798   1.551  13.189  0.6544 -0.0637 -0.1869
  317MPD2     H 4820   0.816   1.199  13.032  0.5612 -1.0859  3.1158
  317MPD2    H1 4821   0.817   1.448  13.374  2.3269  0.8667 -0.1822
  317MPD2    H2 4822   0.798   1.625  12.992 -0.9455  0.5562  0.6538
  317MPD2    H3 4823   0.792   1.652  13.227 -1.3731 -0.7193  1.2476
  317MPD2     N 4824   0.828   1.199  13.289  0.3729 -0.2298  0.6216
  317MPD2    H5 4825   0.829   1.116  13.231  1.4995  0.2264 -0.0099
  317MPD2    N1 4826   0.803   1.396  12.848 -0.5774 -0.1192  0.5702
  317MPD2    H7 4827   0.828   1.303  12.817 -0.1119  0.3897 -0.5480
  318TMC3    C1 4828   0.876   1.042  13.459  0.1516 -0.3822 -0.3218
  318TMC3    C2 4829   0.815   0.948  13.386  0.4840  0.6572  0.6431
  318TMC3    C3 4830   0.871   0.820  13.378  0.9995  0.9032  0.1943
  318TMC3    C4 4831   0.973   1.013  13.551 -0.0056 -0.0112 -0.4562
  318TMC3    C5 4832   1.022   0.884  13.544  0.3129  0.0101  0.9670
  318TMC3    C6 4833   0.983   0.795  13.446 -0.0543 -0.4925 -0.2799
  318TMC3     C 4834   0.870   1.187  13.422  0.0113 -0.0763 -0.4380
  318TMC3     O 4835   0.911   1.270  13.494 -0.3150 -0.1152  0.0039
  318TMC3     H 4836   0.735   0.980  13.321 -0.0327  0.2092  1.0605
  318TMC3    H1 4837   1.014   1.097  13.607  0.1599  0.3144 -1.0649
  318TMC3    H2 4838   1.027   0.695  13.446  2.1555  0.4861 -0.4333
  318TMC3    C7 4839   1.148   0.846  13.602 -0.1727 -0.3881 -0.0535
  318TMC3    C8 4840   0.805   0.712  13.300 -0.0232 -0.0433  0.2427
  318TMC3    O1 4841   1.246   0.819  13.533  0.0382 -0.0448  0.7475
  318TMC3    O2 4842   0.862   0.604  13.311  0.0002 -0.4292 -0.0831
  319MPD2     C 4843   2.143   2.681  16.687  0.8226  0.3213 -0.1626
  319MPD2    C1 4844   2.125   2.568  16.769  0.5091 -0.0072  0.5123
  319MPD2    C2 4845   2.018   2.489  16.736  0.3378 -0.0859  0.2413
  319MPD2    C3 4846   1.933   2.512  16.633  0.1370 -0.2445 -0.6034
  319MPD2    C4 4847   1.956   2.626  16.563 -0.3398 -0.0809  0.9156
  319MPD2    C5 4848   2.061   2.710  16.584  0.0994  0.1129  0.2458
  319MPD2     H 4849   1.999   2.395  16.786 -0.5010 -0.1601 -0.2079
  319MPD2    H1 4850   1.887   2.652  16.483  0.5270  1.4620  0.6665
  319MPD2    H2 4851   2.211   2.762  16.714 -0.1462  1.4273 -1.0904
  319MPD2    H3 4852   2.077   2.794  16.518 -0.7979  0.2107  0.1500
  319MPD2     N 4853   1.824   2.435  16.587  0.2227  0.0535 -0.1281
  319MPD2    H5 4854   1.785   2.462  16.497  2.1994 -2.0064 -1.5842
  319MPD2    N1 4855   2.193   2.544  16.890 -0.4422  0.3073 -0.3814
  319MPD2    H7 4856   2.172   2.456  16.935 -0.1541 -0.7101 -2.2285
  320TMC3    C1 4857   1.642   2.291  16.584  0.7174 -0.4233  0.3956
  320TMC3    C2 4858   1.576   2.374  16.500 -0.0765  0.4718 -0.0600
  320TMC3    C3 4859   1.449   2.337  16.464 -0.1960 -0.1644  0.0829
  320TMC3    C4 4860   1.595   2.170  16.627  0.3767  0.8182  0.3761
  320TMC3    C5 4861   1.465   2.135  16.582  0.6444 -0.4974  0.0261
  320TMC3    C6 4862   1.393   2.214  16.498  0.4011 -0.3481  0.6981
  320TMC3     C 4863   1.762   2.332  16.650  0.0203  0.7102  0.1115
  320TMC3     O 4864   1.783   2.282  16.759 -0.3857  0.1568 -0.8002
  320TMC3     H 4865   1.605   2.476  16.478 -1.1108  0.8481  0.3215
  320TMC3    H1 4866   1.654   2.102  16.687  0.2584 -0.2100 -0.6842
  320TMC3    H2 4867   1.307   2.174  16.444  1.1272  0.6157 -1.1646
  320TMC3    C7 4868   1.412   2.000  16.609 -0.0145  0.1431  0.5763
  320TMC3    C8 4869   1.387   2.412  16.356 -0.4534 -0.1116 -0.1560
  320TMC3    O1 4870   1.312   1.964  16.545 -0.5825 -0.2320 -0.1001
  320TMC3    O2 4871   1.454   2.487  16.295 -0.0078  0.4126 -0.3667
  321TMC3    C1 4872   2.311   2.575  17.079 -0.5960  0.2292 -1.0482
  321TMC3    C2 4873   2.356   2.445  17.076  0.1122 -0.2080 -0.2766
  321TMC3    C3 4874   2.366   2.384  17.200  0.3593 -0.3164 -0.4075
  321TMC3    C4 4875   2.285   2.650  17.189  0.5335 -0.1454 -0.1753
  321TMC3    C5 4876   2.316   2.590  17.306  0.4115 -0.1759  0.0080
  321TMC3    C6 4877   2.345   2.458  17.317  0.2270 -0.8227  0.3687
  321TMC3     C 4878   2.283   2.626  16.953 -0.2397  0.0979  0.8490
  321TMC3     O 4879   2.299   2.746  16.928 -0.3871  0.2468 -0.1337
  321TMC3     H 4880   2.382   2.398  16.982 -2.8684  0.7520 -1.6038
  321TMC3    H1 4881   2.264   2.756  17.178 -0.8845 -0.7278 -3.0359
  321TMC3    H2 4882   2.336   2.408  17.412 -0.7716  0.8535  1.1503
  321TMC3    C7 4883   2.387   2.670  17.401  0.1310 -0.3357 -0.0118
  321TMC3    C8 4884   2.483   2.305  17.226  0.4042 -0.3396  0.6404
  321TMC3    O1 4885   2.358   2.788  17.396 -0.6314 -0.2874  0.0369
  321TMC3    O2 4886   2.523   2.337  17.336 -0.1577 -0.4010  0.8990
  322MPD2     C 4887   0.360   3.476  13.468 -0.0469 -0.3563 -0.2465
  322MPD2    C1 4888   0.405   3.448  13.599  0.2267  0.4596  0.1566
  322MPD2    C2 4889   0.466   3.326  13.620  0.3597  0.6858 -0.0928
  322MPD2    C3 4890   0.477   3.236  13.518 -0.5001 -0.1234 -0.1262
  322MPD2    C4 4891   0.419   3.260  13.390 -0.1063  0.4215 -0.1852
  322MPD2    C5 4892   0.356   3.383  13.363  0.2784 -0.1863 -0.2570
  322MPD2     H 4893   0.515   3.310  13.716 -1.1953 -1.4365  0.3395
  322MPD2    H1 4894   0.436   3.191  13.309  1.4681  0.6868 -0.0905
  322MPD2    H2 4895   0.332   3.578  13.446  3.5108  0.3841 -1.4984
  322MPD2    H3 4896   0.330   3.401  13.260 -0.4957 -3.3427 -0.6111
  322MPD2     N 4897   0.557   3.119  13.550 -0.3177  0.2113 -0.3213
  322MPD2    H5 4898   0.589   3.118  13.647  0.6673 -0.7730 -0.6536
  322MPD2    N1 4899   0.385   3.550  13.700  0.3207  0.0666 -0.0942
  322MPD2    H7 4900   0.340   3.634  13.664  0.8108 -0.2666 -1.4946
  323TMC3    C1 4901   0.455   3.665  13.890  0.0379 -0.2871  0.1609
  323TMC3    C2 4902   0.510   3.768  13.812 -0.0547 -0.0280  0.7821
  323TMC3    C3 4903   0.610   3.846  13.866  0.3057  0.5476  0.0102
  323TMC3    C4 4904   0.505   3.649  14.020  0.7256 -0.2314 -0.1713
  323TMC3    C5 4905   0.607   3.728  14.073  0.1927  0.4201  0.4335
  323TMC3    C6 4906   0.655   3.833  13.998 -0.8479  0.0746  0.3677
  323TMC3     C 4907   0.432   3.541  13.827 -0.2912  0.0446 -0.0231
  323TMC3     O 4908   0.454   3.444  13.896  0.1548 -0.3629  0.2477
  323TMC3     H 4909   0.473   3.785  13.712  2.4461 -2.9189 -0.6227
  323TMC3    H1 4910   0.454   3.576  14.082 -1.1366  0.5350 -0.7676
  323TMC3    H2 4911   0.736   3.893  14.039 -0.2128 -0.5748  0.0532
  323TMC3    C7 4912   0.640   3.689  14.215  0.0355  0.3802 -0.5860
  323TMC3    C8 4913   0.684   3.937  13.784 -0.2265 -0.2502  0.2511
  323TMC3    O1 4914   0.576   3.598  14.261 -0.0302  0.0135 -0.1137
  323TMC3    O2 4915   0.792   3.976  13.818 -0.0950 -0.2914 -0.6243
  324MPD2     C 4916   2.616   4.634  14.161 -0.0726  0.3306  0.4294
  324MPD2    C1 4917   2.591   0.029  14.197  0.2385 -1.1136 -0.2639
  324MPD2    C2 4918   2.460   0.078  14.174  0.1857 -0.2441  0.2828
  324MPD2    C3 4919   2.359   4.733  14.145  0.2982 -0.2286 -0.6255
  324MPD2    C4 4920   2.387   4.605  14.111  0.1924 -0.1624 -0.1627
  324MPD2    C5 4921   2.510   4.557  14.122  0.1822 -0.6911  0.1460
  324MPD2     H 4922   2.437   0.182  14.193 -1.2434 -0.0828 -2.4043
  324MPD2    H1 4923   2.313   4.532  14.081  0.4557 -0.5714  0.1721
  324MPD2    H2 4924   2.710   4.580  14.172  0.5656  0.9891 -1.7544
  324MPD2    H3 4925   2.519   4.453  14.093  1.2129 -0.0127 -1.9359
  324MPD2     N 4926   2.219   0.029  14.145  0.4402  0.2473 -0.9633
  324MPD2    H5 4927   2.156   4.697  14.109  0.3630 -0.2960  0.2440
  324MPD2    N1 4928   2.687   0.122  14.245  0.3328  0.4937 -0.5732
  324MPD2    H7 4929   2.656   0.218  14.257 -2.8582 -0.6378  0.3724
  325TMC3    C1 4930   2.020   0.150  14.225  0.2159 -0.7779 -0.2089
  325TMC3    C2 4931   1.958   0.121  14.111 -0.4486 -0.2696 -0.4608
  325TMC3    C3 4932   1.836   0.178  14.085 -0.4609 -0.2289 -0.4654
  325TMC3    C4 4933   1.980   0.256  14.300  0.2678 -0.0058  0.0821
  325TMC3    C5 4934   1.858   0.308  14.287 -0.0622  0.2065 -1.4208
  325TMC3    C6 4935   1.781   0.263  14.176 -0.9282  0.0644  0.2795
  325TMC3     C 4936   2.165   0.139  14.215  0.0382 -0.1796 -0.4387
  325TMC3     O 4937   2.225   0.227  14.274  0.0532 -0.7407 -0.2079
  325TMC3     H 4938   2.001   0.042  14.051  0.5309 -0.2081  0.1654
  325TMC3    H1 4939   2.044   0.296  14.377 -0.9206  0.5227  0.7960
  325TMC3    H2 4940   1.686   0.310  14.156 -0.8168 -0.3512 -1.1798
  325TMC3    C7 4941   1.822   0.434  14.342 -0.0269 -0.0568  0.0673
  325TMC3    C8 4942   1.751   0.120  13.991 -0.0486 -0.7632 -0.4709
  325TMC3    O1 4943   1.906   0.512  14.378 -0.4104  0.5968  0.1122
  325TMC3    O2 4944   1.811   0.051  13.908 -0.2597  0.1562 -0.0385
  326MPD2     C 4945   2.987   1.036  11.223  0.3122  0.3353 -0.6617
  326MPD2    C1 4946   3.019   1.064  11.092 -0.0369  0.7112  0.0693
  326MPD2    C2 4947   3.121   1.152  11.065  0.4085 -0.1568  0.1450
  326MPD2    C3 4948   3.191   1.209  11.174  0.6319 -0.5430  0.1341
  326MPD2    C4 4949   3.156   1.182  11.305 -0.7956  0.0781 -0.4339
  326MPD2    C5 4950   3.056   1.090  11.325 -0.3509 -0.0574 -0.0262
  326MPD2     H 4951   3.139   1.173  10.960  1.4036  2.0862  0.7708
  326MPD2    H1 4952   3.211   1.236  11.382 -1.0707 -1.2393  0.6801
  326MPD2    H2 4953   2.907   0.969  11.252 -1.5346  1.5477 -2.9664
  326MPD2    H3 4954   3.043   1.061  11.429  3.1197  3.7673  1.4350
  326MPD2     N 4955   3.311   1.288  11.150  0.2422 -0.2980 -0.2185
  326MPD2    H5 4956   3.376   1.294  11.227  0.2026 -2.5411 -0.0069
  326MPD2    N1 4957   2.961   0.995  10.983 -0.8897 -0.3930 -1.1378
  326MPD2    H7 4958   3.003   1.026  10.896 -0.7677  0.6158 -0.7259
  327TMC3    C1 4959   2.853   0.843  10.851 -0.0387 -0.3882  0.2756
  327TMC3    C2 4960   2.771   0.909  10.763  0.4525  0.0057  0.7767
  327TMC3    C3 4961   2.806   0.920  10.633  0.3943  0.2168 -0.4725
  327TMC3    C4 4962   2.973   0.791  10.812 -0.4782 -0.4840 -0.4637
  327TMC3    C5 4963   3.006   0.814  10.677  0.3094  0.4103  0.1529
  327TMC3    C6 4964   2.916   0.851  10.587 -0.0754 -0.3269  0.0051
  327TMC3     C 4965   2.864   0.896  10.984 -0.3437 -0.2019  0.0527
  327TMC3     O 4966   2.805   0.845  11.080 -0.3781 -0.0942  0.3953
  327TMC3     H 4967   2.698   0.972  10.812  1.0704 -0.1362  1.8781
  327TMC3    H1 4968   3.052   0.745  10.870  0.8000  0.3792 -1.5184
  327TMC3    H2 4969   2.940   0.873  10.484  0.4249 -1.8565 -0.2103
  327TMC3    C7 4970   3.133   0.873  10.645 -0.1525 -0.0484  0.1159
  327TMC3    C8 4971   2.761   1.026  10.550  0.0253 -0.2066 -0.1756
  327TMC3    O1 4972   3.162   0.891  10.528 -0.3186 -0.1097  0.0226
  327TMC3    O2 4973   2.851   1.100  10.521 -0.7390 -0.5046 -0.2383
  328MPD2     C 4974   1.541   1.328  17.074  0.4304  0.2159  0.5126
  328MPD2    C1 4975   1.475   1.222  17.134  0.0479  0.2934 -0.3210
  328MPD2    C2 4976   1.352   1.190  17.082  0.0044 -0.2329  0.9532
  328MPD2    C3 4977   1.295   1.264  16.982 -0.4122  0.0912  0.0940
  328MPD2    C4 4978   1.358   1.377  16.934 -0.3469  0.9453  0.1480
  328MPD2    C5 4979   1.481   1.406  16.982  0.2004 -0.2015 -0.3320
  328MPD2     H 4980   1.307   1.095  17.108 -0.8471 -0.5942 -1.7753
  328MPD2    H1 4981   1.317   1.431  16.850  1.8643 -0.3672 -1.7531
  328MPD2    H2 4982   1.634   1.361  17.119 -0.1576 -0.3830  2.1770
  328MPD2    H3 4983   1.538   1.489  16.941  0.6541  0.1946  1.1086
  328MPD2     N 4984   1.172   1.232  16.911 -0.4293  0.0580  0.3485
  328MPD2    H5 4985   1.137   1.309  16.855  1.0074 -0.4693 -1.2449
  328MPD2    N1 4986   1.524   1.159  17.251 -0.1186  0.0766 -0.2830
  328MPD2    H7 4987   1.607   1.198  17.295  1.4254 -2.5202 -0.8837
  329TMC3    C1 4988   1.529   1.014  17.440 -0.1710 -0.0762 -0.6782
  329TMC3    C2 4989   1.619   1.106  17.500  0.1967 -0.4710  0.0770
  329TMC3    C3 4990   1.610   1.126  17.630  0.0522  0.9084  0.5821
  329TMC3    C4 4991   1.451   0.927  17.520  0.0699  0.4522  0.0939
  329TMC3    C5 4992   1.459   0.944  17.659  0.3157  0.5038  0.0003
  329TMC3    C6 4993   1.524   1.058  17.713 -0.5970 -0.1273  0.0469
  329TMC3     C 4994   1.473   1.038  17.305 -0.4416  0.0647 -0.6017
  329TMC3     O 4995   1.381   0.966  17.283  0.2054 -0.6422 -0.3761
  329TMC3     H 4996   1.678   1.175  17.440  1.2525  0.7293  2.5108
  329TMC3    H1 4997   1.382   0.853  17.480 -0.3249 -0.1220  1.8651
  329TMC3    H2 4998   1.524   1.100   0.059 -1.3872  3.1296 -1.2988
  329TMC3    C7 4999   1.339   0.899  17.718 -0.5491  0.0751 -0.1499
  329TMC3    C8 5000   1.648   1.257  17.671  0.0305  0.5141  0.3911
  329TMC3    O1 5001   1.238   0.873  17.652 -0.3677 -0.5001 -0.0332
  329TMC3    O2 5002   1.762   1.294  17.648  0.1132 -0.6069 -0.4947
  330TMC3    C1 5003   3.868   0.257  10.053 -0.6292 -0.0332  0.1048
  330TMC3    C2 5004   3.767   0.198   9.978  0.7721 -0.1255  0.2415
  330TMC3    C3 5005   3.688   0.101  10.033 -0.4485  0.2373 -0.6149
  330TMC3    C4 5006   3.894   0.213  10.175 -0.4722  0.2748 -0.3799
  330TMC3    C5 5007   3.815   0.114  10.236  0.0321  0.1028  0.2239
  330TMC3    C6 5008   3.704   0.063  10.166 -0.4981  0.0186  0.4974
  330TMC3     C 5009   3.914   0.392  10.023  0.6818  0.4494 -0.0893
  330TMC3     O 5010   3.979   0.450  10.110  0.0922  0.3412 -0.0657
  330TMC3     H 5011   3.747   0.229   9.876 -1.5076 -2.2036  0.0538
  330TMC3    H1 5012   3.973   0.254  10.237 -1.6353  1.7937  0.1055
  330TMC3    H2 5013   3.640   4.723  10.204 -0.6917 -0.8371 -1.5820
  330TMC3    C7 5014   3.804   0.111  10.376 -0.2896  0.1560 -1.1655
  330TMC3    C8 5015   3.586   0.038   9.942  0.0863 -0.4840 -0.2662
  330TMC3    O1 5016   3.873   0.194  10.432  0.7373  0.0205 -0.0221
  330TMC3    O2 5017   3.583   0.067   9.823  0.1381  0.4942 -0.4374
  331MPD2     C 5018   2.584   4.332  13.107 -0.9473 -0.1453 -0.8181
  331MPD2    C1 5019   2.502   4.410  13.042  1.0775  0.3306 -0.7811
  331MPD2    C2 5020   2.383   4.357  12.986 -0.4022 -0.2346  0.4608
  331MPD2    C3 5021   2.354   4.222  12.994 -0.8293 -0.0527 -0.2023
  331MPD2    C4 5022   2.442   4.141  13.065  0.6730  0.1439  0.0973
  331MPD2    C5 5023   2.553   4.198  13.125  0.6330 -0.1324 -1.0045
  331MPD2     H 5024   2.314   4.429  12.944 -0.0436 -0.1427  0.0268
  331MPD2    H1 5025   2.411   4.039  13.082 -1.3355  0.5380 -1.1792
  331MPD2    H2 5026   2.664   4.381  13.161 -1.1276  0.1364 -0.8039
  331MPD2    H3 5027   2.621   4.130  13.175 -0.2308 -0.4103 -0.1911
  331MPD2     N 5028   2.231   4.184  12.945 -0.2219  0.6367 -0.4752
  331MPD2    H5 5029   2.176   4.263  12.913  1.3938  1.3842 -1.4488
  331MPD2    N1 5030   2.530   4.549  13.033 -0.8177  0.0186 -0.2584
  331MPD2    H7 5031   2.624   4.570  13.065 -0.9317  0.4351 -0.2025
  332TMC3    C1 5032   2.060   4.046  12.880 -0.3209  0.5319 -0.2120
  332TMC3    C2 5033   2.031   4.125  12.770  0.1177 -0.0161 -0.3521
  332TMC3    C3 5034   1.908   4.101  12.704  0.7107 -0.5503 -0.3249
  332TMC3    C4 5035   1.984   3.933  12.905 -0.5839  0.1602 -0.2195
  332TMC3    C5 5036   1.871   3.899  12.828 -0.1772  0.7350  0.0378
  332TMC3    C6 5037   1.829   3.999  12.743 -0.2171  0.5625 -0.0442
  332TMC3     C 5038   2.192   4.051  12.940 -0.3893  0.6181  0.8160
  332TMC3     O 5039   2.243   3.948  12.970 -0.0555 -0.4000 -0.1911
  332TMC3     H 5040   2.097   4.205  12.739  0.0818  1.1195  2.4488
  332TMC3    H1 5041   2.028   3.864  12.976 -1.7851  2.3398  2.6315
  332TMC3    H2 5042   1.750   3.968  12.675 -0.2676 -1.7952  1.0898
  332TMC3    C7 5043   1.885   3.770  12.761  0.7764  0.4363 -0.1319
  332TMC3    C8 5044   1.922   4.099  12.557 -0.1729 -0.1609  0.5854
  332TMC3    O1 5045   1.781   3.717  12.716  0.3607  0.6418  0.4366
  332TMC3    O2 5046   1.826   4.070  12.482 -0.0410  0.7388  0.5224
  333MPD2     C 5047   1.706   4.082  11.276  0.2525 -0.2305  0.4722
  333MPD2    C1 5048   1.790   4.012  11.192  0.2634  0.0042 -0.2562
  333MPD2    C2 5049   1.856   3.901  11.230 -0.5578 -0.9675 -0.0812
  333MPD2    C3 5050   1.860   3.852  11.368  0.2481 -0.1653  1.3269
  333MPD2    C4 5051   1.770   3.916  11.445 -0.0499 -0.3532 -1.5599
  333MPD2    C5 5052   1.694   4.025  11.405  0.2797 -0.3622 -0.1408
  333MPD2     H 5053   1.912   3.838  11.161  0.9353  1.1238 -0.8110
  333MPD2    H1 5054   1.756   3.886  11.548  0.9250 -1.3854 -1.7360
  333MPD2    H2 5055   1.650   4.170  11.245 -0.6375 -1.8762 -2.6008
  333MPD2    H3 5056   1.632   4.071  11.480  0.0038 -0.9870  0.0125
  333MPD2     N 5057   1.940   3.739  11.405  0.0847  0.3745  0.2141
  333MPD2    H5 5058   1.988   3.693  11.329 -1.5247  0.3164 -0.7628
  333MPD2    N1 5059   1.802   4.069  11.063 -0.8549 -0.5207 -0.8024
  333MPD2    H7 5060   1.775   4.167  11.057 -1.0003 -0.5074  0.0350
  334TMC3    C1 5061   1.888   4.090  10.847  0.6109 -0.2225  0.0138
  334TMC3    C2 5062   1.989   4.034  10.768 -1.0662 -0.2174 -0.1344
  334TMC3    C3 5063   2.075   4.113  10.703 -0.0513  0.2603  0.0593
  334TMC3    C4 5064   1.858   4.224  10.847 -0.1066  0.4292 -0.1410
  334TMC3    C5 5065   1.955   4.299  10.777  0.2659  0.0127 -0.7248
  334TMC3    C6 5066   2.070   4.249  10.721 -0.3918 -0.4037 -0.1277
  334TMC3     C 5067   1.845   4.003  10.951 -0.2535 -0.4607  0.0687
  334TMC3     O 5068   1.875   3.886  10.937 -0.2081 -0.4319  0.0765
  334TMC3     H 5069   2.004   3.928  10.753 -1.9267 -0.4860  0.9628
  334TMC3    H1 5070   1.777   4.261  10.909 -1.7729 -1.7297 -1.0196
  334TMC3    H2 5071   2.133   4.318  10.665 -2.4766  1.5786 -0.0133
  334TMC3    C7 5072   1.961   4.445  10.797 -0.1301  0.8009 -0.1266
  334TMC3    C8 5073   2.186   4.052  10.639 -0.0354  0.1437  0.1851
  334TMC3    O1 5074   2.073   4.480  10.822  0.5562  0.1267  0.7700
  334TMC3    O2 5075   2.170   3.946  10.583 -0.5694 -0.2254 -0.4466
  335TMC3    C1 5076   2.344   1.068   0.058  0.2892 -0.4835  0.3503
  335TMC3    C2 5077   2.262   1.065  17.706  0.0665  0.4013  0.1950
  335TMC3    C3 5078   2.306   1.114  17.583 -0.3904 -0.2563  0.1200
  335TMC3    C4 5079   2.469   1.123   0.062  1.0453  0.2022  0.3511
  335TMC3    C5 5080   2.512   1.163  17.694  0.8038  0.2385  0.6228
  335TMC3    C6 5081   2.435   1.150  17.578  0.2645  0.4487 -0.8226
  335TMC3     C 5082   2.284   1.032   0.194 -0.0075  0.2120  0.1812
  335TMC3     O 5083   2.161   1.038   0.202  0.0406  0.1572  0.0715
  335TMC3     H 5084   2.162   1.025  17.718  0.3074  0.0294  0.9575
  335TMC3    H1 5085   2.536   1.124   0.147  0.0101 -1.0954  1.1897
  335TMC3    H2 5086   2.478   1.175  17.482  0.7040 -1.0071 -1.0069
  335TMC3    C7 5087   2.650   1.157  17.660  0.6437  0.1851  0.4806
  335TMC3    C8 5088   2.228   1.118  17.459 -0.0091 -0.3107  0.1612
  335TMC3    O1 5089   2.687   1.104  17.550  0.1284 -0.1375  0.4981
  335TMC3    O2 5090   2.270   1.175  17.359 -0.4985 -0.0408  0.0929
  336MPD2     C 5091   1.739   3.875  16.201  0.6714  1.1297 -0.4280
  336MPD2    C1 5092   1.748   3.808  16.077  0.2452 -0.5905 -0.1887
  336MPD2    C2 5093   1.769   3.671  16.075 -0.2908 -1.0567  0.7086
  336MPD2    C3 5094   1.768   3.595  16.189  0.2693 -0.4380  0.0208
  336MPD2    C4 5095   1.760   3.664  16.310 -0.4994 -0.0145 -0.1485
  336MPD2    C5 5096   1.743   3.797  16.318 -0.0689 -0.0686  0.9570
  336MPD2     H 5097   1.792   3.618  15.984  2.3323 -1.7648  1.7715
  336MPD2    H1 5098   1.778   3.610  16.402 -1.3481 -2.7584 -1.5771
  336MPD2    H2 5099   1.726   3.982  16.209 -0.0522  0.9594  0.6316
  336MPD2    H3 5100   1.753   3.841  16.417 -0.9420 -1.4931  1.6648
  336MPD2     N 5101   1.791   3.456  16.194 -0.7669  0.1712  0.2345
  336MPD2    H5 5102   1.778   3.409  16.283  1.7776 -0.2452  0.3913
  336MPD2    N1 5103   1.728   3.880  15.954 -0.6031  0.5818  0.0111
  336MPD2    H7 5104   1.750   3.835  15.866 -0.8779 -0.0287  0.2520
  337TMC3    C1 5105   1.628   4.044  15.813 -0.1326  0.2647  0.0622
  337TMC3    C2 5106   1.496   4.072  15.799  0.1969 -0.4886  0.4908
  337TMC3    C3 5107   1.432   4.038  15.678 -0.9124 -0.3848 -0.2595
  337TMC3    C4 5108   1.690   3.989  15.702  0.0776  0.0498  0.2011
  337TMC3    C5 5109   1.629   3.955  15.583 -0.9103 -0.1603  0.1813
  337TMC3    C6 5110   1.492   3.976  15.568 -0.2737  0.0291  0.0310
  337TMC3     C 5111   1.673   4.008  15.948  0.3257  0.3553  1.4774
  337TMC3     O 5112   1.630   4.085  16.031  0.3943  0.5060  0.2044
  337TMC3     H 5113   1.442   4.112  15.884  0.2664 -1.6891  1.0907
  337TMC3    H1 5114   1.795   3.962  15.716  0.5348  0.6797 -2.0049
  337TMC3    H2 5115   1.450   3.979  15.468 -0.5180  0.0756  0.1371
  337TMC3    C7 5116   1.713   3.890  15.483 -0.0128  0.0804 -0.7017
  337TMC3    C8 5117   1.284   4.057  15.679 -0.9533  0.5177 -0.8302
  337TMC3    O1 5118   1.831   3.872  15.510  0.4820  0.1399  0.7254
  337TMC3    O2 5119   1.239   4.115  15.779 -0.4104 -0.9191  0.1996
  338MPD2     C 5120   1.573   3.056   0.708 -0.1145  0.3117 -0.2097
  338MPD2    C1 5121   1.572   3.084   0.572  0.5870 -0.2385 -0.7558
  338MPD2    C2 5122   1.453   3.127   0.508  0.0815 -0.1027  0.3296
  338MPD2    C3 5123   1.341   3.161   0.589 -0.6558 -0.8167  0.3541
  338MPD2    C4 5124   1.348   3.140   0.726  0.5864  0.5062 -0.3175
  338MPD2    C5 5125   1.460   3.087   0.779  0.7753  0.7050  0.8157
  338MPD2     H 5126   1.459   3.146   0.401 -1.2247  1.3435  0.5137
  338MPD2    H1 5127   1.263   3.148   0.792  1.7129  0.1446  1.1909
  338MPD2    H2 5128   1.659   3.039   0.771 -0.7454  0.1128  0.6006
  338MPD2    H3 5129   1.454   3.061   0.884  0.3979 -2.2186  0.0652
  338MPD2     N 5130   1.227   3.213   0.532 -0.2542 -0.0195  0.1609
  338MPD2    H5 5131   1.226   3.228   0.432  2.3617  0.3663  0.1890
  338MPD2    N1 5132   1.686   3.068   0.484  0.0395  0.7573 -0.0050
  338MPD2    H7 5133   1.678   3.109   0.391 -0.2832 -1.0132 -0.7610
  339TMC3    C1 5134   1.017   3.236   0.465  0.0248 -0.3640 -0.4528
  339TMC3    C2 5135   0.963   3.121   0.419 -0.6644  0.4709 -0.3607
  339TMC3    C3 5136   0.951   3.105   0.291 -0.1762 -0.3212 -0.1213
  339TMC3    C4 5137   1.057   3.338   0.383  0.4794  0.2229 -0.0047
  339TMC3    C5 5138   1.027   3.320   0.250  0.5005 -0.1125 -0.0299
  339TMC3    C6 5139   0.978   3.206   0.200 -0.1561  0.2910 -0.3939
  339TMC3     C 5140   1.100   3.212   0.582 -0.3178 -0.2016 -0.1184
  339TMC3     O 5141   1.052   3.173   0.687  0.0801  0.0577 -0.0781
  339TMC3     H 5142   0.937   3.055   0.501 -2.1399  0.4908 -0.8127
  339TMC3    H1 5143   1.081   3.432   0.432 -2.4777  1.9878 -1.9285
  339TMC3    H2 5144   0.949   3.197   0.096 -0.2628 -0.6929 -0.2797
  339TMC3    C7 5145   1.099   3.412   0.167  0.1772  0.0214  0.8815
  339TMC3    C8 5146   0.969   2.970   0.240 -0.1280 -0.2991 -0.0973
  339TMC3    O1 5147   1.135   3.513   0.225  0.1805 -0.0291  0.0265
  339TMC3    O2 5148   0.958   2.960   0.119  0.4254  0.2070  0.2283
  340MPD2     C 5149   1.584   0.351  10.230  0.5685  0.0712  0.6790
  340MPD2    C1 5150   1.637   0.442  10.144  0.0033 -0.9707  0.6583
  340MPD2    C2 5151   1.650   0.574  10.188 -0.0595  0.3101 -0.2362
  340MPD2    C3 5152   1.625   0.609  10.325  0.0915 -0.5722 -0.5603
  340MPD2    C4 5153   1.579   0.510  10.403  0.0956 -0.4016  0.0157
  340MPD2    C5 5154   1.553   0.384  10.360  0.4667 -0.3788  0.9265
  340MPD2     H 5155   1.695   0.654  10.131 -3.6954  1.9113 -0.8739
  340MPD2    H1 5156   1.555   0.532  10.506  2.4997  0.0306  0.4741
  340MPD2    H2 5157   1.574   0.245  10.211  0.9108  0.2668 -0.5997
  340MPD2    H3 5158   1.515   0.318  10.437  1.0803  0.6231  2.0787
  340MPD2     N 5159   1.652   0.732  10.386 -0.5310  0.1064 -0.0368
  340MPD2    H5 5160   1.640   0.734  10.487 -0.5329  1.2505 -0.0629
  340MPD2    N1 5161   1.692   0.397  10.020  0.0688 -0.0731  0.1437
  340MPD2    H7 5162   1.682   0.299   9.998  0.5044 -0.1111  0.1200
  341TMC3    C1 5163   1.805   0.398   9.826 -0.3062 -0.1926  0.8947
  341TMC3    C2 5164   1.782   0.262   9.831  0.0730 -0.6963  0.3247
  341TMC3    C3 5165   1.872   0.189   9.770  0.0709  0.0272  0.0220
  341TMC3    C4 5166   1.914   0.453   9.764 -0.0392 -0.8556  0.6374
  341TMC3    C5 5167   1.996   0.371   9.702  0.8399 -0.0083 -0.0048
  341TMC3    C6 5168   1.978   0.229   9.704  0.3492  0.1147 -0.4784
  341TMC3     C 5169   1.740   0.480   9.918  0.4622  0.1231  0.2131
  341TMC3     O 5170   1.755   0.602   9.914 -0.5189 -0.1844 -0.3644
  341TMC3     H 5171   1.687   0.220   9.861  0.2029 -0.5807  0.9088
  341TMC3    H1 5172   1.940   0.558   9.775  0.0191 -0.7899 -0.1610
  341TMC3    H2 5173   2.040   0.167   9.640  0.8977  1.5559 -1.3553
  341TMC3    C7 5174   2.130   0.413   9.674  0.1331  0.7949  0.1286
  341TMC3    C8 5175   1.842   0.044   9.760 -1.0666  0.4419  0.5604
  341TMC3    O1 5176   2.215   0.334   9.700 -0.3734  0.2785  0.2174
  341TMC3    O2 5177   1.749   4.738   9.828 -0.1173 -0.4981  0.7433
  342MPD2     C 5178   4.648   4.043  17.735  0.2062  0.5604  0.2766
  342MPD2    C1 5179   0.023   4.062  17.660 -0.9403 -0.2394  0.2858
  342MPD2    C2 5180   0.094   4.184  17.672  0.3640  0.2168  0.0447
  342MPD2    C3 5181   0.044   4.291  17.748 -0.0020  0.5257  0.3708
  342MPD2    C4 5182   4.675   4.258   0.068  0.4646  0.4523  0.3500
  342MPD2    C5 5183   4.603   4.145   0.060  0.3518  0.2175  0.2277
  342MPD2     H 5184   0.182   4.192  17.610  1.2751  0.3150  1.3436
  342MPD2    H1 5185   4.624   4.343   0.113  2.5594  1.3848  0.9797
  342MPD2    H2 5186   4.591   3.951  17.744 -0.0466  0.6446 -0.4814
  342MPD2    H3 5187   4.517   4.138   0.126 -0.7899 -0.3227 -1.3162
  342MPD2     N 5188   0.105   4.421  17.747  0.0964 -0.1210 -0.3146
  342MPD2    H5 5189   0.062   4.499   0.043  2.5961 -0.3319  2.1763
  342MPD2    N1 5190   0.075   3.965  17.568  0.6050  0.0899 -0.1151
  342MPD2    H7 5191   0.167   3.987  17.532  0.3923  0.3122 -0.5230
  343TMC3    C1 5192   0.083   3.780  17.430  0.2148 -0.2422 -0.1770
  343TMC3    C2 5193   0.178   3.846  17.359  0.2008 -0.2113  0.3030
  343TMC3    C3 5194   0.225   3.772  17.253 -0.0669 -0.0252 -0.4897
  343TMC3    C4 5195   0.043   3.654  17.409  0.3318 -0.5060 -0.0513
  343TMC3    C5 5196   0.092   3.591  17.301 -0.3205 -0.3039 -0.3382
  343TMC3    C6 5197   0.178   3.647  17.215  0.2609 -0.0954  0.2908
  343TMC3     C 5198   0.012   3.847  17.539 -0.4526 -0.3642  0.0367
  343TMC3     O 5199   4.651   3.798  17.581 -0.0267  0.4545 -0.1150
  343TMC3     H 5200   0.210   3.949  17.368  1.3762 -0.7625  2.4980
  343TMC3    H1 5201   4.701   3.613  17.468 -0.1614 -0.6892 -0.8395
  343TMC3    H2 5202   0.225   3.579  17.145  0.0095  0.0893 -0.0586
  343TMC3    C7 5203   0.084   3.444  17.301  1.0085  0.6964 -0.0030
  343TMC3    C8 5204   0.318   3.836  17.165  0.7772  0.0131  0.2889
  343TMC3    O1 5205   0.075   3.392  17.195  0.1795 -0.4693 -0.7020
  343TMC3    O2 5206   0.358   3.943  17.210  0.4078  0.4142 -0.2362
  344MPD2     C 5207   0.745   3.337  10.730  0.0439  0.4098 -0.2101
  344MPD2    C1 5208   0.787   3.278  10.609  0.5200 -0.4398 -1.1627
  344MPD2    C2 5209   0.850   3.348  10.512 -0.4412  0.0451 -0.3077
  344MPD2    C3 5210   0.883   3.478  10.542  0.2041  0.2544  0.5519
  344MPD2    C4 5211   0.842   3.540  10.659 -0.7220 -0.0688 -0.3740
  344MPD2    C5 5212   0.775   3.468  10.756 -0.0421 -0.8087 -0.3143
  344MPD2     H 5213   0.875   3.305  10.416 -0.3649 -0.2853 -0.1385
  344MPD2    H1 5214   0.875   3.641  10.681 -3.3248  0.5554  0.7363
  344MPD2    H2 5215   0.696   3.277  10.807  0.1110  2.0823  1.1319
  344MPD2    H3 5216   0.753   3.502  10.856  0.8773 -0.6363 -0.1631
  344MPD2     N 5217   0.957   3.562  10.454 -0.4981  0.0458  0.3296
  344MPD2    H5 5218   1.000   3.646  10.492 -1.9888  1.2371 -0.6419
  344MPD2    N1 5219   0.762   3.143  10.578  0.3768 -0.0812  0.1813
  344MPD2    H7 5220   0.810   3.108  10.496  0.3112  0.6291 -0.1601
  345TMC3    C1 5221   1.047   3.668  10.277 -0.0327  0.1308 -0.0037
  345TMC3    C2 5222   1.138   3.733  10.357  0.0809 -0.6870 -0.3226
  345TMC3    C3 5223   1.155   3.867  10.344  0.4895  0.0752 -0.5616
  345TMC3    C4 5224   0.973   3.737  10.187 -0.2585 -0.3232 -0.4589
  345TMC3    C5 5225   0.996   3.874  10.164  0.3372  0.6916 -0.3719
  345TMC3    C6 5226   1.102   3.930  10.236  0.0117  0.2916  0.3731
  345TMC3     C 5227   0.989   3.545  10.323 -0.6276 -0.2458  0.0257
  345TMC3     O 5228   0.916   3.477  10.249  0.2894 -0.1786  0.3098
  345TMC3     H 5229   1.184   3.675  10.437  0.0638 -2.1031 -1.3311
  345TMC3    H1 5230   0.889   3.682  10.146  0.1630 -0.2142 -1.4673
  345TMC3    H2 5231   1.125   4.032  10.209  0.1672 -0.0549 -0.7884
  345TMC3    C7 5232   0.884   3.961  10.148 -0.0609 -0.1503 -0.8837
  345TMC3    C8 5233   1.152   3.940  10.469  0.2525 -0.2387  0.4996
  345TMC3    O1 5234   0.898   4.082  10.171 -0.1574 -0.9545 -0.2994
  345TMC3    O2 5235   1.080   3.889  10.556  0.6587 -0.1229  0.5645
  346MPD2     C 5236   0.503   0.129  14.055 -0.7424  0.0613 -0.8165
  346MPD2    C1 5237   0.596   0.213  14.001  0.1955 -0.1848  0.0368
  346MPD2    C2 5238   0.677   0.289  14.088  0.2680  0.0772  0.3848
  346MPD2    C3 5239   0.663   0.279  14.223  0.6285 -0.4201 -0.4418
  346MPD2    C4 5240   0.566   0.198  14.282  0.4697  0.6195 -0.1507
  346MPD2    C5 5241   0.486   0.131  14.196 -0.4833 -0.1623 -1.0351
  346MPD2     H 5242   0.743   0.367  14.051  1.4619 -1.8154 -1.4572
  346MPD2    H1 5243   0.553   0.197  14.389  0.4532 -0.0512 -0.1603
  346MPD2    H2 5244   0.438   0.065  13.998  0.5240 -1.0839 -0.9775
  346MPD2    H3 5245   0.408   0.070  14.241  0.6001 -0.0176  1.0425
  346MPD2     N 5246   0.751   0.359  14.298  0.3777 -0.1169  0.2042
  346MPD2    H5 5247   0.814   0.414  14.241 -0.9254  0.5805 -0.5572
  346MPD2    N1 5248   0.613   0.231  13.860  0.3480  0.6194  0.2173
  346MPD2    H7 5249   0.692   0.288  13.830  0.1029  0.4677 -0.7251
  347TMC3    C1 5250   0.826   0.497  14.478 -0.2273  0.0468  0.0322
  347TMC3    C2 5251   0.958   0.504  14.424  0.6281 -0.4711 -1.0297
  347TMC3    C3 5252   1.048   0.575  14.497 -0.0306 -0.0648 -0.0208
  347TMC3    C4 5253   0.797   0.555  14.596 -0.1725  0.3624  0.7650
  347TMC3    C5 5254   0.896   0.626  14.667 -0.1968 -0.7748  0.7023
  347TMC3    C6 5255   1.024   0.635  14.617 -0.8686 -0.3559 -0.2404
  347TMC3     C 5256   0.734   0.394  14.427 -0.2186 -0.1103  0.0404
  347TMC3     O 5257   0.649   0.360  14.503 -0.4920 -0.2052  0.2120
  347TMC3     H 5258   0.985   0.465  14.327 -0.3314  1.7925 -2.1880
  347TMC3    H1 5259   0.701   0.538  14.642 -1.1502 -1.3812 -1.9839
  347TMC3    H2 5260   1.093   0.698  14.673 -0.6825 -0.1558 -0.6882
  347TMC3    C7 5261   0.846   0.695  14.786 -0.2133 -0.7287 -0.1517
  347TMC3    C8 5262   1.182   0.561  14.455 -0.5011 -0.5847  0.0365
  347TMC3    O1 5263   0.728   0.701  14.804 -0.2880 -0.4561 -0.9393
  347TMC3    O2 5264   1.204   0.475  14.371  0.3898  0.1244 -0.2324
  348MPD2     C 5265   3.919   0.073  12.164 -0.5773 -0.3981  0.8163
  348MPD2    C1 5266   4.017   0.147  12.106  0.0082  0.7044  0.5850
  348MPD2    C2 5267   3.972   0.262  12.040 -0.1443  0.1297  0.4290
  348MPD2    C3 5268   3.842   0.308  12.035  0.1177 -0.5855 -0.1163
  348MPD2    C4 5269   3.748   0.227  12.089  0.3615  0.0211 -0.0705
  348MPD2    C5 5270   3.788   0.114  12.159 -0.5097  0.4085  0.0119
  348MPD2     H 5271   4.046   0.330  11.998 -1.1001  0.8335 -0.1087
  348MPD2    H1 5272   3.643   0.253  12.084  0.3498 -0.2499 -1.1164
  348MPD2    H2 5273   3.927   4.717  12.216  3.3373  0.5141  1.8646
  348MPD2    H3 5274   3.716   0.040  12.191 -1.1463  1.3855  0.8500
  348MPD2     N 5275   3.817   0.422  11.957 -0.5645 -0.7007 -0.1916
  348MPD2    H5 5276   3.895   0.466  11.910  0.3382 -2.4793 -0.3692
  348MPD2    N1 5277   4.156   0.111  12.110  0.3619 -0.2141  0.2483
  348MPD2    H7 5278   4.226   0.161  12.054  0.4175 -0.8780 -0.2825
  349TMC3    C1 5279   4.342   4.693  12.123 -0.4748  0.0956 -0.5476
  349TMC3    C2 5280   4.383   4.568  12.172 -0.1040  0.0702  0.2039
  349TMC3    C3 5281   4.409   4.472  12.084 -0.1407  0.0055 -0.9583
  349TMC3    C4 5282   4.359   4.717  11.990 -0.6400  0.6146  0.7576
  349TMC3    C5 5283   4.405   4.618  11.901 -0.9861  0.2893  0.2059
  349TMC3    C6 5284   4.435   4.496  11.946 -0.5933 -0.4324  0.5528
  349TMC3     C 5285   4.209   4.731  12.168  0.4057 -0.4247  0.7908
  349TMC3     O 5286   4.146   4.647  12.228  0.1175 -0.8301 -0.0683
  349TMC3     H 5287   4.370   4.553  12.278  0.3739 -2.0663 -0.0439
  349TMC3    H1 5288   4.319   0.072  11.952 -0.3831  0.9449  1.3080
  349TMC3    H2 5289   4.475   4.419  11.881  1.1922 -0.4463  1.6726
  349TMC3    C7 5290   4.304   4.605  11.806 -0.3938 -0.7342 -0.6524
  349TMC3    C8 5291   4.458   4.348  12.133  0.8801  0.3813  0.2555
  349TMC3    O1 5292   4.240   4.504  11.814 -0.1971  0.1154  0.9566
  349TMC3    O2 5293   4.467   4.335  12.255 -0.1665 -0.7051 -0.0422
  350MPD2     C 5294   3.793   3.112  10.173  0.4211  0.1571 -0.8404
  350MPD2    C1 5295   3.684   3.034  10.160 -0.6049 -0.4042 -0.5625
  350MPD2    C2 5296   3.639   2.964  10.271  0.3590  0.0671  0.3290
  350MPD2    C3 5297   3.696   2.968  10.400  0.0104  0.0086  0.2998
  350MPD2    C4 5298   3.800   3.054  10.405  0.2852 -0.1503 -0.5819
  350MPD2    C5 5299   3.845   3.128  10.299  0.9619  0.3547 -0.8880
  350MPD2     H 5300   3.550   2.906  10.250  0.0336  0.2099  1.3406
  350MPD2    H1 5301   3.857   3.073  10.496  0.6203 -2.8896 -0.2238
  350MPD2    H2 5302   3.838   3.166  10.091  0.7369 -0.7416 -1.2565
  350MPD2    H3 5303   3.933   3.190  10.311  1.0736 -0.4768  2.4450
  350MPD2     N 5304   3.625   2.909  10.510 -1.1466  0.4098  0.1665
  350MPD2    H5 5305   3.544   2.853  10.485 -1.4295  1.1830 -0.6497
  350MPD2    N1 5306   3.619   3.007  10.036 -0.2667 -0.5151 -0.0005
  350MPD2    H7 5307   3.535   2.953  10.051 -2.0588  2.2391 -0.1147
  351TMC3    C1 5308   3.570   3.023   9.799 -0.3546 -0.0590 -0.1382
  351TMC3    C2 5309   3.513   2.900   9.819  0.1846 -0.7959 -0.2911
  351TMC3    C3 5310   3.458   2.843   9.714  0.2090 -0.3103  0.8614
  351TMC3    C4 5311   3.571   3.083   9.681  0.2425 -0.6641  0.2156
  351TMC3    C5 5312   3.513   3.017   9.577  0.8774  0.6084 -0.4169
  351TMC3    C6 5313   3.452   2.901   9.587  0.1451 -0.0611 -0.2377
  351TMC3     C 5314   3.650   3.068   9.916 -0.1134  0.1177 -0.1561
  351TMC3     O 5315   3.718   3.167   9.889  0.0671 -0.0623 -0.0843
  351TMC3     H 5316   3.542   2.840   9.904  0.7643  1.3296  1.0360
  351TMC3    H1 5317   3.603   3.186   9.667  1.0212 -0.8508  0.6280
  351TMC3    H2 5318   3.426   2.843   9.499  2.1499 -2.1687  0.5470
  351TMC3    C7 5319   3.514   3.082   9.446  0.5242  0.5381  0.7234
  351TMC3    C8 5320   3.410   2.708   9.735 -0.1486  0.2154 -0.1667
  351TMC3    O1 5321   3.568   3.192   9.440  0.2144  0.2442  0.6651
  351TMC3    O2 5322   3.383   2.638   9.639  0.2851 -0.7531  0.1376
  352MPD2     C 5323   2.034   0.378   1.280  0.6998  0.1617 -1.0509
  352MPD2    C1 5324   1.932   0.290   1.299 -0.6156 -0.4728  1.0470
  352MPD2    C2 5325   1.956   0.155   1.300  0.0567 -0.4440 -0.2060
  352MPD2    C3 5326   2.083   0.101   1.284 -0.6872 -0.6659  0.3685
  352MPD2    C4 5327   2.186   0.193   1.290 -0.1333  0.5919  0.1589
  352MPD2    C5 5328   2.162   0.328   1.275  0.2474 -0.3377 -0.3356
  352MPD2     H 5329   1.879   0.079   1.302 -0.7604  0.4134  0.6194
  352MPD2    H1 5330   2.289   0.160   1.279 -0.6008 -0.4592 -1.0162
  352MPD2    H2 5331   2.018   0.485   1.281 -0.0054  0.0550 -0.8992
  352MPD2    H3 5332   2.242   0.401   1.269 -0.2507  0.2315 -0.0418
  352MPD2     N 5333   2.119   4.705   1.269  0.1811  0.5993 -0.1843
  352MPD2    H5 5334   2.217   4.680   1.280 -0.0504 -0.2518 -0.0252
  352MPD2    N1 5335   1.798   0.344   1.305  0.2692 -0.0756  0.2994
  352MPD2    H7 5336   1.784   0.444   1.301  0.4627 -0.0781 -0.6121
  353TMC3    C1 5337   2.067   4.464   1.246 -0.5213 -0.5361 -0.1988
  353TMC3    C2 5338   2.198   4.441   1.244 -0.7212  0.6467 -0.1242
  353TMC3    C3 5339   2.248   4.339   1.169  0.3277  0.2848  0.1089
  353TMC3    C4 5340   1.981   4.368   1.198  0.1145  0.2923  0.1557
  353TMC3    C5 5341   2.033   4.268   1.122 -0.2610 -0.5038  0.1392
  353TMC3    C6 5342   2.166   4.263   1.096  0.6346 -0.1310 -0.2776
  353TMC3     C 5343   2.026   4.601   1.255  0.3668 -0.7163  0.3299
  353TMC3     O 5344   1.907   4.612   1.223  0.3568  0.1440 -0.2788
  353TMC3     H 5345   2.264   4.500   1.307 -1.0690  2.0681 -1.0815
  353TMC3    H1 5346   1.874   4.382   1.206  0.2167  1.1311  0.0802
  353TMC3    H2 5347   2.196   4.186   1.025  1.4540 -1.0171  1.0327
  353TMC3    C7 5348   1.939   4.183   1.048 -0.1282 -0.1776 -0.5848
  353TMC3    C8 5349   2.375   4.281   1.210  0.3519  0.2380  0.0136
  353TMC3    O1 5350   1.934   4.182   0.926  0.6510  0.1082  0.5387
  353TMC3    O2 5351   2.464   4.345   1.262 -0.3392 -0.2345 -0.7273
  354TMC3    C1 5352   3.642   1.399  13.675 -0.4720  0.1576 -0.5241
  354TMC3    C2 5353   3.601   1.460  13.559 -0.4881 -0.3974  0.0118
  354TMC3    C3 5354   3.685   1.541  13.485 -0.7093  0.2617  0.2155
  354TMC3    C4 5355   3.769   1.423  13.716  0.2644 -0.0779  0.0693
  354TMC3    C5 5356   3.844   1.512  13.647 -0.3820 -0.6148 -0.0531
  354TMC3    C6 5357   3.809   1.566  13.529  0.6081  0.1896 -0.1475
  354TMC3     C 5358   3.554   1.332  13.766 -0.0248  0.0214  0.4582
  354TMC3     O 5359   3.595   1.254  13.852 -0.0047 -0.0125  0.4704
  354TMC3     H 5360   3.501   1.446  13.520  0.0082 -0.8710 -1.1015
  354TMC3    H1 5361   3.802   1.389  13.813 -3.0251 -0.8132  0.9257
  354TMC3    H2 5362   3.870   1.640  13.478 -0.4506 -1.3157 -3.5900
  354TMC3    C7 5363   3.979   1.529  13.698  0.1669 -0.0513  0.3498
  354TMC3    C8 5364   3.608   1.622  13.380  0.3967 -0.5463 -0.2827
  354TMC3    O1 5365   4.035   1.433  13.752 -0.0752 -0.0787 -0.3452
  354TMC3    O2 5366   3.492   1.590  13.357 -0.1170 -0.2209 -0.2607
  355MPD2     C 5367   3.034   2.040  11.827  0.0075  0.4108 -0.3333
  355MPD2    C1 5368   3.131   2.074  11.734 -0.0939  0.9261  0.2352
  355MPD2    C2 5369   3.263   2.077  11.780  0.0843 -0.2625 -0.6635
  355MPD2    C3 5370   3.306   2.071  11.910  0.7718 -0.3768 -0.3828
  355MPD2    C4 5371   3.206   2.046  12.000  0.2601 -0.3308  0.0160
  355MPD2    C5 5372   3.071   2.027  11.958 -0.8370  0.6024 -0.3475
  355MPD2     H 5373   3.346   2.082  11.710  3.2094 -0.4573  3.0127
  355MPD2    H1 5374   3.225   2.022  12.104  2.5859 -1.7005 -0.7336
  355MPD2    H2 5375   2.927   2.034  11.813 -0.2502  2.4119  0.7721
  355MPD2    H3 5376   2.996   1.999  12.031  1.0608 -1.2546  0.9135
  355MPD2     N 5377   3.441   2.100  11.956  0.2844 -0.0278  0.1502
  355MPD2    H5 5378   3.459   2.099  12.056 -0.9806 -2.8194  0.3576
  355MPD2    N1 5379   3.088   2.097  11.601  0.6088  0.7466 -0.6258
  355MPD2    H7 5380   2.988   2.078  11.598  0.5825  0.9766 -1.3042
  356TMC3    C1 5381   3.668   2.164  11.960  0.4412  0.0506  0.3554
  356TMC3    C2 5382   3.780   2.180  11.880 -0.7064 -0.0927 -0.4865
  356TMC3    C3 5383   3.887   2.238  11.941  0.2098 -0.3780  0.1703
  356TMC3    C4 5384   3.666   2.189  12.095  0.1712 -0.4195  0.0925
  356TMC3    C5 5385   3.775   2.265  12.147  0.0036  0.2416  0.2349
  356TMC3    C6 5386   3.885   2.294  12.069  0.6017  0.0076  0.9426
  356TMC3     C 5387   3.551   2.124  11.881  0.1359  0.1538 -0.2787
  356TMC3     O 5388   3.568   2.113  11.758 -0.4193 -0.8487  0.4865
  356TMC3     H 5389   3.777   2.185  11.772 -1.9846  0.6184 -0.4214
  356TMC3    H1 5390   3.580   2.160  12.155 -0.5807  1.6493  0.0061
  356TMC3    H2 5391   3.971   2.348  12.105  0.8036  0.7339 -0.6433
  356TMC3    C7 5392   3.764   2.290  12.286  0.1550  0.5733 -0.6794
  356TMC3    C8 5393   4.002   2.268  11.854 -0.3750  0.5426 -0.3499
  356TMC3    O1 5394   3.668   2.260  12.353  0.4775  0.4305  0.3490
  356TMC3    O2 5395   3.992   2.198  11.755  0.3202  0.2792 -0.0680
  357MPD2     C 5396   3.969   4.671   1.512 -0.5400 -0.3882 -0.0879
  357MPD2    C1 5397   3.899   4.708   1.406 -0.7140  0.0281  0.0503
  357MPD2    C2 5398   3.796   4.631   1.350  0.6696  0.2511 -0.4046
  357MPD2    C3 5399   3.763   4.512   1.419  0.4884  1.0252 -0.4674
  357MPD2    C4 5400   3.830   4.469   1.529  0.5340 -0.0130 -0.3455
  357MPD2    C5 5401   3.933   4.551   1.574 -0.3028  0.0127 -0.4322
  357MPD2     H 5402   3.737   4.664   1.266 -0.2150  0.0944  0.1555
  357MPD2    H1 5403   3.800   4.377   1.579 -0.0622  0.3603 -0.0243
  357MPD2    H2 5404   4.062   4.721   1.535  0.4010 -2.1716 -0.0012
  357MPD2    H3 5405   3.984   4.515   1.662  0.9945 -1.3979 -1.7561
  357MPD2     N 5406   3.680   4.411   1.374 -0.0706  0.3156 -0.3327
  357MPD2    H5 5407   3.678   4.323   1.424  0.4176  2.3593  3.3142
  357MPD2    N1 5408   3.940   0.087   1.335 -0.1306 -0.0503 -0.2100
  357MPD2    H7 5409   4.003   0.152   1.379 -2.0984  1.2028  0.7660
  358TMC3    C1 5410   3.947   0.250   1.161  0.6264 -0.0045  0.3815
  358TMC3    C2 5411   3.848   0.309   1.082  0.0562  0.2049  0.5610
  358TMC3    C3 5412   3.829   0.445   1.097 -0.2662 -1.0417  0.2105
  358TMC3    C4 5413   4.027   0.323   1.242 -1.5028  0.4065  0.4921
  358TMC3    C5 5414   4.024   0.459   1.228 -0.3356 -0.1703 -0.6783
  358TMC3    C6 5415   3.925   0.522   1.165 -0.4951  0.7099 -0.8258
  358TMC3     C 5416   3.905   0.119   1.206  0.0296  0.7235  0.4028
  358TMC3     O 5417   3.842   0.061   1.119  0.2426  0.2979  0.5074
  358TMC3     H 5418   3.781   0.250   1.019 -1.1095  1.3335  0.7384
  358TMC3    H1 5419   4.096   0.277   1.312 -1.2413  0.1692  0.0786
  358TMC3    H2 5420   3.904   0.627   1.183 -1.3714  0.4662 -0.4305
  358TMC3    C7 5421   4.105   0.531   1.328  0.1048  0.2868  0.3539
  358TMC3    C8 5422   3.738   0.526   1.016 -0.1651  0.3127 -0.5595
  358TMC3    O1 5423   4.172   0.473   1.413 -0.0660  0.0678 -0.1068
  358TMC3    O2 5424   3.750   0.648   1.023 -0.2617  0.2407  0.1049
  359MPD2     C 5425   3.785   1.231  12.708 -0.3116 -0.0499  0.0877
  359MPD2    C1 5426   3.813   1.107  12.650  0.2922  0.1461 -0.3441
  359MPD2    C2 5427   3.750   0.994  12.694 -0.2123  0.7704 -0.6162
  359MPD2    C3 5428   3.659   0.997  12.801 -0.4173  0.5874 -0.0673
  359MPD2    C4 5429   3.628   1.120  12.849  0.7095 -0.3398 -0.3052
  359MPD2    C5 5430   3.693   1.232  12.807  0.5234  0.1844 -0.5634
  359MPD2     H 5431   3.767   0.905  12.634 -0.4622  0.7286 -0.6266
  359MPD2    H1 5432   3.562   1.131  12.934  0.1878 -0.6283 -0.6760
  359MPD2    H2 5433   3.845   1.319  12.688  0.8579 -0.5503  1.3620
  359MPD2    H3 5434   3.677   1.326  12.860  0.2645  0.1046 -0.4959
  359MPD2     N 5435   3.589   0.882  12.848  0.3050  0.7979  0.0794
  359MPD2    H5 5436   3.506   0.896  12.904 -0.2200 -1.0809 -0.2123
  359MPD2    N1 5437   3.889   1.096  12.533  0.6499  0.4312 -0.5707
  359MPD2    H7 5438   3.892   1.002  12.493  0.6358 -0.7770  2.2740
  360TMC3    C1 5439   4.025   1.134  12.351 -0.4055  0.1380  0.0807
  360TMC3    C2 5440   4.163   1.142  12.329 -0.0752  1.2485  0.9732
  360TMC3    C3 5441   4.205   1.053  12.235  0.1577 -0.4008 -0.0349
  360TMC3    C4 5442   3.939   1.073  12.263  0.6823  0.1141  0.2634
  360TMC3    C5 5443   3.987   1.002  12.161  0.7005 -0.2239 -0.3927
  360TMC3    C6 5444   4.124   0.987  12.153  0.1309 -0.2147  0.2017
  360TMC3     C 5445   3.972   1.193  12.471 -0.1212 -0.1359 -0.2133
  360TMC3     O 5446   4.018   1.290  12.527  0.2992 -0.1718 -0.8481
  360TMC3     H 5447   4.228   1.190  12.401  0.3958 -1.5245  2.3961
  360TMC3    H1 5448   3.835   1.094  12.284  0.5412  0.3963 -0.7319
  360TMC3    H2 5449   4.155   0.937  12.062  0.0038 -2.1939  1.2607
  360TMC3    C7 5450   3.902   0.971  12.046 -0.8997  0.4096  0.2128
  360TMC3    C8 5451   4.344   1.061  12.205 -0.3521  0.3320  0.9446
  360TMC3    O1 5452   3.954   0.955  11.939 -0.1908 -0.0703  0.2147
  360TMC3    O2 5453   4.412   1.158  12.224 -0.0610  1.0466  0.0654
  361MPD2     C 5454   1.136   0.249  17.008  0.1230 -0.2183  0.8167
  361MPD2    C1 5455   1.108   0.135  16.928  0.7612  0.6334  0.3220
  361MPD2    C2 5456   1.213   0.055  16.894 -0.1607  0.3177 -0.2920
  361MPD2    C3 5457   1.333   0.069  16.952 -0.1751  0.1000 -0.1108
  361MPD2    C4 5458   1.359   0.180  17.037  0.9109 -0.1191 -0.2512
  361MPD2    C5 5459   1.262   0.280  17.059  1.0182 -0.7769 -0.7671
  361MPD2     H 5460   1.191   4.699  16.846 -3.5147  1.4982 -1.0315
  361MPD2    H1 5461   1.457   0.189  17.081  0.1934 -0.3413  1.3813
  361MPD2    H2 5462   1.055   0.320  17.025 -0.1388 -0.3752  0.2222
  361MPD2    H3 5463   1.282   0.356  17.133 -0.9537 -0.4440 -0.5681
  361MPD2     N 5464   1.437   4.711  16.952 -0.3339 -0.4440 -0.0931
  361MPD2    H5 5465   1.527   4.713  16.999  0.9804 -3.0291 -2.5232
  361MPD2    N1 5466   0.975   0.102  16.892  0.6660 -0.2126 -0.1694
  361MPD2    H7 5467   0.955   0.024  16.831 -2.1275  0.7494 -0.5213
  362TMC3    C1 5468   0.745   0.081  16.922  0.2396 -0.2471 -0.4641
  362TMC3    C2 5469   0.671   0.018  17.012 -0.0509 -0.5060  0.5111
  362TMC3    C3 5470   0.594   4.649  16.975 -0.0278  0.1028 -0.3544
  362TMC3    C4 5471   0.748   0.041  16.794 -0.3342  0.0871 -0.1004
  362TMC3    C5 5472   0.662   4.680  16.759  0.4092 -0.4607  0.1519
  362TMC3    C6 5473   0.585   4.615  16.847  0.0436  0.2117  0.2649
  362TMC3     C 5474   0.871   0.138  16.969  0.7333  0.1735  0.2964
  362TMC3     O 5475   0.861   0.206  17.070  0.0698  0.1561 -0.3044
  362TMC3     H 5476   0.688   0.042  17.117  1.3969 -0.0291  0.1706
  362TMC3    H1 5477   0.792   0.108  16.720  2.7564 -0.4110  1.2867
  362TMC3    H2 5478   0.512   4.541  16.815  0.5060  0.5684 -1.5785
  362TMC3    C7 5479   0.588   4.710  16.640 -0.2816 -0.1275  0.0425
  362TMC3    C8 5480   0.495   4.598  17.067  0.6876 -0.1283  0.2749
  362TMC3    O1 5481   0.476   4.666  16.629  0.3173 -0.7562  0.3267
  362TMC3    O2 5482   0.448   4.488  17.039  0.3713  0.7068 -0.0163
  363TMC3    C1 5483   3.629   1.488   9.924 -0.1747 -0.5891 -0.7501
  363TMC3    C2 5484   3.750   1.434   9.877 -0.1929 -0.5203  0.0892
  363TMC3    C3 5485   3.861   1.512   9.899  0.3215 -0.9825  0.3944
  363TMC3    C4 5486   3.611   1.613   9.971  0.2862  0.3505 -0.4115
  363TMC3    C5 5487   3.722   1.687   9.988 -0.4336  0.0464  1.0180
  363TMC3    C6 5488   3.850   1.633   9.963  0.4859  0.3212 -0.0934
  363TMC3     C 5489   3.509   1.405   9.898  0.4517 -0.1768  0.1996
  363TMC3     O 5490   3.401   1.460   9.881 -0.2588  0.2984 -0.4933
  363TMC3     H 5491   3.750   1.334   9.835  1.3163 -0.8646  0.9025
  363TMC3    H1 5492   3.510   1.652   9.982 -0.1625 -1.8283  3.1507
  363TMC3    H2 5493   3.932   1.702   9.976  1.1285 -0.6963  1.3286
  363TMC3    C7 5494   3.723   1.828  10.026 -0.4801  0.4679  0.2877
  363TMC3    C8 5495   3.995   1.465   9.885 -0.4894  0.8089  0.5031
  363TMC3    O1 5496   3.798   1.909   9.971  0.1161  0.0167 -0.1527
  363TMC3    O2 5497   4.089   1.539   9.912  0.9276  0.1452  0.1052
  364MPD2     C 5498   2.425   1.406  10.540  0.1564  0.1164  0.8627
  364MPD2    C1 5499   2.560   1.405  10.511 -0.2259  0.2528  0.0196
  364MPD2    C2 5500   2.630   1.280  10.529  0.2445 -0.4343 -0.1793
  364MPD2    C3 5501   2.566   1.168  10.564  0.0090  0.4952 -0.1515
  364MPD2    C4 5502   2.430   1.173  10.580  0.4727  0.1284  0.8478
  364MPD2    C5 5503   2.355   1.290  10.562  0.0185 -0.9666  0.2998
  364MPD2     H 5504   2.738   1.286  10.533  0.1833  0.5061  0.1049
  364MPD2    H1 5505   2.380   1.080  10.604  0.0449  0.3014  0.6270
  364MPD2    H2 5506   2.362   1.494  10.532  1.0188  0.8593  2.0882
  364MPD2    H3 5507   2.248   1.291  10.578 -0.0203 -0.1385 -0.0041
  364MPD2     N 5508   2.629   1.044  10.580  1.0411 -0.6371  1.4286
  364MPD2    H5 5509   2.575   0.960  10.598  2.6825 -2.3715 -1.6653
  364MPD2    N1 5510   2.618   1.521  10.452  0.2262 -0.1325  0.4788
  364MPD2    H7 5511   2.559   1.603  10.459 -1.3834 -1.1957 -0.5469
  365TMC3    C1 5512   2.809   1.632  10.364 -0.1625  0.3968  0.4477
  365TMC3    C2 5513   2.936   1.619  10.303 -0.5114  0.1867 -0.5322
  365TMC3    C3 5514   3.030   1.721  10.328 -0.1569  0.6813 -0.0041
  365TMC3    C4 5515   2.778   1.744  10.445 -0.1233 -0.1189  0.7206
  365TMC3    C5 5516   2.869   1.844  10.449 -0.2299  0.2270  0.0885
  365TMC3    C6 5517   2.996   1.839  10.395  0.1154  0.0695 -0.4363
  365TMC3     C 5518   2.734   1.510  10.381  0.2649 -0.4253  0.1153
  365TMC3     O 5519   2.795   1.411  10.340 -0.2634 -0.0227  0.3182
  365TMC3     H 5520   2.967   1.527  10.255 -0.2819 -1.1517  2.1861
  365TMC3    H1 5521   2.677   1.758  10.483  0.1834 -3.1736  2.6586
  365TMC3    H2 5522   3.067   1.919  10.413 -1.4392  1.2472  0.4842
  365TMC3    C7 5523   2.833   1.966  10.522  0.1086  0.1052  0.4771
  365TMC3    C8 5524   3.170   1.699  10.289 -0.0630 -0.3854  0.4370
  365TMC3    O1 5525   2.916   2.058  10.513 -0.6592  0.0347  0.1627
  365TMC3    O2 5526   3.235   1.803  10.282  0.1846  0.1850 -0.0133
  366MPD2     C 5527   1.493   2.353  15.471  0.3868  0.4940  0.1633
  366MPD2    C1 5528   1.454   2.466  15.406 -0.1627 -0.5439  0.1064
  366MPD2    C2 5529   1.530   2.534  15.311  0.1486 -0.6478  0.5094
  366MPD2    C3 5530   1.655   2.484  15.285  0.1046 -0.2540  0.2007
  366MPD2    C4 5531   1.694   2.358  15.336 -0.0315 -0.0471  0.0076
  366MPD2    C5 5532   1.607   2.301  15.424 -0.5529 -0.4148  0.2051
  366MPD2     H 5533   1.504   2.619  15.249 -1.5775 -2.8344 -1.7616
  366MPD2    H1 5534   1.785   2.315  15.296  0.7139  1.6125 -0.0614
  366MPD2    H2 5535   1.432   2.310  15.549 -0.1512  0.6118 -0.1952
  366MPD2    H3 5536   1.641   2.213  15.477 -1.6661 -0.5669  0.6727
  366MPD2     N 5537   1.738   2.568  15.203 -0.3360  0.1984 -0.3995
  366MPD2    H5 5538   1.693   2.654  15.172  0.9938  1.5555  1.4273
  366MPD2    N1 5539   1.327   2.511  15.464  0.1624 -0.1465  0.1228
  366MPD2    H7 5540   1.279   2.438  15.517 -1.8550  1.1340  0.0572
  367TMC3    C1 5541   1.296   2.722  15.356  0.3925  0.0797  0.2125
  367TMC3    C2 5542   1.399   2.801  15.399  0.3566 -0.0777  1.1580
  367TMC3    C3 5543   1.424   2.916  15.332 -0.2563  1.2524  0.1686
  367TMC3    C4 5544   1.209   2.761  15.258 -0.6910  0.0140  0.6282
  367TMC3    C5 5545   1.247   2.869  15.181 -0.2581 -0.8163  0.2553
  367TMC3    C6 5546   1.356   2.948  15.218 -0.3103 -0.0938 -0.3639
  367TMC3     C 5547   1.246   2.620  15.441  0.1059  0.1663  0.3870
  367TMC3     O 5548   1.132   2.645  15.479 -0.0975 -0.2519 -0.4735
  367TMC3     H 5549   1.465   2.764  15.477  1.3748 -1.4649 -0.3429
  367TMC3    H1 5550   1.118   2.702  15.254 -0.4071 -0.2924 -1.4949
  367TMC3    H2 5551   1.377   3.037  15.159 -0.3667 -1.1511 -1.9731
  367TMC3    C7 5552   1.150   2.926  15.095 -0.3739  0.1976  0.2624
  367TMC3    C8 5553   1.510   3.019  15.391 -0.0788 -0.0072  0.0003
  367TMC3    O1 5554   1.171   3.040  15.055 -0.5397  0.3397 -0.1569
  367TMC3    O2 5555   1.580   2.975  15.487 -0.2741  0.0424 -0.3475
  368MPD2     C 5556   2.699   4.370  13.416 -0.5692  0.0019 -0.3307
  368MPD2    C1 5557   2.726   4.500  13.454  0.4198 -0.2318  0.0051
  368MPD2    C2 5558   2.852   4.534  13.516  0.0771  0.8793  1.1178
  368MPD2    C3 5559   2.943   4.437  13.544  0.3589 -0.8135  0.0039
  368MPD2    C4 5560   2.914   4.308  13.511 -0.3917 -0.4175  0.2625
  368MPD2    C5 5561   2.797   4.274  13.450 -0.2327 -0.2000  0.5735
  368MPD2     H 5562   2.881   4.638  13.529  1.3896  0.5606  0.7747
  368MPD2    H1 5563   2.977   4.222  13.531  0.2045  0.5733  2.6350
  368MPD2    H2 5564   2.608   4.339  13.367  1.3124 -3.3187 -1.6956
  368MPD2    H3 5565   2.777   4.171  13.424  0.6783 -0.8645  2.4354
  368MPD2     N 5566   3.071   4.466  13.597  0.3136 -0.0283  0.7067
  368MPD2    H5 5567   3.148   4.400  13.584  0.2139  0.0488 -0.2704
  368MPD2    N1 5568   2.639   4.612  13.446  0.9294 -0.0264 -0.1954
  368MPD2    H7 5569   2.673   4.702  13.477  1.4593 -0.4041  0.3373
  369TMC3    C1 5570   2.434   4.731  13.416 -0.8188  0.0268 -0.3718
  369TMC3    C2 5571   2.494   0.106  13.454  0.3320  0.0253  0.4141
  369TMC3    C3 5572   2.428   0.225  13.424  0.0221  0.3358  0.1263
  369TMC3    C4 5573   2.307   0.001  13.359  0.9778 -0.5698  0.7966
  369TMC3    C5 5574   2.250   0.122  13.332 -0.4563  0.2005  0.0669
  369TMC3    C6 5575   2.308   0.237  13.368  0.2168  0.0490  0.5661
  369TMC3     C 5576   2.507   4.602  13.409  0.3033  0.1313 -0.0493
  369TMC3     O 5577   2.440   4.508  13.371  0.3037  0.0775 -0.0108
  369TMC3     H 5578   2.601   0.108  13.470  0.6035 -0.4359 -1.3100
  369TMC3    H1 5579   2.270   4.653  13.306 -1.3985 -0.0226  1.5498
  369TMC3    H2 5580   2.265   0.332  13.338  1.1051  0.3278  0.1918
  369TMC3    C7 5581   2.114   0.120  13.276 -0.0714  1.0419 -0.2659
  369TMC3    C8 5582   2.511   0.335  13.381  0.6579 -0.0155 -0.1728
  369TMC3    O1 5583   2.077   0.023  13.209  0.4132  0.1081 -0.1861
  369TMC3    O2 5584   2.489   0.367  13.266 -0.0929  0.2246  0.4545
  370TMC3    C1 5585   2.208   0.930  16.157 -0.2585 -0.3187  0.1366
  370TMC3    C2 5586   2.101   0.889  16.238 -0.2726 -0.1722 -0.5085
  370TMC3    C3 5587   2.021   0.784  16.204 -0.0053 -0.4278  0.3484
  370TMC3    C4 5588   2.238   0.867  16.044  0.5329  0.0079  0.5406
  370TMC3    C5 5589   2.156   0.761  16.009 -0.3898 -0.3550  0.5305
  370TMC3    C6 5590   2.046   0.723  16.084 -0.6671 -0.1082 -0.4396
  370TMC3     C 5591   2.305   1.015  16.219 -0.2526 -0.5266 -0.1673
  370TMC3     O 5592   2.300   1.037  16.339 -0.3922 -0.3587  0.0839
  370TMC3     H 5593   2.098   0.933  16.337  0.3537 -1.8722  0.2676
  370TMC3    H1 5594   2.320   0.896  15.978 -0.4368 -0.1102 -0.7111
  370TMC3    H2 5595   1.986   0.635  16.061 -1.6296  0.8420 -1.6166
  370TMC3    C7 5596   2.203   0.672  15.904 -0.5969 -0.0471  0.3231
  370TMC3    C8 5597   1.960   0.700  16.307 -0.2739 -0.0151  0.2376
  370TMC3    O1 5598   2.315   0.691  15.859  0.3811 -0.7408  0.2365
  370TMC3    O2 5599   1.935   0.584  16.282  0.2580  0.4432 -0.3522
  371TMC3    C1 5600   3.455   3.854  15.707  0.0052 -0.6203 -0.7430
  371TMC3    C2 5601   3.349   3.842  15.792 -0.3053  0.2522  0.1576
  371TMC3    C3 5602   3.255   3.943  15.796 -0.4826  1.2853  0.5931
  371TMC3    C4 5603   3.464   3.965  15.623 -0.2857 -0.1820 -1.9516
  371TMC3    C5 5604   3.379   4.065  15.644  0.0410  0.1495  0.2067
  371TMC3    C6 5605   3.274   4.057  15.727  0.5265  0.0656 -0.3150
  371TMC3     C 5606   3.533   3.739  15.652 -0.6901  0.2952  0.1698
  371TMC3     O 5607   3.632   3.749  15.580  0.2272  0.0007  0.7465
  371TMC3     H 5608   3.317   3.751  15.842 -1.4678 -0.6069 -2.1491
  371TMC3    H1 5609   3.535   3.972  15.542  1.7653 -0.2974 -0.1923
  371TMC3    H2 5610   3.201   4.137  15.716  0.4072 -0.1657 -1.2488
  371TMC3    C7 5611   3.380   4.181  15.563  0.4939  0.4391 -0.3769
  371TMC3    C8 5612   3.126   3.908  15.851  1.1693 -0.0538  0.6602
  371TMC3    O1 5613   3.359   4.290  15.619  0.2864  0.9477  0.5631
  371TMC3    O2 5614   3.088   3.790  15.872 -0.0283 -0.1699 -0.1352
  372MPD2     C 5615   2.530   0.349  13.825  0.0582  0.2159  0.0311
  372MPD2    C1 5616   2.645   0.279  13.839  0.1452  0.8800  0.2443
  372MPD2    C2 5617   2.644   0.142  13.828  0.3162  0.3593 -0.0921
  372MPD2    C3 5618   2.518   0.081  13.808  0.6740  0.4115  0.1931
  372MPD2    C4 5619   2.410   0.163  13.789  0.3080 -0.8022  0.7163
  372MPD2    C5 5620   2.413   0.291  13.786  0.5959 -0.2967  0.2525
  372MPD2     H 5621   2.735   0.082  13.826 -0.0128 -0.1044 -0.8708
  372MPD2    H1 5622   2.314   0.128  13.753 -0.6915  0.9099  1.6763
  372MPD2    H2 5623   2.523   0.454  13.799  1.1239  0.2485 -0.1463
  372MPD2    H3 5624   2.324   0.351  13.769 -1.7516 -3.8783 -0.1718
  372MPD2     N 5625   2.511   4.678  13.803  0.0029  0.1510 -0.2825
  372MPD2    H5 5626   2.601   4.634  13.816 -0.6274 -0.5424  1.5811
  372MPD2    N1 5627   2.771   0.339  13.870 -0.1885  0.1955  0.3316
  372MPD2    H7 5628   2.853   0.280  13.857 -0.9141 -0.9503  0.9279
  373TMC3    C1 5629   2.427   4.458  13.783 -0.4555 -1.1037 -0.4433
  373TMC3    C2 5630   2.557   4.424  13.816 -0.2253 -0.5309  0.2576
  373TMC3    C3 5631   2.607   4.302  13.770 -0.1431 -0.5473  0.3692
  373TMC3    C4 5632   2.346   4.371  13.717 -0.4380 -0.3318 -0.1903
  373TMC3    C5 5633   2.406   4.253  13.667 -0.0705 -0.6531 -0.5463
  373TMC3    C6 5634   2.534   4.220  13.699 -0.5566 -0.2386 -0.0737
  373TMC3     C 5635   2.398   4.606  13.767 -0.3731 -0.0838  0.2573
  373TMC3     O 5636   2.283   4.641  13.744 -0.0071  0.1905 -0.1866
  373TMC3     H 5637   2.632   4.476  13.876 -1.1419  0.0677  0.8831
  373TMC3    H1 5638   2.263   4.415  13.663  0.4250  0.9722 -0.4495
  373TMC3    H2 5639   2.584   4.148  13.636  0.2429  0.7401 -0.5715
  373TMC3    C7 5640   2.339   4.178  13.565 -0.0723  0.6040 -0.0584
  373TMC3    C8 5641   2.744   4.263  13.804  0.8154  0.4953 -0.0137
  373TMC3    O1 5642   2.233   4.225  13.525  0.3206 -0.0166  0.2418
  373TMC3    O2 5643   2.821   4.356  13.835 -0.2586  0.0277 -0.0515
  374TMC3    C1 5644   2.919   4.725   9.981 -0.0889  0.4636 -0.4088
  374TMC3    C2 5645   3.034   0.060   9.996 -0.1689 -0.8702 -0.1514
  374TMC3    C3 5646   3.074   0.139   9.890 -0.1955  0.0580 -0.5953
  374TMC3    C4 5647   2.851   4.718   9.856 -0.0481  0.9286 -0.5879
  374TMC3    C5 5648   2.901   0.055   9.751 -0.0669 -0.4421  0.1705
  374TMC3    C6 5649   3.009   0.135   9.766 -0.0825  0.2585 -0.1139
  374TMC3     C 5650   2.875   4.621  10.077  0.7043  0.4759 -0.0044
  374TMC3     O 5651   2.786   4.548  10.037 -0.1440  0.4487  0.2330
  374TMC3     H 5652   3.092   0.048  10.087  0.3734 -0.3146 -0.4188
  374TMC3    H1 5653   2.746   4.691   9.864  0.4626 -0.3426  1.8628
  374TMC3    H2 5654   3.050   0.172   9.672 -0.7363  1.4579  0.0663
  374TMC3    C7 5655   2.853   0.031   9.616  0.4998  0.3029  0.3721
  374TMC3    C8 5656   3.193   0.218   9.901 -0.0433  0.3217 -0.5133
  374TMC3    O1 5657   2.882   0.119   9.534 -0.3156 -0.1149  0.2747
  374TMC3    O2 5658   3.235   0.268   9.801 -0.4691 -0.2820  0.2221
  375MPD2     C 5659   3.265   0.595  17.100 -0.5312 -0.2827  0.0934
  375MPD2    C1 5660   3.290   0.691  17.001 -0.0149  0.2447 -0.0169
  375MPD2    C2 5661   3.331   0.645  16.878  0.8132  0.5527  0.3697
  375MPD2    C3 5662   3.325   0.514  16.846 -0.1129  0.5540 -0.5034
  375MPD2    C4 5663   3.302   0.422  16.945 -0.2285  0.3643 -0.4582
  375MPD2    C5 5664   3.274   0.466  17.071 -0.0679 -0.1032 -0.0784
  375MPD2     H 5665   3.358   0.726  16.810  0.8652 -0.1726 -0.4717
  375MPD2    H1 5666   3.311   0.317  16.921  0.4044  0.3448 -0.1187
  375MPD2    H2 5667   3.236   0.612  17.203  0.1984  1.8789 -0.0604
  375MPD2    H3 5668   3.251   0.393  17.148  0.4546 -0.3392 -0.1490
  375MPD2     N 5669   3.361   0.458  16.719 -0.1893  0.3028  0.6129
  375MPD2    H5 5670   3.374   0.358  16.711  1.2525  0.4097  1.6142
  375MPD2    N1 5671   3.272   0.829  17.023 -0.3743 -0.4867 -0.1958
  375MPD2    H7 5672   3.305   0.894  16.952 -1.8907 -0.5601 -0.9771
  376TMC3    C1 5673   3.428   0.452  16.498 -0.3114 -0.1341 -0.0150
  376TMC3    C2 5674   3.542   0.381  16.528 -0.3807  0.4481  0.1210
  376TMC3    C3 5675   3.648   0.381  16.445  0.1432  0.5614 -0.5491
  376TMC3    C4 5676   3.412   0.521  16.384  0.3172 -0.1148 -0.4623
  376TMC3    C5 5677   3.521   0.514  16.296 -0.2152  0.4407 -0.5922
  376TMC3    C6 5678   3.639   0.451  16.331 -0.9624  0.2857  0.4605
  376TMC3     C 5679   3.382   0.532  16.609  0.5055  0.1914 -0.1952
  376TMC3     O 5680   3.368   0.651  16.589  0.1128  0.1694 -0.7751
  376TMC3     H 5681   3.552   0.341  16.629  0.3909  2.9650  1.0488
  376TMC3    H1 5682   3.316   0.561  16.354 -0.1557 -0.9835 -0.1110
  376TMC3    H2 5683   3.725   0.449  16.265  0.1917  1.6101  1.9111
  376TMC3    C7 5684   3.516   0.572  16.162  0.6147  0.4435  0.5348
  376TMC3    C8 5685   3.774   0.341  16.497  0.1315  0.2666  0.4207
  376TMC3    O1 5686   3.435   0.668  16.153 -0.6883  0.5482 -0.0387
  376TMC3    O2 5687   3.784   0.265  16.594  0.1513  0.0940 -0.2965
  377MPD2     C 5688   1.805   0.677  12.529  0.1731  0.7310 -0.7201
  377MPD2    C1 5689   1.754   0.666  12.399 -0.9881 -0.1504  0.1050
  377MPD2    C2 5690   1.622   0.619  12.385  0.5253 -0.4784 -0.0889
  377MPD2    C3 5691   1.544   0.588  12.493 -0.0331 -0.1632  0.0599
  377MPD2    C4 5692   1.601   0.595  12.617 -0.2602 -0.2353 -0.1657
  377MPD2    C5 5693   1.726   0.642  12.631  0.8342  0.1105 -0.7493
  377MPD2     H 5694   1.585   0.617  12.283  0.4375 -0.7770 -0.0499
  377MPD2    H1 5695   1.556   0.562  12.710  1.8639 -2.2962  0.1349
  377MPD2    H2 5696   1.905   0.715  12.549  0.0514  0.6237  0.1257
  377MPD2    H3 5697   1.767   0.639  12.732 -0.8465  0.1640 -0.0669
  377MPD2     N 5698   1.415   0.532  12.487 -0.9730  0.0153  0.9402
  377MPD2    H5 5699   1.378   0.505  12.577 -0.3219 -0.5065  1.0513
  377MPD2    N1 5700   1.852   0.678  12.298  0.2624  0.5348  0.0615
  377MPD2    H7 5701   1.939   0.709  12.340  0.0070  4.8141 -2.5783
  378TMC3    C1 5702   2.086   0.463  11.971 -0.2043  0.1584  0.4747
  378TMC3    C2 5703   1.979   0.542  11.993  0.4150 -0.4433  0.7466
  378TMC3    C3 5704   1.969   0.608  12.113 -0.8243  0.2095 -0.0321
  378TMC3    C4 5705   2.195   0.460  12.054 -0.6011  0.2394 -0.4338
  378TMC3    C5 5706   2.184   0.536  12.171  0.7085  0.0225 -0.0131
  378TMC3    C6 5707   2.075   0.610  12.201  0.4407  0.1224  1.0334
  378TMC3     C 5708   2.068   0.365  11.864 -0.3643 -0.1553  0.7759
  378TMC3     O 5709   1.959   0.365  11.809 -0.0320 -0.5071 -0.0602
  378TMC3     H 5710   1.890   0.548  11.932  0.1196  2.0973  1.4229
  378TMC3    H1 5711   2.286   0.411  12.019 -1.8560 -0.6131 -2.5278
  378TMC3    H2 5712   2.085   0.667  12.293 -0.4256  0.8003  0.6924
  378TMC3    C7 5713   2.299   0.545  12.261 -0.2883  0.2868  0.0226
  378TMC3    C8 5714   1.842   0.633  12.169  0.6261  0.4929 -0.0219
  378TMC3    O1 5715   2.288   0.615  12.360 -0.1047 -0.0416 -0.0728
  378TMC3    O2 5716   1.746   0.578  12.111 -0.4275 -0.0903  0.0158
  379MPD2     C 5717   2.513   3.588  15.904  0.5918  0.0306  0.5038
  379MPD2    C1 5718   2.446   3.486  15.963  0.1212  0.2346 -0.1229
  379MPD2    C2 5719   2.501   3.430  16.079 -0.5801 -0.1425 -0.0695
  379MPD2    C3 5720   2.617   3.474  16.132  0.4024 -0.4695 -0.3215
  379MPD2    C4 5721   2.674   3.587  16.078 -0.0732  0.8799  0.1280
  379MPD2    C5 5722   2.622   3.644  15.969  0.1532  0.2386  0.0815
  379MPD2     H 5723   2.450   3.347  16.127 -0.5893  0.3387  0.7424
  379MPD2    H1 5724   2.765   3.633  16.113  0.2857 -0.5597  1.0865
  379MPD2    H2 5725   2.485   3.633  15.810 -0.5800 -3.5601 -0.8808
  379MPD2    H3 5726   2.680   3.716  15.911  0.2189 -0.0003 -0.1464
  379MPD2     N 5727   2.669   3.406  16.248  0.2678 -0.4589 -0.5191
  379MPD2    H5 5728   2.763   3.434  16.272  0.7662 -2.3018 -0.3299
  379MPD2    N1 5729   2.330   3.435  15.904  0.1193  0.4019  0.4885
  379MPD2    H7 5730   2.292   3.486  15.824 -0.5149  0.2431  0.6923
  380TMC3    C1 5731   2.203   3.282  15.801 -0.2130 -0.0266  0.2701
  380TMC3    C2 5732   2.262   3.201  15.713  0.1316  0.2831 -0.2910
  380TMC3    C3 5733   2.233   3.202  15.580 -0.7437 -0.1940  0.6402
  380TMC3    C4 5734   2.130   3.392  15.752  0.3526  0.2329 -0.1438
  380TMC3    C5 5735   2.093   3.375  15.622 -0.6561 -0.3537  0.1416
  380TMC3    C6 5736   2.138   3.286  15.532 -0.1283  0.5481 -0.0398
  380TMC3     C 5737   2.284   3.306  15.923  0.1859 -0.2535  0.5994
  380TMC3     O 5738   2.319   3.219  16.001 -0.4673  0.2474 -0.4878
  380TMC3     H 5739   2.331   3.128  15.754 -0.4214  1.0050  1.9242
  380TMC3    H1 5740   2.083   3.463  15.819  1.1663 -0.2031  0.9042
  380TMC3    H2 5741   2.121   3.297  15.425  2.5182 -2.0569 -0.7508
  380TMC3    C7 5742   1.959   3.435  15.588  1.0267  0.6698  0.3694
  380TMC3    C8 5743   2.355   3.215  15.504 -0.6068  0.7077 -0.5741
  380TMC3    O1 5744   1.923   3.544  15.634 -0.4045  0.2340 -0.4880
  380TMC3    O2 5745   2.350   3.251  15.388  0.0453 -0.0640 -1.1874
  381TMC3    C1 5746   1.877   0.124  16.000 -0.5591  0.5540  0.3848
  381TMC3    C2 5747   1.978   0.219  16.000  0.0261 -0.6724  0.0256
  381TMC3    C3 5748   2.012   0.274  16.116 -0.4450 -0.3305 -0.2631
  381TMC3    C4 5749   1.804   0.099  16.113 -0.1088 -0.1833  0.2152
  381TMC3    C5 5750   1.827   0.170  16.226  0.4468  0.5352 -0.1731
  381TMC3    C6 5751   1.928   0.257  16.228 -0.2923 -0.1326  0.4775
  381TMC3     C 5752   1.823   0.070  15.876 -0.1434  0.0658  0.1044
  381TMC3     O 5753   1.713   0.016  15.872 -0.3335 -0.0062  0.2421
  381TMC3     H 5754   2.044   0.231  15.915 -0.0398 -1.2277 -0.1068
  381TMC3    H1 5755   1.727   0.023  16.109  0.4877 -0.7634 -0.1595
  381TMC3    H2 5756   1.966   0.287  16.326 -0.2543 -0.1285  0.4616
  381TMC3    C7 5757   1.794   0.084  16.342  0.5079  0.1622  0.1340
  381TMC3    C8 5758   2.154   0.296  16.143  0.2267  0.5337  0.2900
  381TMC3    O1 5759   1.798   4.699  16.318 -0.3954  0.2476 -0.0535
  381TMC3    O2 5760   2.233   0.231  16.080  0.5538 -0.2956  0.3092
  382MPD2     C 5761   1.216   2.251  16.800 -0.2428 -1.2825 -0.2454
  382MPD2    C1 5762   1.270   2.256  16.928 -0.2599 -0.4067 -0.6721
  382MPD2    C2 5763   1.227   2.159  17.017 -1.3214 -0.0484 -0.2094
  382MPD2    C3 5764   1.144   2.058  16.966 -0.4516 -0.1202 -0.0923
  382MPD2    C4 5765   1.095   2.053  16.841  0.1235  0.5876  0.1925
  382MPD2    C5 5766   1.121   2.158  16.761 -0.1619 -0.9818  0.1373
  382MPD2     H 5767   1.272   2.163  17.116  0.8823 -1.1299 -1.1537
  382MPD2    H1 5768   1.034   1.976  16.796 -1.0716  0.6542  1.7202
  382MPD2    H2 5769   1.240   2.324  16.723  0.2297 -2.1465 -0.9043
  382MPD2    H3 5770   1.083   2.170  16.660  1.5964 -0.3439 -0.4387
  382MPD2     N 5771   1.102   1.937  17.028 -0.4203  0.3005  0.1125
  382MPD2    H5 5772   1.041   1.874  16.977  0.8164 -0.6098 -0.2421
  382MPD2    N1 5773   1.368   2.344  16.962 -0.4002  0.1013  0.0348
  382MPD2    H7 5774   1.397   2.343  17.060  1.0629  1.2795 -0.3888
  383TMC3    C1 5775   1.117   1.764  17.201 -0.1053  0.1744 -0.4577
  383TMC3    C2 5776   1.035   1.683  17.131 -0.8542 -0.4331  0.0440
  383TMC3    C3 5777   1.041   1.546  17.148  0.3929 -0.0985 -0.9135
  383TMC3    C4 5778   1.228   1.707  17.271 -0.1322 -0.4950  0.0468
  383TMC3    C5 5779   1.233   1.576  17.274  0.8254 -0.1152 -0.1461
  383TMC3    C6 5780   1.146   1.486  17.212  0.6290 -0.3500 -0.1822
  383TMC3     C 5781   1.152   1.899  17.155 -0.1294  0.3037  0.7695
  383TMC3     O 5782   1.232   1.959  17.229 -0.2408 -0.1730  0.6986
  383TMC3     H 5783   0.949   1.728  17.082 -2.8573 -2.6363  1.4899
  383TMC3    H1 5784   1.299   1.771  17.321 -1.4803 -0.7408  2.2344
  383TMC3    H2 5785   1.175   1.381  17.207  0.1884 -0.5132  0.5362
  383TMC3    C7 5786   1.369   1.526  17.305 -0.1626  0.2789 -0.0233
  383TMC3    C8 5787   0.938   1.461  17.098 -0.3865  0.7847 -0.1919
  383TMC3    O1 5788   1.377   1.420  17.367  0.4739 -0.0421 -0.1281
  383TMC3    O2 5789   0.863   1.509  17.014  0.0989 -0.3214  0.1596
  384MPD2     C 5790   2.370   3.062  12.285 -0.1990  0.9673 -0.0967
  384MPD2    C1 5791   2.453   2.974  12.348  0.3915  0.1125 -0.1366
  384MPD2    C2 5792   2.488   2.854  12.289 -0.8512  0.4356 -0.6425
  384MPD2    C3 5793   2.458   2.830  12.151  0.0508 -0.4373  0.0730
  384MPD2    C4 5794   2.395   2.931  12.087  0.5077  0.0021 -0.4542
  384MPD2    C5 5795   2.335   3.034  12.157  0.2150  0.1980 -0.2535
  384MPD2     H 5796   2.533   2.775  12.348  0.4584  2.4631  1.0519
  384MPD2    H1 5797   2.373   2.925  11.981  1.9976 -2.8828 -0.6084
  384MPD2    H2 5798   2.325   3.151  12.327 -1.1555  0.2103  0.4715
  384MPD2    H3 5799   2.259   3.089  12.102 -0.4111  0.6764  1.1000
  384MPD2     N 5800   2.510   2.721  12.071  0.9728  0.1123 -0.2538
  384MPD2    H5 5801   2.486   2.723  11.972 -0.8362 -0.9156  0.1559
  384MPD2    N1 5802   2.504   2.989  12.477  0.0621 -0.0017  0.3821
  384MPD2    H7 5803   2.544   2.909  12.525  0.5908 -0.2842 -0.5247
  385TMC3    C1 5804   2.618   2.515  12.027 -0.2599 -0.1668 -0.6595
  385TMC3    C2 5805   2.504   2.445  11.990 -0.2629  0.6873  0.1536
  385TMC3    C3 5806   2.507   2.313  12.025 -0.3017  0.5138  0.3548
  385TMC3    C4 5807   2.721   2.451  12.082  0.3772 -0.3657  0.8057
  385TMC3    C5 5808   2.722   2.314  12.110 -0.0992  0.7124  0.1542
  385TMC3    C6 5809   2.609   2.241  12.088 -0.4819 -0.5457  0.1260
  385TMC3     C 5810   2.582   2.621  12.120 -0.1882  0.0506 -0.3189
  385TMC3     O 5811   2.629   2.603  12.231 -0.8182 -0.0257 -0.8325
  385TMC3     H 5812   2.410   2.491  11.964 -2.1604 -2.4844  1.3120
  385TMC3    H1 5813   2.811   2.511  12.094  1.5869 -1.7821 -1.1014
  385TMC3    H2 5814   2.611   2.133  12.099 -0.2847 -0.8158 -2.6373
  385TMC3    C7 5815   2.796   2.293  12.226  0.0539  0.5805 -0.5749
  385TMC3    C8 5816   2.397   2.229  11.985 -0.6594  0.4070  0.5257
  385TMC3    O1 5817   2.870   2.197  12.239  0.5278 -0.0699 -0.0192
  385TMC3    O2 5818   2.380   2.131  12.061  0.1207 -0.0770  0.7029
  386TMC3    C1 5819   3.313   0.136  11.884 -0.0682  0.2384  0.5903
  386TMC3    C2 5820   3.239   0.181  11.784  0.5004 -0.1369  0.4636
  386TMC3    C3 5821   3.126   0.255  11.813  0.1015 -0.5343  0.6416
  386TMC3    C4 5822   3.291   0.156  12.018  0.4712 -0.6527 -0.1837
  386TMC3    C5 5823   3.188   0.235  12.047  0.1335 -0.1318  0.0992
  386TMC3    C6 5824   3.102   0.289  11.949 -0.4319 -0.0133 -0.2515
  386TMC3     C 5825   3.451   0.096  11.853  0.1280  0.7329 -0.6740
  386TMC3     O 5826   3.508   0.141  11.755 -0.0490 -0.0275  0.0269
  386TMC3     H 5827   3.275   0.177  11.682  1.6592 -1.9872  0.9412
  386TMC3    H1 5828   3.361   0.129  12.096  2.7947  1.9390 -1.4086
  386TMC3    H2 5829   3.012   0.344  11.975 -0.6745 -1.4259  1.8973
  386TMC3    C7 5830   3.143   0.264  12.180  0.7126 -1.0547 -0.3120
  386TMC3    C8 5831   3.012   0.255  11.728 -0.4450 -0.2997 -0.5042
  386TMC3    O1 5832   3.058   0.348  12.196 -0.3704 -0.0396  0.0531
  386TMC3    O2 5833   2.923   0.329  11.765 -0.7042 -0.0306  0.2085
  387MPD2     C 5834   4.587   0.427  10.401 -0.6054 -0.2001 -0.0085
  387MPD2    C1 5835   4.681   0.396  10.502 -0.3178 -0.0517 -0.5793
  387MPD2    C2 5836   4.737   0.271  10.499 -1.1016 -0.2439 -0.0474
  387MPD2    C3 5837   4.710   0.181  10.394  0.3117  0.4339  0.4467
  387MPD2    C4 5838   4.610   0.208  10.306 -0.3691  0.2930 -0.6701
  387MPD2    C5 5839   4.557   0.329  10.307  0.6422  0.0528 -0.2780
  387MPD2     H 5840   0.076   0.249  10.571 -3.8294 -0.9588  2.6717
  387MPD2    H1 5841   4.577   0.139  10.229  1.6154 -1.7901  0.3507
  387MPD2    H2 5842   4.550   0.528  10.386  0.7615  0.2117 -0.6334
  387MPD2    H3 5843   4.484   0.355  10.231  1.2040  0.4576 -0.6757
  387MPD2     N 5844   0.053   0.063  10.391 -0.1148  0.6509 -0.1056
  387MPD2    H5 5845   0.113   0.046  10.471 -1.5264 -0.9869  0.6087
  387MPD2    N1 5846   4.736   0.493  10.591 -0.1018 -0.0958 -0.0492
  387MPD2    H7 5847   0.076   0.453  10.640  0.7289  1.1571 -0.3578
  388TMC3    C1 5848   0.077   0.698  10.649 -0.1676 -0.0844 -0.4408
  388TMC3    C2 5849   0.058   0.824  10.691 -0.4910 -0.1517 -0.6055
  388TMC3    C3 5850   0.178   0.888  10.737 -0.0950  0.6858  0.1874
  388TMC3    C4 5851   0.201   0.643  10.638 -0.6944 -0.4459  0.2918
  388TMC3    C5 5852   0.314   0.707  10.687 -0.0773 -0.1000  0.5423
  388TMC3    C6 5853   0.304   0.833  10.739  0.2349  0.2811  0.0190
  388TMC3     C 5854   4.704   0.624  10.595  0.8768  0.1310 -0.4057
  388TMC3     O 5855   4.615   0.682  10.539 -0.0238 -0.2642  0.2539
  388TMC3     H 5856   4.703   0.877  10.686  0.3646  1.1551 -2.7129
  388TMC3    H1 5857   0.213   0.557  10.572  0.9154 -1.3210  1.7298
  388TMC3    H2 5858   0.390   0.890  10.773  0.7638 -0.1012 -0.6843
  388TMC3    C7 5859   0.441   0.645  10.677  0.2024  0.5386 -0.9142
  388TMC3    C8 5860   0.158   1.026  10.762 -0.4509  0.3601  0.3631
  388TMC3    O1 5861   0.539   0.719  10.662  0.0531 -0.4314 -0.0739
  388TMC3    O2 5862   0.044   1.053  10.803 -0.0397 -0.1162  0.8891
  389MPD2     C 5863   4.589   3.473  11.871 -0.2241 -0.1978 -0.5514
  389MPD2    C1 5864   4.520   3.384  11.791  0.4930 -0.7185  0.4097
  389MPD2    C2 5865   4.418   3.314  11.846  0.2989 -0.5881 -0.3574
  389MPD2    C3 5866   4.374   3.331  11.975  0.3462 -0.4095  0.3991
  389MPD2    C4 5867   4.436   3.431  12.052  0.2169 -0.1365  0.3966
  389MPD2    C5 5868   4.549   3.489  11.997  0.0211  0.2536  0.4518
  389MPD2     H 5869   4.371   3.239  11.783  0.1106 -0.1270 -0.7751
  389MPD2    H1 5870   4.407   3.458  12.153  0.6809  0.5671  0.3438
  389MPD2    H2 5871   4.668   3.529  11.823 -1.2978  1.2257 -0.6282
  389MPD2    H3 5872   4.599   3.571  12.048 -0.4239 -0.4052  1.9578
  389MPD2     N 5873   4.263   3.264  12.030  0.9183  0.1067  0.4672
  389MPD2    H5 5874   4.245   3.283  12.128  0.2873  1.9821 -0.0221
  389MPD2    N1 5875   4.532   3.365  11.651 -0.0066  0.0374  0.1445
  389MPD2    H7 5876   4.471   3.295  11.610 -0.3723 -0.6963  1.9263
  390TMC3    C1 5877   4.066   3.122  12.033 -0.2653 -0.3236 -0.6496
  390TMC3    C2 5878   4.030   2.987  12.017  0.6459 -0.4130 -0.0597
  390TMC3    C3 5879   3.914   2.948  12.081 -0.3076  0.3223 -0.3040
  390TMC3    C4 5880   4.004   3.206  12.130 -0.6628  0.2054 -0.1886
  390TMC3    C5 5881   3.891   3.159  12.192 -0.0545 -0.2268 -0.3635
  390TMC3    C6 5882   3.842   3.030  12.163  0.1752 -0.1047 -0.7795
  390TMC3     C 5883   4.194   3.162  11.967 -0.1185  0.1279  0.5811
  390TMC3     O 5884   4.222   3.094  11.869  0.0497  0.4063 -0.0297
  390TMC3     H 5885   4.066   2.935  11.929  0.3946  0.3947 -0.6492
  390TMC3    H1 5886   4.053   3.298  12.160  0.3209  0.2365 -1.8867
  390TMC3    H2 5887   3.746   2.992  12.199  0.2095  0.6764  0.1397
  390TMC3    C7 5888   3.792   3.262  12.238 -0.8565 -0.0332  0.3313
  390TMC3    C8 5889   3.844   2.830  12.034 -0.1328 -0.4964 -0.1037
  390TMC3    O1 5890   3.832   3.379  12.240 -0.4805  0.0326 -0.7027
  390TMC3    O2 5891   3.880   2.793  11.926  0.0554  0.2023  0.1083
  391MPD2     C 5892   3.262   0.408  11.426  0.7275 -0.2167  0.2145
  391MPD2    C1 5893   3.385   0.461  11.404 -0.5952 -0.2136 -0.9683
  391MPD2    C2 5894   3.455   0.426  11.290  0.3890 -0.6157  0.4969
  391MPD2    C3 5895   3.392   0.351  11.189 -0.1766  0.2871 -0.5682
  391MPD2    C4 5896   3.268   0.299  11.210 -0.0149 -0.3845  0.2468
  391MPD2    C5 5897   3.206   0.333  11.318  0.1420  0.4243  0.1626
  391MPD2     H 5898   3.560   0.451  11.278  0.1193  0.3949  0.2716
  391MPD2    H1 5899   3.214   0.235  11.142 -1.2978  1.3813 -0.3931
  391MPD2    H2 5900   3.215   0.416  11.523  0.7038  1.1099  0.0991
  391MPD2    H3 5901   3.108   0.289  11.331  1.4698 -2.3540  0.7585
  391MPD2     N 5902   3.460   0.337  11.067  0.0437 -0.3187  0.4254
  391MPD2    H5 5903   3.548   0.385  11.055 -1.7802  2.1697 -2.8101
  391MPD2    N1 5904   3.454   0.539  11.506 -0.2445  0.9648  0.0094
  391MPD2    H7 5905   3.408   0.539  11.597 -0.6889 -1.6092 -0.2010
  392TMC3    C1 5906   3.503   0.284  10.844  0.3738  0.4842 -0.4155
  392TMC3    C2 5907   3.459   0.256  10.720 -0.0410 -0.8460  0.0861
  392TMC3    C3 5908   3.536   0.296  10.615 -0.0696  0.4806  0.1307
  392TMC3    C4 5909   3.630   0.336  10.866  0.4262 -0.2620 -0.5676
  392TMC3    C5 5910   3.713   0.355  10.754  0.2783  0.4585  0.1210
  392TMC3    C6 5911   3.661   0.351  10.627  0.8025  0.4783 -0.4883
  392TMC3     C 5912   3.402   0.293  10.955 -0.5273 -0.7742  0.2037
  392TMC3     O 5913   3.288   0.253  10.932 -0.0820  0.6329 -0.6706
  392TMC3     H 5914   3.364   0.206  10.704 -0.2723 -0.9657  1.7776
  392TMC3    H1 5915   3.676   0.344  10.964  0.0115  0.9321 -0.4757
  392TMC3    H2 5916   3.725   0.358  10.540  2.0229  2.4909  0.5831
  392TMC3    C7 5917   3.853   0.378  10.774  0.1895 -0.0691  0.7332
  392TMC3    C8 5918   3.481   0.282  10.481 -0.4516 -0.7206 -0.4685
  392TMC3    O1 5919   3.897   0.367  10.887  0.2833 -0.1650  0.1792
  392TMC3    O2 5920   3.390   0.195  10.467  0.3071 -0.5169  0.2393
  393TMC3    C1 5921   2.426   2.706  10.414  0.1834  0.0319 -0.0039
  393TMC3    C2 5922   2.324   2.674  10.502  0.2418 -0.1960 -0.3809
  393TMC3    C3 5923   2.358   2.585  10.600  1.1289  0.3043 -0.4384
  393TMC3    C4 5924   2.551   2.639  10.412 -0.0152  0.3386 -0.0854
  393TMC3    C5 5925   2.573   2.560  10.519  0.6172  0.3309 -0.2509
  393TMC3    C6 5926   2.484   2.535  10.615  0.5654  0.1594  0.7630
  393TMC3     C 5927   2.418   2.829  10.340 -0.6206 -0.4955 -0.5369
  393TMC3     O 5928   2.311   2.890  10.365  0.0157  0.8764 -0.2744
  393TMC3     H 5929   2.222   2.709  10.492  0.5015  0.5367 -0.4594
  393TMC3    H1 5930   2.631   2.662  10.342  0.9459 -0.2398  0.8277
  393TMC3    H2 5931   2.527   2.482  10.699  1.5910 -3.3863 -1.9952
  393TMC3    C7 5932   2.695   2.480  10.497  0.2442 -0.6548 -0.2202
  393TMC3    C8 5933   2.266   2.574  10.711  0.2651 -0.6965 -0.0867
  393TMC3    O1 5934   2.687   2.375  10.438 -0.4459  0.1432 -0.0673
  393TMC3    O2 5935   2.151   2.583  10.673 -0.1560  0.2774 -0.2082
  394TMC3    C1 5936   4.598   3.390  11.429 -0.4184  0.1924  0.3463
  394TMC3    C2 5937   4.466   3.399  11.388 -0.1669  0.0811 -0.4298
  394TMC3    C3 5938   4.431   3.380  11.257 -0.5528  0.0936  0.2074
  394TMC3    C4 5939   4.704   3.393  11.344 -0.3059  0.6948  0.4816
  394TMC3    C5 5940   4.665   3.370  11.216 -0.3834  0.1262  0.0362
  394TMC3    C6 5941   4.534   3.357  11.169  0.1454  0.6348 -0.4009
  394TMC3     C 5942   4.628   3.417  11.567 -0.1653 -0.6203  0.5732
  394TMC3     O 5943   0.008   3.444  11.593  0.0926 -0.5071 -0.2091
  394TMC3     H 5944   4.384   3.415  11.457 -0.5149 -0.9544 -0.5941
  394TMC3    H1 5945   0.069   3.381  11.372  0.0710 -0.8759 -1.5546
  394TMC3    H2 5946   4.516   3.376  11.064 -1.1334  2.3548  0.1233
  394TMC3    C7 5947   0.024   3.323  11.123  0.4116 -0.0868 -0.3244
  394TMC3    C8 5948   4.297   3.337  11.224  0.3847  0.0935 -0.5297
  394TMC3    O1 5949   0.127   3.380  11.112  0.0324 -0.5350  0.1682
  394TMC3    O2 5950   4.214   3.333  11.315  0.5844  0.5577 -0.2043
  395TMC3    C1 5951   4.630   0.540  15.222 -0.3366 -0.1338  0.1462
  395TMC3    C2 5952   4.591   0.457  15.116 -0.3751 -0.4859  0.0352
  395TMC3    C3 5953   4.649   0.489  14.996 -0.8391 -0.7502 -0.2101
  395TMC3    C4 5954   4.713   0.648  15.212 -0.1494  0.1643 -0.0944
  395TMC3    C5 5955   0.031   0.675  15.091 -0.3340  0.4862  1.2647
  395TMC3    C6 5956   0.002   0.588  14.986 -0.2092 -0.0808 -0.4987
  395TMC3     C 5957   4.571   0.523  15.355  0.3299  0.9321 -0.3715
  395TMC3     O 5958   4.576   0.611  15.439 -0.6446  0.0457 -0.6381
  395TMC3     H 5959   4.503   0.394  15.124  0.0476 -1.1194 -0.1978
  395TMC3    H1 5960   0.003   0.711  15.296  0.5686 -0.0586 -0.1760
  395TMC3    H2 5961   0.066   0.594  14.899 -1.2472 -1.7820 -1.3781
  395TMC3    C7 5962   0.108   0.792  15.065  0.1889 -0.6467 -0.4502
  395TMC3    C8 5963   4.544   0.522  14.901 -0.0661  0.4072  0.4912
  395TMC3    O1 5964   0.138   0.865  15.157  0.3337  0.4208 -0.3164
  395TMC3    O2 5965   4.513   0.641  14.888 -0.1568 -0.2643  0.3780
  396MPD2     C 5966   3.776   2.442  16.885 -0.5771  0.3160  0.1928
  396MPD2    C1 5967   3.883   2.466  16.959  0.2916  0.3265 -0.6721
  396MPD2    C2 5968   3.983   2.551  16.906  1.1089 -0.1998 -0.3744
  396MPD2    C3 5969   3.961   2.611  16.789 -0.1564 -0.2185 -0.4161
  396MPD2    C4 5970   3.846   2.589  16.716 -0.3749 -0.2299  0.2025
  396MPD2    C5 5971   3.758   2.507  16.765 -0.9308  0.3885  0.6461
  396MPD2     H 5972   4.081   2.556  16.951  1.9630  0.6370 -2.3096
  396MPD2    H1 5973   3.824   2.648  16.627  1.8586  0.7734  0.3364
  396MPD2    H2 5974   3.703   2.366  16.911 -2.6292  2.5338  0.7767
  396MPD2    H3 5975   3.662   2.486  16.718  0.2047  0.1834 -1.5743
  396MPD2     N 5976   4.065   2.701  16.744  0.5483  0.1158  0.3097
  396MPD2    H5 5977   4.129   2.737  16.813 -0.7598  1.1031  1.0170
  396MPD2    N1 5978   3.899   2.402  17.083  0.4428  0.2541 -0.3956
  396MPD2    H7 5979   3.842   2.321  17.107 -1.5944  1.6239 -0.5622
  397TMC3    C1 5980   3.980   2.359  17.297  0.1647  0.7251 -0.6512
  397TMC3    C2 5981   4.107   2.348  17.346 -0.4569  0.4364  0.2804
  397TMC3    C3 5982   4.166   2.224  17.364 -0.3190 -0.5672 -0.3095
  397TMC3    C4 5983   3.904   2.238  17.292 -0.5680 -0.0287  1.0824
  397TMC3    C5 5984   3.964   2.118  17.323  0.0195 -0.0932  0.3248
  397TMC3    C6 5985   4.092   2.112  17.352  0.2092 -0.5605  0.4788
  397TMC3     C 5986   3.994   2.436  17.173 -0.2542  0.4034 -0.4990
  397TMC3     O 5987   4.069   2.532  17.174  0.4855 -0.2959  0.2600
  397TMC3     H 5988   4.171   2.435  17.336 -0.5096  0.2071 -1.9616
  397TMC3    H1 5989   3.802   2.246  17.256 -0.0760  2.4846  0.2192
  397TMC3    H2 5990   4.144   2.017  17.350  0.2350 -0.5236 -0.7701
  397TMC3    C7 5991   3.884   1.998  17.338  0.0433 -0.0992  0.8198
  397TMC3    C8 5992   4.309   2.207  17.398 -0.4231  0.0513  0.4856
  397TMC3    O1 5993   3.770   2.017  17.302 -0.0899 -0.2280  0.4078
  397TMC3    O2 5994   4.340   2.124  17.481  0.2085 -0.5787  0.1350
  398MPD2     C 5995   2.205   3.159  17.699  0.0271 -0.1533 -0.0699
  398MPD2    C1 5996   2.304   3.107   0.023  0.4229  0.3989 -0.3304
  398MPD2    C2 5997   2.368   3.190   0.116 -0.3458 -0.2237 -0.3309
  398MPD2    C3 5998   2.331   3.320   0.131  0.0848  0.6223 -0.4216
  398MPD2    C4 5999   2.233   3.369   0.052  0.0918 -0.4309 -0.2258
  398MPD2    C5 6000   2.172   3.290  17.709 -0.3587 -0.0648 -0.4803
  398MPD2     H 6001   2.449   3.149   0.175  0.8847 -0.1999 -1.9960
  398MPD2    H1 6002   2.198   3.471   0.062 -1.4937 -0.9177 -0.6441
  398MPD2    H2 6003   2.147   3.092  17.637 -0.7425  1.6045 -1.2464
  398MPD2    H3 6004   2.098   3.330  17.641 -0.0422  0.7330 -0.3536
  398MPD2     N 6005   2.406   3.407   0.218 -0.0813 -0.7771 -0.0340
  398MPD2    H5 6006   2.480   3.358   0.268  0.3160  0.1151  0.2606
  398MPD2    N1 6007   2.342   2.972   0.033 -0.2517 -0.1069 -0.1278
  398MPD2    H7 6008   2.417   2.957   0.100 -0.7479  0.4516  0.5583
  399TMC3    C1 6009   2.336   2.737   0.004 -0.2963 -0.2276 -0.0797
  399TMC3    C2 6010   2.456   2.719   0.068 -0.2340 -0.1872  0.0701
  399TMC3    C3 6011   2.498   2.585   0.092  0.4884  0.5375 -0.1808
  399TMC3    C4 6012   2.254   2.635  17.725  0.1573  0.6575  0.7350
  399TMC3    C5 6013   2.303   2.504  17.751 -0.4562 -0.1422 -0.4152
  399TMC3    C6 6014   2.427   2.474   0.047 -0.5713 -0.4475 -0.1424
  399TMC3     C 6015   2.278   2.867  17.722 -0.8181 -0.0151 -1.0819
  399TMC3     O 6016   2.186   2.872  17.636 -0.4226 -0.2474  0.2196
  399TMC3     H 6017   2.525   2.800   0.090 -1.6349  0.9418  0.3235
  399TMC3    H1 6018   2.162   2.643  17.667  1.1065  0.4230 -0.7876
  399TMC3    H2 6019   2.453   2.373   0.076 -3.1402 -1.4099 -1.1549
  399TMC3    C7 6020   2.215   2.390  17.723 -0.3383  0.1845  0.1460
  399TMC3    C8 6021   2.621   2.559   0.160 -0.3838  0.2404 -0.1575
  399TMC3    O1 6022   2.268   2.288  17.683 -0.0864 -0.7044  0.4304
  399TMC3    O2 6023   2.665   2.657   0.219 -0.2902  0.3457 -0.0495
  400TMC3    C1 6024   0.968   1.121  16.872  0.4963  0.2708  0.3535
  400TMC3    C2 6025   0.897   1.002  16.851  0.4422 -0.0491 -0.4853
  400TMC3    C3 6026   0.782   1.011  16.774  0.0855 -0.0163  0.3066
  400TMC3    C4 6027   0.909   1.240  16.830 -0.0751 -0.4771 -0.1716
  400TMC3    C5 6028   0.798   1.241  16.756 -0.1222 -0.1401  0.7430
  400TMC3    C6 6029   0.728   1.128  16.725 -0.5249  0.3307  0.0251
  400TMC3     C 6030   1.104   1.115  16.929  0.7928  0.0464 -0.6478
  400TMC3     O 6031   1.138   1.011  16.986 -0.1880  0.1325  0.6826
  400TMC3     H 6032   0.945   0.907  16.872 -0.3993  0.1030  2.1372
  400TMC3    H1 6033   0.955   1.330  16.870  5.3577 -2.4109 -2.0048
  400TMC3    H2 6034   0.642   1.126  16.660 -0.2285  1.3744 -0.3987
  400TMC3    C7 6035   0.757   1.363  16.679 -0.5704  0.1696 -0.3975
  400TMC3    C8 6036   0.693   0.899  16.763  0.7596 -1.0169 -0.0613
  400TMC3    O1 6037   0.673   1.338  16.590  0.2733 -0.0125 -0.3609
  400TMC3    O2 6038   0.594   0.915  16.691  0.2897 -0.2216 -0.3671
  401MPD2     C 6039   4.549   0.082   1.197  0.3710 -0.6043 -0.2073
  401MPD2    C1 6040   4.634   4.716   1.214 -0.3753  0.0758 -0.4750
  401MPD2    C2 6041   4.584   4.587   1.200 -0.1353  0.0297  0.1970
  401MPD2    C3 6042   4.454   4.561   1.165  0.5393  0.6552 -0.5077
  401MPD2    C4 6043   4.361   4.665   1.165  0.8356 -0.1720 -0.1140
  401MPD2    C5 6044   4.411   0.051   1.180 -0.1285  0.0775 -0.0064
  401MPD2     H 6045   4.644   4.499   1.218 -0.0720  0.2113  0.8709
  401MPD2    H1 6046   4.253   4.661   1.152  0.7414 -0.5323  0.7777
  401MPD2    H2 6047   4.584   0.185   1.194 -0.6889 -0.2195  0.9274
  401MPD2    H3 6048   4.350   0.141   1.182 -0.1187  0.0739  0.5741
  401MPD2     N 6049   4.411   4.425   1.143  0.5504  0.1610  0.2706
  401MPD2    H5 6050   4.482   4.354   1.160 -1.5409 -2.2753 -1.2465
  401MPD2    N1 6051   0.033   4.722   1.242  0.2340 -0.3880 -0.0836
  401MPD2    H7 6052   0.080   4.632   1.234  0.2667 -0.2034 -1.9588
  402TMC3    C1 6053   4.275   4.250   1.064 -0.2753 -0.0693 -0.3725
  402TMC3    C2 6054   4.304   4.159   1.161  0.3039 -0.1554 -0.1612
  402TMC3    C3 6055   4.287   4.031   1.135  0.3623  0.0538  0.3028
  402TMC3    C4 6056   4.216   4.211   0.952  0.1546 -0.5838  0.7219
  402TMC3    C5 6057   4.189   4.081   0.918 -0.0414  0.2699  0.0524
  402TMC3    C6 6058   4.233   3.990   1.015  0.6657  0.1049  0.3411
  402TMC3     C 6059   4.287   4.390   1.089  1.3809  0.5243 -0.7327
  402TMC3     O 6060   4.203   4.464   1.050 -0.4943 -0.0482  0.0670
  402TMC3     H 6061   4.339   4.199   1.256 -1.6488 -1.4834  1.1152
  402TMC3    H1 6062   4.194   4.283   0.874  0.1099 -0.2186  1.0695
  402TMC3    H2 6063   4.209   3.884   1.007 -0.0427  0.1930  1.2992
  402TMC3    C7 6064   4.243   4.064   0.777  0.0165 -0.5599 -0.0204
  402TMC3    C8 6065   4.353   3.927   1.210 -0.0476  0.3751  0.4165
  402TMC3    O1 6066   4.198   4.120   0.680 -0.4445  0.3702  0.3549
  402TMC3    O2 6067   4.384   3.834   1.142  0.2413 -0.0587  0.0165
  403MPD2     C 6068   2.103   2.346  13.220  0.2349 -0.4264 -0.7983
  403MPD2    C1 6069   2.077   2.396  13.348 -0.3837 -0.3288  0.2840
  403MPD2    C2 6070   2.122   2.520  13.381  0.6975  0.1533 -0.1320
  403MPD2    C3 6071   2.217   2.583  13.305  0.1031 -0.5599 -0.3375
  403MPD2    C4 6072   2.248   2.529  13.182 -0.3583  0.2809 -0.5732
  403MPD2    C5 6073   2.183   2.418  13.135 -0.8157  0.3905 -0.8268
  403MPD2     H 6074   2.104   2.572  13.475 -0.5734  1.6166 -1.1823
  403MPD2    H1 6075   2.321   2.573  13.116  0.8947 -1.3373 -0.2621
  403MPD2    H2 6076   2.059   2.250  13.195  1.6355 -1.2344 -0.1165
  403MPD2    H3 6077   2.195   2.373  13.038 -1.0987  0.6486 -0.9845
  403MPD2     N 6078   2.289   2.691  13.364  0.3185  0.2174 -0.5845
  403MPD2    H5 6079   2.248   2.716  13.453 -0.0584 -1.7747 -0.1895
  403MPD2    N1 6080   2.014   2.310  13.438 -0.6376 -0.2944  0.4655
  403MPD2    H7 6081   1.985   2.219  13.403  0.6958 -0.7503  0.5700
  404TMC3    C1 6082   1.935   2.236  13.652  0.1503 -0.2567 -0.3807
  404TMC3    C2 6083   1.956   2.248  13.786 -0.4117 -0.1381 -0.4235
  404TMC3    C3 6084   1.919   2.138  13.857  0.4521 -0.3251 -0.0603
  404TMC3    C4 6085   1.891   2.122  13.591  0.2595  0.4539  0.3649
  404TMC3    C5 6086   1.843   2.023  13.673 -0.3443 -0.6622 -0.2124
  404TMC3    C6 6087   1.858   2.025  13.805  0.3383  0.9419 -0.9392
  404TMC3     C 6088   1.984   2.342  13.571  0.1608  0.6259  0.0095
  404TMC3     O 6089   2.007   2.441  13.637 -0.0196  0.3326 -0.2803
  404TMC3     H 6090   1.993   2.343  13.824  0.2652 -0.2647 -0.7521
  404TMC3    H1 6091   1.874   2.115  13.485 -0.7711  0.3349  0.5411
  404TMC3    H2 6092   1.845   1.936  13.866  0.6381 -0.3727 -2.8079
  404TMC3    C7 6093   1.760   1.917  13.620  0.2371 -0.0196  0.1178
  404TMC3    C8 6094   1.935   2.143  14.002 -0.0002  0.0974  0.2772
  404TMC3    O1 6095   1.714   1.834  13.697 -0.2558 -0.0324 -0.0277
  404TMC3    O2 6096   1.867   2.060  14.062 -0.6054 -0.1144  0.4688
  405MPD2     C 6097   2.569   3.890  14.385 -0.8270  0.0152  0.4118
  405MPD2    C1 6098   2.512   3.767  14.344  0.5928  0.7860 -0.4975
  405MPD2    C2 6099   2.380   3.767  14.307  0.8827  0.0466  0.0507
  405MPD2    C3 6100   2.295   3.876  14.314  0.2228 -0.0792 -0.5468
  405MPD2    C4 6101   2.353   3.997  14.332 -0.2106 -0.1604 -0.4577
  405MPD2    C5 6102   2.487   3.998  14.371  0.4494 -0.7862  0.9407
  405MPD2     H 6103   2.333   3.672  14.283 -0.7162  0.2650  2.3216
  405MPD2    H1 6104   2.310   4.096  14.318  0.4426 -0.1627 -2.5401
  405MPD2    H2 6105   2.674   3.898  14.412 -1.2434  2.8022  1.1455
  405MPD2    H3 6106   2.534   4.093  14.395 -1.1137 -0.1712  1.5415
  405MPD2     N 6107   2.164   3.866  14.278  0.1495  0.2901  0.0715
  405MPD2    H5 6108   2.130   3.775  14.251  1.3427 -0.3602  0.7513
  405MPD2    N1 6109   2.581   3.645  14.351  0.0596  0.1309 -0.3357
  405MPD2    H7 6110   2.678   3.644  14.379  0.1431 -0.6895 -0.6540
  406TMC3    C1 6111   1.759   3.883  14.113  0.5480  0.4488  0.4752
  406TMC3    C2 6112   1.744   3.753  14.138 -0.9336  0.4893 -0.2171
  406TMC3    C3 6113   1.836   3.698  14.221 -0.2026 -0.2000  1.0155
  406TMC3    C4 6114   1.860   3.955  14.170 -0.4695 -0.5483 -0.1362
  406TMC3    C5 6115   1.949   3.890  14.258 -0.3060  0.6103  0.2343
  406TMC3    C6 6116   1.936   3.763  14.287  0.1651 -0.1910  0.2274
  406TMC3     C 6117   1.642   3.960  14.079 -0.1367  0.4392 -0.3286
  406TMC3     O 6118   1.631   4.072  14.133 -0.1404 -0.0175  0.3523
  406TMC3     H 6119   1.658   3.694  14.106 -0.3825  0.4945 -1.7036
  406TMC3    H1 6120   1.866   4.061  14.151  0.7654 -0.4825  0.6110
  406TMC3    H2 6121   2.000   3.706  14.354 -0.3844  0.2989  1.1636
  406TMC3    C7 6122   2.070   3.960  14.288  0.2725 -0.9599  0.4132
  406TMC3    C8 6123   1.826   3.562  14.273 -0.2623 -0.1191  0.1967
  406TMC3    O1 6124   2.077   4.082  14.304  0.6521 -0.2424 -0.1169
  406TMC3    O2 6125   1.717   3.519  14.311 -0.7629  0.3687 -0.0875
  407MPD2     C 6126   4.686   3.966   9.912 -0.3402  0.3686 -0.4990
  407MPD2    C1 6127   0.001   4.077   9.968 -0.4664  0.2255 -0.0673
  407MPD2    C2 6128   4.672   4.147  10.062 -0.4490  0.1331  0.6589
  407MPD2    C3 6129   4.555   4.091  10.117  0.3354 -0.3947 -0.4958
  407MPD2    C4 6130   4.510   3.975  10.064 -0.0896 -0.2506  0.2838
  407MPD2    C5 6131   4.568   3.919   9.957  0.1693  0.1492  0.6677
  407MPD2     H 6132   4.712   4.244  10.092  3.1302 -1.3973  0.8464
  407MPD2    H1 6133   4.418   3.934  10.105  0.1104  2.8483  3.9207
  407MPD2    H2 6134   4.738   3.914   9.832  0.7467  2.4874 -1.1496
  407MPD2    H3 6135   4.522   3.823   9.935  0.0965  0.6521 -1.3743
  407MPD2     N 6136   4.468   4.163  10.196 -0.5320  0.3275 -0.3836
  407MPD2    H5 6137   4.369   4.150  10.177 -1.0426  1.1055  1.7474
  407MPD2    N1 6138   0.125   4.134   9.928  0.1425 -0.5817  0.0302
  407MPD2    H7 6139   0.162   4.207   9.987 -1.0528 -0.3760  0.5203
  408TMC3    C1 6140   0.328   4.174   9.815 -0.1422 -0.6286  0.2725
  408TMC3    C2 6141   0.452   4.121   9.788 -0.0931 -0.2662 -0.2438
  408TMC3    C3 6142   0.567   4.200   9.800  0.0578  0.2271  0.6289
  408TMC3    C4 6143   0.312   4.303   9.841 -0.0828  0.1603 -0.8268
  408TMC3    C5 6144   0.428   4.379   9.845 -0.0316  0.1355  0.2558
  408TMC3    C6 6145   0.556   4.334   9.826 -0.2152  1.0060 -1.3142
  408TMC3     C 6146   0.201   4.095   9.817 -0.1771 -0.2888  0.3239
  408TMC3     O 6147   0.207   3.984   9.761 -0.1666 -0.0599 -0.1763
  408TMC3     H 6148   0.465   4.014   9.776  1.8164 -0.0599  0.0067
  408TMC3    H1 6149   0.214   4.347   9.858  0.9403  1.9280  0.4967
  408TMC3    H2 6150   0.641   4.401   9.815  0.3665  0.8104  2.1608
  408TMC3    C7 6151   0.426   4.524   9.880 -0.6725  0.1136 -0.2345
  408TMC3    C8 6152   0.691   4.133   9.819  0.2976 -0.3612 -0.0349
  408TMC3    O1 6153   0.526   4.579   9.924  0.1898 -0.0370  0.1558
  408TMC3    O2 6154   0.692   4.014   9.780 -0.1085  0.3590  0.3536
  409MPD2     C 6155   4.466   0.617  16.932  0.0482 -0.5364 -0.4556
  409MPD2    C1 6156   4.582   0.648  16.997  0.0929  0.1119 -0.6321
  409MPD2    C2 6157   4.662   0.747  16.943 -0.5365 -0.3005 -0.1195
  409MPD2    C3 6158   4.627   0.815  16.825  0.6223  0.3508  0.1154
  409MPD2    C4 6159   4.509   0.779  16.762  0.5205 -0.3765 -0.3839
  409MPD2    C5 6160   4.432   0.680  16.815 -0.0892  0.2109 -0.3419
  409MPD2     H 6161   0.007   0.786  16.999 -0.0496 -0.4119 -0.7767
  409MPD2    H1 6162   4.486   0.821  16.665  1.7395 -1.2893 -1.0595
  409MPD2    H2 6163   4.393   0.545  16.968  0.9962 -1.4969 -0.4607
  409MPD2    H3 6164   4.336   0.650  16.774  0.9843 -1.2168 -1.7719
  409MPD2     N 6165   4.715   0.921  16.780 -0.4011 -0.0969 -0.0715
  409MPD2    H5 6166   4.675   0.989  16.716 -2.3748  1.2071  2.5810
  409MPD2    N1 6167   4.617   0.598  17.130  0.2285  0.4726 -0.1839
  409MPD2    H7 6168   4.694   0.653  17.167  1.0370 -0.6320 -0.2235
  410TMC3    C1 6169   0.166   1.062  16.788  0.5169 -0.4884  0.5856
  410TMC3    C2 6170   0.294   1.083  16.831  0.0128 -0.3357 -0.0620
  410TMC3    C3 6171   0.354   1.203  16.817 -1.1694  0.2986 -0.3111
  410TMC3    C4 6172   0.088   1.167  16.739  0.2883  1.1524  0.4283
  410TMC3    C5 6173   0.151   1.284  16.715 -0.0152 -0.2948 -0.4182
  410TMC3    C6 6174   0.285   1.302  16.752  0.2903 -0.3746 -0.5476
  410TMC3     C 6175   0.110   0.926  16.806 -0.1496 -0.2005  0.1729
  410TMC3     O 6176   0.176   0.835  16.856 -0.6930  0.5548  0.2339
  410TMC3     H 6177   0.359   1.003  16.864  2.2224  0.3927 -2.7058
  410TMC3    H1 6178   4.722   1.159  16.711  0.9205 -0.0564 -1.6073
  410TMC3    H2 6179   0.332   1.400  16.749  0.0916 -0.2388  0.8070
  410TMC3    C7 6180   0.067   1.397  16.688 -0.9102 -0.4342  0.0039
  410TMC3    C8 6181   0.459   1.239  16.905  0.2419  0.1463 -0.0478
  410TMC3    O1 6182   4.697   1.384  16.737 -0.3625  0.6996  0.5420
  410TMC3    O2 6183   0.509   1.347  16.882 -0.0858 -0.5184 -0.4172
  411MPD2     C 6184   0.018   1.426  14.508  0.4367 -0.1707  0.5861
  411MPD2    C1 6185   0.011   1.472  14.639 -0.0916  0.6770  0.2288
  411MPD2    C2 6186   4.666   1.403  14.725  0.0242 -0.3647  0.5238
  411MPD2    C3 6187   4.605   1.289  14.683  0.2672  0.0186 -0.0684
  411MPD2    C4 6188   4.611   1.250  14.549 -0.3751  0.0032 -0.3675
  411MPD2    C5 6189   4.684   1.328  14.460  0.2541  0.4751  0.0255
  411MPD2     H 6190   4.627   1.440  14.819 -2.7407  0.3837 -0.8963
  411MPD2    H1 6191   4.548   1.169  14.513 -1.5997  0.0134  1.7388
  411MPD2    H2 6192   0.080   1.481  14.437 -0.1957  0.6389  0.6631
  411MPD2    H3 6193   4.691   1.299  14.355 -0.7189 -1.9101  0.6110
  411MPD2     N 6194   4.540   1.189  14.764  0.1453  0.0635  0.4623
  411MPD2    H5 6195   4.502   1.110  14.712 -1.7054 -0.0450  1.9828
  411MPD2    N1 6196   0.071   1.598  14.672  0.1180 -0.2678  0.0461
  411MPD2    H7 6197   0.139   1.634  14.605 -1.3481  1.3882 -0.5467
  412TMC3    C1 6198   4.471   1.069  14.940 -0.4947  0.9309 -0.0973
  412TMC3    C2 6199   4.360   1.101  15.006  0.5739 -0.0836  0.0086
  412TMC3    C3 6200   4.239   1.050  14.972 -0.0759 -0.5684 -0.5536
  412TMC3    C4 6201   4.474   0.967  14.848 -0.2412  0.5749 -0.3263
  412TMC3    C5 6202   4.354   0.910  14.823 -0.7584 -0.1335  0.0123
  412TMC3    C6 6203   4.238   0.937  14.893  0.6702  0.4642 -0.1214
  412TMC3     C 6204   4.541   1.191  14.897  0.2845 -0.3314  0.1299
  412TMC3     O 6205   4.561   1.279  14.980  0.2127 -0.1859  0.4244
  412TMC3     H 6206   4.357   1.181  15.079 -2.1172  0.2589 -0.4990
  412TMC3    H1 6207   4.566   0.942  14.795  0.7266  0.3060  1.4551
  412TMC3    H2 6208   4.145   0.886  14.871 -0.0131  2.0238 -0.8252
  412TMC3    C7 6209   4.345   0.896  14.678  0.4750 -0.2698  0.2235
  412TMC3    C8 6210   4.135   1.145  14.938  0.4060  0.2190  0.2696
  412TMC3    O1 6211   4.444   0.864  14.608 -0.5925  0.0131  0.1648
  412TMC3    O2 6212   4.047   1.091  14.869 -0.1603  0.1461 -0.0123
  413MPD2     C 6213   1.712   0.356  15.298  0.3621  0.6299  0.1445
  413MPD2    C1 6214   1.682   0.270  15.201 -0.2219  0.1332 -0.5249
  413MPD2    C2 6215   1.776   0.207  15.130  0.1304  0.1386  0.0278
  413MPD2    C3 6216   1.907   0.223  15.158  0.1602 -0.1125  0.0679
  413MPD2    C4 6217   1.943   0.302  15.267  0.0739  0.0243  0.4568
  413MPD2    C5 6218   1.841   0.376  15.339 -0.2280  0.0743 -0.6727
  413MPD2     H 6219   1.763   0.136  15.048 -2.6120  1.4015 -0.6571
  413MPD2    H1 6220   2.048   0.321  15.287  0.0653  1.2462 -0.7233
  413MPD2    H2 6221   1.638   0.404  15.362  0.2419 -3.5271  3.1987
  413MPD2    H3 6222   1.860   0.447  15.419  2.4981  0.4744 -1.6655
  413MPD2     N 6223   1.987   0.127  15.087  0.1937  0.1520  0.3853
  413MPD2    H5 6224   1.932   0.055  15.041  1.0820  1.2037 -2.2716
  413MPD2    N1 6225   1.543   0.251  15.177 -0.5784  0.1431  0.3968
  413MPD2    H7 6226   1.480   0.295  15.244 -1.0571  2.8495 -1.8275
  414TMC3    C1 6227   2.161   4.716  15.038 -0.2779 -0.2061 -0.7572
  414TMC3    C2 6228   2.248   4.641  15.106  0.2491 -0.2293  0.7796
  414TMC3    C3 6229   2.250   4.513  15.074 -0.2206 -0.0035  0.6396
  414TMC3    C4 6230   2.080   4.673  14.934 -0.3674  0.0775 -0.6394
  414TMC3    C5 6231   2.087   4.539  14.907 -0.3194  0.5677 -0.0277
  414TMC3    C6 6232   2.160   4.453  14.982 -1.0341  0.3016  0.0547
  414TMC3     C 6233   2.125   0.107  15.093 -0.0492  0.3576  0.0508
  414TMC3     O 6234   2.200   0.157  15.175 -0.1390  0.0674  0.1719
  414TMC3     H 6235   2.316   4.691  15.174 -0.4779 -0.2965  1.5393
  414TMC3    H1 6236   2.023   0.009  14.879  2.2619  1.2165 -1.8062
  414TMC3    H2 6237   2.163   4.347  14.965  1.0241 -0.0940  2.7649
  414TMC3    C7 6238   2.016   4.492  14.794 -0.3388  0.4664 -1.2396
  414TMC3    C8 6239   2.354   4.416  15.119  0.1651 -0.1607  0.0091
  414TMC3    O1 6240   1.902   4.538  14.782 -0.0097 -0.2109 -0.2603
  414TMC3    O2 6241   2.340   4.302  15.083 -0.2786  0.4354 -0.5568
  415TMC3    C1 6242   2.499   2.008   9.648  0.1486 -0.4697 -0.0068
  415TMC3    C2 6243   2.581   2.049   9.550 -1.1997  0.4192  0.2496
  415TMC3    C3 6244   2.544   2.030   9.423  0.7486 -0.4724  0.0750
  415TMC3    C4 6245   2.380   1.958   9.617 -0.8154  0.3907  0.1643
  415TMC3    C5 6246   2.340   1.943   9.486 -0.2444  0.6822  0.4623
  415TMC3    C6 6247   2.428   1.978   9.382 -0.0672  0.0129 -0.6594
  415TMC3     C 6248   2.525   2.016   9.791 -0.2067 -0.3773  0.2482
  415TMC3     O 6249   2.438   1.986   9.871 -0.0870 -0.1752 -0.8745
  415TMC3     H 6250   2.685   2.075   9.563 -0.7042 -0.8034 -1.3179
  415TMC3    H1 6251   2.323   1.910   9.696 -1.9586  0.3614 -0.6822
  415TMC3    H2 6252   2.411   1.949   9.278 -2.4370  1.5881 -0.7033
  415TMC3    C7 6253   2.239   1.847   9.463 -0.0617 -0.2240 -0.2152
  415TMC3    C8 6254   2.604   2.111   9.323 -0.1721  0.0698 -0.0048
  415TMC3    O1 6255   2.247   1.780   9.363  0.1385 -0.5622 -0.1861
  415TMC3    O2 6256   2.621   2.070   9.209  0.0272 -0.5274 -0.1075
  416MPD2     C 6257   4.080   1.682  11.464  0.5946  0.4077 -0.2890
  416MPD2    C1 6258   3.984   1.613  11.532 -0.2247 -0.4952 -0.5694
  416MPD2    C2 6259   3.961   1.483  11.500 -0.3062 -0.4579 -0.6716
  416MPD2    C3 6260   4.021   1.426  11.396  0.2839 -0.1931  0.6014
  416MPD2    C4 6261   4.097   1.502  11.312 -0.6612 -0.1280 -0.6584
  416MPD2    C5 6262   4.133   1.632  11.347  0.0590  0.0443 -0.9358
  416MPD2     H 6263   3.892   1.418  11.553 -1.3877 -1.4845 -3.3036
  416MPD2    H1 6264   4.158   1.463  11.231  1.5825  0.8718  0.5698
  416MPD2    H2 6265   4.096   1.788  11.476  1.0337  0.1796  1.1323
  416MPD2    H3 6266   4.211   1.689  11.298  0.1412 -0.8027 -1.7738
  416MPD2     N 6267   3.981   1.295  11.372  0.1390 -0.1114  0.3677
  416MPD2    H5 6268   3.967   1.232  11.450 -0.4877 -0.1384  0.2270
  416MPD2    N1 6269   3.920   1.685  11.635 -0.2106 -1.1912  0.1093
  416MPD2    H7 6270   3.924   1.786  11.628  0.8861 -1.3768 -1.7893
  417TMC3    C1 6271   3.739   1.720  11.779 -0.0229  0.2656 -0.2871
  417TMC3    C2 6272   3.694   1.678  11.901  0.1183 -0.6742  0.1276
  417TMC3    C3 6273   3.558   1.693  11.926  0.1927  0.6998 -0.5777
  417TMC3    C4 6274   3.652   1.767  11.682  0.3027  0.4370 -0.5268
  417TMC3    C5 6275   3.522   1.773  11.714  0.2292  0.1449 -0.3335
  417TMC3    C6 6276   3.472   1.737  11.832  0.5023 -0.3457 -0.2613
  417TMC3     C 6277   3.836   1.628  11.726 -0.0101  0.6752 -0.4826
  417TMC3     O 6278   3.822   1.510  11.750  0.2775 -0.2156  0.1969
  417TMC3     H 6279   3.755   1.639  11.981  0.6576 -0.2002 -0.0517
  417TMC3    H1 6280   3.684   1.776  11.579  1.5036  1.4649 -0.0725
  417TMC3    H2 6281   3.369   1.744  11.866  0.0176 -1.1367 -1.5720
  417TMC3    C7 6282   3.428   1.791  11.608  0.2979  0.6685  0.4151
  417TMC3    C8 6283   3.502   1.673  12.058  0.4415 -0.3159 -0.7647
  417TMC3    O1 6284   3.448   1.882  11.529 -0.2015  0.2466 -0.1306
  417TMC3    O2 6285   3.401   1.742  12.078  0.6710  0.8551 -0.4454
  418TMC3    C1 6286   2.692   3.703   0.295  0.0716  0.3832 -0.5468
  418TMC3    C2 6287   2.563   3.688   0.260  0.0550  0.0070  0.3901
  418TMC3    C3 6288   2.487   3.602   0.333  0.2117  1.0960 -0.2550
  418TMC3    C4 6289   2.740   3.629   0.405  0.7698  0.8282 -0.1650
  418TMC3    C5 6290   2.660   3.540   0.472 -0.5893 -0.0888 -0.1561
  418TMC3    C6 6291   2.536   3.514   0.428  0.3328  0.4345  0.4456
  418TMC3     C 6292   2.785   3.727   0.190 -0.5296  0.0199 -0.7184
  418TMC3     O 6293   2.736   3.773   0.089  0.4129 -0.1548 -0.1622
  418TMC3     H 6294   2.529   3.711   0.160  1.9768 -0.3667 -0.3372
  418TMC3    H1 6295   2.834   3.662   0.449  1.0722  0.3078 -0.4253
  418TMC3    H2 6296   2.471   3.434   0.462 -0.6085  0.8453 -0.3775
  418TMC3    C7 6297   2.703   3.482   0.594 -0.2480  0.2498  0.3858
  418TMC3    C8 6298   2.398   3.544   0.233 -0.2307 -0.0060  0.3817
  418TMC3    O1 6299   2.792   3.539   0.654  0.1641 -0.1657 -0.2815
  418TMC3    O2 6300   2.318   3.621   0.183 -0.0913  0.0589 -0.2386
  419MPD2     C 6301   1.264   1.253  12.390  0.3756 -0.7357  0.1340
  419MPD2    C1 6302   1.176   1.354  12.354  0.2350  0.2078  0.1253
  419MPD2    C2 6303   1.157   1.452  12.448  0.3943 -0.5062  0.3993
  419MPD2    C3 6304   1.205   1.436  12.580 -0.4344 -0.0631 -0.7546
  419MPD2    C4 6305   1.292   1.335  12.608  0.5353 -0.2201  0.3113
  419MPD2    C5 6306   1.316   1.243  12.514 -0.6071  0.8016  0.4964
  419MPD2     H 6307   1.086   1.531  12.426  2.0800  1.2397  1.2563
  419MPD2    H1 6308   1.333   1.308  12.705  0.1099 -2.8942 -0.2433
  419MPD2    H2 6309   1.304   1.186  12.315  0.9689  0.0983 -0.2936
  419MPD2    H3 6310   1.386   1.164  12.539 -0.6330  0.4710 -0.5027
  419MPD2     N 6311   1.160   1.533  12.672 -0.4218  0.1097 -0.7873
  419MPD2    H5 6312   1.106   1.613  12.639  3.5378  2.5547 -1.3678
  419MPD2    N1 6313   1.115   1.366  12.226 -0.3175  0.1374  0.5547
  419MPD2    H7 6314   1.051   1.443  12.212  0.4588  0.2872 -2.1227
  420TMC3    C1 6315   1.165   1.667  12.856 -0.7886  0.3002 -0.7298
  420TMC3    C2 6316   1.063   1.738  12.802  0.8240  0.1061 -0.3676
  420TMC3    C3 6317   1.019   1.840  12.872 -0.7787 -0.0083 -0.0590
  420TMC3    C4 6318   1.223   1.696  12.972 -0.1311 -0.2460 -0.3352
  420TMC3    C5 6319   1.172   1.799  13.050  0.5548 -0.6078  0.3362
  420TMC3    C6 6320   1.076   1.876  12.996  0.2146 -0.2931 -0.2815
  420TMC3     C 6321   1.196   1.539  12.802 -0.4444 -0.7430 -0.3886
  420TMC3     O 6322   1.261   1.462  12.874 -0.3367  0.5126 -0.2355
  420TMC3     H 6323   1.002   1.709  12.717 -0.0550  1.6917 -0.2912
  420TMC3    H1 6324   1.310   1.637  13.000 -0.8220 -1.8420 -1.5371
  420TMC3    H2 6325   1.037   1.966  13.044  0.4068 -0.1291 -0.4367
  420TMC3    C7 6326   1.145   1.764  13.187 -0.1630  0.3231  0.2978
  420TMC3    C8 6327   0.880   1.873  12.859  0.2635 -0.3796 -0.3289
  420TMC3    O1 6328   1.173   1.652  13.219 -0.6867 -0.3302  0.2084
  420TMC3    O2 6329   0.832   1.882  12.749  0.3164  0.2502  0.2021
  421TMC3    C1 6330   2.462   2.815  13.437  0.0985  0.3054 -0.6746
  421TMC3    C2 6331   2.378   2.904  13.500  0.4620 -0.1906  0.3548
  421TMC3    C3 6332   2.397   2.938  13.631 -0.0139  0.0254  0.1417
  421TMC3    C4 6333   2.559   2.761  13.517 -0.1441 -0.3561  0.8677
  421TMC3    C5 6334   2.579   2.807  13.644 -0.1457 -0.2289 -0.4649
  421TMC3    C6 6335   2.505   2.899  13.702 -0.0121 -0.3813  0.1242
  421TMC3     C 6336   2.412   2.734  13.330 -0.3691 -0.6167  0.3119
  421TMC3     O 6337   2.490   2.688  13.250  0.1156 -0.4257 -0.7444
  421TMC3     H 6338   2.304   2.948  13.435  0.4839  0.7705  0.9826
  421TMC3    H1 6339   2.619   2.689  13.462  1.1354  0.3309  1.3650
  421TMC3    H2 6340   2.523   2.926  13.806  0.3906 -2.0923  0.4964
  421TMC3    C7 6341   2.700   2.771  13.709  0.0890  0.3422  0.2551
  421TMC3    C8 6342   2.348   3.072  13.670 -0.1480  0.4171 -0.1413
  421TMC3    O1 6343   2.746   2.846  13.797 -0.4574  0.2804 -0.8482
  421TMC3    O2 6344   2.360   3.165  13.595  0.8202  0.3386 -0.4577
  422TMC3    C1 6345   4.673   4.327  12.518 -0.0499 -0.2387 -0.4772
  422TMC3    C2 6346   4.651   4.446  12.580 -0.5687  0.2594 -0.0319
  422TMC3    C3 6347   4.530   4.466  12.640  0.3424 -0.2871 -0.3150
  422TMC3    C4 6348   4.581   4.232  12.503 -0.9793  0.1913  0.0871
  422TMC3    C5 6349   4.469   4.248  12.580 -0.2253 -0.1911  0.3799
  422TMC3    C6 6350   4.444   4.367  12.648  0.5915 -0.0226  0.2688
  422TMC3     C 6351   0.071   4.298  12.478 -0.0759 -0.1560  0.5593
  422TMC3     O 6352   0.090   4.214  12.388 -0.3685 -0.2460 -0.1010
  422TMC3     H 6353   4.730   4.519  12.569 -0.2276  0.0451  0.9788
  422TMC3    H1 6354   4.600   4.143  12.443  0.9696 -0.7319  2.0783
  422TMC3    H2 6355   4.359   4.379  12.713  2.1623 -0.0354  2.3038
  422TMC3    C7 6356   4.394   4.122  12.600 -0.9847  0.2725  0.3160
  422TMC3    C8 6357   4.509   4.580  12.726 -0.8360 -0.0646 -0.4660
  422TMC3    O1 6358   4.406   4.038  12.510 -0.0348 -0.1441 -0.7242
  422TMC3    O2 6359   4.609   4.637  12.765 -0.1575 -0.7265 -0.0954
  423MPD2     C 6360   1.559   0.677   0.739  0.5134 -1.1021 -0.0745
  423MPD2    C1 6361   1.577   0.544   0.759 -0.0237 -0.4760  0.0299
  423MPD2    C2 6362   1.637   0.474   0.657  0.1121 -0.5032  0.1588
  423MPD2    C3 6363   1.662   0.534   0.538  0.6477  0.4625  0.6339
  423MPD2    C4 6364   1.662   0.669   0.523  0.4027 -0.6360  0.1673
  423MPD2    C5 6365   1.610   0.739   0.629  0.8071  0.4045  0.4339
  423MPD2     H 6366   1.664   0.370   0.676 -1.4304 -0.9338  0.0174
  423MPD2    H1 6367   1.691   0.714   0.429 -0.9791 -0.0127  0.0446
  423MPD2    H2 6368   1.519   0.745   0.814 -0.6282  1.6530 -3.1378
  423MPD2    H3 6369   1.609   0.847   0.624  0.0030  0.4458  1.5104
  423MPD2     N 6370   1.711   0.461   0.428 -0.0709 -0.1872  0.3189
  423MPD2    H5 6371   1.747   0.515   0.349 -0.5702  0.2397  0.3835
  423MPD2    N1 6372   1.545   0.485   0.879 -0.3630  0.2223 -0.7263
  423MPD2    H7 6373   1.579   0.391   0.900  1.3438  1.0625  0.2337
  424TMC3    C1 6374   1.462   0.453   1.094  0.1539  0.7133 -0.0051
  424TMC3    C2 6375   1.579   0.404   1.149  0.7108  0.3185  0.2011
  424TMC3    C3 6376   1.561   0.313   1.248 -0.5973  0.6638 -0.1083
  424TMC3    C4 6377   1.335   0.416   1.134 -0.1325  0.6807 -0.4581
  424TMC3    C5 6378   1.328   0.325   1.232  0.1180  0.3116 -0.0754
  424TMC3    C6 6379   1.437   0.278   1.297 -0.4828  0.3805  0.0452
  424TMC3     C 6380   1.462   0.537   0.973 -0.5132 -0.8210  0.3067
  424TMC3     O 6381   1.356   0.594   0.948  0.1834  0.5306  0.1298
  424TMC3     H 6382   1.671   0.448   1.111  0.6546 -0.0212 -0.3312
  424TMC3    H1 6383   1.247   0.445   1.076 -0.2212  0.4454 -0.4424
  424TMC3    H2 6384   1.430   0.210   1.381  0.0390 -0.0731 -0.2739
  424TMC3    C7 6385   1.204   0.280   1.286 -0.0961  0.1963 -0.4450
  424TMC3    C8 6386   1.684   0.260   1.305  0.3183  0.2327 -0.0735
  424TMC3    O1 6387   1.203   0.167   1.340 -0.8275  0.7606  0.5468
  424TMC3    O2 6388   1.666   0.159   1.369  0.5042 -0.5543 -0.3624
  425MPD2     C 6389   0.927   4.605  17.244 -0.1445  1.0904 -0.2684
  425MPD2    C1 6390   0.841   4.500  17.257 -0.5418  0.4958  0.2969
  425MPD2    C2 6391   0.730   4.522  17.343 -0.1508 -0.6465  0.2384
  425MPD2    C3 6392   0.711   4.647  17.399 -0.4577 -0.3483 -0.2668
  425MPD2    C4 6393   0.791   0.017  17.371 -0.2675 -0.2184 -0.7802
  425MPD2    C5 6394   0.904   4.737  17.299 -0.6688 -0.1974 -0.1488
  425MPD2     H 6395   0.661   4.442  17.364  0.7806 -1.4245  0.3706
  425MPD2    H1 6396   0.781   0.118  17.410  1.1699  0.0132 -0.9913
  425MPD2    H2 6397   1.014   4.591  17.181 -0.3150 -0.9057 -0.0533
  425MPD2    H3 6398   0.979   0.076  17.291 -0.0121 -0.8825 -0.7017
  425MPD2     N 6399   0.601   4.650  17.487  0.2511  0.2107  0.2564
  425MPD2    H5 6400   0.565   4.562  17.521 -1.0590  0.7204  0.1766
  425MPD2    N1 6401   0.872   4.382  17.193 -0.6002  0.2635 -0.1328
  425MPD2    H7 6402   0.950   4.379  17.128 -0.0726  3.3700  0.3289
  426TMC3    C1 6403   0.870   4.148  17.140 -0.7695  0.0981  0.3711
  426TMC3    C2 6404   0.923   4.161  17.016 -0.7898  0.0693  0.3744
  426TMC3    C3 6405   0.974   4.048  16.958  0.4284 -0.0665  0.1385
  426TMC3    C4 6406   0.855   4.023  17.204  0.3567  0.7754  0.1971
  426TMC3    C5 6407   0.892   3.910  17.138  0.4835  0.4601 -0.5688
  426TMC3    C6 6408   0.960   3.923  17.016 -0.3816  0.4085 -0.2320
  426TMC3     C 6409   0.813   4.256  17.218 -0.3588  0.1692 -1.0541
  426TMC3     O 6410   0.737   4.236  17.314  0.0176  0.2258  0.8571
  426TMC3     H 6411   0.905   4.249  16.957 -0.2482  0.4378  0.7564
  426TMC3    H1 6412   0.806   4.016  17.301 -0.4538  1.6364 -0.1496
  426TMC3    H2 6413   0.970   3.832  16.958 -0.1309  0.9986 -1.0959
  426TMC3    C7 6414   0.810   3.792  17.147 -0.3176  0.6824  0.4982
  426TMC3    C8 6415   1.020   4.055  16.822 -0.1243 -0.0443  0.6317
  426TMC3    O1 6416   0.840   3.694  17.076  0.1289  0.2297  0.4032
  426TMC3    O2 6417   1.005   3.943  16.770 -0.1521  0.0142  0.0928
  427MPD2     C 6418   4.033   2.006  15.063  0.4462  0.3469  0.5997
  427MPD2    C1 6419   3.965   1.925  15.147 -0.4591  0.1599 -0.1315
  427MPD2    C2 6420   3.829   1.943  15.177 -0.0081 -0.0710 -0.2821
  427MPD2    C3 6421   3.770   2.065  15.137  0.1934  0.0528  0.2610
  427MPD2    C4 6422   3.840   2.153  15.054  0.1939 -0.6528 -0.3914
  427MPD2    C5 6423   3.970   2.119  15.021  0.4482 -0.1641 -0.2059
  427MPD2     H 6424   3.783   1.858  15.227  0.3331 -0.1092 -0.0291
  427MPD2    H1 6425   3.798   2.241  15.008 -0.2827 -0.1481  1.0032
  427MPD2    H2 6426   4.141   1.999  15.056  0.3483 -0.6427  0.0845
  427MPD2    H3 6427   4.033   2.184  14.962 -0.1128  0.0393 -0.5881
  427MPD2     N 6428   3.633   2.094  15.160  0.1706 -0.3348  0.7160
  427MPD2    H5 6429   3.587   2.171  15.112  0.5322 -0.6423 -0.1197
  427MPD2    N1 6430   4.018   1.808  15.203 -0.1972 -0.3043 -0.1020
  427MPD2    H7 6431   3.960   1.751  15.265  0.7927 -0.0125  1.0981
  428TMC3    C1 6432   4.201   1.712  15.318 -0.1300 -0.5996  0.0131
  428TMC3    C2 6433   4.126   1.607  15.370  0.0538 -0.3306  0.3064
  428TMC3    C3 6434   4.175   1.533  15.474 -0.1344 -0.2086  0.7032
  428TMC3    C4 6435   4.327   1.740  15.357  0.6401  0.6610 -0.5011
  428TMC3    C5 6436   4.374   1.655  15.456 -0.3675  0.6352  0.0864
  428TMC3    C6 6437   4.302   1.556  15.518  0.3156 -0.6251 -0.5967
  428TMC3     C 6438   4.153   1.783  15.200 -0.0767  1.3018  0.1536
  428TMC3     O 6439   4.234   1.821  15.119 -0.4876 -0.3863  0.0253
  428TMC3     H 6440   4.029   1.587  15.327  0.0817 -1.3762  0.7322
  428TMC3    H1 6441   4.380   1.825  15.314  0.3225  0.5188 -1.1680
  428TMC3    H2 6442   4.351   1.484  15.583  2.3347  1.4690  0.1952
  428TMC3    C7 6443   4.510   1.684  15.509  0.6511  0.0149 -0.2458
  428TMC3    C8 6444   4.146   1.390  15.476 -0.1714 -0.0061  0.7772
  428TMC3    O1 6445   4.524   1.660  15.630 -0.0119 -0.6092  0.1296
  428TMC3    O2 6446   4.195   1.327  15.571 -0.2630  0.1159  0.9791
  429MPD2     C 6447   0.227   1.772  17.453  0.6786  0.2973  0.2908
  429MPD2    C1 6448   0.364   1.750  17.443 -0.0957  0.5946  0.3900
  429MPD2    C2 6449   0.444   1.826  17.369 -0.0329 -0.4198 -0.2670
  429MPD2    C3 6450   0.383   1.930  17.301 -0.6714 -0.8747 -0.1721
  429MPD2    C4 6451   0.252   1.959  17.318 -0.3624  0.0271 -0.7190
  429MPD2    C5 6452   0.169   1.871  17.388 -0.7575  0.1753 -0.5977
  429MPD2     H 6453   0.548   1.802  17.349 -0.3774 -1.5681 -0.6787
  429MPD2    H1 6454   0.199   2.038  17.265 -0.2099  1.3663  1.0936
  429MPD2    H2 6455   0.177   1.698  17.514 -2.4161  1.2593 -1.0798
  429MPD2    H3 6456   0.062   1.889  17.396 -0.3689  0.2191  4.2836
  429MPD2     N 6457   0.466   2.001  17.209  0.5876  0.1767  0.2376
  429MPD2    H5 6458   0.563   1.973  17.219  0.3837 -0.4991  0.3066
  429MPD2    N1 6459   0.426   1.639  17.510 -0.0658 -0.0183  0.1913
  429MPD2    H7 6460   0.513   1.608  17.468  0.4435  0.8218  0.6310
  430TMC3    C1 6461   0.525   2.149  17.042 -0.0037 -0.2734  0.1264
  430TMC3    C2 6462   0.479   2.231  16.939 -0.3983 -0.2896  1.0937
  430TMC3    C3 6463   0.575   2.264  16.846 -0.6870  0.5633  0.6103
  430TMC3    C4 6464   0.650   2.095  17.041  0.4252 -0.3693 -0.5267
  430TMC3    C5 6465   0.732   2.114  16.931 -0.3487  0.3760  0.1184
  430TMC3    C6 6466   0.701   2.207  16.831  0.5036 -0.8533  0.1766
  430TMC3     C 6467   0.420   2.091  17.117  0.5339  0.2076 -0.1384
  430TMC3     O 6468   0.309   2.138  17.106 -0.0433 -0.1301 -0.0354
  430TMC3     H 6469   0.374   2.255  16.928 -0.3250 -0.4530  0.0881
  430TMC3    H1 6470   0.694   2.032  17.117  2.5015 -1.0117 -2.2565
  430TMC3    H2 6471   0.762   2.216  16.742  1.9461  1.1672  1.3752
  430TMC3    C7 6472   0.789   1.984  16.882 -0.0402 -0.0583  0.0333
  430TMC3    C8 6473   0.511   2.295  16.719 -0.2618 -0.9508 -0.1534
  430TMC3    O1 6474   0.789   1.893  16.963  0.2714 -0.2090  0.0821
  430TMC3    O2 6475   0.393   2.268  16.705 -0.0410 -0.3428  0.1555
  431MPD2     C 6476   1.056   1.965  12.464 -0.1674 -0.1220  0.0565
  431MPD2    C1 6477   1.181   1.912  12.429  0.2784  0.5600 -0.7533
  431MPD2    C2 6478   1.180   1.816  12.319 -0.3676  0.7765  0.2082
  431MPD2    C3 6479   1.060   1.798  12.251  0.6514  0.4790 -0.1784
  431MPD2    C4 6480   0.948   1.852  12.300  0.0198 -0.6412  0.3749
  431MPD2    C5 6481   0.937   1.941  12.400 -0.2702  0.6466  0.2858
  431MPD2     H 6482   1.265   1.756  12.289 -0.2829  0.0524  1.9218
  431MPD2    H1 6483   0.858   1.821  12.248 -0.9111 -0.8571  2.1038
  431MPD2    H2 6484   1.053   2.042  12.541  0.5898 -1.8545  1.8077
  431MPD2    H3 6485   0.850   2.001  12.427 -0.1573  1.4030 -1.0698
  431MPD2     N 6486   1.050   1.728  12.128  0.4963  0.6321 -0.1680
  431MPD2    H5 6487   0.961   1.707  12.083 -0.1231  1.7099  0.5475
  431MPD2    N1 6488   1.296   1.926  12.503 -0.0571  0.4189 -0.0283
  431MPD2    H7 6489   1.382   1.884  12.469 -0.2541 -0.4814  0.5983
  432TMC3    C1 6490   1.158   1.589  11.954  0.2740 -0.4105  0.9725
  432TMC3    C2 6491   1.271   1.578  11.886  0.9225 -0.3503  0.9937
  432TMC3    C3 6492   1.308   1.447  11.860 -0.3803 -0.0514  0.2545
  432TMC3    C4 6493   1.086   1.492  12.015 -0.3386 -0.5029 -0.0650
  432TMC3    C5 6494   1.132   1.368  11.989  0.2358  0.3765  0.6369
  432TMC3    C6 6495   1.231   1.343  11.897  0.4584 -0.0584 -0.2377
  432TMC3     C 6496   1.162   1.710  12.039  0.4334  0.1142 -0.5678
  432TMC3     O 6497   1.270   1.775  12.039 -0.1428 -0.1866  0.6648
  432TMC3     H 6498   1.310   1.664  11.832  2.7834 -1.6348  0.2862
  432TMC3    H1 6499   0.988   1.494  12.062 -0.2890 -1.0592  0.0540
  432TMC3    H2 6500   1.273   1.243  11.891  0.9556  0.1960 -1.0747
  432TMC3    C7 6501   1.159   1.294  12.111 -0.3385  0.0535  0.5305
  432TMC3    C8 6502   1.419   1.427  11.771  0.2838  0.3315  0.1456
  432TMC3    O1 6503   1.236   1.199  12.104  0.3926 -0.1276  0.2985
  432TMC3    O2 6504   1.405   1.344  11.682 -0.0967 -0.6895  0.5588
  433MPD2     C 6505   4.299   0.126  11.014  0.0211  0.0600 -0.0793
  433MPD2    C1 6506   4.384   0.040  11.075  0.0646  0.1258  0.2105
  433MPD2    C2 6507   4.472   0.088  11.177 -0.6192 -0.2196  0.0851
  433MPD2    C3 6508   4.445   0.210  11.235 -0.2620  0.1471  0.5786
  433MPD2    C4 6509   4.348   0.280  11.182  0.1265  0.1941  0.1767
  433MPD2    C5 6510   4.278   0.251  11.067 -0.0991  0.5402  0.4834
  433MPD2     H 6511   4.546   0.023  11.222  0.9523 -0.5838 -3.0520
  433MPD2    H1 6512   4.313   0.376  11.218  0.4100 -0.1135  1.2702
  433MPD2    H2 6513   4.239   0.098  10.928 -0.9699  2.4356 -0.1442
  433MPD2    H3 6514   4.204   0.312  11.016 -0.5506 -1.9679 -1.8681
  433MPD2     N 6515   4.509   0.251  11.348  0.2590  0.2652 -0.2660
  433MPD2    H5 6516   4.576   0.179  11.375 -0.0837  0.0315 -0.0357
  433MPD2    N1 6517   4.382   4.650  11.024  0.3908 -0.3313  0.4424
  433MPD2    H7 6518   4.328   4.632  10.940  1.1954 -1.7624  0.2281
  434TMC3    C1 6519   4.439   4.413  11.019  0.0511  0.3454 -0.0472
  434TMC3    C2 6520   4.485   4.305  11.084  0.4494 -0.7750 -0.5612
  434TMC3    C3 6521   4.429   4.183  11.045  1.0167  0.3476 -0.2617
  434TMC3    C4 6522   4.359   4.399  10.907  0.6800  0.4849  0.6818
  434TMC3    C5 6523   4.313   4.280  10.875 -0.0160 -0.5569  0.3231
  434TMC3    C6 6524   4.344   4.162  10.943  0.3567  0.3662  0.3926
  434TMC3     C 6525   4.454   4.546  11.078 -0.0018 -0.5322 -0.2260
  434TMC3     O 6526   4.519   4.544  11.181 -0.5100  0.3164  0.0718
  434TMC3     H 6527   4.527   4.323  11.182 -1.0714  1.6828 -0.3570
  434TMC3    H1 6528   4.344   4.483  10.839  2.9851  0.6873  0.4265
  434TMC3    H2 6529   4.281   4.076  10.924  0.8259  0.0124  0.4148
  434TMC3    C7 6530   4.249   4.264  10.748  0.5403  0.0017  0.3483
  434TMC3    C8 6531   4.409   4.088  11.151 -0.2751  0.5036  0.5694
  434TMC3    O1 6532   4.170   4.350  10.715 -0.2387 -0.0069 -0.4877
  434TMC3    O2 6533   4.290   4.062  11.151 -0.1236  0.0137  0.2311
  435MPD2     C 6534   2.416   0.573  15.352  0.3686 -0.7671  0.1501
  435MPD2    C1 6535   2.391   0.603  15.487 -1.2142 -0.1266 -0.0036
  435MPD2    C2 6536   2.489   0.585  15.583 -0.1958  0.5967 -0.0306
  435MPD2    C3 6537   2.611   0.527  15.537  0.1932  0.1866  0.2890
  435MPD2    C4 6538   2.636   0.495  15.402 -0.0574  0.0866 -0.0442
  435MPD2    C5 6539   2.537   0.515  15.309  0.3036 -0.0846  0.0033
  435MPD2     H 6540   2.478   0.607  15.689  1.3667 -0.2012  0.3012
  435MPD2    H1 6541   2.731   0.461  15.363  0.1938  0.2342  0.4463
  435MPD2    H2 6542   2.343   0.593  15.274  2.3344 -0.4579 -1.6045
  435MPD2    H3 6543   2.551   0.485  15.206 -1.5959 -2.3518  0.4117
  435MPD2     N 6544   2.707   0.505  15.637  0.0581  0.4052 -0.6331
  435MPD2    H5 6545   2.660   0.495  15.726  0.0596  2.4088 -0.3928
  435MPD2    N1 6546   2.271   0.665  15.527 -0.4984  0.6034  0.1229
  435MPD2    H7 6547   2.271   0.695  15.624 -0.7716  1.8616 -0.2694
  436TMC3    C1 6548   2.000   0.908  15.688  0.0521  0.2505  0.2427
  436TMC3    C2 6549   2.099   0.845  15.614 -0.4852  1.1617  0.2494
  436TMC3    C3 6550   2.060   0.750  15.521  0.2667 -0.3601 -0.1972
  436TMC3    C4 6551   1.868   0.885  15.675  0.6245 -0.0808  0.1591
  436TMC3    C5 6552   1.833   0.792  15.577  0.1293 -0.4309  0.4091
  436TMC3    C6 6553   1.926   0.712  15.507 -0.6882 -0.7114  0.2610
  436TMC3     C 6554   2.043   1.023  15.758 -0.0494  0.4188 -0.5381
  436TMC3     O 6555   2.150   1.067  15.727  0.1396  0.4944  0.6412
  436TMC3     H 6556   2.198   0.867  15.653 -0.0823  0.2528 -0.2529
  436TMC3    H1 6557   1.795   0.948  15.724 -0.7044 -1.7618  0.3513
  436TMC3    H2 6558   1.901   0.625  15.447  4.3151 -1.4010 -0.7946
  436TMC3    C7 6559   1.701   0.737  15.579 -0.4834  0.3406 -0.5245
  436TMC3    C8 6560   2.158   0.678  15.449 -0.1134  0.0153  0.8618
  436TMC3    O1 6561   1.684   0.617  15.552 -0.0586 -0.2744 -0.0380
  436TMC3    O2 6562   2.131   0.655  15.333  0.3385 -0.5948  0.9982
  437TMC3    C1 6563   0.836   2.466  12.538 -0.1532 -0.1724 -0.0240
  437TMC3    C2 6564   0.810   2.575  12.462 -0.7713 -0.0198  0.3337
  437TMC3    C3 6565   0.883   2.601  12.349  0.5236  0.5747  0.0298
  437TMC3    C4 6566   0.940   2.383  12.506 -0.4483  0.1073  0.2144
  437TMC3    C5 6567   1.018   2.416  12.396 -0.5977 -0.5204  0.7817
  437TMC3    C6 6568   0.997   2.528  12.321  0.6265 -0.8070  0.8707
  437TMC3     C 6569   0.742   2.419  12.641 -0.1559  0.4159 -0.0919
  437TMC3     O 6570   0.780   2.317  12.700  0.0009  0.1572 -0.2850
  437TMC3     H 6571   0.738   2.648  12.498  0.8439  1.5668  0.3474
  437TMC3    H1 6572   0.953   2.282  12.542 -3.2250  0.6766  2.7882
  437TMC3    H2 6573   1.059   2.530  12.232  0.2865  2.3901  0.7094
  437TMC3    C7 6574   1.151   2.366  12.390 -0.0564 -0.4646 -0.1883
  437TMC3    C8 6575   0.849   2.723  12.281 -0.0928 -0.1913  0.1330
  437TMC3    O1 6576   1.191   2.345  12.275  0.3397 -0.4553  0.4444
  437TMC3    O2 6577   0.759   2.794  12.321 -0.2113  0.2896 -0.3869
  438MPD2     C 6578   3.292   3.364  16.606  0.0199 -0.0404  0.2090
  438MPD2    C1 6579   3.370   3.254  16.647 -0.0552  0.0382  0.6357
  438MPD2    C2 6580   3.340   3.195  16.765 -0.6573  0.1155  0.3744
  438MPD2    C3 6581   3.248   3.238  16.858  0.1908  0.5457 -0.3460
  438MPD2    C4 6582   3.179   3.354  16.815 -0.1335  0.4947 -0.1385
  438MPD2    C5 6583   3.197   3.412  16.690 -0.0088  0.3455  0.0311
  438MPD2     H 6584   3.404   3.114  16.798  2.7564  2.1536 -1.1873
  438MPD2    H1 6585   3.110   3.401  16.885 -0.4285  1.0352 -0.8001
  438MPD2    H2 6586   3.320   3.419  16.517 -2.0756  1.8106  0.7057
  438MPD2    H3 6587   3.147   3.506  16.672 -0.4542  0.4421  1.7764
  438MPD2     N 6588   3.215   3.169  16.978 -0.6874  0.2973 -0.1859
  438MPD2    H5 6589   3.161   3.218  17.048 -1.0299 -0.7380  0.2743
  438MPD2    N1 6590   3.479   3.201  16.574 -0.2653 -1.0018 -0.2657
  438MPD2    H7 6591   3.540   3.138  16.625 -1.0427 -2.9016 -1.6870
  439TMC3    C1 6592   3.663   3.217  16.423  0.0494  0.1931 -0.1001
  439TMC3    C2 6593   3.708   3.212  16.293 -0.6207  0.2419  0.4607
  439TMC3    C3 6594   3.839   3.166  16.273  0.6305  0.8738  0.2663
  439TMC3    C4 6595   3.740   3.166  16.526 -0.7312  0.3723  0.2950
  439TMC3    C5 6596   3.870   3.132  16.498  0.3555  0.4595 -0.0512
  439TMC3    C6 6597   3.918   3.122  16.374 -0.8519  0.8716 -0.0785
  439TMC3     C 6598   3.523   3.250  16.454  0.3334 -0.8173  0.4288
  439TMC3     O 6599   3.462   3.316  16.366  0.0073 -0.1320 -0.6112
  439TMC3     H 6600   3.640   3.231  16.211 -1.8855 -2.7671  0.8354
  439TMC3    H1 6601   3.705   3.177  16.628 -0.6338 -0.4445  0.4123
  439TMC3    H2 6602   4.018   3.082  16.356 -1.1852 -0.2362  0.5284
  439TMC3    C7 6603   3.964   3.111  16.602  0.2317  0.1323 -0.4724
  439TMC3    C8 6604   3.912   3.203  16.154  0.0069 -0.6956 -0.0259
  439TMC3    O1 6605   3.933   3.050  16.704 -0.1870 -0.7089 -0.1613
  439TMC3    O2 6606   4.005   3.130  16.130 -0.1775  0.0511  0.0290
  440MPD2     C 6607   2.181   3.759  14.661 -0.1536 -0.1235  0.7877
  440MPD2    C1 6608   2.219   3.859  14.751  0.5725 -1.1623  0.3853
  440MPD2    C2 6609   2.346   3.863  14.798 -0.5803  0.3770 -0.3224
  440MPD2    C3 6610   2.443   3.780  14.749 -0.5870 -0.0062  0.0352
  440MPD2    C4 6611   2.402   3.689  14.655 -0.7754  0.7390  0.2334
  440MPD2    C5 6612   2.273   3.677  14.615  0.2824 -0.6103 -0.4964
  440MPD2     H 6613   2.370   3.938  14.872  1.6776 -0.6604 -0.0190
  440MPD2    H1 6614   2.469   3.618  14.608 -1.2915  1.8764 -2.2092
  440MPD2    H2 6615   2.080   3.739  14.628  0.5373 -2.9005  0.3710
  440MPD2    H3 6616   2.247   3.597  14.547 -0.4106 -0.4649 -0.3974
  440MPD2     N 6617   2.575   3.775  14.799 -0.2285 -0.2564  0.0158
  440MPD2    H5 6618   2.623   3.688  14.777 -1.6594 -1.0986  0.2264
  440MPD2    N1 6619   2.126   3.947  14.814 -0.5908  0.1333  0.8076
  440MPD2    H7 6620   2.164   4.003  14.890 -2.2178  0.8878  1.0759
  441TMC3    C1 6621   2.731   3.822  14.973 -0.2054  0.0003 -0.6606
  441TMC3    C2 6622   2.796   3.914  15.049 -0.0173 -0.2670 -0.0775
  441TMC3    C3 6623   2.831   3.884  15.179 -0.2575 -0.2519  0.0516
  441TMC3    C4 6624   2.697   3.701  15.028  0.1857 -0.1060  0.6435
  441TMC3    C5 6625   2.738   3.674  15.162  0.1107 -0.2029 -0.3841
  441TMC3    C6 6626   2.811   3.765  15.232 -0.6351 -0.8362  0.5685
  441TMC3     C 6627   2.633   3.870  14.878  0.1550 -0.4926  0.8010
  441TMC3     O 6628   2.609   3.987  14.889  0.0056 -0.0248 -0.0944
  441TMC3     H 6629   2.823   4.008  15.004 -0.2749 -0.3835 -0.4696
  441TMC3    H1 6630   2.616   3.643  14.987  0.7878 -0.3372 -0.2151
  441TMC3    H2 6631   2.846   3.753  15.334 -0.0898  1.5700  0.6588
  441TMC3    C7 6632   2.671   3.565  15.231 -0.1534 -0.3884  0.4259
  441TMC3    C8 6633   2.812   3.990  15.276 -0.2765 -0.2877  0.0543
  441TMC3    O1 6634   2.580   3.505  15.181  0.1136 -0.0886  0.0258
  441TMC3    O2 6635   2.867   3.982  15.382 -0.3096 -0.5785 -0.1446
  442MPD2     C 6636   0.691   4.083  16.415 -0.1075  0.8738 -0.5323
  442MPD2    C1 6637   0.571   4.037  16.453  0.3612 -0.2850 -0.1939
  442MPD2    C2 6638   0.512   3.931  16.386 -0.8981  0.9353 -0.6077
  442MPD2    C3 6639   0.572   3.862  16.281 -0.0061 -0.3078 -0.8602
  442MPD2    C4 6640   0.698   3.910  16.244  0.5307 -0.3638 -1.3595
  442MPD2    C5 6641   0.754   4.009  16.313  0.2083  0.3233  0.1095
  442MPD2     H 6642   0.409   3.905  16.406 -0.8075 -0.6168 -2.1918
  442MPD2    H1 6643   0.763   3.871  16.167  1.6539  1.4479 -1.3133
  442MPD2    H2 6644   0.738   4.171  16.458 -2.0070  0.8406  1.5889
  442MPD2    H3 6645   0.852   4.041  16.279 -0.4462  1.4058 -0.7487
  442MPD2     N 6646   0.515   3.769  16.193  0.5455  0.4861 -0.2492
  442MPD2    H5 6647   0.566   3.754  16.107 -1.5713 -0.2279 -1.3903
  442MPD2    N1 6648   0.494   4.090  16.569  0.4234 -0.0550  0.2653
  442MPD2    H7 6649   0.413   4.033  16.590 -0.5901  1.5826  0.7695
  443TMC3    C1 6650   0.409   4.246  16.728 -0.2752  0.2295 -0.2622
  443TMC3    C2 6651   0.354   4.371  16.713 -0.1682 -0.2560 -0.9086
  443TMC3    C3 6652   0.225   4.387  16.755 -0.5439 -0.2146  0.1447
  443TMC3    C4 6653   0.352   4.147  16.793 -0.2900 -0.3161  0.5857
  443TMC3    C5 6654   0.232   4.177  16.853  0.3451 -0.6684  0.5095
  443TMC3    C6 6655   0.157   4.290  16.828  1.3122 -0.3284 -0.1476
  443TMC3     C 6656   0.513   4.209  16.633 -0.1573 -0.5075 -0.5371
  443TMC3     O 6657   0.595   4.291  16.597  0.1377 -0.2821  0.1370
  443TMC3     H 6658   0.411   4.445  16.657  0.2653  1.4459  1.7633
  443TMC3    H1 6659   0.398   4.049  16.796 -1.8538 -1.0851 -0.1258
  443TMC3    H2 6660   0.053   4.291  16.857  1.1779  0.7157 -0.6715
  443TMC3    C7 6661   0.154   4.072  16.906  0.3778  0.0314 -0.3208
  443TMC3    C8 6662   0.130   4.459  16.669 -0.5401 -0.0153  0.3253
  443TMC3    O1 6663   0.163   3.960  16.856 -0.6961  0.3970 -0.4270
  443TMC3    O2 6664   0.010   4.433  16.669 -0.4410 -0.7412  0.1693
  444MPD2     C 6665   0.530   3.902  16.964  0.4648  0.2296 -0.6113
  444MPD2    C1 6666   0.447   3.790  16.950 -0.4080 -0.3586 -0.4034
  444MPD2    C2 6667   0.468   3.705  16.836  0.6819 -0.1825  0.3019
  444MPD2    C3 6668   0.569   3.729  16.745 -0.0665  0.2278  0.2320
  444MPD2    C4 6669   0.648   3.843  16.761  0.2090  0.8890  0.2501
  444MPD2    C5 6670   0.624   3.926  16.872 -0.5684  0.3645  0.4007
  444MPD2     H 6671   0.402   3.619  16.832  3.5011 -2.2888 -0.8101
  444MPD2    H1 6672   0.731   3.876  16.700  1.4406 -0.4869  1.1930
  444MPD2    H2 6673   0.525   3.969  17.048  1.4583 -0.0089 -0.3649
  444MPD2    H3 6674   0.684   4.016  16.878  0.2104 -0.3268  2.9622
  444MPD2     N 6675   0.603   3.630  16.653  0.2478 -0.3763  0.0203
  444MPD2    H5 6676   0.536   3.555  16.640 -1.4084  1.0390  0.4208
  444MPD2    N1 6677   0.341   3.762  17.045 -0.8210 -0.5401 -0.0336
  444MPD2    H7 6678   0.275   3.689  17.021 -0.6744 -0.1569 -1.5921
  445TMC3    C1 6679   0.742   3.519  16.488  0.1738 -0.3852  0.5600
  445TMC3    C2 6680   0.639   3.454  16.440  0.0370 -0.8727  0.2368
  445TMC3    C3 6681   0.659   3.338  16.378  0.5652  0.1778 -0.1917
  445TMC3    C4 6682   0.870   3.477  16.471 -0.2017  0.2046 -0.5439
  445TMC3    C5 6683   0.887   3.368  16.401 -0.2696 -0.0497  0.8823
  445TMC3    C6 6684   0.784   3.288  16.363 -0.5261 -0.1353 -0.0598
  445TMC3     C 6685   0.722   3.627  16.579  0.6560  0.5057  0.0404
  445TMC3     O 6686   0.829   3.682  16.607 -0.7752  0.0561 -0.0453
  445TMC3     H 6687   0.539   3.494  16.444  0.3907 -0.2779  3.2079
  445TMC3    H1 6688   0.955   3.531  16.512 -0.9368  1.2863 -0.4338
  445TMC3    H2 6689   0.796   3.201  16.300 -2.9390 -0.3505 -0.2309
  445TMC3    C7 6690   1.018   3.312  16.393  0.6339 -0.1343 -0.0279
  445TMC3    C8 6691   0.549   3.273  16.316 -0.2281 -0.6083  0.6334
  445TMC3    O1 6692   1.110   3.393  16.358  0.0750  0.3783 -0.6017
  445TMC3    O2 6693   0.453   3.348  16.287 -0.3795 -0.3817 -0.3168
  446MPD2     C 6694   4.422   4.203  11.621  0.6112  0.2342 -0.5862
  446MPD2    C1 6695   4.373   4.273  11.515 -0.7895 -0.2184 -0.5568
  446MPD2    C2 6696   4.451   4.373  11.463 -0.0669 -0.3940  0.2069
  446MPD2    C3 6697   4.571   4.404  11.517  0.0733 -0.3923 -0.0421
  446MPD2    C4 6698   4.608   4.342  11.637  0.2059 -1.2794 -0.3689
  446MPD2    C5 6699   4.534   4.238  11.681  0.9341  0.7169  0.4284
  446MPD2     H 6700   4.419   4.410  11.366  0.0792 -0.8952 -0.0381
  446MPD2    H1 6701   4.704   4.361  11.683 -0.1591 -3.2031  1.1346
  446MPD2    H2 6702   4.376   4.109  11.651  0.2546 -0.0171 -1.9318
  446MPD2    H3 6703   4.555   4.184  11.773  0.0042  1.8115  1.2786
  446MPD2     N 6704   4.661   4.481  11.434  0.4829  0.4911  0.0849
  446MPD2    H5 6705   4.634   4.515  11.342 -0.5942 -0.1874  0.1442
  446MPD2    N1 6706   4.255   4.246  11.445  0.1797  0.1082  0.0760
  446MPD2    H7 6707   4.238   4.308  11.367 -1.9975 -1.4943 -0.6991
  447TMC3    C1 6708   0.139   4.564  11.357 -0.5902 -0.9922  0.2239
  447TMC3    C2 6709   0.083   4.610  11.242  0.5563 -0.1601 -0.5788
  447TMC3    C3 6710   0.140   4.578  11.123  0.7872  0.5032 -0.7301
  447TMC3    C4 6711   0.262   4.504  11.351 -0.1228  1.2845  0.4258
  447TMC3    C5 6712   0.309   4.472  11.228  0.0084  0.9074  0.5117
  447TMC3    C6 6713   0.247   4.490  11.108 -0.1396 -0.3452  0.4581
  447TMC3     C 6714   0.055   4.510  11.466 -0.3153  0.3527  0.0739
  447TMC3     O 6715   0.109   4.496  11.576 -0.9035  0.1787  0.1698
  447TMC3     H 6716   4.734   4.674  11.237  1.0298  0.6084  1.0004
  447TMC3    H1 6717   0.320   4.478  11.438  3.2195  0.1774 -2.1158
  447TMC3    H2 6718   0.295   4.473  11.012 -0.3361  0.3856  0.2271
  447TMC3    C7 6719   0.423   4.382  11.230  0.4741  0.5624  0.6531
  447TMC3    C8 6720   0.069   4.606  11.003  0.3028 -0.3355  0.3233
  447TMC3    O1 6721   0.505   4.396  11.325  0.2076  0.7491 -0.0612
  447TMC3    O2 6722   0.073   4.520  10.920 -0.4063 -0.0424 -0.0974
  448TMC3    C1 6723   2.965   0.089  17.649  0.5723  0.8844 -0.5412
  448TMC3    C2 6724   2.950   4.692  17.602 -0.4989 -0.1800 -0.4018
  448TMC3    C3 6725   3.058   4.610  17.618  0.2994 -0.2183  0.0415
  448TMC3    C4 6726   3.086   0.136  17.693  0.2060 -0.1289  0.3997
  448TMC3    C5 6727   3.192   0.052  17.698  0.3867  0.1696 -0.2352
  448TMC3    C6 6728   3.183   4.655  17.659 -0.4445 -0.1358  0.9246
  448TMC3     C 6729   2.852   0.121  17.730 -0.4069 -0.1033 -0.3784
  448TMC3     O 6730   2.782   0.026   0.006 -0.7826  0.3664  0.2685
  448TMC3     H 6731   2.853   4.673  17.558 -0.3986 -2.0528  0.1838
  448TMC3    H1 6732   3.113   0.240  17.711  1.2406 -0.4376  0.6107
  448TMC3    H2 6733   3.270   4.590  17.657  0.8519  1.6119  0.2530
  448TMC3    C7 6734   3.307   0.092   0.015  0.1512  0.6019  0.2276
  448TMC3    C8 6735   3.068   4.495  17.534 -0.2898 -0.3961 -0.1832
  448TMC3    O1 6736   3.338   0.211   0.017 -0.4307  0.2037  0.1779
  448TMC3    O2 6737   3.168   4.420  17.542 -0.2093 -0.5852 -0.9341
  449MPD2     C 6738   4.541   2.540  13.688  1.1487  0.1650 -0.5131
  449MPD2    C1 6739   4.413   2.584  13.654  0.0958 -0.4622 -0.0840
  449MPD2    C2 6740   4.322   2.620  13.752 -0.5308  0.1801  0.6923
  449MPD2    C3 6741   4.350   2.616  13.884  0.2407 -0.3809 -0.8768
  449MPD2    C4 6742   4.479   2.578  13.921  0.9279 -0.0699  0.3849
  449MPD2    C5 6743   4.573   2.543  13.826 -1.0422 -0.2378 -0.0096
  449MPD2     H 6744   4.226   2.650  13.713 -1.1208 -0.5073  1.6280
  449MPD2    H1 6745   4.511   2.566  14.023 -1.2888 -1.5540  0.9049
  449MPD2    H2 6746   4.615   2.500  13.619  1.8236 -2.2567  1.5593
  449MPD2    H3 6747   4.674   2.517  13.855 -1.0726  0.5272  0.7816
  449MPD2     N 6748   4.250   2.645  13.976 -0.2942  0.4810 -0.5565
  449MPD2    H5 6749   4.158   2.673  13.942 -0.3631 -0.2945 -1.0272
  449MPD2    N1 6750   4.367   2.597  13.522  0.4768 -0.0952 -0.2858
  449MPD2    H7 6751   4.273   2.631  13.507  0.3800  0.3595  1.3724
  450TMC3    C1 6752   4.380   2.639  13.300  0.4215  1.4086 -0.0998
  450TMC3    C2 6753   4.471   2.734  13.268  0.1576 -0.5495 -0.1651
  450TMC3    C3 6754   4.434   2.867  13.275  0.3268 -0.4230 -0.2889
  450TMC3    C4 6755   4.249   2.662  13.302  0.3976  0.0422  0.3217
  450TMC3    C5 6756   4.211   2.795  13.314 -0.2918 -0.0126 -0.4442
  450TMC3    C6 6757   4.302   2.896  13.304  0.2201 -0.0696 -0.2398
  450TMC3     C 6758   4.442   2.567  13.412 -0.0094 -0.1602 -0.0624
  450TMC3     O 6759   4.559   2.543  13.400 -0.8145 -0.1375 -0.2309
  450TMC3     H 6760   4.576   2.713  13.250  1.2550  4.1976  0.7878
  450TMC3    H1 6761   4.186   2.575  13.316 -0.4684  0.1895 -2.5789
  450TMC3    H2 6762   4.274   3.000  13.316 -0.1578 -0.3400  1.2486
  450TMC3    C7 6763   4.116   2.812  13.418 -0.4686 -0.4490  0.1838
  450TMC3    C8 6764   4.528   2.977  13.283  0.0704 -0.1067 -0.4357
  450TMC3    O1 6765   4.104   2.714  13.494  0.0338 -0.2883  0.2373
  450TMC3    O2 6766   4.475   3.086  13.265 -0.4168  0.8566  0.1707
  451MPD2     C 6767   0.857   1.285   1.116 -0.3315  0.4111  0.1568
  451MPD2    C1 6768   0.917   1.357   1.015  0.1139  0.4679 -0.6303
  451MPD2    C2 6769   1.049   1.372   1.025 -0.1161  0.2750 -0.4583
  451MPD2    C3 6770   1.129   1.311   1.122  0.6629 -0.2647  0.0538
  451MPD2    C4 6771   1.067   1.235   1.217  0.2487 -0.6871 -0.2277
  451MPD2    C5 6772   0.933   1.232   1.219 -0.0294 -0.0175 -0.5618
  451MPD2     H 6773   1.098   1.429   0.947  1.1967 -1.5416 -0.9474
  451MPD2    H1 6774   1.125   1.179   1.290 -1.1055 -0.1525  1.2651
  451MPD2    H2 6775   0.752   1.261   1.122 -0.1813  0.1567  1.7633
  451MPD2    H3 6776   0.885   1.169   1.293  0.8436  0.1430  0.1458
  451MPD2     N 6777   1.271   1.320   1.121  0.5628 -0.1928 -0.0917
  451MPD2    H5 6778   1.321   1.273   1.196  0.7307  0.0648 -0.0440
  451MPD2    N1 6779   0.836   1.432   0.924  0.6062 -0.2772  0.3108
  451MPD2    H7 6780   0.735   1.425   0.922  0.5823  0.2942 -0.6151
  452TMC3    C1 6781   1.493   1.406   1.049  0.2650  0.3173  0.1780
  452TMC3    C2 6782   1.560   1.313   1.131  0.1703 -0.7113  1.1408
  452TMC3    C3 6783   1.669   1.251   1.071 -0.6168 -0.2774 -0.1130
  452TMC3    C4 6784   1.550   1.463   0.938 -0.4098  0.1191  0.0910
  452TMC3    C5 6785   1.675   1.417   0.904  0.1132  0.1097  0.2336
  452TMC3    C6 6786   1.741   1.305   0.965 -0.3026  0.4960  0.0654
  452TMC3     C 6787   1.347   1.394   1.031 -0.8048 -0.2554 -0.4100
  452TMC3     O 6788   1.303   1.465   0.944  0.0845  0.1458 -0.3614
  452TMC3     H 6789   1.514   1.272   1.220  0.6170 -2.9871  0.3422
  452TMC3    H1 6790   1.502   1.543   0.884  0.3963 -0.4658 -1.4865
  452TMC3    H2 6791   1.816   1.244   0.918  1.4112  2.4149  0.3336
  452TMC3    C7 6792   1.698   1.420   0.758  0.2488 -0.4119 -0.1946
  452TMC3    C8 6793   1.725   1.130   1.130  0.8726 -0.0627  0.9089
  452TMC3    O1 6794   1.811   1.415   0.722  0.8063  0.5026  0.0799
  452TMC3    O2 6795   1.843   1.133   1.156 -0.5408 -0.0876  0.4549
  453TMC3    C1 6796   2.278   3.719  12.059  0.5661  0.7614 -0.4722
  453TMC3    C2 6797   2.183   3.670  12.144  0.3675  0.4856 -0.1913
  453TMC3    C3 6798   2.056   3.714  12.121  0.2919  0.0970  0.1522
  453TMC3    C4 6799   2.244   3.803  11.955  0.8929 -0.6660  0.6695
  453TMC3    C5 6800   2.114   3.842  11.937 -0.0455 -0.2332 -0.2163
  453TMC3    C6 6801   2.020   3.813  12.026  0.1659  0.2895  0.2832
  453TMC3     C 6802   2.420   3.730  12.096  0.6222  0.1883 -1.0218
  453TMC3     O 6803   2.465   3.842  12.077  0.4163 -0.0001  0.0081
  453TMC3     H 6804   2.208   3.611  12.232 -0.2013  1.3022  0.5142
  453TMC3    H1 6805   2.321   3.848  11.894  0.3913  0.6837  1.0417
  453TMC3    H2 6806   1.915   3.833  12.008 -0.0244 -0.4062  0.6221
  453TMC3    C7 6807   2.095   3.933  11.824 -0.4533 -0.1294 -1.0858
  453TMC3    C8 6808   1.946   3.655  12.194  0.0198  0.0610  0.4322
  453TMC3    O1 6809   2.171   3.923  11.732  0.4561  0.0428  0.1465
  453TMC3    O2 6810   1.842   3.715  12.198  0.2191 -0.0444 -0.0918
  454MPD2     C 6811   1.488   3.321  15.799 -0.5855  0.1939  0.3752
  454MPD2    C1 6812   1.350   3.302  15.779 -0.2902  0.7344 -0.7452
  454MPD2    C2 6813   1.268   3.416  15.792  0.1403 -0.2659  0.4052
  454MPD2    C3 6814   1.322   3.539  15.823 -0.0521 -0.0394 -0.1966
  454MPD2    C4 6815   1.455   3.555  15.842 -0.4629  0.2002 -0.3270
  454MPD2    C5 6816   1.535   3.442  15.831  0.4408  0.3945 -0.8392
  454MPD2     H 6817   1.161   3.400  15.777 -0.0773  1.8046 -0.3539
  454MPD2    H1 6818   1.506   3.648  15.864  0.9580 -1.2076  2.2570
  454MPD2    H2 6819   1.548   3.230  15.795  3.1469  2.6341  0.8758
  454MPD2    H3 6820   1.638   3.457  15.860 -0.3318  0.7061  1.7132
  454MPD2     N 6821   1.223   3.635  15.850  0.0158  0.0987  0.7851
  454MPD2    H5 6822   1.129   3.597  15.861  1.1814 -2.6591  1.2311
  454MPD2    N1 6823   1.294   3.176  15.742  0.0732 -0.0379 -0.0036
  454MPD2    H7 6824   1.204   3.185  15.697  0.9357  3.0980 -1.1095
  455TMC3    C1 6825   1.109   3.800  15.965  0.1585 -0.0090 -0.1349
  455TMC3    C2 6826   1.139   3.848  16.093  0.2248 -0.1295 -0.2694
  455TMC3    C3 6827   1.072   3.804  16.205 -0.0990 -0.2586  0.1576
  455TMC3    C4 6828   1.018   3.699  15.961  0.7943  0.7885  0.2802
  455TMC3    C5 6829   0.961   3.657  16.080  0.0628  0.1262 -0.1623
  455TMC3    C6 6830   0.986   3.703  16.209 -0.1965 -0.5149 -0.4939
  455TMC3     C 6831   1.240   3.762  15.894 -0.6875  0.3771 -0.3413
  455TMC3     O 6832   1.340   3.823  15.910 -0.1549  0.5330 -0.1246
  455TMC3     H 6833   1.229   3.905  16.111 -0.7348  0.7325  1.8234
  455TMC3    H1 6834   0.974   3.658  15.871  1.3597 -1.7178  1.1544
  455TMC3    H2 6835   0.942   3.669  16.302  0.8901 -0.6593 -0.0346
  455TMC3    C7 6836   0.901   3.524  16.083  0.0300 -0.2640 -0.2499
  455TMC3    C8 6837   1.084   3.869  16.329  0.8118  0.0191  0.7763
  455TMC3    O1 6838   0.781   3.517  16.120  0.6000 -0.2364  0.3323
  455TMC3    O2 6839   1.061   3.815  16.434  0.2338 -0.2017 -0.3857
  456MPD2     C 6840   3.377   3.705  16.376 -0.5348 -0.8291 -0.3218
  456MPD2    C1 6841   3.495   3.693  16.439  0.1944  0.1153 -0.4901
  456MPD2    C2 6842   3.490   3.684  16.576  0.1253  0.0664 -0.3522
  456MPD2    C3 6843   3.376   3.714  16.651 -0.1863  0.4380  0.2440
  456MPD2    C4 6844   3.259   3.741  16.582 -0.4444  0.0585 -0.2250
  456MPD2    C5 6845   3.262   3.727  16.446 -0.4811  0.0674  0.0169
  456MPD2     H 6846   3.585   3.663  16.623  1.3126  2.4178 -1.7027
  456MPD2    H1 6847   3.169   3.774  16.634 -0.4744  1.8774 -1.4288
  456MPD2    H2 6848   3.388   3.718  16.269  0.0357 -2.2189 -0.4353
  456MPD2    H3 6849   3.174   3.735  16.384  0.0877  0.9469 -0.6911
  456MPD2     N 6850   3.396   3.740  16.787 -0.5047  0.3095 -0.0467
  456MPD2    H5 6851   3.490   3.744  16.824  0.0555  0.1137 -1.4375
  456MPD2    N1 6852   3.616   3.689  16.367  0.1894  0.3559 -0.0781
  456MPD2    H7 6853   3.607   3.711  16.268 -0.2433 -0.4760 -0.2174
  457TMC3    C1 6854   3.336   3.817  17.012  0.2553 -0.4588  0.5358
  457TMC3    C2 6855   3.245   3.899  17.084  0.3919  0.8688 -0.1641
  457TMC3    C3 6856   3.300   3.970  17.186 -0.7534  0.1487  0.0027
  457TMC3    C4 6857   3.478   3.822  17.033 -0.2415  0.1528 -0.3659
  457TMC3    C5 6858   3.515   3.893  17.137 -0.0455  0.2705 -0.2970
  457TMC3    C6 6859   3.431   3.966  17.221  0.2209  0.2113  0.0957
  457TMC3     C 6860   3.290   3.771  16.879  0.1693 -0.5958  0.4150
  457TMC3     O 6861   3.168   3.770  16.870  0.4771  0.1888  0.0552
  457TMC3     H 6862   3.137   3.891  17.072 -0.1394  1.6479  3.9183
  457TMC3    H1 6863   3.541   3.743  16.994 -0.0778  0.6828 -1.1771
  457TMC3    H2 6864   3.482   4.031  17.291 -1.4544 -0.3660  1.8512
  457TMC3    C7 6865   3.652   3.875  17.188 -0.8161 -1.0658  0.2581
  457TMC3    C8 6866   3.219   4.062  17.269  0.7615  0.4063 -0.0636
  457TMC3    O1 6867   3.678   3.920  17.301  0.1785  0.2033 -0.2409
  457TMC3    O2 6868   3.281   4.123  17.356  0.6350 -1.1066 -0.2691
  458MPD2     C 6869   1.632   2.396  12.556  0.6841  0.2066  0.2030
  458MPD2    C1 6870   1.556   2.351  12.661 -0.4573  0.4282  0.1523
  458MPD2    C2 6871   1.422   2.324  12.641 -0.4187  0.5827 -0.2655
  458MPD2    C3 6872   1.363   2.342  12.516 -0.2897 -0.1519 -0.2478
  458MPD2    C4 6873   1.437   2.388  12.412 -0.1359 -0.5356 -0.3470
  458MPD2    C5 6874   1.569   2.411  12.434 -1.1033  0.1565 -0.3341
  458MPD2     H 6875   1.363   2.292  12.726  0.1711 -1.3594 -0.5866
  458MPD2    H1 6876   1.395   2.406  12.313 -2.5431  3.2927  1.3712
  458MPD2    H2 6877   1.739   2.410  12.562  0.7298 -0.1927  0.3649
  458MPD2    H3 6878   1.624   2.449  12.349 -1.0762  0.7451 -0.0543
  458MPD2     N 6879   1.224   2.363  12.507 -0.4878 -0.2194  0.1668
  458MPD2    H5 6880   1.171   2.359  12.594 -0.7074 -0.5090  0.0184
  458MPD2    N1 6881   1.625   2.352  12.782 -0.0686  0.2116  0.1785
  458MPD2    H7 6882   1.721   2.386  12.778  0.1460 -0.2610  1.3113
  459TMC3    C1 6883   1.659   2.345  13.006  0.5632  0.2128  0.2367
  459TMC3    C2 6884   1.747   2.454  12.987  0.1308 -0.4032  0.4365
  459TMC3    C3 6885   1.797   2.513  13.099 -0.1170 -0.0382 -0.4220
  459TMC3    C4 6886   1.617   2.309  13.135  0.0514 -0.1399 -0.2283
  459TMC3    C5 6887   1.654   2.386  13.239  0.6341 -1.2638  0.2932
  459TMC3    C6 6888   1.742   2.491  13.223 -0.1479 -1.2240 -0.0596
  459TMC3     C 6889   1.569   2.306  12.898 -0.3950 -0.2474 -0.0596
  459TMC3     O 6890   1.460   2.256  12.929  0.4792 -0.6930 -0.0317
  459TMC3     H 6891   1.792   2.480  12.891 -0.4954 -3.0148 -0.5719
  459TMC3    H1 6892   1.566   2.214  13.131  1.1971 -0.6657 -2.5085
  459TMC3    H2 6893   1.777   2.542  13.313  0.6944  0.4150 -1.3159
  459TMC3    C7 6894   1.658   2.324  13.367  1.1034  0.8518  0.4523
  459TMC3    C8 6895   1.890   2.614  13.079  0.8769 -0.3933  0.3556
  459TMC3    O1 6896   1.666   2.202  13.368 -0.0111 -0.1733  0.0614
  459TMC3    O2 6897   1.956   2.617  12.975 -0.8937 -0.2181  0.3753
  460MPD2     C 6898   4.645   0.174  10.890 -0.3055 -0.2857 -0.0744
  460MPD2    C1 6899   4.668   0.035  10.894  0.2331 -0.4463  0.4113
  460MPD2    C2 6900   4.610   4.688  10.800 -0.6711  0.1595  0.3564
  460MPD2    C3 6901   4.536   0.001  10.689  0.1197 -0.7335 -0.2115
  460MPD2    C4 6902   4.515   0.136  10.690 -0.2728 -0.5650  0.2842
  460MPD2    C5 6903   4.569   0.219  10.788  0.3217 -0.1864  0.3950
  460MPD2     H 6904   4.611   4.580  10.810 -0.4275  0.3148  1.9528
  460MPD2    H1 6905   4.460   0.186  10.611 -2.2906 -1.7370  0.9694
  460MPD2    H2 6906   4.677   0.239  10.971  0.0378 -0.7489  0.1620
  460MPD2    H3 6907   4.559   0.327  10.790 -1.6544 -0.3097 -2.3382
  460MPD2     N 6908   4.497   4.647  10.580  0.5629 -0.0745  0.2727
  460MPD2    H5 6909   4.504   4.548  10.603 -1.9935 -0.3705 -0.2560
  460MPD2    N1 6910   0.001   4.728  11.006 -0.0374  0.1382  0.2263
  460MPD2    H7 6911   0.039   0.051  11.076 -0.2326  1.5375 -0.9130
  461TMC3    C1 6912   4.368   4.560  10.393 -0.1851 -0.0383  0.6536
  461TMC3    C2 6913   4.444   4.445  10.395  0.1195 -0.1254 -0.7067
  461TMC3    C3 6914   4.412   4.352  10.305 -0.1946 -1.2527 -0.3225
  461TMC3    C4 6915   4.267   4.582  10.305 -0.4953 -0.4472 -0.1435
  461TMC3    C5 6916   4.239   4.475  10.217 -0.3298  0.0283 -0.8310
  461TMC3    C6 6917   4.312   4.361  10.213 -0.6152  0.1229  0.4990
  461TMC3     C 6918   4.412   4.675  10.472 -0.0594 -0.0293 -0.6299
  461TMC3     O 6919   4.346   0.041  10.454  0.2439 -0.0911  0.5628
  461TMC3     H 6920   4.536   4.432  10.451 -0.0135 -0.1684 -0.5032
  461TMC3    H1 6921   4.192   4.658  10.322 -1.1467 -1.2858  0.6853
  461TMC3    H2 6922   4.256   4.289  10.155  0.2874  1.2376 -1.7465
  461TMC3    C7 6923   4.136   4.491  10.120 -0.4947 -0.2448  0.3157
  461TMC3    C8 6924   4.515   4.262  10.273 -0.3593  0.4750 -0.0820
  461TMC3    O1 6925   4.067   4.398  10.088 -0.2978  0.4352  0.2131
  461TMC3    O2 6926   4.628   4.280  10.312 -0.1459 -0.5319 -0.0071
  462TMC3    C1 6927   0.839   1.954  17.689 -0.1716 -0.3508 -0.5661
  462TMC3    C2 6928   0.978   1.945  17.661  0.8787  0.3973 -0.2697
  462TMC3    C3 6929   1.038   1.832  17.706  0.0031  0.2810  0.4422
  462TMC3    C4 6930   0.767   1.862   0.006  0.2874  0.3056 -0.6366
  462TMC3    C5 6931   0.830   1.744   0.040  0.0499  0.1740  0.3885
  462TMC3    C6 6932   0.967   1.729   0.015 -0.5289  0.2288  0.8189
  462TMC3     C 6933   0.778   2.088  17.650 -0.0960  0.0071  1.8293
  462TMC3     O 6934   0.853   2.172  17.601  0.2938  0.2254 -0.4417
  462TMC3     H 6935   1.024   2.012  17.591 -2.5368  0.8135 -2.1206
  462TMC3    H1 6936   0.660   1.871   0.020  0.1379 -0.4396 -1.2781
  462TMC3    H2 6937   1.022   1.650   0.065  0.3824  1.0302  1.1028
  462TMC3    C7 6938   0.764   1.629   0.104  0.2515 -0.3489  0.2500
  462TMC3    C8 6939   1.184   1.828  17.685 -0.7665  0.4787  0.4097
  462TMC3    O1 6940   0.828   1.531   0.137 -0.0121  0.4715  0.0163
  462TMC3    O2 6941   1.245   1.931  17.661  0.2380 -0.2830  0.1078
  463MPD2     C 6942   2.753   3.533   1.582  0.2533  0.6952 -0.7825
  463MPD2    C1 6943   2.680   3.650   1.555 -0.3277  0.2221  0.5466
  463MPD2    C2 6944   2.742   3.770   1.562  0.0950  0.6471  0.1600
  463MPD2    C3 6945   2.875   3.782   1.598 -0.0832  0.3528  0.0429
  463MPD2    C4 6946   2.947   3.666   1.619  0.1727  0.2326 -0.1483
  463MPD2    C5 6947   2.884   3.542   1.612  0.7938  0.2262  0.3150
  463MPD2     H 6948   2.684   3.854   1.527  0.9397  0.6960 -1.1144
  463MPD2    H1 6949   3.051   3.677   1.645 -0.4074  2.3367  1.2877
  463MPD2    H2 6950   2.707   3.435   1.577  1.4773  0.0424  0.5739
  463MPD2    H3 6951   2.953   3.462   1.638  0.8502  0.5671  1.2193
  463MPD2     N 6952   2.947   3.910   1.583  0.2820 -0.1299 -0.0527
  463MPD2    H5 6953   3.048   3.908   1.591  0.2593  1.4688  0.5256
  463MPD2    N1 6954   2.543   3.653   1.518 -0.1372  0.3846  0.2545
  463MPD2    H7 6955   2.498   3.744   1.517 -1.0296 -0.0524  0.9432
  464TMC3    C1 6956   2.327   3.579   1.453  0.3639 -0.2265 -0.4642
  464TMC3    C2 6957   2.279   3.706   1.475  0.5705  0.2453  0.1119
  464TMC3    C3 6958   2.162   3.734   1.407 -0.2986 -0.5079  0.1029
  464TMC3    C4 6959   2.259   3.487   1.369  0.0121  0.7038 -0.5106
  464TMC3    C5 6960   2.143   3.523   1.305  0.0822 -1.4414  0.0142
  464TMC3    C6 6961   2.095   3.651   1.325  0.2559  0.4033 -0.6068
  464TMC3     C 6962   2.467   3.544   1.480  0.6014 -0.4297  0.3202
  464TMC3     O 6963   2.496   3.426   1.486  0.0027  0.1176  0.2443
  464TMC3     H 6964   2.324   3.774   1.547  2.2985 -2.1230  1.2628
  464TMC3    H1 6965   2.308   3.392   1.348  1.2418  1.3761 -0.6528
  464TMC3    H2 6966   2.003   3.680   1.275 -0.9837 -0.8764  0.9308
  464TMC3    C7 6967   2.087   3.451   1.192  0.2927  0.9371 -0.0116
  464TMC3    C8 6968   2.092   3.855   1.437 -0.3564  0.3763  0.1141
  464TMC3    O1 6969   2.149   3.353   1.150 -0.2726  0.4639  0.2349
  464TMC3    O2 6970   1.966   3.842   1.423  0.2907  0.1233  0.2670
  465MPD2     C 6971   2.880   3.566  16.675  0.5351 -0.7977 -0.1455
  465MPD2    C1 6972   2.746   3.560  16.706  0.5423 -0.2047  0.2617
  465MPD2    C2 6973   2.667   3.617  16.615 -0.0842  0.8240 -0.0573
  465MPD2    C3 6974   2.705   3.687  16.500  0.2717  0.1131  0.5781
  465MPD2    C4 6975   2.830   3.669  16.465 -0.4585  0.6944 -0.4680
  465MPD2    C5 6976   2.923   3.615  16.548 -0.1901  0.5461 -1.2514
  465MPD2     H 6977   2.562   3.613  16.639 -0.0008  0.8699  0.3073
  465MPD2    H1 6978   2.862   3.710  16.370  2.2080  1.2334  0.6868
  465MPD2    H2 6979   2.953   3.535  16.748  1.9385  0.3031 -1.0973
  465MPD2    H3 6980   3.026   3.620  16.515  0.0116 -1.9389 -1.0329
  465MPD2     N 6981   2.607   3.752  16.416  0.2154 -0.2062  0.5205
  465MPD2    H5 6982   2.510   3.747  16.446 -0.4027 -0.3570 -1.5132
  465MPD2    N1 6983   2.691   3.503  16.821 -0.2286 -0.1216  0.0260
  465MPD2    H7 6984   2.591   3.487  16.829 -0.1606  0.0938  1.2191
  466TMC3    C1 6985   2.318   3.840  16.149 -0.0982 -0.0149 -0.2300
  466TMC3    C2 6986   2.323   3.960  16.084  0.1161 -0.0104  0.1076
  466TMC3    C3 6987   2.436   4.039  16.086 -0.0203  0.4430  0.2605
  466TMC3    C4 6988   2.426   3.793  16.211 -0.5684 -0.1949 -0.6200
  466TMC3    C5 6989   2.534   3.876  16.220 -0.3770 -0.0514  0.0359
  466TMC3    C6 6990   2.546   3.996  16.155 -0.0661 -0.1347 -1.0012
  466TMC3     C 6991   2.194   3.813  16.218 -0.3786 -0.7356 -0.3778
  466TMC3     O 6992   2.205   3.713  16.289  0.2842 -0.2313  0.2751
  466TMC3     H 6993   2.234   3.990  16.029  0.5164 -0.1158 -0.5934
  466TMC3    H1 6994   2.417   3.703  16.270  0.4252  0.7740  1.0076
  466TMC3    H2 6995   2.628   4.065  16.170 -1.6334  1.1996  1.3662
  466TMC3    C7 6996   2.638   3.849  16.315 -0.6389  0.3029 -0.9701
  466TMC3    C8 6997   2.408   4.181  16.107 -0.2347 -0.5510  0.3152
  466TMC3    O1 6998   2.743   3.909  16.296 -0.1884  0.7216 -0.2274
  466TMC3    O2 6999   2.478   4.242  16.188  0.1181 -0.0465 -0.0628
  467TMC3    C1 7000   3.685   2.122  14.291 -0.6979 -0.7051  0.1536
  467TMC3    C2 7001   3.652   2.210  14.192  0.1138  0.3017  0.6213
  467TMC3    C3 7002   3.556   2.165  14.102  0.5486 -0.2514  0.1411
  467TMC3    C4 7003   3.624   1.995  14.307 -0.7131 -0.8059  0.3235
  467TMC3    C5 7004   3.537   1.951  14.208  0.4906 -0.2019  0.5181
  467TMC3    C6 7005   3.489   2.047  14.120 -1.3670  0.4202  0.0824
  467TMC3     C 7006   3.801   2.135  14.366  0.8708  0.6233 -0.3021
  467TMC3     O 7007   3.864   2.029  14.391 -0.2378  0.2212  0.0078
  467TMC3     H 7008   3.699   2.307  14.186 -0.6807  0.7069  0.9962
  467TMC3    H1 7009   3.651   1.922  14.383  0.9434 -1.8891 -1.3283
  467TMC3    H2 7010   3.414   2.022  14.045 -1.9637 -1.5228  1.3365
  467TMC3    C7 7011   3.443   1.870  14.275 -0.1386  0.5800 -0.6526
  467TMC3    C8 7012   3.561   2.229  13.970  0.5281 -0.0484  0.2392
  467TMC3    O1 7013   3.488   1.775  14.341 -0.1147  0.1400 -0.7310
  467TMC3    O2 7014   3.627   2.332  13.964 -0.0003 -0.2574  0.5170
  468MPD2     C 7015   1.782   0.111  11.060  0.2433  0.0819 -0.0561
  468MPD2    C1 7016   1.908   0.070  11.048  0.2439  0.5399  0.8723
  468MPD2    C2 7017   1.933   4.705  10.965 -0.2396  0.4714  0.1469
  468MPD2    C3 7018   1.831   4.631  10.904  0.4699  0.3130  0.9729
  468MPD2    C4 7019   1.703   4.687  10.911 -0.2299  0.1806  0.3616
  468MPD2    C5 7020   1.680   0.058  10.986 -0.3032 -0.0519 -0.7285
  468MPD2     H 7021   2.035   4.671  10.956 -1.2314 -2.6142  0.5821
  468MPD2    H1 7022   1.618   4.650  10.854  0.2805  0.7458 -0.7713
  468MPD2    H2 7023   1.757   0.187  11.133  0.7019 -1.2812  1.5227
  468MPD2    H3 7024   1.578   0.094  10.987 -0.1625  0.2660  0.9785
  468MPD2     N 7025   1.842   4.508  10.830 -0.3384 -0.4917  0.3523
  468MPD2    H5 7026   1.754   4.470  10.797 -0.6598 -0.3956  1.1091
  468MPD2    N1 7027   2.015   0.131  11.122 -0.3899  0.6176  0.5202
  468MPD2    H7 7028   2.104   0.097  11.086 -0.9086 -0.2628  0.0426
  469TMC3    C1 7029   2.119   0.282  11.283  0.5487 -0.6961  0.5783
  469TMC3    C2 7030   2.243   0.220  11.278  0.5609  0.8973  0.1294
  469TMC3    C3 7031   2.336   0.248  11.371 -0.7786  0.1750  0.0007
  469TMC3    C4 7032   2.092   0.375  11.383  0.3260 -0.3859  0.5110
  469TMC3    C5 7033   2.194   0.402  11.467 -0.1635 -0.1729 -1.0936
  469TMC3    C6 7034   2.321   0.349  11.463  0.2427  0.1716 -0.4827
  469TMC3     C 7035   2.003   0.244  11.198 -0.1238  0.3576 -0.2187
  469TMC3     O 7036   1.912   0.320  11.222  0.1602 -0.5128  0.2398
  469TMC3     H 7037   2.267   0.144  11.204 -2.7575 -0.3704  0.3225
  469TMC3    H1 7038   1.992   0.414  11.399  1.3494  2.9491 -1.2926
  469TMC3    H2 7039   2.403   0.362  11.533 -1.7294  1.4929  1.5419
  469TMC3    C7 7040   2.168   0.509  11.569  0.1679 -0.1215 -0.3813
  469TMC3    C8 7041   2.445   0.145  11.393 -0.9829  0.4035  0.0706
  469TMC3    O1 7042   2.055   0.552  11.573  0.5566 -0.4721  0.2008
  469TMC3    O2 7043   2.422   0.038  11.338 -0.4815 -0.3827 -0.0351
  470TMC3    C1 7044   4.331   1.401   0.244  0.3461  0.3357 -0.3047
  470TMC3    C2 7045   4.314   1.536   0.248  0.0259  0.4252 -1.1185
  470TMC3    C3 7046   4.406   1.614   0.309 -0.1483 -1.0596  0.1077
  470TMC3    C4 7047   4.442   1.342   0.299 -0.8268  0.2306  0.3958
  470TMC3    C5 7048   4.534   1.419   0.359 -0.2909  0.2616 -0.0512
  470TMC3    C6 7049   4.519   1.555   0.365 -0.0990 -0.4497 -0.5701
  470TMC3     C 7050   4.246   1.321   0.161 -0.2716  0.3706 -0.6019
  470TMC3     O 7051   4.189   1.370   0.067 -0.0916 -0.1119 -0.0215
  470TMC3     H 7052   4.217   1.570   0.213 -1.6552  0.3585  3.4751
  470TMC3    H1 7053   4.455   1.235   0.287 -1.1056  0.2691 -0.2250
  470TMC3    H2 7054   4.582   1.619   0.427  0.2144 -0.9457 -0.3783
  470TMC3    C7 7055   4.647   1.358   0.434 -0.2570 -0.7555 -0.0536
  470TMC3    C8 7056   4.388   1.759   0.323  0.4174 -0.5707 -0.2513
  470TMC3    O1 7057   0.013   1.426   0.432 -0.0855 -0.3215 -0.4387
  470TMC3    O2 7058   4.487   1.830   0.326  0.5212  0.3855  0.3612
  471MPD2     C 7059   0.553   2.443  16.235 -0.9862  0.1598  0.4120
  471MPD2    C1 7060   0.485   2.343  16.288  0.0774  0.2324 -0.4110
  471MPD2    C2 7061   0.505   2.309  16.418 -0.0363 -0.4088 -0.2000
  471MPD2    C3 7062   0.584   2.384  16.498  0.0821 -0.1915 -0.3386
  471MPD2    C4 7063   0.661   2.480  16.438  0.0857  0.5362 -0.4842
  471MPD2    C5 7064   0.641   2.513  16.311 -0.4857  0.6529  0.1320
  471MPD2     H 7065   0.451   2.223  16.458  0.0578 -0.5686 -0.4184
  471MPD2    H1 7066   0.728   2.542  16.495  1.2032 -1.3873  0.3118
  471MPD2    H2 7067   0.558   2.471  16.130  0.3740  2.0264  0.9793
  471MPD2    H3 7068   0.696   2.603  16.289  0.0544  0.1348 -0.6214
  471MPD2     N 7069   0.598   2.364  16.637  0.1515 -0.0774  0.0218
  471MPD2    H5 7070   0.681   2.405  16.679 -1.0052 -0.1827  2.4102
  471MPD2    N1 7071   0.390   2.263  16.218  0.5322  0.0016  0.2154
  471MPD2    H7 7072   0.363   2.176  16.265 -2.6305 -0.4638 -2.4629
  472TMC3    C1 7073   0.233   2.198  16.061  0.4971  0.7352 -0.4473
  472TMC3    C2 7074   0.121   2.262  16.030 -0.1418  0.4928  0.1452
  472TMC3    C3 7075   0.011   2.222  16.104  0.3897  0.0133  0.2336
  472TMC3    C4 7076   0.235   2.079  16.125  0.1426  0.7557 -0.3340
  472TMC3    C5 7077   0.123   2.040  16.191 -0.3616 -0.1754  0.2182
  472TMC3    C6 7078   0.008   2.111  16.184  0.3817 -0.1576  0.2177
  472TMC3     C 7079   0.337   2.292  16.098 -0.0123  0.3594  0.3851
  472TMC3     O 7080   0.347   2.407  16.050  0.1975 -0.1037  0.0584
  472TMC3     H 7081   0.108   2.350  15.968 -1.4560  0.4113  0.2963
  472TMC3    H1 7082   0.327   2.023  16.132 -1.8405 -2.4144  0.1664
  472TMC3    H2 7083   4.653   2.065  16.213  0.8413 -1.2039  0.0538
  472TMC3    C7 7084   0.134   1.924  16.280  0.6204 -0.5959  0.4020
  472TMC3    C8 7085   4.619   2.273  16.060 -0.7321  0.0077 -0.2447
  472TMC3    O1 7086   0.233   1.855  16.264 -0.2967 -0.0830 -0.0069
  472TMC3    O2 7087   4.621   2.330  15.954  0.8322  0.1368  0.2854
  473MPD2     C 7088   0.321   3.981  14.151  0.8954 -0.3301  0.7568
  473MPD2    C1 7089   0.254   4.100  14.109 -0.1675  0.1474  0.5417
  473MPD2    C2 7090   0.272   4.224  14.181 -0.4909  0.2237  0.3210
  473MPD2    C3 7091   0.349   4.229  14.294  0.1760 -0.2562  0.3700
  473MPD2    C4 7092   0.418   4.113  14.330 -0.2328  0.1687  0.5718
  473MPD2    C5 7093   0.396   3.991  14.263 -0.0184  0.2415  0.1978
  473MPD2     H 7094   0.230   4.316  14.141 -0.7889 -0.0142  0.0856
  473MPD2    H1 7095   0.481   4.109  14.419 -0.8756  2.3323  1.1279
  473MPD2    H2 7096   0.310   3.886  14.100 -0.6259 -0.4665  1.3395
  473MPD2    H3 7097   0.453   3.904  14.293 -0.8781 -1.5185 -3.2047
  473MPD2     N 7098   0.363   4.345  14.372 -0.1785 -0.5535  0.5026
  473MPD2    H5 7099   0.429   4.334  14.449  0.6280  0.8058  0.0043
  473MPD2    N1 7100   0.149   4.106  14.009 -0.0496 -0.0046  0.3327
  473MPD2    H7 7101   0.108   4.199  14.000  0.6320  0.3468  0.8448
  474TMC3    C1 7102   0.313   4.558  14.451  0.5402 -0.7717 -0.5420
  474TMC3    C2 7103   0.242   4.668  14.443 -0.0103 -0.6892 -0.0939
  474TMC3    C3 7104   0.282   0.048  14.502  0.3340  0.0302  0.0875
  474TMC3    C4 7105   0.425   4.563  14.527  0.1855 -0.1452  0.3068
  474TMC3    C5 7106   0.467   4.677  14.589  1.2125  0.8726 -0.5075
  474TMC3    C6 7107   0.394   0.059  14.574 -0.1490 -0.2863  0.3422
  474TMC3     C 7108   0.285   4.455  14.357 -0.0112 -0.1645  0.0121
  474TMC3     O 7109   0.195   4.484  14.281 -0.6190  0.1813 -0.2196
  474TMC3     H 7110   0.141   4.669  14.403 -1.0480  2.5907  2.5744
  474TMC3    H1 7111   0.498   4.483  14.522  3.6586  3.0982 -0.8204
  474TMC3    H2 7112   0.427   0.143  14.633  0.0496  0.6501 -1.0915
  474TMC3    C7 7113   0.608   4.701  14.574 -0.4260 -0.8394 -0.4009
  474TMC3    C8 7114   0.232   0.172  14.444 -0.1686 -1.3035  0.0405
  474TMC3    O1 7115   0.657   4.654  14.470  0.2738  0.0969 -0.0095
  474TMC3    O2 7116   0.138   0.155  14.365 -0.4837 -0.0561 -0.0572
  475MPD2     C 7117   3.194   2.455  10.541 -0.0491 -0.8514 -0.4815
  475MPD2    C1 7118   3.156   2.563  10.622  0.1058 -0.5798  0.4279
  475MPD2    C2 7119   3.015   2.578  10.642  0.3140 -0.2248 -0.2813
  475MPD2    C3 7120   2.932   2.498  10.572 -0.2194  0.1297  0.1365
  475MPD2    C4 7121   2.975   2.384  10.500 -0.5470  0.8955 -0.0942
  475MPD2    C5 7122   3.108   2.359  10.487  0.5270 -0.0421 -0.6686
  475MPD2     H 7123   2.972   2.649  10.711  1.0467 -0.0728  0.0197
  475MPD2    H1 7124   2.901   2.324  10.449  0.0440  0.4643 -0.4443
  475MPD2    H2 7125   3.298   2.427  10.537  0.5184  1.1462  0.5329
  475MPD2    H3 7126   3.146   2.268  10.443 -0.3277 -1.1699  0.9257
  475MPD2     N 7127   2.796   2.535  10.564 -0.1810  0.0888 -0.7057
  475MPD2    H5 7128   2.768   2.612  10.623  4.6560 -0.3411  2.1621
  475MPD2    N1 7129   3.253   2.663  10.660  0.0134  0.2126  0.4718
  475MPD2    H7 7130   3.344   2.650  10.617 -0.3401  0.6202 -0.4040
  476TMC3    C1 7131   3.358   2.815  10.809  0.0957  0.0392  0.5886
  476TMC3    C2 7132   3.452   2.834  10.706  0.3524  0.1019 -0.4951
  476TMC3    C3 7133   3.585   2.859  10.739  0.6863  0.8283  0.4347
  476TMC3    C4 7134   3.390   2.838  10.936 -0.1962 -0.2485 -0.5073
  476TMC3    C5 7135   3.523   2.869  10.968 -0.4423  0.1386  0.5902
  476TMC3    C6 7136   3.620   2.876  10.873  0.2658 -0.3060  0.2647
  476TMC3     C 7137   3.238   2.745  10.772  1.1743  0.1378  0.2667
  476TMC3     O 7138   3.155   2.750  10.859  0.5053  0.2354 -0.0624
  476TMC3     H 7139   3.419   2.842  10.603 -4.7692 -0.0752  1.1349
  476TMC3    H1 7140   3.324   2.812  11.018 -2.1686  2.1085 -1.3431
  476TMC3    H2 7141   3.723   2.894  10.902  0.0631 -1.4246  1.6871
  476TMC3    C7 7142   3.559   2.899  11.103 -0.2121  0.4035 -0.9170
  476TMC3    C8 7143   3.669   2.925  10.639  0.5084 -0.0844  0.0463
  476TMC3    O1 7144   3.675   2.915  11.128 -0.3357  0.1458  0.3374
  476TMC3    O2 7145   3.767   2.977  10.686  0.3854  0.2433  0.1835
  477MPD2     C 7146   0.870   4.072  11.789  0.5326  0.2763 -0.0496
  477MPD2    C1 7147   0.788   3.997  11.870  0.0256 -0.1915 -0.4172
  477MPD2    C2 7148   0.841   3.895  11.942 -0.0755  0.1187 -0.7503
  477MPD2    C3 7149   0.976   3.871  11.944  0.0006 -0.0670 -0.6225
  477MPD2    C4 7150   1.063   3.961  11.885  0.3022 -0.0052  0.3564
  477MPD2    C5 7151   1.005   4.052  11.805 -0.2903  0.2655 -0.5599
  477MPD2     H 7152   0.768   3.839  11.999  0.1940  1.2649  0.7223
  477MPD2    H1 7153   1.170   3.973  11.896  0.3030  0.8516 -0.5213
  477MPD2    H2 7154   0.846   4.154  11.722 -2.8092 -1.2947 -0.8093
  477MPD2    H3 7155   1.076   4.113  11.751  2.4605 -1.6039  0.8930
  477MPD2     N 7156   1.035   3.764  12.021  0.3195 -0.5952  0.0709
  477MPD2    H5 7157   0.973   3.698  12.066 -1.0333  0.4456 -0.2526
  477MPD2    N1 7158   0.651   4.017  11.865 -0.9871 -0.2154 -0.0959
  477MPD2    H7 7159   0.625   4.107  11.826 -1.2629 -0.5399 -0.6618
  478TMC3    C1 7160   0.429   3.981  11.875 -0.3256 -0.0031  0.3515
  478TMC3    C2 7161   0.406   4.100  11.938 -0.2358  0.1432  0.1798
  478TMC3    C3 7162   0.288   4.163  11.921 -0.3466 -0.0539 -0.4236
  478TMC3    C4 7163   0.329   3.922  11.802  0.2849  0.8331  0.4582
  478TMC3    C5 7164   0.215   3.992  11.785 -0.3527  0.3146  0.8924
  478TMC3    C6 7165   0.192   4.111  11.838  0.5328 -0.2552 -0.2572
  478TMC3     C 7166   0.555   3.919  11.893 -0.0712  0.0686 -0.5986
  478TMC3     O 7167   0.567   3.797  11.893  0.5675  0.3995  0.1734
  478TMC3     H 7168   0.478   4.152  12.001 -0.3576  1.5502 -0.8554
  478TMC3    H1 7169   0.347   3.818  11.774 -0.4856  0.1287  2.5737
  478TMC3    H2 7170   0.092   4.151  11.830 -0.0387 -1.4532  1.1314
  478TMC3    C7 7171   0.098   3.928  11.725  0.2169 -0.5574  0.8558
  478TMC3    C8 7172   0.254   4.278  12.003  0.0525 -0.2756 -0.4174
  478TMC3    O1 7173   0.082   3.809  11.755 -0.1448 -0.2274  0.3832
  478TMC3    O2 7174   0.312   4.291  12.109 -0.0552 -0.3651  0.1805
  479MPD2     C 7175   0.064   1.755  15.321  0.6546  0.0313  0.0504
  479MPD2    C1 7176   4.737   1.730  15.431  0.4905  0.4650  0.0776
  479MPD2    C2 7177   0.058   1.759  15.547  0.0170  0.3767 -0.8275
  479MPD2    C3 7178   0.181   1.815  15.555 -0.2650 -0.9006 -0.3115
  479MPD2    C4 7179   0.247   1.846  15.444 -0.2271  0.2011  0.0184
  479MPD2    C5 7180   0.192   1.817  15.321  0.6801  0.4195 -0.2245
  479MPD2     H 7181   0.011   1.732  15.641 -1.4331  3.2079 -0.7296
  479MPD2    H1 7182   0.346   1.892  15.445  0.8179 -2.0396  0.2101
  479MPD2    H2 7183   0.006   1.745  15.230  1.7548  1.6164 -0.8378
  479MPD2    H3 7184   0.240   1.855  15.232 -0.4888  1.6467 -0.3393
  479MPD2     N 7185   0.242   1.858  15.672 -0.6298 -0.3944  0.7625
  479MPD2    H5 7186   0.342   1.874  15.668 -1.0690  1.9421 -0.8381
  479MPD2    N1 7187   4.601   1.692  15.413  0.1513 -0.0251  0.9211
  479MPD2    H7 7188   4.582   1.672  15.316 -1.7334  1.5625  0.9697
  480TMC3    C1 7189   4.610   1.852  15.975 -0.4027 -0.1565  0.2873
  480TMC3    C2 7190   4.523   1.928  15.901 -0.3818 -0.2624 -0.1517
  480TMC3    C3 7191   4.578   1.986  15.794 -0.0533 -0.5874  0.6662
  480TMC3    C4 7192   0.004   1.826  15.947 -0.6379  0.3688  0.1340
  480TMC3    C5 7193   0.053   1.881  15.833 -0.1503 -0.3789 -0.1007
  480TMC3    C6 7194   4.712   1.961  15.754  0.2715  0.5494 -0.6435
  480TMC3     C 7195   4.557   1.792  16.096 -0.1209 -0.7794 -0.6625
  480TMC3     O 7196   4.494   1.852  16.185 -0.5261 -0.3058  0.3497
  480TMC3     H 7197   4.421   1.939  15.936 -0.2339  1.1761 -0.2056
  480TMC3    H1 7198   0.064   1.754  16.002 -1.0663 -1.2251 -1.4726
  480TMC3    H2 7199   0.017   2.020  15.674  0.2629 -0.7578 -1.6042
  480TMC3    C7 7200   0.186   1.852  15.801  0.9129  0.3928  0.1704
  480TMC3    C8 7201   4.488   2.038  15.686  0.5971  0.2914  0.4020
  480TMC3    O1 7202   0.256   1.835  15.903  0.2585 -0.2488  0.0222
  480TMC3    O2 7203   4.370   2.037  15.718  0.2014 -0.4326  1.1552
  481MPD2     C 7204   1.351   1.616  14.188  0.2339  0.1441 -0.3282
  481MPD2    C1 7205   1.335   1.482  14.174  0.0665  0.3770 -0.4157
  481MPD2    C2 7206   1.405   1.402  14.264  0.2640 -0.3110 -0.4334
  481MPD2    C3 7207   1.493   1.460  14.350  0.2679 -0.2855  0.7123
  481MPD2    C4 7208   1.515   1.593  14.351 -0.6390  0.9059  0.3714
  481MPD2    C5 7209   1.439   1.668  14.277 -0.0023 -0.3091 -0.4989
  481MPD2     H 7210   1.410   1.294  14.257  1.4522 -0.2159 -1.0334
  481MPD2    H1 7211   1.576   1.636  14.430  1.1718  0.9622 -1.0420
  481MPD2    H2 7212   1.286   1.692  14.147  0.3775  1.2078  1.4298
  481MPD2    H3 7213   1.446   1.776  14.286  0.1223 -0.3211 -0.4618
  481MPD2     N 7214   1.565   1.379  14.445  0.2921  0.1355 -0.2401
  481MPD2    H5 7215   1.623   1.432  14.509 -0.8939 -0.5744  1.4177
  481MPD2    N1 7216   1.245   1.442  14.070  0.4469 -0.2743 -0.9408
  481MPD2    H7 7217   1.184   1.514  14.033  1.2177  0.0952 -1.4978
  482TMC3    C1 7218   1.109   1.307  13.944  0.8156  0.3476 -0.0293
  482TMC3    C2 7219   1.031   1.194  13.948  0.0113 -0.4402 -0.4689
  482TMC3    C3 7220   0.923   1.205  13.867 -0.2198 -0.3354 -0.1287
  482TMC3    C4 7221   1.080   1.419  13.873 -0.2887 -0.0484  0.3245
  482TMC3    C5 7222   0.970   1.420  13.795 -0.0936  0.3619  0.5912
  482TMC3    C6 7223   0.891   1.309  13.792 -0.2186 -0.3818 -0.0379
  482TMC3     C 7224   1.215   1.315  14.040  0.0930  1.4435 -0.1061
  482TMC3     O 7225   1.241   1.211  14.101 -0.3655 -0.4009 -0.1425
  482TMC3     H 7226   1.039   1.107  14.012 -0.5570  0.4136  0.7572
  482TMC3    H1 7227   1.145   1.505  13.861  0.9487 -1.1880 -0.9929
  482TMC3    H2 7228   0.808   1.312  13.722 -0.4628  0.5916  0.2957
  482TMC3    C7 7229   0.917   1.546  13.746  0.5678 -0.1646  0.2112
  482TMC3    C8 7230   0.838   1.088  13.853 -0.4614  0.1038  0.1362
  482TMC3    O1 7231   0.800   1.568  13.764  1.1451 -0.3874  0.4233
  482TMC3    O2 7232   0.893   0.976  13.855  0.1580 -0.1324  0.6133
  483TMC3    C1 7233   0.252   0.108   1.239  0.0520  0.2744  0.0337
  483TMC3    C2 7234   0.294   0.222   1.182  0.6230 -0.1027  0.7752
  483TMC3    C3 7235   0.410   0.212   1.105  0.5273 -0.5431 -0.0963
  483TMC3    C4 7236   0.319   4.726   1.253 -0.3064  0.3500  0.1318
  483TMC3    C5 7237   0.446   0.001   1.205  0.7176 -0.1028 -0.4712
  483TMC3    C6 7238   0.485   0.101   1.116  0.3398 -0.0479  0.6565
  483TMC3     C 7239   0.110   0.102   1.268  0.1629  0.2772  0.9635
  483TMC3     O 7240   0.064   0.213   1.284 -0.2131  0.4058 -0.4984
  483TMC3     H 7241   0.244   0.318   1.191  0.2564 -0.2177 -0.0062
  483TMC3    H1 7242   0.289   4.635   1.304 -1.4407 -0.4167 -1.9127
  483TMC3    H2 7243   0.572   0.082   1.054  0.1548 -1.2000  0.7376
  483TMC3    C7 7244   0.528   4.618   1.202 -0.2011  0.5684  0.0519
  483TMC3    C8 7245   0.455   0.334   1.026 -0.1488  0.3646 -0.0201
  483TMC3    O1 7246   0.468   4.508   1.202  0.7990  0.2987 -0.1426
  483TMC3    O2 7247   0.369   0.423   1.016 -0.0167  0.3721  0.2006
  484MPD2     C 7248   1.917   2.938  13.228  0.3424 -0.1795 -0.5240
  484MPD2    C1 7249   1.970   2.830  13.161 -0.3706  0.5615 -0.1580
  484MPD2    C2 7250   2.091   2.840  13.098  0.2630 -0.3298 -0.0770
  484MPD2    C3 7251   2.145   2.966  13.086 -0.0035 -0.6535 -0.4033
  484MPD2    C4 7252   2.093   3.082  13.143 -0.3106 -0.5281 -0.4294
  484MPD2    C5 7253   1.981   3.066  13.221 -0.1174 -0.1339  0.4502
  484MPD2     H 7254   2.137   2.751  13.057 -0.2274 -0.5818 -0.0885
  484MPD2    H1 7255   2.139   3.180  13.142 -0.7027 -0.3371  0.3426
  484MPD2    H2 7256   1.825   2.936  13.286  0.6119  0.8587 -0.0553
  484MPD2    H3 7257   1.936   3.146  13.279 -1.9572 -0.7084 -0.1556
  484MPD2     N 7258   2.268   2.991  13.014  0.5789  0.0449 -0.1411
  484MPD2    H5 7259   2.307   3.084  13.016 -1.8487  1.1167 -1.5084
  484MPD2    N1 7260   1.888   2.717  13.171 -0.6830  0.6247 -0.0087
  484MPD2    H7 7261   1.815   2.713  13.242 -0.1756 -0.6920  0.4357
  485TMC3    C1 7262   2.450   2.941  12.868 -0.2136 -0.0971  0.3285
  485TMC3    C2 7263   2.541   2.845  12.845  0.2027 -0.3784  0.4012
  485TMC3    C3 7264   2.642   2.861  12.759 -0.0503  0.3937 -0.4912
  485TMC3    C4 7265   2.448   3.051  12.786  0.1976  1.0549  0.7979
  485TMC3    C5 7266   2.537   3.060  12.693  0.0663 -0.2832 -0.1984
  485TMC3    C6 7267   2.641   2.973  12.681 -0.4646 -0.4743  0.1315
  485TMC3     C 7268   2.325   2.898  12.926 -0.2275 -0.5711 -0.7838
  485TMC3     O 7269   2.301   2.778  12.917 -0.1504 -0.0353  0.5381
  485TMC3     H 7270   2.527   2.747  12.889 -0.1351 -0.5898 -0.1734
  485TMC3    H1 7271   2.364   3.120  12.786 -0.2593  0.4899 -1.2103
  485TMC3    H2 7272   2.719   3.001  12.611  0.3048  1.0161  1.5999
  485TMC3    C7 7273   2.495   3.101  12.560 -0.1421  0.4501  0.7212
  485TMC3    C8 7274   2.674   2.745  12.671 -0.5355 -0.4018  0.5348
  485TMC3    O1 7275   2.449   3.210  12.536 -0.2911 -0.6811  0.7330
  485TMC3    O2 7276   2.660   2.778  12.554  0.2799 -0.2326 -0.3149
  486MPD2     C 7277   4.251   2.336  13.255  0.4346  0.6762 -0.3532
  486MPD2    C1 7278   4.142   2.336  13.329 -0.7997  0.3827  0.4634
  486MPD2    C2 7279   4.017   2.345  13.274  0.3681  0.2948 -0.2231
  486MPD2    C3 7280   3.997   2.336  13.137  0.1563 -0.0572  0.1046
  486MPD2    C4 7281   4.112   2.309  13.061  0.3974 -0.6752 -0.4997
  486MPD2    C5 7282   4.243   2.319  13.122 -0.1954 -0.0487 -0.0150
  486MPD2     H 7283   3.927   2.360  13.332 -0.2801  1.0486 -1.4239
  486MPD2    H1 7284   4.104   2.293  12.954  1.2266 -1.4698 -0.4496
  486MPD2    H2 7285   4.354   2.331  13.291 -0.7817  0.2329  3.0461
  486MPD2    H3 7286   4.331   2.312  13.059 -0.2052 -1.4178  0.1236
  486MPD2     N 7287   3.865   2.331  13.087 -0.5425  0.7489 -0.5100
  486MPD2    H5 7288   3.785   2.330  13.149  0.0468  2.0287  0.2797
  486MPD2    N1 7289   4.166   2.337  13.470  0.4495 -0.3342  0.9462
  486MPD2    H7 7290   4.256   2.303  13.500  0.5279 -1.7581 -0.8626
  487TMC3    C1 7291   4.097   2.332  13.701  0.0851  0.2904  0.7092
  487TMC3    C2 7292   4.227   2.298  13.736 -0.2739 -0.1754 -0.1657
  487TMC3    C3 7293   4.252   2.258  13.864  0.3332  0.0283 -0.0283
  487TMC3    C4 7294   3.996   2.309  13.787 -0.8133 -0.6538 -0.3205
  487TMC3    C5 7295   4.029   2.270  13.917  0.1237 -0.2032  0.2011
  487TMC3    C6 7296   4.161   2.265  13.960 -0.7508 -0.2725  0.2020
  487TMC3     C 7297   4.067   2.359  13.564 -0.3684  0.8990 -0.2997
  487TMC3     O 7298   3.956   2.405  13.549  0.1095  0.0742  0.1279
  487TMC3     H 7299   4.308   2.321  13.667 -0.6249  0.6637 -0.3033
  487TMC3    H1 7300   3.892   2.314  13.755 -0.1216 -0.0620 -2.4918
  487TMC3    H2 7301   4.188   2.207  14.048 -0.0725 -1.1408 -0.5735
  487TMC3    C7 7302   3.947   2.170  13.976  0.2370 -0.2318  0.6895
  487TMC3    C8 7303   4.326   2.140  13.870  0.7112 -0.2838  0.2327
  487TMC3    O1 7304   3.975   2.128  14.087 -0.6316 -0.0218  0.4235
  487TMC3    O2 7305   4.391   2.117  13.970  0.0567 -0.2880  0.0504
  488MPD2     C 7306   4.082   3.969  16.365 -0.0848  0.2019  0.0861
  488MPD2    C1 7307   4.198   3.907  16.333  0.5914 -0.0382 -0.2360
  488MPD2    C2 7308   4.248   3.799  16.407 -0.9286 -0.6051 -0.5231
  488MPD2    C3 7309   4.173   3.747  16.506 -0.4028  0.4842  0.4723
  488MPD2    C4 7310   4.057   3.813  16.552 -0.6658 -0.6267 -0.9101
  488MPD2    C5 7311   4.005   3.922  16.479 -0.5455  0.1427  0.3971
  488MPD2     H 7312   4.333   3.739  16.379  1.4052  2.1286  0.7168
  488MPD2    H1 7313   3.994   3.772  16.630 -1.2105  0.2434 -0.8917
  488MPD2    H2 7314   4.043   4.043  16.296 -0.6371 -1.2718 -1.1898
  488MPD2    H3 7315   3.908   3.961  16.507  1.0270  2.7974  2.1821
  488MPD2     N 7316   4.228   3.630  16.566 -0.5152  0.0104  0.0287
  488MPD2    H5 7317   4.328   3.613  16.561 -0.8055 -1.4932 -0.7068
  488MPD2    N1 7318   4.279   3.976  16.234  0.2438 -0.0577  0.2728
  488MPD2    H7 7319   4.248   4.070  16.210 -0.4098 -0.2066  0.5392
  489TMC3    C1 7320   4.278   3.517  16.765 -0.4569  0.5367  0.2532
  489TMC3    C2 7321   4.381   3.596  16.789 -1.1595 -0.3680  0.3202
  489TMC3    C3 7322   4.445   3.578  16.910 -0.1980  0.5744  0.1333
  489TMC3    C4 7323   4.228   3.432  16.852  0.1388 -0.1242 -0.0969
  489TMC3    C5 7324   4.289   3.419  16.972 -0.6562  0.7983  0.1664
  489TMC3    C6 7325   4.397   3.493  17.010  0.4698 -0.6431  0.0161
  489TMC3     C 7326   4.178   3.568  16.677 -0.4572 -0.0634  0.4408
  489TMC3     O 7327   4.060   3.559  16.703 -0.0828  0.5342 -0.0431
  489TMC3     H 7328   4.413   3.674  16.721 -0.6500 -0.7978  0.0613
  489TMC3    H1 7329   4.152   3.360  16.823  0.2915  0.1265 -1.1411
  489TMC3    H2 7330   4.439   3.490  17.110 -0.9446  0.7962  0.6455
  489TMC3    C7 7331   4.232   3.319  17.060 -0.6873  0.4932  0.5015
  489TMC3    C8 7332   4.543   3.678  16.945 -0.0814  0.1684  0.2194
  489TMC3    O1 7333   4.113   3.295  17.045  0.3695 -0.4341  0.1072
  489TMC3    O2 7334   4.597   3.725  16.846  0.2495 -0.5220  0.0029
  490MPD2     C 7335   0.908   2.553  17.128  0.1386 -0.0593 -0.8265
  490MPD2    C1 7336   0.803   2.641  17.143 -0.8597 -0.0765  0.1445
  490MPD2    C2 7337   0.809   2.780  17.115 -0.4771 -0.2447 -0.8474
  490MPD2    C3 7338   0.932   2.826  17.078  0.5103  0.6933 -0.3235
  490MPD2    C4 7339   1.038   2.742  17.068 -0.6352  0.8366 -0.9591
  490MPD2    C5 7340   1.028   2.609  17.086 -0.3824 -0.3915 -0.3918
  490MPD2     H 7341   0.723   2.846  17.111 -1.5443 -1.6415 -1.2231
  490MPD2    H1 7342   1.132   2.781  17.030  0.0286 -0.2878 -0.4516
  490MPD2    H2 7343   0.904   2.446  17.146  1.5656  0.2587  1.3912
  490MPD2    H3 7344   1.117   2.548  17.095 -1.0859 -1.0925  1.6515
  490MPD2     N 7345   0.945   2.962  17.037  0.1520  0.0534  0.1351
  490MPD2    H5 7346   1.034   2.993  16.997  0.2639 -1.3416 -0.7165
  490MPD2    N1 7347   0.675   2.596  17.168 -0.2925  0.2329 -0.6513
  490MPD2    H7 7348   0.611   2.674  17.175  0.2745  0.4750  1.5231
  491TMC3    C1 7349   0.483   2.459  17.209  0.9504 -0.1219  0.0069
  491TMC3    C2 7350   0.433   2.380  17.310 -0.5170  0.1684 -0.7283
  491TMC3    C3 7351   0.296   2.384  17.322  0.5980  0.5627  0.0389
  491TMC3    C4 7352   0.408   2.549  17.134  0.4988 -0.1088  0.2482
  491TMC3    C5 7353   0.275   2.532  17.141  0.8959  0.6712  0.1886
  491TMC3    C6 7354   0.220   2.451  17.231 -0.0810  0.1709 -0.0791
  491TMC3     C 7355   0.636   2.470  17.207  0.0963 -0.3170  0.1972
  491TMC3     O 7356   0.695   2.367  17.229 -0.0315 -0.5143  0.1151
  491TMC3     H 7357   0.496   2.319  17.373 -0.4018  1.7840  0.7154
  491TMC3    H1 7358   0.462   2.606  17.060  0.6030  0.0963  0.4826
  491TMC3    H2 7359   0.111   2.446  17.234  0.0540 -3.0178 -0.5231
  491TMC3    C7 7360   0.188   2.598  17.049 -0.0847 -0.0719  0.0778
  491TMC3    C8 7361   0.223   2.354  17.438 -0.1837 -0.4920 -0.3417
  491TMC3    O1 7362   0.081   2.544  17.028 -0.4066 -0.4004  0.3052
  491TMC3    O2 7363   0.112   2.405  17.449 -0.4166 -0.0948 -0.0979
  492MPD2     C 7364   0.997   2.844  10.969 -0.3104  0.1441 -0.1720
  492MPD2    C1 7365   0.896   2.756  10.931 -0.1948 -0.4601  0.2377
  492MPD2    C2 7366   0.782   2.726  11.000 -0.5184 -0.4246 -0.6196
  492MPD2    C3 7367   0.765   2.792  11.118 -0.0690  0.3175 -0.6621
  492MPD2    C4 7368   0.860   2.882  11.171 -0.8528 -0.0581 -0.2508
  492MPD2    C5 7369   0.971   2.902  11.095 -1.5863  0.2002  0.5804
  492MPD2     H 7370   0.715   2.649  10.964 -0.7643  0.2667 -1.6595
  492MPD2    H1 7371   0.851   2.921  11.272  0.0504 -0.2340 -0.1082
  492MPD2    H2 7372   1.081   2.876  10.910 -1.0189  0.5974 -0.9258
  492MPD2    H3 7373   1.043   2.971  11.138 -1.7740 -0.5116  2.0503
  492MPD2     N 7374   0.657   2.762  11.211  0.7569 -0.0972  0.3660
  492MPD2    H5 7375   0.680   2.776  11.309 -1.8563  0.5343  0.8687
  492MPD2    N1 7376   0.915   2.708  10.799 -0.3066 -0.6159 -0.2587
  492MPD2    H7 7377   0.976   2.771  10.747  1.6887 -1.3153  1.2538
  493TMC3    C1 7378   0.775   2.713  10.610  0.0721  0.4903 -0.3784
  493TMC3    C2 7379   0.795   2.853  10.607  0.6250 -0.4547  0.2856
  493TMC3    C3 7380   0.679   2.927  10.610  0.0004  0.0876  0.9459
  493TMC3    C4 7381   0.654   2.663  10.585  0.0311 -0.5133  0.1623
  493TMC3    C5 7382   0.544   2.740  10.584  0.2316 -1.0143  0.1408
  493TMC3    C6 7383   0.554   2.870  10.597  0.0951 -0.3277  0.3677
  493TMC3     C 7384   0.822   2.640  10.725 -0.0602 -0.7234 -0.4158
  493TMC3     O 7385   0.757   2.541  10.758 -0.2634  0.1165  0.4769
  493TMC3     H 7386   0.887   2.900  10.640  1.3402 -1.5022 -0.2345
  493TMC3    H1 7387   0.653   2.556  10.565  0.0323 -0.3924 -0.4713
  493TMC3    H2 7388   0.468   2.934  10.583 -0.0439 -0.9593 -1.7266
  493TMC3    C7 7389   0.407   2.688  10.595 -0.1717 -0.3726 -0.2744
  493TMC3    C8 7390   0.676   3.067  10.652  0.2545 -0.6566  0.2358
  493TMC3    O1 7391   0.318   2.761  10.638 -0.0446 -0.0215 -0.0694
  493TMC3    O2 7392   0.581   3.101  10.720 -0.6112  0.2847 -0.3059
  494TMC3    C1 7393   1.300   0.036   0.576  0.6306  0.1689 -0.5229
  494TMC3    C2 7394   1.225   4.662   0.562  0.2653 -0.1657 -1.1430
  494TMC3    C3 7395   1.192   4.618   0.438  1.2627  0.6438  0.0625
  494TMC3    C4 7396   1.330   0.113   0.464 -0.0173  0.6146 -0.0834
  494TMC3    C5 7397   1.295   0.066   0.340  0.4115 -0.0551  0.4067
  494TMC3    C6 7398   1.230   4.686   0.319  0.1076 -0.6722  0.1242
  494TMC3     C 7399   1.338   0.075   0.711  0.0264  0.4411  0.6798
  494TMC3     O 7400   1.274   0.037   0.805 -0.2320  0.1438  0.8838
  494TMC3     H 7401   1.212   4.604   0.653 -0.2209  1.9146  0.1305
  494TMC3    H1 7402   1.377   0.209   0.478 -3.0585  2.0260  0.4931
  494TMC3    H2 7403   1.231   4.640   0.221 -0.4242 -1.1115  0.3301
  494TMC3    C7 7404   1.353   0.136   0.228  0.1569  0.4107 -0.5017
  494TMC3    C8 7405   1.182   4.472   0.426 -0.4472 -0.2723  0.2139
  494TMC3    O1 7406   1.364   0.071   0.125  0.4648  0.0611  0.4436
  494TMC3    O2 7407   1.206   4.400   0.525 -0.1208 -0.1286  0.7405
  495TMC3    C1 7408   0.095   1.808  14.775  0.2914 -0.7691  0.7511
  495TMC3    C2 7409   0.039   1.869  14.668 -0.6971  0.2708 -0.4635
  495TMC3    C3 7410   4.701   1.977  14.683  0.4473  0.0653 -0.6144
  495TMC3    C4 7411   0.075   1.872  14.895 -0.2210  0.0021 -0.1789
  495TMC3    C5 7412   0.014   1.994  14.908  0.2858 -0.6577 -0.6016
  495TMC3    C6 7413   4.703   2.056  14.796 -0.2573  0.0643  0.1962
  495TMC3     C 7414   0.052   1.667  14.790  0.5246 -0.2379 -0.2832
  495TMC3     O 7415   4.723   1.649  14.888 -0.0977  0.4191  0.2833
  495TMC3     H 7416   0.028   1.818  14.572  2.8848  0.4080 -0.9694
  495TMC3    H1 7417   0.119   1.828  14.984  1.9286  4.3021  0.8427
  495TMC3    H2 7418   4.626   2.132  14.812  0.6789  1.2504 -0.9129
  495TMC3    C7 7419   4.705   2.030  15.042  0.3412  0.7307 -0.0317
  495TMC3    C8 7420   4.567   1.968  14.629 -0.2719  0.0079 -0.1028
  495TMC3    O1 7421   0.057   2.032  15.120  0.7839  0.9383 -0.1085
  495TMC3    O2 7422   4.506   2.076  14.631 -0.4173  0.4324  0.2956
  496MPD2     C 7423   1.809   2.667  15.704 -0.7085 -0.0315  0.1036
  496MPD2    C1 7424   1.865   2.548  15.737 -0.0507  0.5818 -0.8230
  496MPD2    C2 7425   1.782   2.443  15.780 -0.1072  0.3684  0.1544
  496MPD2    C3 7426   1.650   2.464  15.815 -0.1338  0.4230 -0.2005
  496MPD2    C4 7427   1.605   2.590  15.800  0.7149 -0.3809  0.5245
  496MPD2    C5 7428   1.677   2.689  15.737  0.3978  0.1305  0.3458
  496MPD2     H 7429   1.816   2.340  15.782  1.7438  0.9445 -0.9873
  496MPD2    H1 7430   1.502   2.611  15.825  0.3546  0.3793 -1.5525
  496MPD2    H2 7431   1.867   2.748  15.661 -0.4787 -0.5721 -0.5972
  496MPD2    H3 7432   1.634   2.786  15.715 -0.6575 -0.5584 -0.5824
  496MPD2     N 7433   1.585   2.352  15.862  0.2167  0.3348 -0.0364
  496MPD2    H5 7434   1.650   2.275  15.880 -1.5706 -1.3133 -0.6385
  496MPD2    N1 7435   2.001   2.532  15.716 -0.7554 -0.6694  0.5925
  496MPD2    H7 7436   2.054   2.606  15.671 -0.2349 -2.5566 -1.9013
  497TMC3    C1 7437   1.422   2.239  15.981  0.2580  0.2585 -0.0416
  497TMC3    C2 7438   1.296   2.181  15.976 -0.1227 -0.6040  0.1599
  497TMC3    C3 7439   1.273   2.066  16.047 -0.2179 -0.1607 -0.2490
  497TMC3    C4 7440   1.519   2.198  16.070 -0.6750  0.4097 -0.0401
  497TMC3    C5 7441   1.491   2.090  16.150 -0.8122  0.0751 -0.4202
  497TMC3    C6 7442   1.365   2.032  16.140  0.1691 -0.3253 -0.8332
  497TMC3     C 7443   1.452   2.339  15.883 -0.3790 -0.8161 -0.0985
  497TMC3     O 7444   1.357   2.379  15.821  0.5069 -0.1636  0.2560
  497TMC3     H 7445   1.231   2.208  15.893 -2.2177  0.5779  2.1982
  497TMC3    H1 7446   1.607   2.261  16.076 -0.0732 -0.3921 -0.4768
  497TMC3    H2 7447   1.345   1.948  16.207  0.5083 -1.8221 -2.6211
  497TMC3    C7 7448   1.587   2.024  16.238  0.0413  0.0448  0.1732
  497TMC3    C8 7449   1.131   2.032  16.077  0.5940  0.1094  0.4241
  497TMC3    O1 7450   1.542   1.924  16.298  0.2210 -0.1472  0.0530
  497TMC3    O2 7451   1.104   1.964  16.175 -0.2205 -0.1020  0.5489
  498MPD2     C 7452   2.683   2.598   9.182 -0.1184  0.3833 -0.5453
  498MPD2    C1 7453   2.688   2.586   9.320 -0.0464 -0.5263  0.2356
  498MPD2    C2 7454   2.678   2.463   9.375  0.4658 -0.2573 -0.6565
  498MPD2    C3 7455   2.651   2.352   9.299  0.6838  0.8689 -0.3268
  498MPD2    C4 7456   2.650   2.364   9.160 -0.5154 -0.7044  0.2953
  498MPD2    C5 7457   2.664   2.486   9.104 -0.0237  0.3065 -0.4041
  498MPD2     H 7458   2.689   2.450   9.482 -0.4221  0.3274 -0.5028
  498MPD2    H1 7459   2.643   2.273   9.101 -0.8785 -0.3470 -0.2080
  498MPD2    H2 7460   2.694   2.691   9.127  2.8355 -1.3540 -2.9076
  498MPD2    H3 7461   2.661   2.483   8.996  1.0009  2.1778 -0.4807
  498MPD2     N 7462   2.635   2.234   9.373  0.4099 -0.2509  0.5500
  498MPD2    H5 7463   2.642   2.243   9.474 -1.6035 -0.7380  0.7377
  498MPD2    N1 7464   2.710   2.696   9.406 -0.1580  0.4884 -0.2848
  498MPD2    H7 7465   2.707   2.679   9.506  1.6284  1.4191 -0.0748
  499TMC3    C1 7466   2.757   2.909   9.487 -0.1677  0.5496  0.5901
  499TMC3    C2 7467   2.840   2.854   9.584 -0.1995  0.3791 -0.0309
  499TMC3    C3 7468   2.862   2.936   9.690 -0.3047  0.0415  0.3590
  499TMC3    C4 7469   2.703   3.035   9.490  0.0545  0.1225 -0.7292
  499TMC3    C5 7470   2.736   3.114   9.600  0.1909  0.3575 -1.0217
  499TMC3    C6 7471   2.820   3.069   9.700 -0.4878 -0.1905  0.7144
  499TMC3     C 7472   2.742   2.828   9.373  0.4003 -0.5217 -0.3115
  499TMC3     O 7473   2.746   2.874   9.262 -0.0409  0.1004  0.2306
  499TMC3     H 7474   2.875   2.752   9.581 -0.1930  0.3832 -0.1060
  499TMC3    H1 7475   2.663   3.087   9.403  1.2667  2.7712  0.2839
  499TMC3    H2 7476   2.834   3.131   9.787 -1.0035 -1.2788  1.5760
  499TMC3    C7 7477   2.677   3.243   9.621  0.1976 -0.1154  0.0124
  499TMC3    C8 7478   2.899   2.888   9.823  0.4121  0.1795  0.6537
  499TMC3    O1 7479   2.748   3.331   9.664 -0.3607 -0.2692 -0.0114
  499TMC3    O2 7480   2.933   2.970   9.906  0.6580 -0.4947  0.3373
  500MPD2     C 7481   3.998   3.331  10.666 -0.0779  0.0362  0.3284
  500MPD2    C1 7482   4.012   3.415  10.561 -0.2371  0.6671  0.0707
  500MPD2    C2 7483   3.897   3.438  10.492 -0.3077 -0.3464  0.6916
  500MPD2    C3 7484   3.772   3.403  10.527 -0.0087 -0.4947  0.6016
  500MPD2    C4 7485   3.765   3.310  10.627  0.0558 -0.5412  0.3909
  500MPD2    C5 7486   3.878   3.279  10.694  0.9511  0.2767  0.8093
  500MPD2     H 7487   3.914   3.511  10.414  2.2160 -2.4068 -0.7227
  500MPD2    H1 7488   3.671   3.268  10.663  0.6645 -1.4094  0.9714
  500MPD2    H2 7489   4.087   3.305  10.722 -0.0548  0.4425  0.4770
  500MPD2    H3 7490   3.867   3.214  10.780 -0.7485  0.1135  0.4755
  500MPD2     N 7491   3.648   3.457  10.472  1.2079  0.5856  0.0131
  500MPD2    H5 7492   3.568   3.422  10.523  0.9373  0.3581 -0.5625
  500MPD2    N1 7493   4.130   3.470  10.511  0.1180  0.4584  0.4751
  500MPD2    H7 7494   4.122   3.507  10.417 -0.7465 -0.7630  0.0815
  501TMC3    C1 7495   4.368   3.498  10.487 -0.1676  0.6740 -0.6913
  501TMC3    C2 7496   4.349   3.582  10.384 -0.7790  0.8015 -0.4542
  501TMC3    C3 7497   4.462   3.642  10.345 -0.1238  0.3937  0.1826
  501TMC3    C4 7498   4.488   3.452  10.530 -0.1334 -0.3697  0.5916
  501TMC3    C5 7499   4.603   3.502  10.475  0.3165 -0.2187  0.0757
  501TMC3    C6 7500   4.588   3.599  10.386 -0.9305 -0.0983  0.1336
  501TMC3     C 7501   4.257   3.450  10.563 -0.0484 -0.2792  0.3787
  501TMC3     O 7502   4.282   3.391  10.667 -0.0563 -0.1358  0.2716
  501TMC3     H 7503   4.253   3.601  10.338 -0.9470  3.1187  0.8893
  501TMC3    H1 7504   4.497   3.380  10.610 -0.4160 -0.8608  0.1752
  501TMC3    H2 7505   4.680   3.645  10.351 -1.7146  2.1266  0.9877
  501TMC3    C7 7506   4.707   3.519  10.577 -0.0234 -0.4144  0.2471
  501TMC3    C8 7507   4.463   3.783  10.373  0.1169  0.5597  0.3100
  501TMC3    O1 7508   0.002   3.428  10.648 -0.0246  0.2364 -0.0790
  501TMC3    O2 7509   4.558   3.828  10.437 -0.6357 -0.1560  0.2087
  502TMC3    C1 7510   3.983   3.030  14.895 -0.4796  0.4132  0.1747
  502TMC3    C2 7511   3.953   3.161  14.862 -0.1986 -0.2618 -0.1924
  502TMC3    C3 7512   3.837   3.213  14.907  0.2600 -0.2069 -0.0596
  502TMC3    C4 7513   3.892   2.961  14.974 -0.4131 -0.1911 -0.1751
  502TMC3    C5 7514   3.780   3.025  15.017  0.2498  0.2131  0.5428
  502TMC3    C6 7515   3.751   3.156  14.992 -0.7184 -0.2399 -0.7366
  502TMC3     C 7516   4.115   3.028  14.956  0.1145 -0.6531  0.2200
  502TMC3     O 7517   4.175   3.136  14.970  0.2338 -0.2496 -0.6399
  502TMC3     H 7518   4.029   3.219  14.810 -0.5962  0.8807  0.4981
  502TMC3    H1 7519   3.897   2.854  14.989  0.8206  0.1548  1.8279
  502TMC3    H2 7520   3.670   3.207  15.042 -0.8519 -0.0653 -1.1320
  502TMC3    C7 7521   3.675   2.943  15.083 -0.5597  0.3197  0.3344
  502TMC3    C8 7522   3.832   3.356  14.906 -0.2019  0.1772  0.3061
  502TMC3    O1 7523   3.710   2.840  15.141  0.1135 -0.4155 -0.2789
  502TMC3    O2 7524   3.882   3.425  14.815  0.3271 -0.8167  0.4492
  503MPD2     C 7525   1.550   3.943  16.607  0.7796  0.4427 -0.1305
  503MPD2    C1 7526   1.591   3.956  16.742 -0.3739 -0.2952 -0.5308
  503MPD2    C2 7527   1.607   3.842  16.823  0.1221 -0.2929 -0.3569
  503MPD2    C3 7528   1.592   3.716  16.771  0.0106 -0.2594  0.2938
  503MPD2    C4 7529   1.554   3.703  16.642  0.1717  0.7575  0.0485
  503MPD2    C5 7530   1.539   3.812  16.563 -0.0246  0.1007  0.4598
  503MPD2     H 7531   1.635   3.851  16.927  1.1917 -3.5628 -0.3448
  503MPD2    H1 7532   1.524   3.605  16.609 -2.0007  1.6920 -0.7446
  503MPD2    H2 7533   1.533   4.030  16.545  1.3224 -0.4836 -1.5771
  503MPD2    H3 7534   1.489   3.803  16.467  0.4658  3.2478 -0.0981
  503MPD2     N 7535   1.612   3.605  16.856 -0.6357  0.1825  0.3529
  503MPD2    H5 7536   1.617   3.611  16.957  0.1467 -0.9282  0.3782
  503MPD2    N1 7537   1.610   4.082  16.801  0.2443 -0.0530  0.0658
  503MPD2    H7 7538   1.609   4.085  16.903 -0.2419  1.8057  0.0085
  504TMC3    C1 7539   1.684   3.383  16.899  0.2973  0.1358  0.2842
  504TMC3    C2 7540   1.664   3.412  17.032  0.3260 -0.3823  0.5454
  504TMC3    C3 7541   1.745   3.373  17.135 -0.9327 -0.3637  0.2542
  504TMC3    C4 7542   1.809   3.318  16.870  0.5193  0.5094 -0.1077
  504TMC3    C5 7543   1.889   3.283  16.975 -0.3928  0.0201  0.2831
  504TMC3    C6 7544   1.865   3.309  17.112 -0.0763  0.3702 -0.1942
  504TMC3     C 7545   1.636   3.479  16.801 -0.1710 -0.3090  1.1800
  504TMC3     O 7546   1.660   3.452  16.684 -0.7089  0.4764 -0.1042
  504TMC3     H 7547   1.574   3.467  17.058  0.1455 -0.4806  0.1261
  504TMC3    H1 7548   1.832   3.277  16.772 -0.6581 -0.7953  0.1726
  504TMC3    H2 7549   1.943   3.284  17.183  0.6660 -0.4642 -1.3157
  504TMC3    C7 7550   2.025   3.249  16.933  0.8912  0.0727 -0.2781
  504TMC3    C8 7551   1.736   3.449  17.259 -0.3917 -0.4906 -0.2810
  504TMC3    O1 7552   2.042   3.265  16.812  0.4964  0.5967 -0.0902
  504TMC3    O2 7553   1.685   3.556  17.249  0.3442  0.3405  0.5201
  505MPD2     C 7554   1.878   2.274   9.905  0.3520  0.6368  0.2505
  505MPD2    C1 7555   1.837   2.213  10.019 -0.0119 -0.3752  0.4616
  505MPD2    C2 7556   1.895   2.240  10.143 -0.2290 -0.6285  0.8193
  505MPD2    C3 7557   1.991   2.339  10.145 -0.5072  0.4890  0.7050
  505MPD2    C4 7558   2.033   2.406  10.025  0.4836 -0.2962  0.0902
  505MPD2    C5 7559   1.977   2.373   9.906  0.9427  0.8394 -0.2538
  505MPD2     H 7560   1.880   2.171  10.226  1.7396 -0.1481  1.5731
  505MPD2    H1 7561   2.086   2.500  10.015  0.6386 -0.4779 -0.7966
  505MPD2    H2 7562   1.832   2.257   9.808 -0.3729  1.9385  0.3599
  505MPD2    H3 7563   1.998   2.428   9.816  0.2021  0.8076 -0.4501
  505MPD2     N 7564   2.074   2.336  10.261 -0.4000  0.7741 -0.1988
  505MPD2    H5 7565   2.046   2.267  10.330 -0.4989  0.2749 -0.7361
  505MPD2    N1 7566   1.731   2.120  10.013 -0.6847  0.5207  0.2901
  505MPD2    H7 7567   1.693   2.107   9.920 -2.4392  0.6387  0.9857
  506TMC3    C1 7568   1.582   1.947  10.089 -0.2431 -0.2919  0.2450
  506TMC3    C2 7569   1.616   1.880   9.979  0.3167 -0.4663 -0.4352
  506TMC3    C3 7570   1.595   1.744   9.969 -0.0557  0.4766 -0.3937
  506TMC3    C4 7571   1.548   1.878  10.202 -0.2383  0.0661 -0.0632
  506TMC3    C5 7572   1.542   1.743  10.190 -0.0259 -0.1142  0.3470
  506TMC3    C6 7573   1.546   1.672  10.075 -0.4512  0.1404  0.2946
  506TMC3     C 7574   1.670   2.060  10.122  0.1922 -0.2039  1.0295
  506TMC3     O 7575   1.686   2.072  10.245  0.0320 -0.0619 -0.5087
  506TMC3     H 7576   1.650   1.934   9.891 -0.4016  0.0569 -0.3918
  506TMC3    H1 7577   1.526   1.931  10.294 -1.9812 -1.0588  0.1792
  506TMC3    H2 7578   1.538   1.564  10.080  2.3366 -0.0143  0.9364
  506TMC3    C7 7579   1.607   1.675  10.302  0.0067 -0.5673 -0.1537
  506TMC3    C8 7580   1.642   1.676   9.854 -0.2925 -1.0069  0.3645
  506TMC3    O1 7581   1.610   1.558  10.333 -0.2075 -0.0697 -0.2676
  506TMC3    O2 7582   1.573   1.588   9.798  0.4612 -0.3410  0.2086
  507TMC3    C1 7583   2.651   3.313  14.540 -0.3225 -0.7298  0.0497
  507TMC3    C2 7584   2.601   3.196  14.484 -0.7304 -0.8002  0.0365
  507TMC3    C3 7585   2.552   3.193  14.357 -1.2109 -0.4991  0.1387
  507TMC3    C4 7586   2.671   3.419  14.461  0.0334 -0.1888 -0.5536
  507TMC3    C5 7587   2.635   3.418  14.326 -0.2459  0.5153 -0.3535
  507TMC3    C6 7588   2.576   3.305  14.279 -0.1154  0.5310 -0.4512
  507TMC3     C 7589   2.593   3.356  14.664 -0.5289  0.0286  0.3337
  507TMC3     O 7590   2.635   3.461  14.717 -0.4385 -0.5128 -0.2813
  507TMC3     H 7591   2.595   3.110  14.551 -0.3925 -0.9293 -0.1005
  507TMC3    H1 7592   2.719   3.504  14.507 -3.1076  1.2282  0.0702
  507TMC3    H2 7593   2.543   3.311  14.176 -5.3202  0.7923  1.2207
  507TMC3    C7 7594   2.545   3.529  14.284  0.0318  0.5489 -0.6459
  507TMC3    C8 7595   2.419   3.152  14.379  0.4605  0.5764  0.2259
  507TMC3    O1 7596   2.442   3.492  14.231  0.3365 -0.6936 -0.0340
  507TMC3    O2 7597   2.404   3.064  14.461  0.5420 -0.2836  0.0750
  508MPD2     C 7598   3.606   0.405  15.842 -0.0811 -0.8913 -0.1392
  508MPD2    C1 7599   3.568   0.507  15.924  0.0369 -0.1487  0.1917
  508MPD2    C2 7600   3.550   0.637  15.873 -0.0071 -0.1242  0.7311
  508MPD2    C3 7601   3.556   0.655  15.736  0.3876  0.5353  0.6456
  508MPD2    C4 7602   3.576   0.546  15.652 -0.1457  0.1607 -0.6322
  508MPD2    C5 7603   3.610   0.423  15.708  0.7174 -0.7422 -0.7056
  508MPD2     H 7604   3.528   0.721  15.938 -0.3849 -0.2488  0.7655
  508MPD2    H1 7605   3.591   0.551  15.545  0.4190 -0.0119 -0.5642
  508MPD2    H2 7606   3.628   0.304  15.872  0.2467  0.1293  3.1144
  508MPD2    H3 7607   3.618   0.336  15.644 -2.9867 -1.4839 -0.1173
  508MPD2     N 7608   3.555   0.782  15.685 -0.1892 -0.6099 -0.0227
  508MPD2    H5 7609   3.561   0.861  15.749  0.8310 -0.7319  0.0342
  508MPD2    N1 7610   3.561   0.481  16.066  0.5593 -0.3043  0.3962
  508MPD2    H7 7611   3.594   0.391  16.102  1.0493 -0.6026 -0.8186
  509TMC3    C1 7612   3.394   1.142  15.446 -0.1197  0.1745  0.4758
  509TMC3    C2 7613   3.435   1.229  15.548  1.2048 -0.3163 -0.3111
  509TMC3    C3 7614   3.533   1.174  15.633  0.0632  0.2396  0.1296
  509TMC3    C4 7615   3.444   1.011  15.440 -0.2690  0.2638 -0.5519
  509TMC3    C5 7616   3.534   0.966  15.533 -0.1441 -0.6176  0.3786
  509TMC3    C6 7617   3.584   1.044  15.633 -0.7031 -0.5576 -0.1059
  509TMC3     C 7618   3.287   1.179  15.352 -0.2580 -0.1302 -0.1310
  509TMC3     O 7619   3.246   1.089  15.275 -0.4123 -0.3119 -0.1957
  509TMC3     H 7620   3.406   1.334  15.551  1.3342 -0.2807 -0.3334
  509TMC3    H1 7621   3.419   0.948  15.355 -1.8015  0.7907 -0.4837
  509TMC3    H2 7622   3.665   1.007  15.695  0.1260  1.9560  0.3331
  509TMC3    C7 7623   3.535   0.820  15.552 -0.2930  0.2309 -0.7147
  509TMC3    C8 7624   3.630   1.252  15.696  0.9894 -0.6226 -0.3966
  509TMC3    O1 7625   3.500   0.750  15.459 -0.1689 -0.5778  0.1736
  509TMC3    O2 7626   3.683   1.202  15.795  0.9060  0.8208 -0.1709
  510MPD2     C 7627   1.216   2.480  15.049 -0.6252  0.3741 -0.8348
  510MPD2    C1 7628   1.266   2.368  15.115  0.6197 -0.5439 -0.4021
  510MPD2    C2 7629   1.393   2.321  15.090  0.6263  0.3400 -0.3831
  510MPD2    C3 7630   1.477   2.395  15.004  0.7501  0.1753 -0.3648
  510MPD2    C4 7631   1.426   2.505  14.944 -0.3528 -0.0786 -0.8592
  510MPD2    C5 7632   1.296   2.544  14.963  1.2489 -0.6705 -0.1717
  510MPD2     H 7633   1.434   2.237  15.145 -1.9018  0.2890  1.4401
  510MPD2    H1 7634   1.475   2.546  14.856 -0.0472  1.2290 -0.0653
  510MPD2    H2 7635   1.116   2.516  15.069 -0.2666  1.9474 -1.8723
  510MPD2    H3 7636   1.264   2.624  14.897  0.7959  0.3303  1.2673
  510MPD2     N 7637   1.604   2.338  14.973  0.5531  0.3408  0.2197
  510MPD2    H5 7638   1.621   2.255  15.029 -0.1444  1.4196  2.0605
  510MPD2    N1 7639   1.180   2.304  15.216 -0.3276  0.9855 -0.1691
  510MPD2    H7 7640   1.085   2.338  15.226 -0.8996 -0.3954 -0.9291
  511TMC3    C1 7641   1.089   2.123  15.323  0.6370 -0.0178  0.0814
  511TMC3    C2 7642   1.010   2.189  15.407  0.4226 -0.0289 -0.2762
  511TMC3    C3 7643   0.894   2.124  15.449 -0.1729  0.2556  0.3725
  511TMC3    C4 7644   1.064   1.998  15.275 -0.7199  0.1911  0.3848
  511TMC3    C5 7645   0.954   1.928  15.328  0.0202 -0.0086  0.2912
  511TMC3    C6 7646   0.871   1.992  15.420 -0.1577 -0.9012  0.3933
  511TMC3     C 7647   1.207   2.184  15.266 -0.4615 -0.8007 -0.1895
  511TMC3     O 7648   1.293   2.097  15.246  0.3892  0.2194 -0.1572
  511TMC3     H 7649   1.021   2.296  15.416  3.0030 -0.0365 -3.5165
  511TMC3    H1 7650   1.133   1.944  15.212  0.7174  0.8657  1.3949
  511TMC3    H2 7651   0.786   1.940  15.464 -1.0079 -0.7590 -1.0912
  511TMC3    C7 7652   0.928   1.800  15.268  0.3390  0.4846 -0.1349
  511TMC3    C8 7653   0.803   2.197  15.540  0.4760 -0.6135 -0.1528
  511TMC3    O1 7654   1.008   1.761  15.188  0.0605  0.2933  0.1457
  511TMC3    O2 7655   0.849   2.294  15.596  0.0336 -0.1235 -0.0365
  512TMC3    C1 7656   0.236   1.085  14.046  0.0224 -0.1110  0.1602
  512TMC3    C2 7657   0.358   1.136  14.074 -0.2189  0.0863  0.3609
  512TMC3    C3 7658   0.473   1.059  14.062 -0.1874 -0.3336 -0.4430
  512TMC3    C4 7659   0.225   0.963  13.988 -0.2329 -0.3736  0.4332
  512TMC3    C5 7660   0.338   0.880  13.982 -0.4571  0.1574 -0.4585
  512TMC3    C6 7661   0.458   0.927  14.020 -0.6526 -0.7187  0.1590
  512TMC3     C 7662   0.129   1.188  14.048  0.1177  0.4069 -0.0458
  512TMC3     O 7663   0.148   1.300  14.093 -0.8193  0.3621 -0.2780
  512TMC3     H 7664   0.367   1.233  14.122  2.0870  0.3195 -0.5642
  512TMC3    H1 7665   0.131   0.909  13.988  0.0627 -0.9050  1.4140
  512TMC3    H2 7666   0.547   0.865  14.031 -0.5428 -0.7138 -0.7217
  512TMC3    C7 7667   0.320   0.738  13.961 -0.5339 -0.1074 -0.0520
  512TMC3    C8 7668   0.594   1.109  14.127  0.1800 -0.8465 -0.4214
  512TMC3    O1 7669   0.414   0.671  13.996 -0.1049  0.3256 -0.2234
  512TMC3    O2 7670   0.680   1.027  14.160  0.7532  0.3527 -0.3232
  513MPD2     C 7671   2.266   2.074  13.131 -0.1248  0.6202  0.2588
  513MPD2    C1 7672   2.179   1.973  13.177  0.2763  0.1554 -0.7952
  513MPD2    C2 7673   2.180   1.956  13.314  0.0941 -0.3307 -0.0993
  513MPD2    C3 7674   2.261   2.036  13.397 -0.1731 -0.3005  0.1160
  513MPD2    C4 7675   2.357   2.121  13.345 -0.9245  0.5375  0.2542
  513MPD2    C5 7676   2.353   2.140  13.215 -0.2605 -0.5493 -0.2250
  513MPD2     H 7677   2.117   1.884  13.364  0.9621 -0.8195  0.2834
  513MPD2    H1 7678   2.416   2.187  13.407  1.3912 -2.0499  0.8097
  513MPD2    H2 7679   2.285   2.098  13.027 -1.1966  0.2544 -0.0273
  513MPD2    H3 7680   2.416   2.216  13.170 -1.0203  0.0950 -0.2016
  513MPD2     N 7681   2.249   2.004  13.530  0.2965  0.3552 -0.3654
  513MPD2    H5 7682   2.205   1.914  13.540 -1.6709  1.0694 -2.7157
  513MPD2    N1 7683   2.115   1.882  13.085  0.0399  0.3100 -0.0023
  513MPD2    H7 7684   2.138   1.879  12.987  0.1934 -2.6661  0.1245
  514TMC3    C1 7685   1.960   1.710  13.020  0.1234 -0.3374 -0.4088
  514TMC3    C2 7686   2.049   1.656  12.923 -0.0064  0.1867  0.5052
  514TMC3    C3 7687   2.027   1.523  12.886  0.1217 -0.6016 -0.2883
  514TMC3    C4 7688   1.849   1.644  13.057 -0.1437  0.0444 -1.0209
  514TMC3    C5 7689   1.849   1.508  13.035  0.4488 -0.2886 -0.0293
  514TMC3    C6 7690   1.944   1.446  12.955  0.0418  0.0114  0.2944
  514TMC3     C 7691   2.013   1.800  13.122  0.5021 -0.3436  0.0780
  514TMC3     O 7692   1.949   1.815  13.226 -0.1098 -0.3032 -0.5769
  514TMC3     H 7693   2.136   1.709  12.886 -1.1780  1.9516  0.2747
  514TMC3    H1 7694   1.780   1.689  13.129 -2.8842 -1.7802 -2.5239
  514TMC3    H2 7695   1.943   1.337  12.951  0.2321 -0.0191  1.1169
  514TMC3    C7 7696   1.811   1.441  13.155 -0.0728 -0.8221  0.8675
  514TMC3    C8 7697   2.090   1.450  12.781 -1.0405  0.2997  0.2337
  514TMC3    O1 7698   1.772   1.327  13.146  0.4506 -0.3397 -0.1594
  514TMC3    O2 7699   2.095   1.330  12.804  0.1356  0.2129  0.1021
  515MPD2     C 7700   0.037   3.701  14.722  0.1746  0.5191 -0.0219
  515MPD2    C1 7701   0.119   3.585  14.704  0.0140  0.5444  0.0490
  515MPD2    C2 7702   0.227   3.563  14.784  0.2673 -0.2695 -0.1811
  515MPD2    C3 7703   0.257   3.649  14.885 -0.0059 -0.1802 -0.0339
  515MPD2    C4 7704   0.167   3.751  14.916  0.0372 -0.3475  0.6241
  515MPD2    C5 7705   0.063   3.779  14.833  1.0306  0.0050 -0.6110
  515MPD2     H 7706   0.280   3.470  14.767  0.5076 -0.1370 -0.1436
  515MPD2    H1 7707   0.180   3.824  14.995  1.8617  0.9696 -0.8966
  515MPD2    H2 7708   4.695   3.736  14.659  1.1525  3.2164  0.2297
  515MPD2    H3 7709   0.017   3.874  14.856  0.6298 -0.3103 -0.1123
  515MPD2     N 7710   0.375   3.648  14.964 -0.1358  0.0647  0.2707
  515MPD2    H5 7711   0.381   3.712  15.042  3.6050  1.8485 -1.4605
  515MPD2    N1 7712   0.102   3.490  14.599  0.2389  0.4093 -0.1767
  515MPD2    H7 7713   0.166   3.412  14.608  0.7993  0.9563  0.5438
  516TMC3    C1 7714   4.711   3.364  14.447 -0.1826  1.1123  0.2769
  516TMC3    C2 7715   4.614   3.369  14.355  0.4600  0.2957  0.3988
  516TMC3    C3 7716   4.553   3.248  14.311 -0.3553 -1.2622 -0.4286
  516TMC3    C4 7717   4.737   3.248  14.516 -0.0576 -0.8786 -0.1767
  516TMC3    C5 7718   4.665   3.133  14.476 -0.9734  0.4788  0.3777
  516TMC3    C6 7719   4.563   3.133  14.383 -0.2773  0.6858  0.5777
  516TMC3     C 7720   0.008   3.499  14.498  0.8001 -0.2863 -0.8239
  516TMC3     O 7721   4.687   3.601  14.462 -0.0680  0.8089 -0.5691
  516TMC3     H 7722   4.599   3.459  14.297 -0.6247  0.2226  0.5650
  516TMC3    H1 7723   0.058   3.242  14.607  0.3361  2.1482 -0.2533
  516TMC3    H2 7724   4.506   3.044  14.356  1.2138 -0.9879  2.8606
  516TMC3    C7 7725   4.681   3.010  14.567  0.2651  0.6765 -0.3409
  516TMC3    C8 7726   4.472   3.257  14.193 -1.2675 -0.1702  0.7192
  516TMC3    O1 7727   0.000   3.023  14.674  0.3439 -0.4022  0.7752
  516TMC3    O2 7728   4.444   3.374  14.155  0.1879  0.0879 -0.4869
  517MPD2     C 7729   0.004   0.435   0.032  0.1393  0.3840  0.2274
  517MPD2    C1 7730   0.133   0.406   0.067 -0.3330 -0.1885 -0.4740
  517MPD2    C2 7731   0.207   0.495   0.142  0.0830  0.5669  0.0869
  517MPD2    C3 7732   0.147   0.604   0.190 -0.3625 -0.3412  0.3194
  517MPD2    C4 7733   0.019   0.634   0.154 -0.1696  0.0258 -0.1202
  517MPD2    C5 7734   4.687   0.551   0.076 -0.0270  0.0410  0.4227
  517MPD2     H 7735   0.311   0.475   0.165 -0.0211 -1.8765 -1.5018
  517MPD2    H1 7736   4.716   0.725   0.198 -1.3422 -0.7591  0.3835
  517MPD2    H2 7737   4.687   0.362  17.728  1.4655  1.3726 -2.2978
  517MPD2    H3 7738   4.584   0.575   0.051  0.0395  1.0678  1.1328
  517MPD2     N 7739   0.213   0.700   0.276  0.0175 -0.2234  0.7616
  517MPD2    H5 7740   0.153   0.780   0.295 -0.0198 -0.3420  1.1369
  517MPD2    N1 7741   0.195   0.281   0.035 -0.3869 -0.0176 -0.2056
  517MPD2    H7 7742   0.293   0.263   0.054 -0.5913  0.2337  1.0598
  518TMC3    C1 7743   0.229   0.065  17.715  0.7432 -0.3648  0.9359
  518TMC3    C2 7744   0.192   4.675  17.740 -0.1154 -0.3138 -0.1399
  518TMC3    C3 7745   0.282   4.576  17.702  0.0741  0.4744  0.5547
  518TMC3    C4 7746   0.350   0.091  17.661 -0.0209 -0.7161 -0.2194
  518TMC3    C5 7747   0.428   4.730  17.612  0.3667  0.0532  0.9270
  518TMC3    C6 7748   0.398   4.597  17.631 -0.2272 -0.3784 -0.5083
  518TMC3     C 7749   0.131   0.170  17.742 -0.2737  0.3818 -0.6304
  518TMC3     O 7750   0.015   0.157  17.708 -0.3423 -0.5051  0.1708
  518TMC3     H 7751   0.095   4.669   0.033  0.2427 -2.6605  0.3432
  518TMC3    H1 7752   0.375   0.192  17.633  0.6273 -1.1705 -1.3033
  518TMC3    H2 7753   0.472   4.518  17.627  1.1267  0.9563 -1.9007
  518TMC3    C7 7754   0.552   0.024  17.545  0.7119  0.6868 -0.4395
  518TMC3    C8 7755   0.236   4.437  17.704  0.1425 -0.5606  0.5990
  518TMC3    O1 7756   0.591   0.140  17.541 -0.6044  0.2704  0.3466
  518TMC3    O2 7757   0.316   4.347  17.674 -0.3960 -0.2143 -1.0085
  519MPD2     C 7758   1.586   3.073  14.461  0.0640  1.0988  0.1104
  519MPD2    C1 7759   1.523   3.117  14.348 -0.7170 -0.6083 -0.2252
  519MPD2    C2 7760   1.573   3.084  14.228  0.0788 -0.4020  0.0062
  519MPD2    C3 7761   1.677   2.998  14.215  0.2110  0.1584 -0.1292
  519MPD2    C4 7762   1.739   2.955  14.329 -0.0507 -0.4163  0.1608
  519MPD2    C5 7763   1.693   2.988  14.451  0.7777 -0.3130 -0.1174
  519MPD2     H 7764   1.536   3.115  14.131 -0.7491  0.7418  0.6842
  519MPD2    H1 7765   1.823   2.886  14.318  0.0594 -0.1382 -0.7312
  519MPD2    H2 7766   1.549   3.090  14.561  1.1628  0.4746  0.6162
  519MPD2    H3 7767   1.727   2.939  14.541  0.8767 -1.1528 -0.6088
  519MPD2     N 7768   1.729   2.950  14.087  0.0609  0.3702 -0.0443
  519MPD2    H5 7769   1.816   2.898  14.096  1.4002  2.5875 -0.2366
  519MPD2    N1 7770   1.396   3.181  14.355  0.7468 -0.3157 -0.1882
  519MPD2    H7 7771   1.359   3.208  14.446 -0.8145 -0.5499 -0.7572
  520TMC3    C1 7772   1.764   2.908  13.862 -0.1299 -0.3608  0.6980
  520TMC3    C2 7773   1.717   2.899  13.736  0.8125  0.6995 -0.3580
  520TMC3    C3 7774   1.788   2.825  13.649  0.2371  0.4515 -0.1852
  520TMC3    C4 7775   1.890   2.861  13.883 -0.1943  0.0934 -0.2395
  520TMC3    C5 7776   1.962   2.793  13.794  0.1020  0.1945 -0.6572
  520TMC3    C6 7777   1.901   2.760  13.674 -0.1880  0.1976 -0.4090
  520TMC3     C 7778   1.677   2.973  13.963 -0.0262 -0.2202  0.1067
  520TMC3     O 7779   1.581   3.039  13.928  0.0656  0.1137 -0.1066
  520TMC3     H 7780   1.652   2.979  13.702  2.0937  2.0805  0.4930
  520TMC3    H1 7781   1.940   2.877  13.978 -0.7600  0.5970 -0.0222
  520TMC3    H2 7782   1.947   2.702  13.595 -0.6029 -1.1430  0.3225
  520TMC3    C7 7783   2.105   2.759  13.817  0.5224  0.7523 -0.0426
  520TMC3    C8 7784   1.713   2.789  13.528 -0.2113 -0.0309  0.1917
  520TMC3    O1 7785   2.160   2.832  13.893 -0.0827 -0.0551 -0.0820
  520TMC3    O2 7786   1.768   2.732  13.437  0.0708  0.2123  0.2304
  521MPD2     C 7787   2.897   1.391   0.035 -0.7747  0.3933 -0.0702
  521MPD2    C1 7788   2.855   1.284  17.722  0.1875 -0.2051 -0.4333
  521MPD2    C2 7789   2.929   1.233  17.620  0.1923 -1.0854  0.1412
  521MPD2    C3 7790   3.030   1.302  17.561  0.1912 -0.5347  0.4702
  521MPD2    C4 7791   3.067   1.423  17.621  0.1925 -0.4947  0.1277
  521MPD2    C5 7792   3.013   1.449  17.746 -0.0244 -0.4843 -0.0463
  521MPD2     H 7793   2.909   1.135  17.578  0.2547 -1.3929  0.8358
  521MPD2    H1 7794   3.161   1.472  17.601  0.8187 -1.9219 -0.4330
  521MPD2    H2 7795   2.856   1.426   0.130  0.0268  2.7698 -0.6115
  521MPD2    H3 7796   3.066   1.517   0.059 -0.2346 -1.5507  1.2136
  521MPD2     N 7797   3.092   1.247  17.446  0.6451 -0.3441 -0.7874
  521MPD2    H5 7798   3.056   1.162  17.402  0.1479 -1.7722  2.3608
  521MPD2    N1 7799   2.725   1.231  17.751  0.1486  0.2559  0.0041
  521MPD2    H7 7800   2.659   1.286   0.052  2.5397  0.7171  2.4326
  522TMC3    C1 7801   3.215   1.233  17.248  0.2849  0.0727  1.0535
  522TMC3    C2 7802   3.209   1.099  17.249  0.0416  0.4105  0.7650
  522TMC3    C3 7803   3.221   1.030  17.133 -0.1611  0.3923  0.0658
  522TMC3    C4 7804   3.231   1.303  17.131  0.1055 -0.2356 -0.0546
  522TMC3    C5 7805   3.243   1.228  17.015  0.5528 -0.0702  0.5241
  522TMC3    C6 7806   3.239   1.091  17.011 -0.4748 -0.6441 -0.3920
  522TMC3     C 7807   3.176   1.313  17.360  0.7875 -0.6618 -0.0240
  522TMC3     O 7808   3.201   1.434  17.357  0.6733  0.5371  0.2034
  522TMC3     H 7809   3.212   1.048  17.345 -1.1325  2.0848  1.6928
  522TMC3    H1 7810   3.264   1.406  17.136  2.0185 -0.7601 -1.8496
  522TMC3    H2 7811   3.236   1.042  16.914 -1.0023 -0.2240 -0.5895
  522TMC3    C7 7812   3.211   1.286  16.887  0.0000 -0.5828 -0.5934
  522TMC3    C8 7813   3.227   0.885  17.143 -0.7832 -0.1887  0.6556
  522TMC3    O1 7814   3.244   1.221  16.791  0.1412 -0.0236 -0.0235
  522TMC3    O2 7815   3.187   0.833  17.247  0.3515  0.0568 -0.5156
  523MPD2     C 7816   4.003   4.577   9.865  0.0323  0.3956  0.5114
  523MPD2    C1 7817   4.105   4.652   9.924 -1.2171  0.2417 -0.3399
  523MPD2    C2 7818   4.136   0.043   9.876 -0.1200 -0.2205 -0.1857
  523MPD2    C3 7819   4.054   0.095   9.770 -0.1476  0.1393  0.0963
  523MPD2    C4 7820   3.961   0.015   9.707  0.0079  0.2547  0.8871
  523MPD2    C5 7821   3.948   4.621   9.747  1.0113 -0.1250  0.2145
  523MPD2     H 7822   4.221   0.098   9.914 -0.3050 -0.9539  1.2967
  523MPD2    H1 7823   3.897   0.043   9.624  0.1803  0.3820  0.7967
  523MPD2    H2 7824   3.984   4.475   9.895 -0.5040  0.7200  1.2860
  523MPD2    H3 7825   3.885   4.554   9.690 -0.3889  1.8885 -0.6123
  523MPD2     N 7826   4.067   0.227   9.711 -0.2891  0.1268  0.0251
  523MPD2    H5 7827   3.993   0.254   9.647  0.5521  0.8816 -0.6499
  523MPD2    N1 7828   4.172   4.603  10.040 -0.1899 -0.1534 -0.1929
  523MPD2    H7 7829   4.248   4.655  10.084 -1.0848 -1.8365  3.3782
  524TMC3    C1 7830   4.138   0.449   9.693  0.5794  0.6670  0.8935
  524TMC3    C2 7831   4.057   0.457   9.579  0.5929 -0.1285  0.4235
  524TMC3    C3 7832   4.043   0.577   9.516 -0.4063  0.0847 -1.1156
  524TMC3    C4 7833   4.194   0.555   9.756 -0.5186  0.3318  0.1860
  524TMC3    C5 7834   4.178   0.671   9.688  0.5420  0.1956 -0.3812
  524TMC3    C6 7835   4.106   0.691   9.569  1.0483 -0.1304  1.0656
  524TMC3     C 7836   4.154   0.321   9.759 -0.0942  0.7291 -0.4084
  524TMC3     O 7837   4.259   0.299   9.817  0.3295 -0.0580 -0.3327
  524TMC3     H 7838   4.031   0.365   9.527 -1.0926 -0.0931  1.2062
  524TMC3    H1 7839   4.254   0.540   9.845 -2.4220 -0.5144  1.3450
  524TMC3    H2 7840   4.104   0.786   9.517 -0.4137 -1.1309 -0.7089
  524TMC3    C7 7841   4.243   0.793   9.742 -0.0060  0.3635  0.2387
  524TMC3    C8 7842   3.946   0.601   9.411  0.2027  0.1050 -0.2853
  524TMC3    O1 7843   4.345   0.781   9.810 -0.0779 -0.0076  0.2787
  524TMC3    O2 7844   3.921   0.718   9.395  0.3634 -0.2963 -0.0564
  525MPD2     C 7845   2.870   2.956  14.260  0.1418 -0.4176  0.0454
  525MPD2    C1 7846   2.949   3.037  14.333  0.0343 -0.4776 -0.3551
  525MPD2    C2 7847   2.980   3.163  14.278  0.1446  0.0526  0.2365
  525MPD2    C3 7848   2.946   3.200  14.153  0.6301 -0.2653  0.2306
  525MPD2    C4 7849   2.855   3.118  14.089  0.3594 -0.6622  0.3913
  525MPD2    C5 7850   2.818   2.999  14.144 -0.1074  0.0124 -0.1819
  525MPD2     H 7851   3.054   3.225  14.328  1.8998 -1.6133 -0.2630
  525MPD2    H1 7852   2.806   3.152  13.998 -0.2450 -1.7906  0.2973
  525MPD2    H2 7853   2.834   2.859  14.295 -2.3430 -0.6585 -3.1841
  525MPD2    H3 7854   2.743   2.945  14.088 -0.9098 -0.4022  1.2842
  525MPD2     N 7855   2.980   3.331  14.111  1.0116 -0.4647  0.5145
  525MPD2    H5 7856   2.930   3.368  14.031  1.6543  0.9027  0.7522
  525MPD2    N1 7857   3.013   2.993  14.455  0.3472 -0.0929  0.7019
  525MPD2    H7 7858   3.098   3.043  14.480 -0.4720  0.9029  1.5016
  526TMC3    C1 7859   3.071   2.858  14.621 -1.2631  0.3224  0.2948
  526TMC3    C2 7860   3.013   2.809  14.738 -0.0546  0.5272  0.5539
  526TMC3    C3 7861   3.090   2.816  14.853  0.5590  0.3692 -0.0943
  526TMC3    C4 7862   3.192   2.914  14.622  0.2991  0.0172  0.4533
  526TMC3    C5 7863   3.264   2.910  14.734 -0.2719  0.5413 -0.2758
  526TMC3    C6 7864   3.219   2.854  14.850  0.1652  0.7118  0.2014
  526TMC3     C 7865   2.974   2.884  14.518 -0.2444  0.4397 -0.2209
  526TMC3     O 7866   2.867   2.825  14.522  0.2556  0.2776 -0.2079
  526TMC3     H 7867   2.913   2.767  14.739  0.9695 -1.9260 -0.2587
  526TMC3    H1 7868   3.242   2.960  14.537 -0.5193  1.2239  0.6375
  526TMC3    H2 7869   3.287   2.869  14.933  0.2953 -1.1244  0.4317
  526TMC3    C7 7870   3.412   2.916  14.722  0.2413  0.8634  0.1472
  526TMC3    C8 7871   3.031   2.804  14.988 -0.1090 -0.7369  0.7765
  526TMC3    O1 7872   3.451   3.009  14.655  0.0925  0.1069  0.2073
  526TMC3    O2 7873   3.118   2.815  15.077 -0.6887 -0.2990 -0.0015
  527MPD2     C 7874   0.705   0.314   1.386  0.4950  0.0939  0.6759
  527MPD2    C1 7875   0.747   0.423   1.313 -0.0173  0.0507  0.4490
  527MPD2    C2 7876   0.879   0.444   1.280  0.2469 -0.0136  0.0546
  527MPD2    C3 7877   0.974   0.347   1.315  0.5933 -0.0133  0.1878
  527MPD2    C4 7878   0.936   0.241   1.392  0.3368  0.1390 -0.4628
  527MPD2    C5 7879   0.807   0.224   1.420  0.1949  0.6448 -0.1293
  527MPD2     H 7880   0.914   0.530   1.223  1.5258 -1.0040 -0.6406
  527MPD2    H1 7881   0.990   0.148   1.407  0.8005  0.2484 -1.4508
  527MPD2    H2 7882   0.603   0.301   1.417 -0.1549 -0.6613 -1.7627
  527MPD2    H3 7883   0.778   0.148   1.491  0.2341  0.0967 -0.6910
  527MPD2     N 7884   1.103   0.370   1.273  0.2245  0.0839 -0.1289
  527MPD2    H5 7885   1.122   0.455   1.221 -0.8457 -0.4623 -1.3983
  527MPD2    N1 7886   0.656   0.525   1.277  0.1506  0.2063  0.4776
  527MPD2    H7 7887   0.691   0.590   1.207 -1.3983  1.5423  0.9578
  528TMC3    C1 7888   0.449   0.655   1.241 -0.0616  1.1686  0.2312
  528TMC3    C2 7889   0.525   0.764   1.191  0.2930  0.3524  0.0714
  528TMC3    C3 7890   0.468   0.851   1.102 -0.2539 -0.2591 -0.2398
  528TMC3    C4 7891   0.321   0.635   1.207  0.3190 -0.5727 -0.1167
  528TMC3    C5 7892   0.271   0.733   1.111 -0.1088 -0.0813  0.1307
  528TMC3    C6 7893   0.344   0.836   1.053  0.2485  0.2887  0.1152
  528TMC3     C 7894   0.522   0.536   1.302  0.0746 -0.0136 -0.1935
  528TMC3     O 7895   0.458   0.454   1.364  0.5500  0.1667  0.4320
  528TMC3     H 7896   0.627   0.782   1.223  0.5519 -1.1441  0.1110
  528TMC3    H1 7897   0.264   0.550   1.242 -1.8776  0.3660 -1.4686
  528TMC3    H2 7898   0.297   0.910   0.990  1.6324 -0.3171 -1.6145
  528TMC3    C7 7899   0.142   0.710   1.051  0.3124  0.1785  0.2556
  528TMC3    C8 7900   0.560   0.945   1.043  0.5381 -0.2987  0.3485
  528TMC3    O1 7901   0.081   0.807   1.012  0.2011  0.0497 -0.2913
  528TMC3    O2 7902   0.675   0.908   1.037  0.5265  0.6295  0.2018
  529MPD2     C 7903   3.998   4.161   1.329 -0.6140  0.0704  0.0866
  529MPD2    C1 7904   3.969   4.039   1.258 -0.0045  1.0725  0.2269
  529MPD2    C2 7905   3.899   4.062   1.138  0.1266  0.0115  0.6427
  529MPD2    C3 7906   3.866   4.187   1.082 -0.2899 -0.0493 -0.3270
  529MPD2    C4 7907   3.911   4.293   1.151  0.2608  0.4275  0.5660
  529MPD2    C5 7908   3.972   4.279   1.275 -0.1579 -0.0579 -0.0294
  529MPD2     H 7909   3.872   3.973   1.082 -1.3674  2.0325 -1.8071
  529MPD2    H1 7910   3.895   4.397   1.126 -0.9105  0.0610 -0.1803
  529MPD2    H2 7911   4.041   4.166   1.428  0.0211 -0.4747 -0.1552
  529MPD2    H3 7912   3.987   4.370   1.332  0.3096  1.1553 -2.0701
  529MPD2     N 7913   3.785   4.213   0.966 -0.2403 -0.2513  0.1044
  529MPD2    H5 7914   3.753   4.308   0.951 -0.4681 -0.3179  0.1778
  529MPD2    N1 7915   3.980   3.910   1.305 -0.2302  0.6723 -0.3666
  529MPD2    H7 7916   3.962   3.829   1.246  0.2617  0.9680 -0.9211
  530TMC3    C1 7917   4.074   3.728   1.426  0.0081  1.1149 -0.1635
  530TMC3    C2 7918   4.177   3.682   1.494 -0.3015  0.5208  0.3480
  530TMC3    C3 7919   4.202   3.551   1.495 -0.3810 -0.2512  0.6807
  530TMC3    C4 7920   3.986   3.642   1.369  0.1916 -0.3538  0.1626
  530TMC3    C5 7921   4.007   3.507   1.390 -0.1780 -0.2358  0.1562
  530TMC3    C6 7922   4.116   3.456   1.455  0.8431 -0.0578  0.3741
  530TMC3     C 7923   4.056   3.872   1.418 -0.7666  0.2420 -0.1800
  530TMC3     O 7924   4.107   3.945   1.499  0.4658  0.1011 -0.3177
  530TMC3     H 7925   4.250   3.753   1.533  0.7279 -0.8811  0.9636
  530TMC3    H1 7926   3.891   3.688   1.346  0.0742  0.0543  1.4420
  530TMC3    H2 7927   4.126   3.351   1.479  0.8417 -0.0359  0.4684
  530TMC3    C7 7928   3.893   3.421   1.356  0.1940  0.1076 -0.2620
  530TMC3    C8 7929   4.266   3.514   1.615 -0.1069 -0.3849 -0.6433
  530TMC3    O1 7930   3.902   3.307   1.398  0.0528  0.1316  0.6851
  530TMC3    O2 7931   4.228   3.570   1.719  0.5602  0.3146  0.8542
  531MPD2     C 7932   1.889   1.403  13.655 -0.1370  0.9934  0.4664
  531MPD2    C1 7933   1.941   1.518  13.610 -0.1528 -0.0942  0.9038
  531MPD2    C2 7934   1.920   1.563  13.482  0.0901  0.2809  0.0783
  531MPD2    C3 7935   1.854   1.479  13.398 -0.5388 -0.5794  0.3344
  531MPD2    C4 7936   1.798   1.359  13.441 -0.3103  0.5873 -0.6670
  531MPD2    C5 7937   1.811   1.325  13.572  0.3987  0.9660 -0.5258
  531MPD2     H 7938   1.956   1.656  13.438  0.7060  0.3627  0.7516
  531MPD2    H1 7939   1.737   1.300  13.374  0.0688 -0.4341 -0.1080
  531MPD2    H2 7940   1.900   1.370  13.757  0.9401 -0.8110 -0.2392
  531MPD2    H3 7941   1.756   1.239  13.609  0.2845  0.2601 -2.3544
  531MPD2     N 7942   1.853   1.519  13.265 -0.3917 -0.0033  0.1897
  531MPD2    H5 7943   1.891   1.610  13.240  0.7967 -0.6213 -0.2748
  531MPD2    N1 7944   2.024   1.594  13.700  0.0380 -0.0767  0.1733
  531MPD2    H7 7945   2.030   1.574  13.799 -0.2162 -0.1819  0.1682
  532TMC3    C1 7946   2.184   1.750  13.757  0.5503 -0.2230 -0.0607
  532TMC3    C2 7947   2.187   1.884  13.748 -0.4633  0.7649 -0.4508
  532TMC3    C3 7948   2.301   1.959  13.747 -0.0850  0.0845  0.2337
  532TMC3    C4 7949   2.303   1.686  13.773  0.3453 -0.9930 -0.1144
  532TMC3    C5 7950   2.418   1.765  13.783 -0.4478  0.2140 -0.0173
  532TMC3    C6 7951   2.423   1.903  13.783  0.6147 -0.2530 -0.0892
  532TMC3     C 7952   2.103   1.691  13.657  0.2094  0.2651  0.2972
  532TMC3     O 7953   2.125   1.746  13.552 -0.2300  0.2186  0.4221
  532TMC3     H 7954   2.095   1.934  13.720  0.4525  1.4690 -2.2220
  532TMC3    H1 7955   2.306   1.578  13.779  2.0598 -0.8444  1.5523
  532TMC3    H2 7956   2.511   1.960  13.754 -0.7464  1.9080  0.0544
  532TMC3    C7 7957   2.541   1.698  13.749 -0.0656  0.0527  0.4916
  532TMC3    C8 7958   2.318   2.052  13.636 -0.5665 -0.3595  0.5178
  532TMC3    O1 7959   2.640   1.754  13.788  0.1321 -0.2512  0.3373
  532TMC3    O2 7960   2.404   2.134  13.635 -0.4613  0.0633 -0.6053
  533TMC3    C1 7961   3.075   3.552  14.112  0.5143 -0.0807  0.6439
  533TMC3    C2 7962   3.199   3.603  14.108 -0.2748  0.2918 -0.3800
  533TMC3    C3 7963   3.220   3.719  14.176  0.0301  0.0074  0.0799
  533TMC3    C4 7964   2.973   3.622  14.173 -0.2290  0.8060 -0.0592
  533TMC3    C5 7965   2.997   3.742  14.235 -0.1391  0.4587  0.1178
  533TMC3    C6 7966   3.121   3.797  14.226 -0.5571 -0.3602 -0.4674
  533TMC3     C 7967   3.085   3.410  14.155  0.0141  0.0405  0.1331
  533TMC3     O 7968   3.183   3.380  14.219 -0.0775 -0.1642  0.6036
  533TMC3     H 7969   3.271   3.528  14.075 -0.2700 -0.2133  0.7792
  533TMC3    H1 7970   2.875   3.579  14.163 -0.4282  1.2922 -0.2179
  533TMC3    H2 7971   3.142   3.890  14.278  0.2862 -0.7674 -0.0828
  533TMC3    C7 7972   2.933   3.741  14.365 -0.5247  0.0143 -0.1557
  533TMC3    C8 7973   3.355   3.741  14.226  0.0495  0.1646 -0.5400
  533TMC3    O1 7974   2.856   3.649  14.386  0.4649 -0.1287 -0.0030
  533TMC3    O2 7975   3.356   3.827  14.313 -0.8766 -0.2504  0.0158
  534MPD2     C 7976   1.955   3.356   0.943  0.5050 -0.3055 -0.3306
  534MPD2    C1 7977   1.895   3.440   1.041 -0.6830 -0.7636 -0.1850
  534MPD2    C2 7978   1.760   3.469   1.020  0.0131  0.1022  0.3028
  534MPD2    C3 7979   1.695   3.425   0.902 -0.1567 -0.1278 -0.3372
  534MPD2    C4 7980   1.756   3.342   0.808 -0.2441  0.1341 -0.5133
  534MPD2    C5 7981   1.884   3.310   0.837 -0.1984  0.5669 -0.5364
  534MPD2     H 7982   1.699   3.520   1.093 -0.1857  2.5055 -1.5497
  534MPD2    H1 7983   1.698   3.303   0.725 -2.2557  1.1721  0.4099
  534MPD2    H2 7984   2.061   3.332   0.944  0.8171  1.0284 -2.0416
  534MPD2    H3 7985   1.935   3.246   0.766 -0.2968  0.4259 -0.4800
  534MPD2     N 7986   1.557   3.454   0.873 -0.1691  0.1312 -0.0424
  534MPD2    H5 7987   1.526   3.444   0.777 -2.2767  0.5573  0.5928
  534MPD2    N1 7988   1.962   3.495   1.153 -0.3461 -0.2175  0.5545
  534MPD2    H7 7989   1.919   3.559   1.220  1.0906 -0.4053  1.6543
  535TMC3    C1 7990   1.324   3.494   0.914  0.1457 -0.4561  0.0838
  535TMC3    C2 7991   1.225   3.465   1.005 -0.4337  0.1966  0.8278
  535TMC3    C3 7992   1.096   3.460   0.954  0.0761  0.1923 -0.8507
  535TMC3    C4 7993   1.301   3.524   0.787 -0.8084 -0.4877  0.2861
  535TMC3    C5 7994   1.169   3.530   0.741  0.1591 -0.3173  0.3540
  535TMC3    C6 7995   1.069   3.493   0.825 -0.1144 -0.6301 -0.2534
  535TMC3     C 7996   1.465   3.508   0.962  0.3395  0.8751  0.1468
  535TMC3     O 7997   1.475   3.550   1.076  0.2989 -0.2780 -0.2483
  535TMC3     H 7998   1.244   3.440   1.109  1.9341 -1.1112  0.0726
  535TMC3    H1 7999   1.381   3.569   0.728 -0.3924  2.6960  3.2447
  535TMC3    H2 8000   0.966   3.499   0.791 -0.0517  1.7390  0.0255
  535TMC3    C7 8001   1.136   3.637   0.649 -0.3570 -0.3733 -0.1502
  535TMC3    C8 8002   0.978   3.433   1.032  0.1433 -0.3103  0.2435
  535TMC3    O1 8003   1.176   3.633   0.538  0.0268 -0.4350 -0.0830
  535TMC3    O2 8004   0.871   3.442   0.972  0.0604  0.3522 -0.2307
  536MPD2     C 8005   4.661   2.694  16.069  0.1244 -0.0346 -0.4573
  536MPD2    C1 8006   4.569   2.792  16.103 -0.6074 -0.2887  0.3550
  536MPD2    C2 8007   4.542   2.899  16.017  0.2357 -0.2717  0.0312
  536MPD2    C3 8008   4.626   2.911  15.908  0.4860  0.2716  1.0913
  536MPD2    C4 8009   4.724   2.813  15.874  0.1162 -0.0314  0.6633
  536MPD2    C5 8010   4.734   2.704  15.954  0.4885 -0.4746  0.4684
  536MPD2     H 8011   4.472   2.977  16.045 -1.7670 -2.5649  1.4705
  536MPD2    H1 8012   0.049   2.830  15.788 -2.2153  1.1281 -0.8321
  536MPD2    H2 8013   4.676   2.600  16.121  2.3701  0.9769  0.7295
  536MPD2    H3 8014   0.073   2.630  15.937  1.2816  0.3779  0.3625
  536MPD2     N 8015   4.616   3.036  15.841  0.1523  0.1520  0.7520
  536MPD2    H5 8016   4.547   3.103  15.872 -1.7341 -1.6183  0.3541
  536MPD2    N1 8017   4.497   2.769  16.222  0.1255 -0.1089  0.3020
  536MPD2    H7 8018   4.520   2.688  16.279 -0.1328 -1.7101 -1.8789
  537TMC3    C1 8019   4.359   2.828  16.399  0.2156  0.2905 -0.6003
  537TMC3    C2 8020   4.474   2.817  16.479 -0.0802  0.2684  0.2966
  537TMC3    C3 8021   4.447   2.772  16.607 -0.2009  0.0124 -0.6167
  537TMC3    C4 8022   4.229   2.826  16.442 -0.4262  0.1277  0.2699
  537TMC3    C5 8023   4.217   2.798  16.581  0.4400 -0.0636 -0.4781
  537TMC3    C6 8024   4.319   2.755  16.658 -0.5756  0.0488  0.1928
  537TMC3     C 8025   4.387   2.839  16.261 -0.7323 -0.3498  0.6765
  537TMC3     O 8026   4.311   2.909  16.192  0.1599 -0.6883  0.3144
  537TMC3     H 8027   4.577   2.822  16.445  0.2102  0.1393  1.1516
  537TMC3    H1 8028   4.151   2.835  16.368  0.9353 -0.8404 -1.2711
  537TMC3    H2 8029   4.319   2.736  16.764 -1.2181  1.0048  0.3592
  537TMC3    C7 8030   4.086   2.737  16.610 -0.4205 -0.1191 -0.0620
  537TMC3    C8 8031   4.551   2.753  16.704  0.1570 -0.6878  0.3316
  537TMC3    O1 8032   4.019   2.725  16.507  0.0758 -0.3243  0.2170
  537TMC3    O2 8033   4.544   2.656  16.778 -0.2424  0.4786  0.4036
  538TMC3    C1 8034   0.725   4.738  11.170  0.4121 -0.7629  0.2705
  538TMC3    C2 8035   0.821   4.735  11.073 -0.0256 -0.4359  0.1603
  538TMC3    C3 8036   0.799   0.068  10.961  0.2565  0.1357 -0.2745
  538TMC3    C4 8037   0.610   0.073  11.162  0.2725 -0.4521 -0.3039
  538TMC3    C5 8038   0.599   0.147  11.047 -0.2819  0.1414  0.1722
  538TMC3    C6 8039   0.689   0.146  10.941 -0.5493  0.6650 -0.3146
  538TMC3     C 8040   0.771   4.725  11.311  0.7220 -0.3505  0.1353
  538TMC3     O 8041   0.694   0.010  11.406  0.1372  0.4918  0.3479
  538TMC3     H 8042   0.895   4.656  11.081  1.1129  0.5189 -0.9565
  538TMC3    H1 8043   0.543   0.092  11.245 -1.0266  0.3945 -1.5502
  538TMC3    H2 8044   0.658   0.185  10.844 -1.5692 -1.0829 -0.6965
  538TMC3    C7 8045   0.509   0.253  11.043  0.4845  0.0521  0.2614
  538TMC3    C8 8046   0.878   0.043  10.842  0.2194  0.2163 -0.1653
  538TMC3    O1 8047   0.405   0.247  11.104  0.4899  0.3248 -0.7763
  538TMC3    O2 8048   0.920   4.668  10.836 -0.3449  0.1607  0.2360
  539MPD2     C 8049   0.094   4.488  12.140  0.5032  0.5552 -0.2984
  539MPD2    C1 8050   0.110   4.480  12.005  0.0408 -0.2407 -0.3749
  539MPD2    C2 8051   0.056   4.586  11.921  0.0129  0.6863  0.5274
  539MPD2    C3 8052   0.005   4.706  11.976 -0.5669  0.9445 -0.2882
  539MPD2    C4 8053   4.737   4.709  12.111  0.1734 -0.2816 -0.2463
  539MPD2    C5 8054   0.037   4.602  12.188 -1.1823  0.0186 -0.5023
  539MPD2     H 8055   0.076   4.588  11.815 -0.4574  0.4802  0.4325
  539MPD2    H1 8056   4.711   0.063  12.161  0.1190 -1.2049  1.4608
  539MPD2    H2 8057   0.137   4.417  12.210 -0.7537  0.1035  0.0216
  539MPD2    H3 8058   0.026   4.608  12.296  1.4608 -1.4665 -0.1557
  539MPD2     N 8059   4.688   0.080  11.908 -0.2201 -0.4206  0.3024
  539MPD2    H5 8060   4.647   0.153  11.966 -0.6761 -0.5658  0.1686
  539MPD2    N1 8061   0.172   4.370  11.935 -0.3198 -0.1727  0.3153
  539MPD2    H7 8062   0.162   4.366  11.834  0.5138 -0.5257  0.2423
  540TMC3    C1 8063   4.616   0.215  11.731 -0.2508  0.2302  0.1766
  540TMC3    C2 8064   4.572   0.222  11.608 -0.2643 -0.1318  0.3309
  540TMC3    C3 8065   4.539   0.350  11.555 -0.3266  0.1912 -0.6057
  540TMC3    C4 8066   4.658   0.326  11.807  0.4928 -0.2593 -1.1889
  540TMC3    C5 8067   4.628   0.452  11.760  0.1283 -0.4801  0.7041
  540TMC3    C6 8068   4.566   0.464  11.631 -1.0226 -0.5367 -0.5818
  540TMC3     C 8069   4.667   0.088  11.765  0.6954 -0.7573  0.2882
  540TMC3     O 8070   4.681   0.004  11.682  0.6853  0.3744  0.0836
  540TMC3     H 8071   4.553   0.129  11.555 -0.9057  1.4142 -2.1352
  540TMC3    H1 8072   4.720   0.312  11.895  0.0862 -1.1376 -1.0345
  540TMC3    H2 8073   4.544   0.563  11.594  1.2449  0.0981 -0.2348
  540TMC3    C7 8074   4.577   0.548  11.863 -0.8495  0.6220 -0.2855
  540TMC3    C8 8075   4.478   0.361  11.423  0.8984 -0.6956 -0.4254
  540TMC3    O1 8076   4.502   0.506  11.951  0.2363  0.0557 -0.0262
  540TMC3    O2 8077   4.412   0.463  11.402 -0.1940 -0.5759 -0.2204
  541MPD2     C 8078   3.667   1.963  13.275  0.2480 -0.6426  0.6804
  541MPD2    C1 8079   3.613   1.837  13.259 -0.2290 -0.0984 -0.7044
  541MPD2    C2 8080   3.507   1.810  13.180  0.5957  0.2650 -0.6586
  541MPD2    C3 8081   3.445   1.912  13.108 -0.1681 -0.8590 -0.5870
  541MPD2    C4 8082   3.496   2.042  13.117  0.0116  0.7997 -0.9327
  541MPD2    C5 8083   3.607   2.062  13.202  0.2825  0.3644  0.4979
  541MPD2     H 8084   3.473   1.709  13.164 -2.3656  0.9977  1.1433
  541MPD2    H1 8085   3.460   2.125  13.056 -1.5051 -0.3617 -1.6324
  541MPD2    H2 8086   3.732   1.990  13.358 -0.8183  1.0581  0.9575
  541MPD2    H3 8087   3.632   2.165  13.226 -0.2368  0.3005  1.3224
  541MPD2     N 8088   3.346   1.889  13.013 -0.2511 -0.0267 -0.4029
  541MPD2    H5 8089   3.344   1.793  12.981  0.7605  0.5095 -2.1315
  541MPD2    N1 8090   3.661   1.744  13.352  0.1848 -0.9345  0.1665
  541MPD2    H7 8091   3.752   1.768  13.392  0.4120 -0.1034 -0.8452
  542TMC3    C1 8092   3.185   1.942  12.842  0.0467  0.4868 -1.3222
  542TMC3    C2 8093   3.265   1.881  12.750 -0.1604  0.1885  0.0740
  542TMC3    C3 8094   3.221   1.885  12.620  0.2212 -1.0007 -0.1996
  542TMC3    C4 8095   3.069   1.995  12.813  0.1219 -0.3990 -0.3989
  542TMC3    C5 8096   3.024   1.991  12.678  0.5103 -0.2900  0.3056
  542TMC3    C6 8097   3.099   1.927  12.583 -0.3950 -0.2799  0.3305
  542TMC3     C 8098   3.254   1.983  12.963 -0.8327  0.3350 -0.2016
  542TMC3     O 8099   3.238   2.102  12.993 -0.0074  0.1526  0.0872
  542TMC3     H 8100   3.368   1.857  12.776 -0.4005  0.8729  1.6568
  542TMC3    H1 8101   3.020   2.056  12.889 -0.1261 -2.2026  0.8838
  542TMC3    H2 8102   3.048   1.914  12.488  3.2193 -1.2290 -1.4745
  542TMC3    C7 8103   2.882   1.972  12.666  0.2055 -0.8734 -1.2839
  542TMC3    C8 8104   3.295   1.826  12.518 -0.0325 -0.0527  0.2906
  542TMC3    O1 8105   2.807   2.057  12.719 -0.2129  0.0794 -0.0743
  542TMC3    O2 8106   3.282   1.871  12.402 -0.2677  0.1459 -0.3642
  543TMC3    C1 8107   3.193   2.982  17.128  0.1741  0.3774  0.2220
  543TMC3    C2 8108   3.202   2.851  17.139  0.8342 -0.4647  0.7808
  543TMC3    C3 8109   3.194   2.793  17.264  0.5031 -0.4908  0.7310
  543TMC3    C4 8110   3.150   3.061  17.229 -0.2732  0.4058  0.4216
  543TMC3    C5 8111   3.129   3.001  17.356  0.5272  0.6396 -0.3386
  543TMC3    C6 8112   3.158   2.871  17.374 -0.4569 -0.7389  0.4114
  543TMC3     C 8113   3.250   3.045  17.010  0.0269 -1.1654  0.3645
  543TMC3     O 8114   3.289   2.959  16.931  0.1134  0.6541  0.2006
  543TMC3     H 8115   3.258   2.796  17.064 -1.2017  0.3265 -1.3027
  543TMC3    H1 8116   3.143   3.168  17.219 -0.5355  0.4532  1.1048
  543TMC3    H2 8117   3.127   2.827  17.468 -0.1161 -1.0414  0.3853
  543TMC3    C7 8118   3.056   3.075  17.463  0.2244  0.1902 -0.2200
  543TMC3    C8 8119   3.266   2.670  17.286  0.3064  0.7624 -0.6266
  543TMC3    O1 8120   3.040   3.009  17.566 -0.0996 -0.2360  0.2967
  543TMC3    O2 8121   3.339   2.667  17.384 -0.0556 -0.3024  0.1131
  544MPD2     C 8122   3.321   2.177  17.159 -0.6830 -0.1220  0.6920
  544MPD2    C1 8123   3.380   2.242  17.266  0.3394  0.6619  0.5024
  544MPD2    C2 8124   3.345   2.376  17.279  0.4628  0.6332 -0.0286
  544MPD2    C3 8125   3.263   2.435  17.183 -0.4147 -0.5815 -0.5869
  544MPD2    C4 8126   3.202   2.354  17.081 -0.1852  0.0229  0.8893
  544MPD2    C5 8127   3.234   2.224  17.075 -0.0334 -0.2781  0.3713
  544MPD2     H 8128   3.402   2.439  17.347  0.4930 -1.4442  1.8637
  544MPD2    H1 8129   3.145   2.405  17.004 -0.2759  0.8396  1.4918
  544MPD2    H2 8130   3.348   2.075  17.137 -3.7718 -0.3774 -1.8890
  544MPD2    H3 8131   3.196   2.162  16.995  2.2973 -2.6859  1.1649
  544MPD2     N 8132   3.229   2.574  17.187 -0.2813 -0.1045 -0.0507
  544MPD2    H5 8133   3.165   2.609  17.117 -0.2345  3.0468  1.4771
  544MPD2    N1 8134   3.458   2.166  17.354  0.0677 -0.7348 -0.1725
  544MPD2    H7 8135   3.454   2.064  17.349  0.1812 -0.5898 -2.8350
  545TMC3    C1 8136   3.584   2.122  17.554  0.0900  0.3753  0.1251
  545TMC3    C2 8137   3.702   2.150  17.613  0.1359  0.1950  0.4501
  545TMC3    C3 8138   3.758   2.051  17.693  0.1191 -0.0746 -0.1964
  545TMC3    C4 8139   3.518   2.000  17.568 -0.3089 -0.4117 -0.6829
  545TMC3    C5 8140   3.581   1.900  17.642  0.2959  0.2635 -0.1546
  545TMC3    C6 8141   3.707   1.921  17.692 -0.2468  0.4543 -0.2026
  545TMC3     C 8142   3.546   2.215  17.446 -0.2207 -0.3874 -0.2245
  545TMC3     O 8143   3.598   2.325  17.436  0.3365  0.0051 -0.1295
  545TMC3     H 8144   3.741   2.250  17.601  1.6643 -0.2865  1.3872
  545TMC3    H1 8145   3.416   1.984  17.533 -1.1457 -0.4812  1.7613
  545TMC3    H2 8146   3.755   1.842  17.748  0.8268  1.1658 -0.1227
  545TMC3    C7 8147   3.526   1.766  17.632 -0.4043 -0.8536  0.2868
  545TMC3    C8 8148   3.892   2.064  17.740 -0.4386 -0.4727 -0.3912
  545TMC3    O1 8149   3.465   1.738  17.526 -0.2997 -0.1170 -0.0854
  545TMC3    O2 8150   3.947   1.978   0.056 -0.0867 -0.5296  0.6548
  546MPD2     C 8151   0.108   2.994  17.548 -0.8236 -1.2813  0.4539
  546MPD2    C1 8152   0.066   3.024  17.418  0.4247 -0.9869 -0.2148
  546MPD2    C2 8153   0.077   3.157  17.372  0.3677 -0.1648 -0.2611
  546MPD2    C3 8154   0.103   3.257  17.463  0.4830  0.2384  0.5492
  546MPD2    C4 8155   0.146   3.227  17.595 -0.0199 -0.7019  0.3861
  546MPD2    C5 8156   0.147   3.098  17.633 -0.0480  0.5193  0.6089
  546MPD2     H 8157   0.058   3.179  17.268 -0.7726 -1.5978 -0.3565
  546MPD2    H1 8158   0.196   3.298  17.660  0.3268 -0.5737 -0.0243
  546MPD2    H2 8159   0.105   2.891  17.580 -2.3996 -0.7719  1.9371
  546MPD2    H3 8160   0.183   3.073  17.732  0.8386  2.2677  0.7294
  546MPD2     N 8161   0.112   3.394  17.427  0.0075  0.6049  0.5274
  546MPD2    H5 8162   0.143   3.446  17.509  0.0295  0.8232  0.3789
  546MPD2    N1 8163   4.738   2.919  17.350 -0.6102  0.4038  0.4492
  546MPD2    H7 8164   0.002   2.825  17.390 -0.8229  1.0283  1.9311
  547TMC3    C1 8165   4.562   2.830  17.212 -0.4506 -1.0214  0.6092
  547TMC3    C2 8166   4.510   2.838  17.089 -0.5424  0.6487 -0.0776
  547TMC3    C3 8167   4.373   2.829  17.084  0.2179  0.2484  0.4125
  547TMC3    C4 8168   4.492   2.775  17.319 -0.7309  0.6210  0.8282
  547TMC3    C5 8169   4.356   2.752  17.303 -0.1598 -0.0227  0.3341
  547TMC3    C6 8170   4.289   2.780  17.185  0.1328 -0.1273  0.1111
  547TMC3     C 8171   4.659   2.947  17.237 -0.2053  0.3596  0.2243
  547TMC3     O 8172   4.650   3.045  17.165 -0.2645 -0.4338  0.2730
  547TMC3     H 8173   4.573   2.861  17.003 -0.5459 -2.0386 -0.7895
  547TMC3    H1 8174   4.538   2.762  17.415  0.6678 -0.5864 -0.0178
  547TMC3    H2 8175   4.182   2.776  17.166 -0.0127  2.4475  0.2748
  547TMC3    C7 8176   4.289   2.706  17.424 -0.5122 -0.1226 -0.0079
  547TMC3    C8 8177   4.316   2.902  16.978 -0.2191 -0.3300  0.1369
  547TMC3    O1 8178   4.357   2.706  17.527  0.4512 -0.2230 -0.0872
  547TMC3    O2 8179   4.207   2.858  16.943 -0.4024 -0.2556 -0.5944
  548MPD2     C 8180   4.022   3.405  12.773  0.2539 -0.4701  0.4581
  548MPD2    C1 8181   3.951   3.303  12.707  0.7593 -0.2296  0.6852
  548MPD2    C2 8182   4.022   3.194  12.664  0.1698  0.5847  0.1492
  548MPD2    C3 8183   4.159   3.192  12.662 -0.4162  0.2303 -0.0528
  548MPD2    C4 8184   4.221   3.302  12.712 -0.5324 -0.1414  0.5976
  548MPD2    C5 8185   4.156   3.402  12.771 -0.2891  0.1566 -0.1109
  548MPD2     H 8186   3.970   3.105  12.631  1.1524  0.8170 -1.9738
  548MPD2    H1 8187   4.328   3.308  12.720 -0.7902  2.2332  2.1090
  548MPD2    H2 8188   3.970   3.495  12.804  0.1171  1.1728 -4.5900
  548MPD2    H3 8189   4.206   3.471  12.838 -0.0298 -1.1697  1.0849
  548MPD2     N 8190   4.229   3.085  12.618 -0.7093  0.0782 -0.8526
  548MPD2    H5 8191   4.176   3.001  12.595  0.2096 -1.2653  1.9672
  548MPD2    N1 8192   3.809   3.320  12.692  0.2294 -0.6695 -0.2873
  548MPD2    H7 8193   3.774   3.408  12.727  1.7505 -1.3955  3.0774
  549TMC3    C1 8194   3.582   3.266  12.658 -0.1979  0.2827  0.7174
  549TMC3    C2 8195   3.550   3.395  12.675 -0.3370  0.1834  0.5432
  549TMC3    C3 8196   3.425   3.426  12.714  0.8775 -0.0767 -0.1421
  549TMC3    C4 8197   3.487   3.166  12.684 -0.6897 -0.3192 -0.0647
  549TMC3    C5 8198   3.357   3.208  12.709  0.4215 -0.0737  0.0762
  549TMC3    C6 8199   3.321   3.335  12.730  0.1891  0.1290 -0.1885
  549TMC3     C 8200   3.720   3.225  12.646 -0.4714  0.5652 -0.0675
  549TMC3     O 8201   3.743   3.104  12.626 -0.0532  0.0271  0.0319
  549TMC3     H 8202   3.630   3.468  12.672  1.0588 -1.4375 -1.9339
  549TMC3    H1 8203   3.507   3.062  12.661  2.7529  0.6320 -1.2605
  549TMC3    H2 8204   3.226   3.373  12.764  0.7516  0.4310  1.0799
  549TMC3    C7 8205   3.248   3.120  12.741 -0.1229  0.2483  1.1071
  549TMC3    C8 8206   3.379   3.563  12.696  0.1950 -0.1770 -0.0027
  549TMC3    O1 8207   3.132   3.147  12.736 -1.0598  0.2242  0.5155
  549TMC3    O2 8208   3.264   3.577  12.660 -0.1270 -0.0442 -0.3379
  550TMC3    C1 8209   3.166   1.372  12.290 -0.0714  0.2427  0.3506
  550TMC3    C2 8210   3.094   1.369  12.409  0.4414 -0.2410  0.0813
  550TMC3    C3 8211   3.055   1.486  12.461 -0.0043 -0.7968  0.4494
  550TMC3    C4 8212   3.179   1.491  12.222  0.3424  0.3286  0.1135
  550TMC3    C5 8213   3.128   1.607  12.273  0.0526 -0.1074  0.5314
  550TMC3    C6 8214   3.075   1.607  12.400  0.1240  0.1283  0.0732
  550TMC3     C 8215   3.163   1.259  12.203 -0.0665  1.2133 -1.0424
  550TMC3     O 8216   3.254   1.253  12.121 -0.0203  0.6968 -0.1909
  550TMC3     H 8217   3.090   1.279  12.469  0.0694 -0.8067 -0.7985
  550TMC3    H1 8218   3.227   1.492  12.125  0.4801 -0.0137  0.1772
  550TMC3    H2 8219   3.009   1.688  12.429  0.4544  0.8034 -1.0694
  550TMC3    C7 8220   3.040   1.689  12.173 -0.7578 -0.7563  0.4372
  550TMC3    C8 8221   2.995   1.494  12.593  0.1950  0.5201 -0.0988
  550TMC3    O1 8222   2.975   1.780  12.219 -0.0927  0.2926  0.2786
  550TMC3    O2 8223   3.007   1.605  12.644  0.1543 -0.1946  0.1088
  551TMC3    C1 8224   0.743   4.451  13.154  0.2941 -0.6383  0.2440
  551TMC3    C2 8225   0.864   4.498  13.105 -0.3486 -0.6987  0.1938
  551TMC3    C3 8226   0.973   4.495  13.189 -0.2997 -0.9060 -0.6485
  551TMC3    C4 8227   0.731   4.410  13.287 -0.8473 -0.0683 -0.1716
  551TMC3    C5 8228   0.841   4.418  13.368 -0.3558  0.1557  0.0036
  551TMC3    C6 8229   0.962   4.451  13.323 -0.5573 -0.0894 -0.6503
  551TMC3     C 8230   0.644   4.394  13.059 -0.5180  0.3177  0.1878
  551TMC3     O 8231   0.659   4.405  12.940  0.2904 -0.6443  0.1513
  551TMC3     H 8232   0.865   4.529  13.001  0.9966 -0.5815  0.2501
  551TMC3    H1 8233   0.635   4.381  13.328  0.2727 -0.6175  2.0560
  551TMC3    H2 8234   1.053   4.446  13.382 -1.5051 -0.3085  0.7994
  551TMC3    C7 8235   0.815   4.417  13.511  0.5222  0.1563  0.0459
  551TMC3    C8 8236   1.109   4.512  13.136 -0.7256  0.0500 -0.1969
  551TMC3    O1 8237   0.701   4.372  13.543  0.3458 -0.5984 -0.2056
  551TMC3    O2 8238   1.203   4.449  13.182 -0.0267  0.2424  0.4842
  552MPD2     C 8239   2.710   1.476  14.025  0.1818  1.1743  0.3577
  552MPD2    C1 8240   2.671   1.368  14.107  0.1348  0.3663  0.3918
  552MPD2    C2 8241   2.754   1.318  14.199  0.2750  0.7376 -0.0135
  552MPD2    C3 8242   2.877   1.371  14.220 -1.0021  0.4089  0.4805
  552MPD2    C4 8243   2.926   1.468  14.136 -0.1343  0.0419  0.7806
  552MPD2    C5 8244   2.838   1.520  14.038  0.9229 -0.7047 -1.1773
  552MPD2     H 8245   2.715   1.239  14.262 -0.5196  0.1934 -1.1793
  552MPD2    H1 8246   3.024   1.514  14.151  0.0693 -0.6302  1.4936
  552MPD2    H2 8247   2.643   1.511  13.946 -1.0196  3.4226  2.3693
  552MPD2    H3 8248   2.863   1.604  13.974 -0.5126  0.9674  0.4662
  552MPD2     N 8249   2.951   1.327  14.330 -0.7745  0.2676 -0.4718
  552MPD2    H5 8250   3.033   1.385  14.348  0.3300 -2.0671  1.9771
  552MPD2    N1 8251   2.535   1.315  14.107  0.2427 -0.6063 -0.6455
  552MPD2    H7 8252   2.521   1.239  14.173 -3.3985 -1.0297 -1.9141
  553TMC3    C1 8253   2.313   1.262  14.044  0.3252  1.0095  0.0466
  553TMC3    C2 8254   2.239   1.242  13.932  0.5342 -0.6341  0.6752
  553TMC3    C3 8255   2.164   1.130  13.908  0.1874  0.4514 -0.1741
  553TMC3    C4 8256   2.308   1.173  14.145  0.3093  0.9967 -0.6023
  553TMC3    C5 8257   2.215   1.067  14.135  0.2475 -0.0026  1.4708
  553TMC3    C6 8258   2.156   1.037  14.012  0.1233 -0.0912 -0.0826
  553TMC3     C 8259   2.424   1.360  14.037 -0.1197 -0.1881 -0.3952
  553TMC3     O 8260   2.412   1.458  13.964 -0.0101 -0.5567 -0.1495
  553TMC3     H 8261   2.256   1.315  13.854  2.1566 -0.6812  0.9894
  553TMC3    H1 8262   2.355   1.191  14.241  0.4161 -0.9242 -0.2918
  553TMC3    H2 8263   2.098   0.946  13.999  1.0239 -0.3958 -1.9459
  553TMC3    C7 8264   2.253   0.940  14.202 -0.6128 -0.0733 -0.2229
  553TMC3    C8 8265   2.173   1.079  13.769 -0.6205 -0.2728 -0.4208
  553TMC3    O1 8266   2.174   0.854  14.224 -0.3084 -0.1734  0.2113
  553TMC3    O2 8267   2.246   1.149  13.699 -0.2392 -0.7484  0.1581
  554TMC3    C1 8268   3.696   0.587  11.832  0.1482 -0.0535  0.4610
  554TMC3    C2 8269   3.611   0.576  11.726 -0.6972  0.2377  0.0401
  554TMC3    C3 8270   3.645   0.634  11.608 -0.1486  0.0215 -0.6886
  554TMC3    C4 8271   3.818   0.648  11.823 -0.3882 -0.7851 -0.4969
  554TMC3    C5 8272   3.854   0.704  11.703  0.2496 -0.1480  0.5091
  554TMC3    C6 8273   3.766   0.695  11.593 -0.2460 -0.4004  0.2104
  554TMC3     C 8274   3.693   0.474  11.917  1.2243  0.2660 -0.1116
  554TMC3     O 8275   3.582   0.420  11.925  0.2972 -0.6185  0.7226
  554TMC3     H 8276   3.511   0.539  11.746 -0.7004 -0.0372 -0.4721
  554TMC3    H1 8277   3.877   0.657  11.914 -0.2068 -2.1529 -0.4785
  554TMC3    H2 8278   3.794   0.738  11.498  3.5431 -2.4019  0.4190
  554TMC3    C7 8279   3.987   0.712  11.663 -0.2418 -0.2978  0.0629
  554TMC3    C8 8280   3.562   0.617  11.489 -0.5710 -0.0396 -0.4963
  554TMC3    O1 8281   4.007   0.629  11.576  0.2682 -0.0359  0.2798
  554TMC3    O2 8282   3.597   0.672  11.382  0.0167  0.0042  0.4883
  555TMC3    C1 8283   3.369   0.273  15.290  0.0050 -0.4687 -0.0318
  555TMC3    C2 8284   3.375   0.330  15.414  0.3364  0.2027  0.0492
  555TMC3    C3 8285   3.340   0.256  15.522 -0.5360 -0.1424  0.4479
  555TMC3    C4 8286   3.329   0.142  15.261 -0.1893  0.5333  0.2019
  555TMC3    C5 8287   3.283   0.076  15.376  0.1490 -0.4160  0.3890
  555TMC3    C6 8288   3.296   0.126  15.504 -0.1589  0.0252 -0.3716
  555TMC3     C 8289   3.429   0.356  15.184  0.8794  0.6961  0.3964
  555TMC3     O 8290   3.517   0.438  15.215 -0.1708 -0.3358 -0.6989
  555TMC3     H 8291   3.415   0.430  15.427 -0.1528  0.0048  3.0040
  555TMC3    H1 8292   3.334   0.095  15.163  2.2670  0.8512  0.1646
  555TMC3    H2 8293   3.247   0.068  15.582  0.5385 -0.7661 -0.5168
  555TMC3    C7 8294   3.309   4.673  15.386  1.1175 -0.1973 -0.3065
  555TMC3    C8 8295   3.314   0.317  15.653  0.0119 -0.0459 -0.0884
  555TMC3    O1 8296   3.354   4.630  15.490  0.7083 -0.4438 -0.3737
  555TMC3    O2 8297   3.281   0.433  15.663 -0.1310 -0.4724  0.1430
  556MPD2     C 8298   1.640   1.319  10.738 -0.4606  0.8986 -0.0556
  556MPD2    C1 8299   1.596   1.224  10.825  0.1338  0.1794 -0.4352
  556MPD2    C2 8300   1.535   1.115  10.768 -0.7202 -0.4535 -0.5793
  556MPD2    C3 8301   1.508   1.107  10.631  0.1853  0.5970  0.6563
  556MPD2    C4 8302   1.562   1.205  10.546 -0.7172  0.1716  0.1983
  556MPD2    C5 8303   1.631   1.309  10.602  0.0015  0.0809  1.0036
  556MPD2     H 8304   1.501   1.034  10.832 -1.3744  0.3564  0.1125
  556MPD2    H1 8305   1.569   1.202  10.437  0.8108 -2.2485  0.3633
  556MPD2    H2 8306   1.698   1.405  10.771 -0.1748  0.1126  1.5347
  556MPD2    H3 8307   1.671   1.376  10.527  1.1736 -1.2650  0.4337
  556MPD2     N 8308   1.438   0.993  10.583 -0.0028  0.1141  0.2277
  556MPD2    H5 8309   1.415   0.921  10.651 -1.1085  1.6326  1.4547
  556MPD2    N1 8310   1.602   1.239  10.968  0.0199 -0.4131  0.2257
  556MPD2    H7 8311   1.548   1.172  11.022  0.0479 -0.1792  0.5422
  557TMC3    C1 8312   1.342   0.849  10.413 -0.2020 -0.1423  0.6040
  557TMC3    C2 8313   1.363   0.826  10.276 -0.4883  0.2730 -1.0743
  557TMC3    C3 8314   1.304   0.715  10.221 -0.4484  0.5050 -0.1126
  557TMC3    C4 8315   1.273   0.759  10.495  0.1047  0.2796  0.1414
  557TMC3    C5 8316   1.230   0.650  10.426 -0.2120 -0.2649 -0.1640
  557TMC3    C6 8317   1.234   0.626  10.293  0.0813  0.0877 -0.0479
  557TMC3     C 8318   1.383   0.983  10.457  0.2136 -0.5699  0.6224
  557TMC3     O 8319   1.371   1.068  10.368 -0.0076 -0.0662  0.0895
  557TMC3     H 8320   1.426   0.894  10.220  0.3679  0.0184 -0.4157
  557TMC3    H1 8321   1.288   0.765  10.602 -0.0971 -1.5804  0.2606
  557TMC3    H2 8322   1.178   0.544  10.250  3.0397 -1.4410 -0.9522
  557TMC3    C7 8323   1.178   0.545  10.513  0.0864 -0.7180  0.1601
  557TMC3    C8 8324   1.331   0.699  10.082 -0.6001 -0.0294 -0.4658
  557TMC3    O1 8325   1.118   0.583  10.615  0.0526  0.8168  0.0979
  557TMC3    O2 8326   1.374   0.797  10.025 -0.0549  0.1759  0.3675
  558TMC3    C1 8327   3.496   3.601  10.360 -0.4403 -0.7929 -0.6324
  558TMC3    C2 8328   3.396   3.541  10.431 -0.9132  0.6301 -0.0744
  558TMC3    C3 8329   3.268   3.557  10.380 -0.3160 -0.7600 -0.9689
  558TMC3    C4 8330   3.483   3.671  10.241  0.2700  0.5264 -0.2201
  558TMC3    C5 8331   3.349   3.676  10.195  0.1227 -0.6387  0.5352
  558TMC3    C6 8332   3.242   3.621  10.259 -0.0231  0.1366 -0.4433
  558TMC3     C 8333   3.635   3.558  10.379  0.0206  0.3388 -0.0831
  558TMC3     O 8334   3.729   3.620  10.324  0.4298  0.5511  0.6984
  558TMC3     H 8335   3.411   3.493  10.528 -0.5307 -2.7643 -1.8039
  558TMC3    H1 8336   3.564   3.725  10.192  2.4821 -0.1910  2.6510
  558TMC3    H2 8337   3.141   3.620  10.221  0.4149 -0.1431 -1.6011
  558TMC3    C7 8338   3.315   3.775  10.087 -0.3456 -0.3185  0.3767
  558TMC3    C8 8339   3.154   3.507  10.447  0.1420  0.4666 -0.0889
  558TMC3    O1 8340   3.408   3.836  10.042 -0.0187 -0.1107 -0.0304
  558TMC3    O2 8341   3.065   3.467  10.379  0.1176 -0.5807  0.3014
  559MPD2     C 8342   3.442   4.693  11.118 -0.0208 -0.4088  0.0498
  559MPD2    C1 8343   3.415   4.567  11.080 -0.6075  0.1168 -0.3188
  559MPD2    C2 8344   3.512   4.467  11.092 -0.0835  0.4640  0.6464
  559MPD2    C3 8345   3.633   4.504  11.156 -0.2475 -0.0781 -0.1177
  559MPD2    C4 8346   3.661   4.636  11.187  0.3095 -0.1047  0.1667
  559MPD2    C5 8347   3.562   4.725  11.154 -0.1381  0.0806 -0.1427
  559MPD2     H 8348   3.498   4.369  11.048 -0.3022  0.8378 -0.1215
  559MPD2    H1 8349   3.760   4.667  11.220  0.2597  1.0387 -0.7413
  559MPD2    H2 8350   3.367   0.032  11.113  1.6147  1.1776  0.5228
  559MPD2    H3 8351   3.575   0.091  11.181 -2.1605  0.8584 -2.2205
  559MPD2     N 8352   3.726   4.391  11.173  0.1892  0.3849  0.1992
  559MPD2    H5 8353   3.702   4.305  11.125  1.5207 -0.0404  0.3024
  559MPD2    N1 8354   3.281   4.538  11.036  0.5471 -0.0886 -0.2230
  559MPD2    H7 8355   3.206   4.605  11.028  0.6108  0.2637  2.0557
  560TMC3    C1 8356   3.893   4.263  11.261  0.2957 -0.4287  0.4173
  560TMC3    C2 8357   3.801   4.167  11.290 -0.3125  0.2558  0.2924
  560TMC3    C3 8358   3.838   4.052  11.354 -1.0220 -0.3747  0.7312
  560TMC3    C4 8359   4.020   4.251  11.307 -0.1270 -0.6381 -0.1244
  560TMC3    C5 8360   4.048   4.144  11.386 -0.0826  0.2287  0.1713
  560TMC3    C6 8361   3.962   4.039  11.406 -0.5652  0.1501 -0.0742
  560TMC3     C 8362   3.845   4.396  11.232  0.3338  0.0105  0.1288
  560TMC3     O 8363   3.918   4.489  11.271 -0.0203  0.3088  0.2530
  560TMC3     H 8364   3.700   4.173  11.250 -1.5681 -1.4076  3.1832
  560TMC3    H1 8365   4.084   4.337  11.293  0.6008 -0.4448  4.7315
  560TMC3    H2 8366   3.996   3.950  11.456 -0.9837  1.2466  2.1545
  560TMC3    C7 8367   4.171   4.144  11.470 -0.5608 -0.1545 -0.0350
  560TMC3    C8 8368   3.733   3.952  11.361 -0.4474  0.4262 -0.7463
  560TMC3    O1 8369   4.156   4.076  11.573  0.1029 -0.1183 -0.1351
  560TMC3    O2 8370   3.619   3.980  11.330  0.5150  0.5178  0.2252
  561TMC3    C1 8371   2.114   3.368  11.431 -0.6977  0.6369 -0.0460
  561TMC3    C2 8372   2.094   3.297  11.540  0.2055  0.4992 -0.2256
  561TMC3    C3 8373   2.016   3.344  11.635 -0.5408  0.0525  0.2965
  561TMC3    C4 8374   2.075   3.497  11.423 -0.0682 -0.4429  0.2287
  561TMC3    C5 8375   2.009   3.549  11.532 -0.0439  0.2790  0.2616
  561TMC3    C6 8376   1.978   3.476  11.643  0.2919  0.5356 -0.4844
  561TMC3     C 8377   2.198   3.305  11.335 -0.2386 -0.1260  0.1848
  561TMC3     O 8378   2.202   3.180  11.335 -0.0710  0.5781 -0.4958
  561TMC3     H 8379   2.125   3.194  11.550  1.1929  1.0264  2.1162
  561TMC3    H1 8380   2.112   3.558  11.341 -2.2685  1.7488  0.8766
  561TMC3    H2 8381   1.925   3.520  11.727 -1.1294  0.0477 -1.1112
  561TMC3    C7 8382   1.942   3.681  11.529 -0.2546 -0.0364  0.1091
  561TMC3    C8 8383   1.937   3.247  11.709 -0.3720  0.6936  0.0119
  561TMC3    O1 8384   1.894   3.716  11.631  0.3403  0.2743  0.5805
  561TMC3    O2 8385   1.969   3.130  11.710 -0.1807 -0.1162 -0.3650
  562TMC3    C1 8386   3.021   0.855  16.720 -1.2757 -0.1458  0.4197
  562TMC3    C2 8387   3.050   0.947  16.624  1.4672  0.9661 -0.3998
  562TMC3    C3 8388   3.082   0.898  16.496  0.1285 -0.3091  1.3239
  562TMC3    C4 8389   3.026   0.716  16.695  0.2356 -0.2455 -0.4591
  562TMC3    C5 8390   3.053   0.678  16.568 -0.6266 -0.5895  0.4969
  562TMC3    C6 8391   3.088   0.763  16.467 -0.0928 -0.8048  0.3555
  562TMC3     C 8392   2.985   0.898  16.854 -0.4093 -0.1627 -0.1033
  562TMC3     O 8393   2.967   0.820  16.944 -0.3043  0.3558 -0.8982
  562TMC3     H 8394   3.064   1.053  16.642  0.8658  1.0428 -0.3929
  562TMC3    H1 8395   2.978   0.652  16.768  0.2037  0.2778 -0.0199
  562TMC3    H2 8396   3.099   0.729  16.365  2.1152  2.2164 -0.3935
  562TMC3    C7 8397   3.006   0.541  16.528  0.0174  0.4197 -0.0025
  562TMC3    C8 8398   3.082   1.001  16.391 -0.6828  0.0685  0.3428
  562TMC3    O1 8399   2.983   0.513  16.410 -0.0589 -0.1896 -0.2210
  562TMC3    O2 8400   3.106   1.113  16.434 -0.0997  0.6899  0.0084
  563MPD2     C 8401   1.005   1.684  15.922  0.1166 -0.2738 -0.0582
  563MPD2    C1 8402   1.071   1.595  16.003 -0.6467 -0.1436  0.3311
  563MPD2    C2 8403   1.205   1.588  15.989 -0.1394  0.5055  0.3175
  563MPD2    C3 8404   1.280   1.677  15.920 -0.3736  0.9328 -1.4680
  563MPD2    C4 8405   1.211   1.760  15.831  0.5124  0.6009  0.2463
  563MPD2    C5 8406   1.072   1.769  15.841 -0.1787 -0.4801 -0.0772
  563MPD2     H 8407   1.254   1.526  16.064  1.3854  2.4337  0.9166
  563MPD2    H1 8408   1.274   1.832  15.780  1.0184 -0.6560 -0.8983
  563MPD2    H2 8409   0.898   1.700  15.921 -0.2199 -2.4238  1.1023
  563MPD2    H3 8410   1.018   1.849  15.793 -0.3668 -0.5909 -0.0488
  563MPD2     N 8411   1.422   1.676  15.952 -0.3563  0.5802  0.2176
  563MPD2    H5 8412   1.445   1.612  16.028  0.0651 -0.6230 -0.9203
  563MPD2    N1 8413   1.011   1.504  16.094  1.0545  0.0682  0.3490
  563MPD2    H7 8414   1.068   1.428  16.128  0.8148  0.0403  0.6877
  564TMC3    C1 8415   0.847   1.400  16.228 -0.4820  0.0684 -0.0628
  564TMC3    C2 8416   0.735   1.323  16.218  0.0681  0.0682  0.4834
  564TMC3    C3 8417   0.739   1.207  16.286 -0.0183  0.5173 -0.4216
  564TMC3    C4 8418   0.951   1.371  16.311  0.2059 -0.0665 -0.3913
  564TMC3    C5 8419   0.950   1.252  16.375 -0.2090 -0.4432  0.0424
  564TMC3    C6 8420   0.846   1.168  16.361 -0.5948 -0.0953 -0.5374
  564TMC3     C 8421   0.878   1.507  16.130 -0.1368 -0.3727  0.3328
  564TMC3     O 8422   0.776   1.562  16.095 -0.2444 -0.2351 -1.2127
  564TMC3     H 8423   0.660   1.345  16.142  1.0859 -0.3241 -0.6389
  564TMC3    H1 8424   1.033   1.439  16.332 -0.3081  0.5239 -0.2562
  564TMC3    H2 8425   0.844   1.073  16.415 -0.2678 -0.0903 -0.5173
  564TMC3    C7 8426   1.055   1.232  16.473  0.0717  1.1658 -0.1066
  564TMC3    C8 8427   0.614   1.139  16.304 -1.5407  0.2444  0.1130
  564TMC3    O1 8428   1.117   1.330  16.503  0.1017  0.5051 -0.0399
  564TMC3    O2 8429   0.629   1.036  16.370  0.0650  0.2868 -0.1852
  565TMC3    C1 8430   1.056   2.537   9.963 -0.4355 -0.0056 -0.5140
  565TMC3    C2 8431   1.047   2.421  10.032  0.5653 -0.4948 -0.0235
  565TMC3    C3 8432   0.941   2.336  10.021 -0.0035 -0.1075  0.1725
  565TMC3    C4 8433   0.949   2.579   9.882  1.0047 -0.4825  0.1777
  565TMC3    C5 8434   0.841   2.498   9.892 -0.1170 -0.5033 -0.4793
  565TMC3    C6 8435   0.830   2.379   9.962  0.6357  0.3306 -0.2396
  565TMC3     C 8436   1.170   2.622   9.962  0.7457 -0.6299  0.5615
  565TMC3     O 8437   1.186   2.706   9.875 -0.2386  0.4741 -0.6232
  565TMC3     H 8438   1.132   2.399  10.096  1.1859 -2.2373 -1.4313
  565TMC3    H1 8439   0.961   2.666   9.820  1.7226 -0.3874  0.4405
  565TMC3    H2 8440   0.741   2.318   9.967  0.0184  1.1587 -1.0959
  565TMC3    C7 8441   0.741   2.516   9.791 -0.1677 -0.2671  0.0279
  565TMC3    C8 8442   0.942   2.201  10.089  0.5476  0.0620 -0.4914
  565TMC3    O1 8443   0.728   2.631   9.753 -0.6405  0.3434  0.4513
  565TMC3    O2 8444   1.037   2.185  10.171  0.1812  0.1886  0.4471
  566MPD2     C 8445   3.116   3.913  13.851  0.2331  0.8033 -0.2463
  566MPD2    C1 8446   3.124   4.048  13.883  0.4424  0.0157  0.5113
  566MPD2    C2 8447   3.005   4.125  13.868 -0.9698  0.2862  0.4663
  566MPD2    C3 8448   2.892   4.065  13.811 -0.1390  0.3010 -0.4547
  566MPD2    C4 8449   2.893   3.929  13.781 -0.7631  0.1599  0.0259
  566MPD2    C5 8450   3.005   3.852  13.799  0.6556 -1.0039 -0.5248
  566MPD2     H 8451   2.997   4.232  13.881  0.4245  0.7891 -2.8543
  566MPD2    H1 8452   2.810   3.873  13.740  0.2763 -0.1812 -1.5734
  566MPD2    H2 8453   3.193   3.838  13.863 -2.1246 -2.0039 -2.3132
  566MPD2    H3 8454   3.003   3.745  13.783  0.6297 -1.0617 -0.1408
  566MPD2     N 8455   2.770   4.134  13.784 -0.3455  0.2480 -0.3829
  566MPD2    H5 8456   2.700   4.069  13.752  0.5895 -0.4378 -1.0295
  566MPD2    N1 8457   3.244   4.115  13.929 -0.2413  0.0583  0.2884
  566MPD2    H7 8458   3.233   4.215  13.939 -2.3084 -0.1752  0.3650
  567TMC3    C1 8459   3.443   4.141  14.042  0.1536  0.2501  0.4087
  567TMC3    C2 8460   3.441   4.277  14.012 -0.4478  0.5659 -0.3590
  567TMC3    C3 8461   3.455   4.365  14.114  0.1357 -0.5813 -0.7201
  567TMC3    C4 8462   3.476   4.088  14.168  0.2974  0.0024  0.1664
  567TMC3    C5 8463   3.493   4.182  14.264 -0.3699  0.4210  0.1947
  567TMC3    C6 8464   3.470   4.320  14.242 -1.1816 -0.2079 -1.0723
  567TMC3     C 8465   3.361   4.054  13.961 -0.0238 -0.4572  0.3148
  567TMC3     O 8466   3.398   3.938  13.964 -0.2720 -0.6909  0.4044
  567TMC3     H 8467   3.427   4.323  13.915 -1.4339  0.3244 -0.3299
  567TMC3    H1 8468   3.470   3.980  14.179  2.9373 -0.3972 -2.3302
  567TMC3    H2 8469   3.459   4.381  14.330  2.1353 -1.5774  0.2989
  567TMC3    C7 8470   3.486   4.128  14.400  0.1203 -0.8300  0.1485
  567TMC3    C8 8471   3.408   4.509  14.097  0.2995  0.4867 -0.2401
  567TMC3    O1 8472   3.559   4.037  14.435 -0.0725 -0.5743 -0.7363
  567TMC3    O2 8473   3.316   4.527  14.022 -0.0408  0.0159  0.1511
  568MPD2     C 8474   0.685   0.082  16.304 -0.1086  0.5902  0.3143
  568MPD2    C1 8475   0.621   0.079  16.424  0.2609  0.3093 -0.1319
  568MPD2    C2 8476   0.505   0.149  16.436 -0.1458 -0.1219  0.5856
  568MPD2    C3 8477   0.459   0.224  16.333 -0.6642  0.3955  0.0541
  568MPD2    C4 8478   0.514   0.222  16.208  0.1002  0.2154  0.2118
  568MPD2    C5 8479   0.620   0.135  16.193  0.7947  0.1967 -0.3913
  568MPD2     H 8480   0.449   0.155  16.529 -0.9568  2.1515 -0.0680
  568MPD2    H1 8481   0.463   0.264  16.122 -2.4663 -2.7285  0.3065
  568MPD2    H2 8482   0.779   0.030  16.292  0.0708  1.1593 -0.8115
  568MPD2    H3 8483   0.661   0.130  16.094 -1.0992  1.3312 -1.2429
  568MPD2     N 8484   0.341   0.293  16.367 -0.3265 -0.1514 -0.0573
  568MPD2    H5 8485   0.304   0.284  16.461 -0.3707  0.8007  0.0162
  568MPD2    N1 8486   0.668   0.007  16.530  0.0627 -0.4765 -0.7095
  568MPD2    H7 8487   0.768   4.726  16.531 -0.1432 -1.3474  2.2369
  569TMC3    C1 8488   0.161   0.441  16.369  0.3491 -0.5499  0.1614
  569TMC3    C2 8489   0.142   0.385  16.498 -0.0541  0.3257 -0.1747
  569TMC3    C3 8490   0.139   0.468  16.601 -0.4957 -0.6848 -0.3918
  569TMC3    C4 8491   0.166   0.577  16.354 -0.2562 -0.4966  0.0089
  569TMC3    C5 8492   0.144   0.655  16.463 -0.7881 -1.0137 -0.4044
  569TMC3    C6 8493   0.126   0.602  16.590 -0.0937 -0.3233 -0.3914
  569TMC3     C 8494   0.276   0.389  16.298 -1.1756 -0.0576  0.1873
  569TMC3     O 8495   0.310   0.446  16.193  0.4880  0.4641 -0.2087
  569TMC3     H 8496   0.131   0.278  16.514 -2.0619  0.4779 -0.5482
  569TMC3    H1 8497   0.172   0.633  16.262  0.3219 -0.8053 -0.1438
  569TMC3    H2 8498   0.123   0.664  16.679  1.0368  3.0715 -2.7200
  569TMC3    C7 8499   0.111   0.799  16.452 -0.2658  0.5296 -0.5938
  569TMC3    C8 8500   0.262   0.429  16.678  0.1354 -0.4898 -0.4094
  569TMC3    O1 8501   0.018   0.852  16.507 -0.1126  0.0371  0.6544
  569TMC3    O2 8502   0.315   0.322  16.647 -0.1527  0.3605 -0.5487
  570TMC3    C1 8503   4.473   4.015  16.120 -0.1222  0.2696 -0.2595
  570TMC3    C2 8504   4.556   3.986  16.010 -0.9855  0.5783 -0.2553
  570TMC3    C3 8505   4.635   4.092  15.972 -0.6223  0.2101 -0.6838
  570TMC3    C4 8506   4.494   4.121  16.200  0.1651  0.5409 -0.3870
  570TMC3    C5 8507   4.565   4.223  16.149  0.5350 -0.8142  0.5134
  570TMC3    C6 8508   4.641   4.212  16.036 -0.0130 -0.3702  0.3896
  570TMC3     C 8509   4.388   3.917  16.174 -0.2399 -0.3815  0.6033
  570TMC3     O 8510   4.425   3.798  16.162  0.0992 -0.2664  0.0824
  570TMC3     H 8511   4.535   3.904  15.942  1.3850  0.3335 -0.6999
  570TMC3    H1 8512   4.466   4.109  16.304  0.0529  0.8065 -0.3863
  570TMC3    H2 8513   4.709   4.291  16.008 -1.5013  1.8114  2.9261
  570TMC3    C7 8514   4.621   4.307  16.246  0.1990 -0.1069  0.2194
  570TMC3    C8 8515   0.008   4.080  15.880 -0.1280  0.0304 -0.2972
  570TMC3    O1 8516   4.617   4.270  16.362 -0.2975  0.1251  0.5744
  570TMC3    O2 8517   0.072   4.177  15.841  0.1906  1.1052 -0.2633
  571MPD2     C 8518   2.978   0.888  17.709 -0.1749  0.3854 -0.4034
  571MPD2    C1 8519   2.878   0.905   0.053  0.1125  0.1242 -0.2935
  571MPD2    C2 8520   2.904   0.985   0.161 -0.0741  0.8539 -0.3887
  571MPD2    C3 8521   3.026   1.061   0.169  0.0465  0.3623  0.0588
  571MPD2    C4 8522   3.118   1.053   0.071  0.5166  0.5871 -0.6332
  571MPD2    C5 8523   3.088   0.970  17.717 -0.1311 -0.2796 -0.0303
  571MPD2     H 8524   2.828   1.001   0.236  1.4145  0.2797  1.2297
  571MPD2    H1 8525   3.215   1.100   0.061  0.5561  0.6383 -0.0207
  571MPD2    H2 8526   2.971   0.822  17.624  0.9366  0.9111 -0.9082
  571MPD2    H3 8527   3.164   0.951  17.641  1.8680  0.4969  1.7757
  571MPD2     N 8528   3.062   1.147   0.275 -0.2203 -0.4877  0.5156
  571MPD2    H5 8529   3.155   1.185   0.285 -0.7426  0.5215  1.6289
  571MPD2    N1 8530   2.763   0.820   0.036  0.7233 -0.0069  0.7498
  571MPD2    H7 8531   2.761   0.760  17.707  0.4450  0.1505  0.6414
  572TMC3    C1 8532   3.053   1.295   0.444 -0.6306 -0.3148  0.8923
  572TMC3    C2 8533   3.042   1.301   0.577 -0.5119  0.0831 -0.0024
  572TMC3    C3 8534   3.117   1.401   0.642  0.0672 -0.4848  0.6698
  572TMC3    C4 8535   3.104   1.400   0.368  0.1498 -0.5488  0.3518
  572TMC3    C5 8536   3.151   1.508   0.434 -0.5308  0.6061  0.4052
  572TMC3    C6 8537   3.158   1.511   0.573  0.7882  0.1333 -0.7760
  572TMC3     C 8538   2.976   1.201   0.363 -0.1331 -0.0221  0.6259
  572TMC3     O 8539   2.866   1.159   0.395 -0.4177 -0.2178 -0.1935
  572TMC3     H 8540   3.023   1.210   0.632  1.2262 -0.4993 -0.3808
  572TMC3    H1 8541   3.104   1.401   0.259  0.1856  2.0963  0.3667
  572TMC3    H2 8542   3.204   1.595   0.623 -1.3922  0.4439  0.7132
  572TMC3    C7 8543   3.205   1.611   0.352  0.7179  0.0124  0.1445
  572TMC3    C8 8544   3.186   1.389   0.761  0.1278  0.0165 -0.3325
  572TMC3    O1 8545   3.173   1.618   0.235 -0.1382 -0.2884 -0.1131
  572TMC3    O2 8546   3.207   1.490   0.824 -0.2445 -0.3975 -0.5142
  573MPD2     C 8547   3.444   0.435   0.811 -0.3401 -0.3910 -0.0261
  573MPD2    C1 8548   3.550   0.512   0.854  0.7166 -0.2028  0.0131
  573MPD2    C2 8549   3.559   0.635   0.793 -0.1533 -0.0561 -0.4023
  573MPD2    C3 8550   3.464   0.690   0.712 -0.4795  0.0552 -0.2008
  573MPD2    C4 8551   3.358   0.610   0.671 -0.0554 -0.7846 -0.4772
  573MPD2    C5 8552   3.345   0.484   0.723 -0.1046 -0.1027  0.3251
  573MPD2     H 8553   3.652   0.688   0.811 -0.3011 -0.5757  1.8584
  573MPD2    H1 8554   3.273   0.636   0.609  0.6988  0.6887 -0.8848
  573MPD2    H2 8555   3.430   0.340   0.860 -0.3048 -2.4554 -4.0841
  573MPD2    H3 8556   3.257   0.425   0.701 -0.1439  0.7043 -1.6740
  573MPD2     N 8557   3.476   0.823   0.664 -0.5824 -0.1919  0.5897
  573MPD2    H5 8558   3.397   0.856   0.611 -0.0806  0.3777  0.2079
  573MPD2    N1 8559   3.637   0.454   0.952 -0.4248 -0.1275  0.4807
  573MPD2    H7 8560   3.617   0.364   0.994  1.4166 -0.0422  1.5458
  574TMC3    C1 8561   3.544   1.053   0.655 -0.1014 -0.2768 -0.3848
  574TMC3    C2 8562   3.479   1.084   0.537  0.0914 -0.0001 -0.1706
  574TMC3    C3 8563   3.470   1.218   0.506 -0.0410 -0.2156  0.1043
  574TMC3    C4 8564   3.604   1.142   0.733  0.2907 -0.5055  0.3253
  574TMC3    C5 8565   3.595   1.272   0.697 -0.2931  0.0036 -0.2691
  574TMC3    C6 8566   3.526   1.309   0.586  0.6461 -0.3580  1.2886
  574TMC3     C 8567   3.573   0.914   0.702 -0.0575 -0.4908 -0.2540
  574TMC3     O 8568   3.662   0.899   0.780 -0.0457 -0.4707 -0.7857
  574TMC3     H 8569   3.442   1.010   0.467 -0.3121  0.3913 -0.3778
  574TMC3    H1 8570   3.649   1.119   0.829  0.4561  2.0619  0.8721
  574TMC3    H2 8571   3.525   1.413   0.555  1.2815 -0.3616  1.2674
  574TMC3    C7 8572   3.690   1.365   0.755  0.4738 -0.2966  0.2996
  574TMC3    C8 8573   3.425   1.252   0.371 -0.2131  0.6596  0.0528
  574TMC3    O1 8574   3.654   1.480   0.771  0.1738 -0.3896 -0.5977
  574TMC3    O2 8575   3.343   1.177   0.315 -0.1441 -0.1397 -0.2092
  575TMC3    C1 8576   0.722   1.765  10.865 -0.2637 -0.4181  0.8956
  575TMC3    C2 8577   0.712   1.858  10.967 -0.1431 -0.4965  0.4201
  575TMC3    C3 8578   0.759   1.983  10.933 -0.2389 -0.4212  0.6020
  575TMC3    C4 8579   0.765   1.793  10.738 -0.0881  0.4535  0.5888
  575TMC3    C5 8580   0.809   1.918  10.714 -0.1311  0.6821  0.1478
  575TMC3    C6 8581   0.806   2.012  10.805 -0.7232 -0.5613  0.3157
  575TMC3     C 8582   0.692   1.627  10.900 -0.9560  0.6350 -0.2060
  575TMC3     O 8583   0.732   1.538  10.832 -0.5579 -0.4013 -0.0665
  575TMC3     H 8584   0.675   1.839  11.067 -1.7989 -0.4251 -0.1778
  575TMC3    H1 8585   0.757   1.714  10.664  0.0130 -1.5613  2.7454
  575TMC3    H2 8586   0.841   2.112  10.779 -1.8667 -0.2817 -0.1342
  575TMC3    C7 8587   0.847   1.954  10.578  0.2008  0.4979  0.0328
  575TMC3    C8 8588   0.740   2.105  11.006 -0.2178 -0.1803 -0.2022
  575TMC3    O1 8589   0.904   2.061  10.553  0.3690 -0.1727  0.4779
  575TMC3    O2 8590   0.801   2.202  10.960 -0.1824  0.2849  0.2089
  576MPD2     C 8591   1.320   3.838  12.686  0.2954  0.0122 -0.5266
  576MPD2    C1 8592   1.326   3.863  12.549 -0.3359 -0.0357 -0.4339
  576MPD2    C2 8593   1.404   3.966  12.511 -0.2695  0.0540  0.4834
  576MPD2    C3 8594   1.451   4.059  12.603 -0.2905 -0.0078  0.3122
  576MPD2    C4 8595   1.434   4.043  12.735 -0.1163 -0.4117 -0.5773
  576MPD2    C5 8596   1.366   3.932  12.776  0.1797 -0.2270 -0.5837
  576MPD2     H 8597   1.412   3.978  12.403 -1.0404 -0.8615  0.3296
  576MPD2    H1 8598   1.473   4.100  12.819  1.6095 -1.7807 -0.4575
  576MPD2    H2 8599   1.280   3.742  12.718  2.6376 -0.7284  0.1975
  576MPD2    H3 8600   1.362   3.905  12.880 -2.0098  0.4622 -0.4837
  576MPD2     N 8601   1.516   4.171  12.553  0.5926 -0.4954 -0.1588
  576MPD2    H5 8602   1.542   4.161  12.456  0.4649 -0.5732 -0.1846
  576MPD2    N1 8603   1.280   3.769  12.450  0.0546 -0.4326  0.2456
  576MPD2    H7 8604   1.297   3.788  12.352  2.0195  0.5492  0.7959
  577TMC3    C1 8605   1.180   3.583  12.356  0.3566  0.3436 -0.6945
  577TMC3    C2 8606   1.252   3.469  12.343 -0.7250  0.1447 -0.1894
  577TMC3    C3 8607   1.303   3.442  12.216  0.0800  0.5251  0.1887
  577TMC3    C4 8608   1.142   3.662  12.245 -0.9463  0.3641  0.4524
  577TMC3    C5 8609   1.189   3.630  12.122  0.5167 -0.4257  0.6718
  577TMC3    C6 8610   1.282   3.528  12.109 -0.1286 -0.3084 -0.6376
  577TMC3     C 8611   1.214   3.652  12.479 -0.2382  0.0960  1.0047
  577TMC3     O 8612   1.193   3.597  12.584  0.5948 -0.7352  0.1531
  577TMC3     H 8613   1.297   3.426  12.431 -1.4920 -0.0935  0.0884
  577TMC3    H1 8614   1.093   3.756  12.269 -1.8645 -0.6459  2.5901
  577TMC3    H2 8615   1.320   3.519  12.008  1.2914  0.9725 -0.2115
  577TMC3    C7 8616   1.165   3.722  12.014  0.4069  0.0863 -0.5328
  577TMC3    C8 8617   1.397   3.334  12.197 -0.7039  0.5706  0.2690
  577TMC3    O1 8618   1.253   3.758  11.940 -0.1457  0.0993 -0.3328
  577TMC3    O2 8619   1.397   3.246  12.283 -0.2332  0.2334 -0.4647
  578MPD2     C 8620   4.464   3.909   1.560 -0.2320 -0.3832  0.6293
  578MPD2    C1 8621   4.469   3.875   1.429  0.2222 -0.9734  0.0880
  578MPD2    C2 8622   4.545   3.767   1.385  0.3104  0.3764 -0.0511
  578MPD2    C3 8623   4.611   3.690   1.476 -0.0801 -0.8275  0.4660
  578MPD2    C4 8624   4.603   3.726   1.610  0.1251 -0.4289 -0.2804
  578MPD2    C5 8625   4.527   3.832   1.653 -0.9979  0.4518 -0.2871
  578MPD2     H 8626   4.554   3.747   1.278 -0.0151  0.2840 -0.0615
  578MPD2    H1 8627   4.650   3.664   1.685  0.8864 -0.0179 -0.4242
  578MPD2    H2 8628   4.412   3.999   1.591 -0.8900 -0.3440 -0.5719
  578MPD2    H3 8629   4.512   3.856   1.758 -2.5598  0.8193 -0.5846
  578MPD2     N 8630   4.686   3.586   1.426  0.1105 -0.2811 -0.3732
  578MPD2    H5 8631   4.687   3.571   1.326 -2.5867 -3.0642  0.0274
  578MPD2    N1 8632   4.387   3.956   1.339  0.0963 -0.3050  0.0275
  578MPD2    H7 8633   4.343   4.039   1.379  1.7489  2.3474 -3.6621
  579TMC3    C1 8634   0.110   3.407   1.423  0.0098 -0.0249  0.3097
  579TMC3    C2 8635   0.233   3.377   1.477 -0.1498 -0.1271  0.6795
  579TMC3    C3 8636   0.326   3.310   1.402 -0.2463 -0.1705  0.0050
  579TMC3    C4 8637   0.072   3.363   1.299  0.2917 -0.2940 -0.3109
  579TMC3    C5 8638   0.167   3.303   1.218  0.2316 -0.5380  0.2483
  579TMC3    C6 8639   0.293   3.281   1.275  0.3628 -0.2833  0.3961
  579TMC3     C 8640   0.028   3.503   1.501 -0.3493  0.0853 -0.2862
  579TMC3     O 8641   0.065   3.520   1.617 -0.0241 -0.0210 -0.2728
  579TMC3     H 8642   0.267   3.405   1.576  2.7482 -0.8137 -0.1189
  579TMC3    H1 8643   4.708   3.359   1.265 -0.1404  0.5013  0.8960
  579TMC3    H2 8644   0.358   3.222   1.211 -0.3690  0.6682 -1.2279
  579TMC3    C7 8645   0.166   3.296   1.071 -0.9465 -0.3606  0.4952
  579TMC3    C8 8646   0.465   3.304   1.441  0.0897  0.1147 -0.6550
  579TMC3    O1 8647   0.234   3.206   1.028 -0.6049 -0.1297 -0.1678
  579TMC3    O2 8648   0.485   3.299   1.562 -0.2567 -0.1006  0.3228
  580TMC3    C1 8649   2.842   2.926  12.287 -0.1732  0.0854 -0.7541
  580TMC3    C2 8650   2.877   3.049  12.336  0.4215 -0.0037  0.8458
  580TMC3    C3 8651   2.988   3.059  12.418  0.4289  0.1583  0.0396
  580TMC3    C4 8652   2.920   2.818  12.317 -0.5424  0.3529 -0.1193
  580TMC3    C5 8653   3.027   2.831  12.402 -0.3775  0.0580  0.4882
  580TMC3    C6 8654   3.067   2.954  12.449 -0.5991 -0.4109  0.5401
  580TMC3     C 8655   2.827   2.939  12.140 -0.0814  0.4725 -0.1923
  580TMC3     O 8656   2.924   2.913  12.073  0.1942  0.2540  0.5720
  580TMC3     H 8657   2.826   3.134  12.291 -0.9026 -0.3195  1.7443
  580TMC3    H1 8658   2.901   2.721  12.273  0.0530 -0.2454  0.9471
  580TMC3    H2 8659   3.146   2.963  12.524 -1.9228  2.5384  1.5699
  580TMC3    C7 8660   3.119   2.726  12.440 -0.0122  0.0615  0.0714
  580TMC3    C8 8661   3.076   3.181  12.391 -0.3599 -0.3585 -0.5726
  580TMC3    O1 8662   3.199   2.744  12.533  1.1639  0.3241  0.2344
  580TMC3    O2 8663   3.025   3.285  12.358 -0.1971 -0.6591  0.3155
  581MPD2     C 8664   1.545   2.784  14.660 -0.2006 -0.5780 -0.3924
  581MPD2    C1 8665   1.534   2.859  14.775  0.3003 -0.6209 -0.4598
  581MPD2    C2 8666   1.417   2.915  14.811  0.8411 -0.3933 -0.2487
  581MPD2    C3 8667   1.306   2.922  14.724  0.2332 -0.3024  0.2335
  581MPD2    C4 8668   1.318   2.862  14.600 -0.0460  0.2349 -0.2323
  581MPD2    C5 8669   1.431   2.789  14.570 -0.9075  0.2611 -0.0656
  581MPD2     H 8670   1.404   2.979  14.898  0.5739 -1.2719  0.3508
  581MPD2    H1 8671   1.239   2.861  14.526  0.6696 -1.1204 -0.9925
  581MPD2    H2 8672   1.636   2.740  14.621  1.5799  0.9019  2.1232
  581MPD2    H3 8673   1.443   2.732  14.479  1.3407 -2.0508  1.6603
  581MPD2     N 8674   1.190   2.992  14.768  0.3089 -0.0495  0.3633
  581MPD2    H5 8675   1.192   3.040  14.857  0.3979  0.5359  0.0501
  581MPD2    N1 8676   1.649   2.862  14.856  0.3018  0.0801 -0.1016
  581MPD2    H7 8677   1.721   2.797  14.825 -0.4118 -0.4641 -0.6288
  582TMC3    C1 8678   1.783   2.872  15.058  0.1887  0.0717  0.4718
  582TMC3    C2 8679   1.853   2.953  15.153  0.5953  0.2979  0.9412
  582TMC3    C3 8680   1.951   2.889  15.226  0.1973  0.2260  0.2911
  582TMC3    C4 8681   1.807   2.740  15.050  0.5129 -0.3040  0.2688
  582TMC3    C5 8682   1.907   2.683  15.126 -0.4144 -0.6026 -0.4363
  582TMC3    C6 8683   1.983   2.755  15.215 -0.5746  0.2028  0.2595
  582TMC3     C 8684   1.671   2.929  14.971 -0.3088  0.2596 -0.1917
  582TMC3     O 8685   1.605   3.031  15.008 -0.0062 -1.3033 -0.1594
  582TMC3     H 8686   1.836   3.058  15.170  2.7363  1.2954 -3.0578
  582TMC3    H1 8687   1.756   2.676  14.979  2.5442 -0.7548 -0.7936
  582TMC3    H2 8688   2.039   2.691  15.282 -1.8977  1.7265  2.7945
  582TMC3    C7 8689   1.867   2.554  15.177 -0.0519 -0.3367 -0.2378
  582TMC3    C8 8690   2.005   2.953  15.340 -0.6111  0.2695 -0.3727
  582TMC3    O1 8691   1.945   2.469  15.222  0.5546  0.8021  0.1987
  582TMC3    O2 8692   1.946   3.043  15.387 -0.0126 -0.1169  0.3400
  583MPD2     C 8693   1.788   4.701  16.610  0.1277  0.1937 -0.1929
  583MPD2    C1 8694   1.780   0.100  16.598  0.4321 -0.3924 -0.2915
  583MPD2    C2 8695   1.779   0.184  16.709 -0.4771  0.2674  0.0655
  583MPD2    C3 8696   1.774   0.127  16.833 -0.4402  0.6056 -0.1022
  583MPD2    C4 8697   1.794   4.732  16.842  0.5026  0.3149  0.1638
  583MPD2    C5 8698   1.801   4.648  16.730  0.2347  0.3047  0.3116
  583MPD2     H 8699   1.769   0.289  16.683 -0.0192  0.5131  0.8778
  583MPD2    H1 8700   1.794   4.677  16.936  0.9391 -0.0198 -0.0312
  583MPD2    H2 8701   1.771   4.636  16.525 -0.6710 -1.3961  1.1806
  583MPD2    H3 8702   1.799   4.540  16.735 -0.9828  0.2252 -2.3485
  583MPD2     N 8703   1.754   0.214  16.939 -0.6270 -0.3400  0.6067
  583MPD2    H5 8704   1.733   0.310  16.914 -1.8124 -0.8866 -0.4774
  583MPD2    N1 8705   1.787   0.156  16.466 -0.0169  0.4974  0.5595
  583MPD2    H7 8706   1.790   0.257  16.463 -0.7070  0.5216  0.7005
  584TMC3    C1 8707   1.701   0.270  17.161  0.0558  0.1150 -0.0302
  584TMC3    C2 8708   1.731   0.396  17.124 -0.1015  0.5398  0.4801
  584TMC3    C3 8709   1.752   0.485  17.225 -0.3677 -0.0590  0.1005
  584TMC3    C4 8710   1.672   0.233  17.287  0.5045 -0.4773  0.2013
  584TMC3    C5 8711   1.660   0.334  17.384 -0.0387  0.0613  0.3464
  584TMC3    C6 8712   1.709   0.459  17.356  0.4567 -0.3083  0.4027
  584TMC3     C 8713   1.721   0.167  17.059 -0.3778 -0.3807 -0.1992
  584TMC3     O 8714   1.685   0.057  17.098  0.4672  0.7180  1.0662
  584TMC3     H 8715   1.770   0.430  17.029 -0.2714 -1.7992 -0.4147
  584TMC3    H1 8716   1.637   0.133  17.310 -3.3974  1.0526  0.9381
  584TMC3    H2 8717   1.712   0.533  17.435 -0.6495 -1.5868  1.6156
  584TMC3    C7 8718   1.590   0.303  17.512  0.2872 -0.6957 -0.3351
  584TMC3    C8 8719   1.797   0.618  17.183  0.0984  0.8419  0.6969
  584TMC3    O1 8720   1.532   0.199  17.531  0.2329 -0.3123  0.0705
  584TMC3    O2 8721   1.782   0.650  17.068  0.6736  0.3784 -0.1487
  585MPD2     C 8722   0.705   3.506   0.006  0.0705 -0.7021  0.5563
  585MPD2    C1 8723   0.756   3.608  17.676 -0.1701 -0.0125  0.2066
  585MPD2    C2 8724   0.827   3.573  17.558 -0.1439 -0.2156 -0.3123
  585MPD2    C3 8725   0.827   3.439  17.520  0.0476  0.1376 -0.2852
  585MPD2    C4 8726   0.775   3.342  17.606  0.2442  0.2239 -0.0595
  585MPD2    C5 8727   0.720   3.374  17.725  0.1929 -0.5161  0.2439
  585MPD2     H 8728   0.880   3.644  17.496 -0.3276  1.6048  1.6401
  585MPD2    H1 8729   0.776   3.236  17.582 -1.1554 -0.2612  2.0268
  585MPD2    H2 8730   0.645   3.529   0.093 -1.2935 -0.1364 -0.5244
  585MPD2    H3 8731   0.691   3.291   0.035 -1.7547 -1.0815 -1.4337
  585MPD2     N 8732   0.877   3.387  17.402 -0.0127  0.1217 -0.4813
  585MPD2    H5 8733   0.867   3.288  17.382 -1.1975 -0.1741  1.6054
  585MPD2    N1 8734   0.754   3.740  17.727  0.1707 -0.5795  0.1524
  585MPD2    H7 8735   0.706   3.748   0.063  2.2758  2.2978  1.0206
  586TMC3    C1 8736   0.976   3.389  17.188 -0.2904 -0.5298 -0.1011
  586TMC3    C2 8737   1.096   3.398  17.124 -0.0792 -0.4514 -0.7005
  586TMC3    C3 8738   1.133   3.306  17.026 -0.5169  0.2750  0.4203
  586TMC3    C4 8739   0.894   3.290  17.153 -0.4900 -0.5402 -0.6260
  586TMC3    C5 8740   0.925   3.197  17.057 -0.1533  0.4798 -0.0317
  586TMC3    C6 8741   1.048   3.205  16.991  0.5276  0.0909 -0.0030
  586TMC3     C 8742   0.966   3.452  17.316  0.5781 -0.2315  0.1386
  586TMC3     O 8743   1.028   3.555  17.325 -0.2274 -0.3720  0.3279
  586TMC3     H 8744   1.174   3.464  17.160 -0.2584 -0.1104 -0.9294
  586TMC3    H1 8745   0.790   3.282  17.181 -0.9297  0.6817 -1.9587
  586TMC3    H2 8746   1.077   3.135  16.914  0.4167  1.6364 -1.4406
  586TMC3    C7 8747   0.852   3.068  17.051 -0.7256  0.4712 -0.5919
  586TMC3    C8 8748   1.276   3.277  17.014  0.5302  0.4195  0.1567
  586TMC3    O1 8749   0.742   3.081  17.109  0.5876 -0.1031 -0.5009
  586TMC3    O2 8750   1.334   3.271  17.119 -0.0795 -0.2862  0.1408
  587TMC3    C1 8751   3.321   2.419  16.285 -0.1126 -0.4492 -0.5967
  587TMC3    C2 8752   3.301   2.557  16.255  0.2799 -0.2103  0.3553
  587TMC3    C3 8753   3.367   2.604  16.150 -0.8094 -0.2295 -1.3145
  587TMC3    C4 8754   3.384   2.328  16.206 -0.1517  0.1220 -0.7296
  587TMC3    C5 8755   3.427   2.385  16.086 -0.5412 -0.2855  0.3584
  587TMC3    C6 8756   3.425   2.518  16.065 -0.0497 -0.3615  0.3978
  587TMC3     C 8757   3.268   2.369  16.413  0.3028  0.0329  0.2773
  587TMC3     O 8758   3.327   2.273  16.462 -0.4626 -0.2453 -0.4245
  587TMC3     H 8759   3.266   2.630  16.328 -0.3238 -0.7930  0.6461
  587TMC3    H1 8760   3.411   2.229  16.241  0.1138  1.5595  3.1564
  587TMC3    H2 8761   3.455   2.560  15.970  2.8194  1.0495  1.9407
  587TMC3    C7 8762   3.532   2.316  16.016 -0.2412 -0.4871  0.0916
  587TMC3    C8 8763   3.375   2.741  16.111  0.0894 -0.1318  0.4194
  587TMC3    O1 8764   3.605   2.391  15.951  0.0692  0.6015  0.5901
  587TMC3    O2 8765   3.451   2.773  16.020  0.4950 -0.3512  0.7376
  588TMC3    C1 8766   0.178   4.647  10.289 -0.4272 -0.8333  0.7196
  588TMC3    C2 8767   0.188   4.519  10.242  0.0211  0.5117 -0.0571
  588TMC3    C3 8768   0.309   4.453  10.245 -0.0612 -0.5962  0.2177
  588TMC3    C4 8769   0.287   4.724  10.331 -0.1439 -0.2608 -0.3419
  588TMC3    C5 8770   0.406   4.657  10.320 -0.2817 -0.5449 -0.4966
  588TMC3    C6 8771   0.419   4.525  10.280 -0.0229  0.9273  0.4737
  588TMC3     C 8772   0.055   4.713  10.287 -0.2199 -1.3064 -0.7224
  588TMC3     O 8773   4.709   4.678  10.205  0.1478 -0.0389  0.3237
  588TMC3     H 8774   0.095   4.467  10.222  0.0996  0.9567 -1.6110
  588TMC3    H1 8775   0.277   0.093  10.327  0.9455 -0.1512 -0.3310
  588TMC3    H2 8776   0.518   4.486  10.261  0.4848  2.1924  0.5488
  588TMC3    C7 8777   0.518   4.731  10.366  0.0435  1.1528 -0.1730
  588TMC3    C8 8778   0.316   4.321  10.184 -0.0739 -0.5265 -0.6726
  588TMC3    O1 8779   0.629   4.698  10.321 -0.2849 -0.4876  0.2680
  588TMC3    O2 8780   0.206   4.275  10.147 -0.5016  0.3426 -0.8515
  589TMC3    C1 8781   4.437   2.476   0.858 -0.2195  0.3960  0.0701
  589TMC3    C2 8782   4.555   2.454   0.912  0.0855  0.0796  1.1715
  589TMC3    C3 8783   4.628   2.347   0.870 -0.3668  0.0959  0.1082
  589TMC3    C4 8784   4.382   2.387   0.769  0.0910 -0.3601 -0.0122
  589TMC3    C5 8785   4.461   2.282   0.725 -0.2759 -0.8289  0.0183
  589TMC3    C6 8786   4.584   2.259   0.775  0.0353 -0.3906  0.0148
  589TMC3     C 8787   4.363   2.594   0.902  0.2268  0.4214  0.5415
  589TMC3     O 8788   4.256   2.599   0.837  0.2568  0.1421 -0.0640
  589TMC3     H 8789   4.610   2.526   0.970  0.2213  0.4557  0.5737
  589TMC3    H1 8790   4.291   2.414   0.718 -0.9608 -0.7326  1.6663
  589TMC3    H2 8791   4.649   2.175   0.754 -0.0042 -0.8501  1.7446
  589TMC3    C7 8792   4.414   2.194   0.619  0.2386 -0.0066 -0.5746
  589TMC3    C8 8793   0.005   2.330   0.956  0.0641 -0.8260 -0.2645
  589TMC3    O1 8794   4.497   2.110   0.582 -0.5454  0.2156 -0.0660
  589TMC3    O2 8795   4.733   2.383   1.062  0.2628  0.2813 -0.3819
  590MPD2     C 8796   4.065   0.292  16.498  0.6925  0.1004  0.9498
  590MPD2    C1 8797   4.010   0.411  16.470  0.3715  0.6661  0.0952
  590MPD2    C2 8798   4.094   0.518  16.436  0.1648  0.4097 -0.2816
  590MPD2    C3 8799   4.233   0.511  16.433  0.2416 -0.2960  0.4761
  590MPD2    C4 8800   4.286   0.382  16.466  0.0669 -0.5497  0.3806
  590MPD2    C5 8801   4.203   0.270  16.493 -0.3138 -0.5937  0.6785
  590MPD2     H 8802   4.050   0.612  16.404 -0.4586  0.4684  0.7374
  590MPD2    H1 8803   4.388   0.347  16.463  0.2811 -0.1666  2.8293
  590MPD2    H2 8804   4.003   0.205  16.518 -1.6442  1.7641  0.9958
  590MPD2    H3 8805   4.246   0.171  16.501 -1.1198 -0.7553  3.1116
  590MPD2     N 8806   4.316   0.622  16.396  0.1678  0.6737 -0.0449
  590MPD2    H5 8807   4.265   0.707  16.377 -0.0941  0.5546  0.1202
  590MPD2    N1 8808   3.872   0.425  16.447  0.3583  0.1897 -0.2601
  590MPD2    H7 8809   3.838   0.509  16.401 -1.9771 -1.5559 -1.7314
  591TMC3    C1 8810   4.508   0.748  16.312 -0.0774 -0.1042  0.0558
  591TMC3    C2 8811   4.611   0.737  16.223 -0.3104  0.4373 -0.7177
  591TMC3    C3 8812   4.661   0.852  16.166  1.0649 -0.2058 -0.3941
  591TMC3    C4 8813   4.443   0.869  16.332 -0.0161 -0.2708  0.3021
  591TMC3    C5 8814   4.488   0.984  16.262  0.7116 -0.2535 -0.7535
  591TMC3    C6 8815   4.598   0.978  16.175  0.2724  1.0977 -0.3049
  591TMC3     C 8816   4.451   0.621  16.368  0.2831 -0.6968 -1.0853
  591TMC3     O 8817   4.524   0.529  16.379  0.6340  0.4359  0.0924
  591TMC3     H 8818   4.651   0.639  16.200  0.3699 -0.6039  4.8274
  591TMC3    H1 8819   4.384   0.888  16.421 -0.3437  2.0165 -0.3826
  591TMC3    H2 8820   4.637   1.071  16.136  0.0901  1.4810  0.4252
  591TMC3    C7 8821   4.448   1.108  16.327  0.1852 -0.4683  0.2441
  591TMC3    C8 8822   0.025   0.823  16.071  0.2682 -0.5027  0.3172
  591TMC3    O1 8823   4.393   1.115  16.435  0.0936 -0.2043  0.0207
  591TMC3    O2 8824   0.025   0.714  16.015  0.2498 -0.4695 -0.3523
  592MPD2     C 8825   4.355   2.557  11.636 -0.3161  0.6263 -0.0803
  592MPD2    C1 8826   4.331   2.618  11.755  0.0094 -0.7353  0.2646
  592MPD2    C2 8827   4.225   2.559  11.823 -0.3793  0.3696  0.4431
  592MPD2    C3 8828   4.168   2.433  11.800 -0.0301 -0.2192 -0.5325
  592MPD2    C4 8829   4.205   2.369  11.687 -0.2463  0.0859  0.3666
  592MPD2    C5 8830   4.296   2.435  11.607 -0.5511  0.2579  0.5494
  592MPD2     H 8831   4.190   2.615  11.909 -0.9865  0.1627  0.3337
  592MPD2    H1 8832   4.168   2.277  11.645 -1.2682 -0.1493  1.7819
  592MPD2    H2 8833   4.422   2.600  11.563 -1.6677  1.6121 -0.7219
  592MPD2    H3 8834   4.308   2.390  11.510 -0.2827  0.7438  0.3603
  592MPD2     N 8835   4.064   2.387  11.882 -0.1855 -0.0897 -0.3882
  592MPD2    H5 8836   4.023   2.441  11.957  2.2200  0.8284  0.2641
  592MPD2    N1 8837   4.389   2.743  11.780  0.4709 -0.8946  0.5657
  592MPD2    H7 8838   4.464   2.768  11.716  0.8307 -1.5626  0.7287
  593TMC3    C1 8839   4.484   2.920  11.892  0.2886  0.3639  0.1206
  593TMC3    C2 8840   4.532   2.967  12.012  0.7031 -0.3015 -0.6350
  593TMC3    C3 8841   4.643   3.041  12.013  0.6529  0.2868 -0.0509
  593TMC3    C4 8842   4.537   2.963  11.772 -0.3970 -0.1577  0.1803
  593TMC3    C5 8843   4.644   3.042  11.771 -0.2160 -0.8062  0.6887
  593TMC3    C6 8844   4.698   3.083  11.893  0.1893 -0.0426 -0.1710
  593TMC3     C 8845   4.382   2.810  11.896  0.4042 -0.7516 -0.2685
  593TMC3     O 8846   4.337   2.784  12.005 -0.1314 -0.0154  0.0047
  593TMC3     H 8847   4.487   2.926  12.102  3.9399  0.3749  1.3002
  593TMC3    H1 8848   4.498   2.932  11.676  1.2955 -0.8198 -0.2913
  593TMC3    H2 8849   0.049   3.143  11.901  0.6988 -0.7114 -0.9381
  593TMC3    C7 8850   4.737   3.063  11.661  0.2794 -0.1223  0.6775
  593TMC3    C8 8851   4.669   3.111  12.138 -0.3596 -0.5749 -0.5259
  593TMC3    O1 8852   0.098   3.130  11.685 -0.2371 -0.9952 -0.0432
  593TMC3    O2 8853   4.592   3.093  12.234 -0.1457  0.5007 -0.4514
  594MPD2     C 8854   3.359   1.513  14.976  0.1573 -0.0395 -0.1227
  594MPD2    C1 8855   3.403   1.485  14.852  0.2062 -0.7108 -0.3077
  594MPD2    C2 8856   3.485   1.573  14.786  1.0748  0.1487  0.0449
  594MPD2    C3 8857   3.510   1.696  14.848 -0.4062  0.1993 -0.7285
  594MPD2    C4 8858   3.477   1.720  14.980 -0.1027  0.2941  0.1007
  594MPD2    C5 8859   3.406   1.621  15.047  0.0796 -0.0904  0.6119
  594MPD2     H 8860   3.521   1.561  14.684 -0.5885  1.8922 -0.7379
  594MPD2    H1 8861   3.500   1.813  15.031 -1.4126  0.5539  0.2306
  594MPD2    H2 8862   3.307   1.439  15.036  0.3306  0.3915  0.5583
  594MPD2    H3 8863   3.384   1.634  15.153  0.9025  0.2775  0.7375
  594MPD2     N 8864   3.583   1.798  14.777  0.1290  0.2293  0.3500
  594MPD2    H5 8865   3.646   1.774  14.701 -2.2320  1.4472 -2.0040
  594MPD2    N1 8866   3.339   1.376  14.784 -0.4670 -0.4142  0.8721
  594MPD2    H7 8867   3.292   1.312  14.847  0.4787 -1.1945  0.7890
  595TMC3    C1 8868   3.908   2.055  14.683  0.3349 -0.4656 -0.0009
  595TMC3    C2 8869   3.808   1.964  14.715  1.1649  0.2517  0.3494
  595TMC3    C3 8870   3.685   2.012  14.753 -0.0549 -0.1031 -0.0040
  595TMC3    C4 8871   3.882   2.190  14.692 -0.2619  0.2570 -0.9768
  595TMC3    C5 8872   3.755   2.233  14.723  0.4975  0.3806 -0.0804
  595TMC3    C6 8873   3.660   2.147  14.762 -0.0934 -0.4359  0.5057
  595TMC3     C 8874   4.044   2.009  14.664  0.1505  0.2209 -0.1896
  595TMC3     O 8875   4.140   2.087  14.691  0.0166  0.3291  0.7342
  595TMC3     H 8876   3.848   1.867  14.740 -2.0265 -1.0047  0.4608
  595TMC3    H1 8877   3.963   2.259  14.671 -0.2113  0.1777 -1.0400
  595TMC3    H2 8878   3.560   2.178  14.791  0.1020  0.3596  0.3440
  595TMC3    C7 8879   3.710   2.369  14.715  0.2675 -0.7409 -1.0088
  595TMC3    C8 8880   3.573   1.932  14.797  0.6094 -0.1933 -0.3838
  595TMC3    O1 8881   3.590   2.389  14.706  0.6548  0.6345  0.0524
  595TMC3    O2 8882   3.498   1.991  14.874  0.3240 -0.0685  0.5039
  596MPD2     C 8883   2.490   4.526  16.693  0.1799  0.1439 -0.0792
  596MPD2    C1 8884   2.488   4.656  16.648  0.4474  0.1099  0.1284
  596MPD2    C2 8885   2.525   4.676  16.510 -0.6196 -0.0037 -0.0152
  596MPD2    C3 8886   2.548   4.563  16.428 -0.2466  0.1545  0.8540
  596MPD2    C4 8887   2.542   4.435  16.478  0.8333 -0.1058 -0.9597
  596MPD2    C5 8888   2.514   4.418  16.612 -0.3876  0.1220  1.0183
  596MPD2     H 8889   2.528   0.038  16.470 -0.5471  0.8006  2.0259
  596MPD2    H1 8890   2.561   4.351  16.413  1.3696  1.8418 -3.3079
  596MPD2    H2 8891   2.493   4.497  16.798 -0.9061 -0.5334 -0.2382
  596MPD2    H3 8892   2.505   4.321  16.660  1.2737  0.2844  1.6802
  596MPD2     N 8893   2.572   4.567  16.289  0.4349 -0.1625 -0.5142
  596MPD2    H5 8894   2.585   4.475  16.251 -1.7168 -0.1733 -1.2559
  596MPD2    N1 8895   2.467   0.020  16.731  0.2886  0.1657 -0.1095
  596MPD2    H7 8896   2.468   0.111  16.687 -0.3740  0.8478  1.3001
  597TMC3    C1 8897   2.456   0.144  16.939 -0.1578 -0.1570 -0.0478
  597TMC3    C2 8898   2.559   0.226  16.896  0.1789 -0.2769  0.0201
  597TMC3    C3 8899   2.587   0.338  16.976  0.1412 -0.3331  0.0139
  597TMC3    C4 8900   2.388   0.171  17.056 -0.1987  0.0346 -0.4925
  597TMC3    C5 8901   2.437   0.267  17.139 -0.2440 -0.2632  0.9026
  597TMC3    C6 8902   2.521   0.359  17.093 -0.0421  0.2791 -0.0722
  597TMC3     C 8903   2.454   0.017  16.870  0.2810  0.3379  0.1197
  597TMC3     O 8904   2.430   4.665  16.947  0.4381  0.1963 -0.4648
  597TMC3     H 8905   2.609   0.205  16.802 -0.4105 -0.1441 -0.3287
  597TMC3    H1 8906   2.309   0.102  17.083 -0.5427  0.9574  0.8660
  597TMC3    H2 8907   2.559   0.427  17.168 -2.3699 -0.0315  1.3636
  597TMC3    C7 8908   2.367   0.268  17.265  0.3029  0.4587  0.3817
  597TMC3    C8 8909   2.648   0.449  16.913  0.1948 -0.4284  0.4997
  597TMC3    O1 8910   2.307   0.163  17.295  0.1047 -0.0581 -0.6038
  597TMC3    O2 8911   2.691   0.538  16.983 -0.1055 -0.4264  0.6095
  598TMC3    C1 8912   0.345   1.095  15.663  0.5778 -0.0494  0.0420
  598TMC3    C2 8913   0.311   0.960  15.646 -0.8299  0.1866  0.0599
  598TMC3    C3 8914   0.373   0.893  15.549 -0.6836 -0.4550 -0.3905
  598TMC3    C4 8915   0.432   1.154  15.576 -0.2667 -0.4377  0.3045
  598TMC3    C5 8916   0.494   1.081  15.479 -0.2562  0.2704  0.0048
  598TMC3    C6 8917   0.459   0.948  15.454  0.4483  0.0876  0.3194
  598TMC3     C 8918   0.250   1.180  15.742  0.3702 -0.8027 -0.3455
  598TMC3     O 8919   0.139   1.124  15.765  0.2881 -0.3703  0.5444
  598TMC3     H 8920   0.230   0.918  15.705  0.2386 -0.7669  0.8383
  598TMC3    H1 8921   0.435   1.263  15.580  0.2096 -0.3953 -1.2633
  598TMC3    H2 8922   0.511   0.901  15.371  0.8389  1.2245 -0.0802
  598TMC3    C7 8923   0.573   1.156  15.376  0.5341 -0.6411  0.1946
  598TMC3    C8 8924   0.309   0.769  15.501  0.1494  0.3912  0.3924
  598TMC3    O1 8925   0.587   1.095  15.270  0.2720 -0.2939 -0.5885
  598TMC3    O2 8926   0.374   0.734  15.404  0.3863  0.1087  0.1993
  599MPD2     C 8927   0.970   3.458  15.583 -0.4020 -0.5435 -0.7377
  599MPD2    C1 8928   0.916   3.339  15.625  0.2147 -0.0804 -0.4465
  599MPD2    C2 8929   0.794   3.354  15.691 -0.4888 -0.0828 -0.0149
  599MPD2    C3 8930   0.740   3.474  15.730  0.2142 -0.7342  0.2046
  599MPD2    C4 8931   0.800   3.593  15.689 -0.9455 -0.8274 -0.0550
  599MPD2    C5 8932   0.914   3.573  15.618  0.7026  0.5070 -0.3138
  599MPD2     H 8933   0.739   3.267  15.723 -0.1527 -0.7324 -1.2189
  599MPD2    H1 8934   0.758   3.691  15.707  0.7369 -0.1863  0.3536
  599MPD2    H2 8935   1.065   3.457  15.530  0.1285  0.1828  0.1879
  599MPD2    H3 8936   0.970   3.663  15.592 -0.7439  1.2425 -0.8777
  599MPD2     N 8937   0.630   3.492  15.811 -0.4404 -0.1530 -0.0380
  599MPD2    H5 8938   0.605   3.589  15.827 -0.3783  0.0191 -1.0132
  599MPD2    N1 8939   0.983   3.213  15.592  0.3333  0.5540  0.3638
  599MPD2    H7 8940   1.068   3.224  15.538 -0.8052 -0.5434 -1.6441
  600TMC3    C1 8941   0.438   3.458  15.941 -0.3861 -0.3545 -0.3172
  600TMC3    C2 8942   0.313   3.395  15.943  0.2615 -0.1026 -0.2622
  600TMC3    C3 8943   0.216   3.447  16.022  0.4491 -0.3709 -0.6976
  600TMC3    C4 8944   0.463   3.557  16.032  0.2774 -0.0327  0.4011
  600TMC3    C5 8945   0.365   3.598  16.113 -0.1178 -0.1063  0.9257
  600TMC3    C6 8946   0.239   3.548  16.108  0.1757  0.8198  0.4733
  600TMC3     C 8947   0.549   3.399  15.870 -0.0260 -0.4911  0.3198
  600TMC3     O 8948   0.547   3.278  15.857  0.5387  0.4955  0.3337
  600TMC3     H 8949   0.290   3.310  15.879  1.9417 -0.7428 -0.0203
  600TMC3    H1 8950   0.565   3.593  16.034  0.0948  0.4515  0.8316
  600TMC3    H2 8951   0.180   3.554  16.198 -0.3386  1.7684  0.0691
  600TMC3    C7 8952   0.395   3.710  16.207  0.0901  0.5384 -0.5945
  600TMC3    C8 8953   0.108   3.359  16.061  0.6149  0.0605 -0.2821
  600TMC3    O1 8954   0.306   3.742  16.286  0.4966 -0.9046 -0.0430
  600TMC3    O2 8955   0.121   3.244  16.016 -0.2529 -0.0544 -0.2543
  601MPD2     C 8956   3.463   2.055   0.290 -0.5796 -0.1903 -0.8624
  601MPD2    C1 8957   3.367   1.995   0.204  0.3046 -0.5236  0.0995
  601MPD2    C2 8958   3.316   1.871   0.250 -0.3450 -0.2473  0.3509
  601MPD2    C3 8959   3.355   1.810   0.369 -0.0792 -0.0289  0.2391
  601MPD2    C4 8960   3.447   1.870   0.445 -0.0028 -0.1809 -0.2140
  601MPD2    C5 8961   3.501   1.990   0.405  0.0297 -0.0542 -0.1154
  601MPD2     H 8962   3.259   1.811   0.180 -1.8094  0.0678  1.2702
  601MPD2    H1 8963   3.472   1.821   0.538  1.2375  3.8422  1.5317
  601MPD2    H2 8964   3.515   2.146   0.262  1.3106 -1.1943 -0.6578
  601MPD2    H3 8965   3.567   2.049   0.468 -1.0248  0.8100  0.1886
  601MPD2     N 8966   3.296   1.692   0.415  0.2240  0.1545  0.1508
  601MPD2    H5 8967   3.326   1.671   0.509 -0.7721  1.3996  0.7532
  601MPD2    N1 8968   3.322   2.056   0.086  0.4238  0.3348  0.2899
  601MPD2    H7 8969   3.250   1.998   0.044  1.4049 -0.5414 -0.1835
  602TMC3    C1 8970   3.264   2.240  17.691  0.4078 -0.2147 -0.5812
  602TMC3    C2 8971   3.236   2.373  17.702  0.0635  0.8854 -0.3052
  602TMC3    C3 8972   3.148   2.425  17.609 -0.3056  0.3509 -0.3242
  602TMC3    C4 8973   3.211   2.161  17.592  0.4152  0.7244 -0.2804
  602TMC3    C5 8974   3.134   2.221  17.497  0.4524 -0.1770  0.3373
  602TMC3    C6 8975   3.100   2.351  17.504  0.5285 -0.2638 -0.1128
  602TMC3     C 8976   3.355   2.180   0.042 -0.0089  0.6214  0.1475
  602TMC3     O 8977   3.442   2.257   0.089  0.2623 -0.1254  0.3713
  602TMC3     H 8978   3.271   2.427   0.036  2.7759 -0.2966 -0.6460
  602TMC3    H1 8979   3.222   2.054  17.597 -0.9069  0.5338 -1.7272
  602TMC3    H2 8980   3.064   2.396  17.412  0.5135  1.3735  0.7099
  602TMC3    C7 8981   3.079   2.141  17.389 -0.1812 -0.8228  0.5843
  602TMC3    C8 8982   3.065   2.537  17.638 -0.6401 -0.0884 -0.6906
  602TMC3    O1 8983   3.126   2.031  17.366 -0.0647  0.3720  0.2897
  602TMC3    O2 8984   3.118   2.636  17.682 -0.0062  0.1457 -0.4154
  603TMC3    C1 8985   1.209   2.049  10.697 -0.1113 -0.3712  0.1336
  603TMC3    C2 8986   1.217   2.060  10.835  0.7852 -0.2813  0.6751
  603TMC3    C3 8987   1.191   2.178  10.892 -0.6726 -0.2410  0.1327
  603TMC3    C4 8988   1.167   2.154  10.622  0.2570  0.1362 -0.5625
  603TMC3    C5 8989   1.134   2.272  10.681  0.5127  0.9361  0.1138
  603TMC3    C6 8990   1.158   2.288  10.812  0.6460 -0.3330 -0.2830
  603TMC3     C 8991   1.227   1.918  10.627  0.2675  1.3506 -0.4902
  603TMC3     O 8992   1.234   1.926  10.507 -0.4564  0.1099  0.1098
  603TMC3     H 8993   1.258   1.979  10.894  0.8430 -0.3288  0.5682
  603TMC3    H1 8994   1.148   2.148  10.516  0.8069 -1.7606 -0.5521
  603TMC3    H2 8995   1.120   2.381  10.852  0.5665  0.1698 -1.5418
  603TMC3    C7 8996   1.076   2.380  10.598 -0.9932 -0.1891 -0.2639
  603TMC3    C8 8997   1.195   2.185  11.032  0.5531 -0.0030  0.0670
  603TMC3    O1 8998   1.128   2.489  10.610 -0.8915 -0.2699  0.3456
  603TMC3    O2 8999   1.180   2.078  11.093 -0.0899  0.2317 -0.2614
  604MPD2     C 9000   2.042   1.348  16.141  0.7421 -0.6275 -0.0168
  604MPD2    C1 9001   1.973   1.240  16.181 -0.4303 -0.4024  0.0055
  604MPD2    C2 9002   1.936   1.146  16.087 -0.6330 -0.4208  0.0203
  604MPD2    C3 9003   1.998   1.150  15.968 -0.3523  0.4278 -0.3680
  604MPD2    C4 9004   2.080   1.257  15.933 -0.0607  0.8644  0.1765
  604MPD2    C5 9005   2.097   1.363  16.017 -0.4540 -0.4055  0.0530
  604MPD2     H 9006   1.873   1.061  16.113 -2.9058  1.5381  0.8929
  604MPD2    H1 9007   2.134   1.272  15.840  1.3579 -0.5962  0.7642
  604MPD2    H2 9008   2.054   1.427  16.214 -0.6202 -0.1960 -0.2574
  604MPD2    H3 9009   2.164   1.443  15.992 -0.5409 -1.3023 -3.0436
  604MPD2     N 9010   1.966   1.049  15.867  0.0062  0.2480  0.3335
  604MPD2    H5 9011   1.889   0.985  15.884 -0.8009  1.1907  0.2069
  604MPD2    N1 9012   1.934   1.246  16.316  0.4256  0.3208  0.3141
  604MPD2    H7 9013   1.931   1.339  16.358 -1.9233  0.6141 -0.4917
  605TMC3    C1 9014   1.837   1.210  16.518  0.0094 -0.2435  0.0016
  605TMC3    C2 9015   1.920   1.303  16.567 -0.1542 -0.3696 -0.1340
  605TMC3    C3 9016   1.892   1.335  16.699  0.1468  0.0204  0.0483
  605TMC3    C4 9017   1.743   1.146  16.591  0.0863  0.2435 -0.2459
  605TMC3    C5 9018   1.714   1.189  16.717  0.3130  0.6643  0.2721
  605TMC3    C6 9019   1.783   1.290  16.771 -0.1004  0.8818  0.0299
  605TMC3     C 9020   1.868   1.150  16.388  0.2085  0.6779 -0.4259
  605TMC3     O 9021   1.834   1.039  16.354 -0.2622  0.0354  0.6194
  605TMC3     H 9022   2.013   1.334  16.522 -0.6036 -1.4087 -1.7969
  605TMC3    H1 9023   1.667   1.096  16.532  0.8564 -3.9522  2.3251
  605TMC3    H2 9024   1.760   1.320  16.873  0.6355  0.4066  0.3344
  605TMC3    C7 9025   1.571   1.200  16.721 -0.3025 -0.3240  0.1172
  605TMC3    C8 9026   1.981   1.443  16.754  0.8177 -0.1450  0.1046
  605TMC3    O1 9027   1.523   1.307  16.683  0.3424  0.2067 -0.2562
  605TMC3    O2 9028   2.024   1.520  16.668  0.2427  0.0083  0.5492
  606TMC3    C1 9029   2.803   4.174  17.679  0.0678 -0.2162  0.1254
  606TMC3    C2 9030   2.878   4.129   0.027 -0.3729 -0.3704 -0.6870
  606TMC3    C3 9031   2.964   4.027   0.013  0.1885  0.5424 -0.5852
  606TMC3    C4 9032   2.790   4.103  17.565 -0.0719  0.2137 -0.0383
  606TMC3    C5 9033   2.882   4.002  17.553  0.5844 -0.4768 -0.7205
  606TMC3    C6 9034   2.972   3.964  17.644  0.6192  0.4744  0.4330
  606TMC3     C 9035   2.739   4.305  17.691  0.5642 -0.2948 -0.7043
  606TMC3     O 9036   2.782   4.379   0.025  0.0963 -0.1711 -0.3036
  606TMC3     H 9037   2.867   4.182   0.122 -0.3724 -1.1488 -0.2532
  606TMC3    H1 9038   2.735   4.139  17.478 -2.7177  2.0368  2.4022
  606TMC3    H2 9039   3.029   3.877  17.616 -1.0746 -1.1848  2.1836
  606TMC3    C7 9040   2.876   3.920  17.435 -0.8770 -0.2830  0.3371
  606TMC3    C8 9041   3.060   3.994   0.118 -0.5543  0.1978  0.0363
  606TMC3    O1 9042   2.980   3.858  17.405  0.3169 -0.0028  0.9325
  606TMC3    O2 9043   3.050   4.058   0.220  0.2894  0.3243  0.0853
  607MPD2     C 9044   4.702   2.282  11.503  0.6557  0.0326 -0.4873
  607MPD2    C1 9045   0.026   2.377  11.578  0.2261 -0.4401 -0.1163
  607MPD2    C2 9046   0.005   2.382  11.712  0.2982  0.2932  0.4255
  607MPD2    C3 9047   4.634   2.312  11.766 -0.0961 -0.0612  0.1051
  607MPD2    C4 9048   4.559   2.232  11.689  1.0042 -0.2653  0.8363
  607MPD2    C5 9049   4.603   2.210  11.563 -0.6603  0.0840  0.9804
  607MPD2     H 9050   0.068   2.453  11.765  0.0787  0.6919  0.1564
  607MPD2    H1 9051   4.474   2.172  11.721  0.5922  0.4136  1.0084
  607MPD2    H2 9052   4.719   2.261  11.398 -0.7823 -1.3340 -0.4399
  607MPD2    H3 9053   4.549   2.142  11.498  0.9134  0.3313 -0.5841
  607MPD2     N 9054   4.599   2.352  11.899 -0.1236 -0.0799 -0.6312
  607MPD2    H5 9055   4.664   2.411  11.949  1.2048 -2.3285  0.2830
  607MPD2    N1 9056   0.119   2.462  11.519 -0.1890 -0.5696 -0.2242
  607MPD2    H7 9057   0.159   2.529  11.584 -1.9247  1.0188 -0.7921
  608TMC3    C1 9058   0.244   2.585  11.372 -0.1068  0.5719 -0.0562
  608TMC3    C2 9059   0.232   2.678  11.472  0.2107  0.5206  0.5655
  608TMC3    C3 9060   0.343   2.770  11.475  0.2220  0.1181  0.6054
  608TMC3    C4 9061   0.344   2.582  11.276  0.0567 -0.7554  0.5746
  608TMC3    C5 9062   0.445   2.675  11.286 -0.0198  0.8007  0.1541
  608TMC3    C6 9063   0.450   2.767  11.396 -0.5377 -0.8722  0.6530
  608TMC3     C 9064   0.150   2.474  11.385  0.2076  0.0632  0.6921
  608TMC3     O 9065   0.115   2.417  11.281 -0.7054  0.6212 -0.5941
  608TMC3     H 9066   0.144   2.689  11.535 -0.3167  1.4507 -0.3229
  608TMC3    H1 9067   0.345   2.501  11.204 -5.1568 -0.5469  0.3139
  608TMC3    H2 9068   0.536   2.829  11.414 -1.6275  0.7275  0.3758
  608TMC3    C7 9069   0.543   2.682  11.175 -0.3761 -0.2203 -0.0239
  608TMC3    C8 9070   0.375   2.845  11.595 -0.3572 -0.9473 -0.1290
  608TMC3    O1 9071   0.499   2.651  11.068 -0.0382  0.3122 -0.0544
  608TMC3    O2 9072   0.490   2.875  11.621 -0.2235 -0.0556 -0.0882
  609TMC3    C1 9073   2.984   1.101   9.158  0.4294  0.2180  0.4030
  609TMC3    C2 9074   2.930   0.977   9.128 -0.2966 -1.1405  0.7236
  609TMC3    C3 9075   3.009   0.875   9.076 -0.4735  0.9747  0.1986
  609TMC3    C4 9076   3.119   1.117   9.134 -0.0595 -0.2687  0.2414
  609TMC3    C5 9077   3.192   1.020   9.067 -0.0635 -0.0708 -0.2887
  609TMC3    C6 9078   3.139   0.898   9.039  1.0485  0.9709 -0.5609
  609TMC3     C 9079   2.904   1.197   9.226  0.4057  0.1700 -0.5855
  609TMC3     O 9080   2.801   1.162   9.283  0.0217 -0.1378  0.2056
  609TMC3     H 9081   2.825   0.964   9.152 -0.6662 -2.8439 -1.8001
  609TMC3    H1 9082   3.172   1.204   9.170  1.9973 -1.1041 -0.8024
  609TMC3    H2 9083   3.198   0.815   9.002 -0.7684 -0.3798 -0.4576
  609TMC3    C7 9084   3.335   1.035   9.056  0.1547  0.2784 -0.5110
  609TMC3    C8 9085   2.961   0.740   9.078 -0.2307 -0.0163  0.3631
  609TMC3    O1 9086   3.384   1.130   9.115 -0.3079  0.6634 -0.9664
  609TMC3    O2 9087   3.017   0.660   9.004 -0.5502 -0.3633  0.6685
  610TMC3    C1 9088   0.162   2.340  12.669  0.0930  0.6720 -0.5533
  610TMC3    C2 9089   0.210   2.405  12.554 -0.4134 -0.2817  0.0576
  610TMC3    C3 9090   0.321   2.349  12.496 -0.0244 -0.4168 -0.3070
  610TMC3    C4 9091   0.212   2.216  12.710 -0.0375  1.0885  0.2683
  610TMC3    C5 9092   0.318   2.164  12.652 -0.2214  0.1887 -0.3606
  610TMC3    C6 9093   0.375   2.229  12.536  0.9439 -0.3268  0.7264
  610TMC3     C 9094   0.037   2.376  12.735 -0.0299  0.5977  0.0909
  610TMC3     O 9095   4.706   2.284  12.780 -0.2626 -0.2592  0.2926
  610TMC3     H 9096   0.157   2.492  12.517 -1.2537  0.2367  2.4131
  610TMC3    H1 9097   0.165   2.169  12.795  1.7612 -3.2996 -1.1624
  610TMC3    H2 9098   0.458   2.176  12.490 -0.3763 -1.5063 -0.3030
  610TMC3    C7 9099   0.401   2.075  12.720  0.3326  0.0792 -0.1454
  610TMC3    C8 9100   0.381   2.416  12.383  0.0123  0.2208 -0.5948
  610TMC3    O1 9101   0.477   2.009  12.650 -0.2614 -0.1619  0.0344
  610TMC3    O2 9102   0.316   2.511  12.341 -0.0354  0.6425  0.5716
  611MPD2     C 9103   4.377   2.734  10.323  0.0349  0.3638 -0.0403
  611MPD2    C1 9104   4.376   2.596  10.325 -0.3323 -0.2038  0.0163
  611MPD2    C2 9105   4.488   2.524  10.289  0.2084 -0.2850  0.2388
  611MPD2    C3 9106   4.607   2.594  10.260 -0.6110 -0.2605  0.0672
  611MPD2    C4 9107   4.602   2.736  10.257 -0.5212  0.2358 -0.2437
  611MPD2    C5 9108   4.489   2.805  10.281  0.6232  0.0872  0.2947
  611MPD2     H 9109   4.482   2.417  10.278  0.3835 -0.0905 -1.7786
  611MPD2    H1 9110   4.684   2.795  10.217  0.6442 -0.6599  0.8172
  611MPD2    H2 9111   4.290   2.782  10.368 -0.4597  0.7405 -1.4223
  611MPD2    H3 9112   4.494   2.913  10.274  2.5261 -0.0745 -0.7618
  611MPD2     N 9113   4.729   2.526  10.230 -0.8264  0.0030 -0.0063
  611MPD2    H5 9114   0.067   2.591  10.219 -0.1105 -0.9896 -0.9073
  611MPD2    N1 9115   4.253   2.535  10.360  0.0662  0.8569  0.2873
  611MPD2    H7 9116   4.167   2.590  10.351 -0.3426  0.5374  2.2236
  612TMC3    C1 9117   0.140   2.351  10.181  0.6119  0.5550  0.1214
  612TMC3    C2 9118   0.244   2.445  10.199  0.5804  0.1548 -0.0857
  612TMC3    C3 9119   0.368   2.387  10.191  0.0973  0.2924 -0.3085
  612TMC3    C4 9120   0.161   2.223  10.132  0.2143  0.6873  0.2655
  612TMC3    C5 9121   0.288   2.189  10.099 -0.8267  0.6284 -0.0092
  612TMC3    C6 9122   0.394   2.269  10.131  0.8804  0.4357  0.3501
  612TMC3     C 9123   4.738   2.389  10.201  0.4146  0.0704 -0.3536
  612TMC3     O 9124   4.653   2.314  10.155 -0.5935  0.2261  0.1418
  612TMC3     H 9125   0.233   2.547  10.232 -0.8673  0.0918 -0.3477
  612TMC3    H1 9126   0.080   2.160  10.100 -1.5150  2.5373  0.9554
  612TMC3    H2 9127   0.495   2.231  10.114  0.7431 -0.1528  0.8550
  612TMC3    C7 9128   0.323   2.073  10.013 -0.0400  0.7332  0.3787
  612TMC3    C8 9129   0.482   2.470  10.221  0.0630  0.0777  0.3812
  612TMC3    O1 9130   0.437   2.083   9.962  0.0879 -0.4373  0.1268
  612TMC3    O2 9131   0.470   2.592  10.221 -0.3241  0.4524  0.2150
  613MPD2     C 9132   3.643   0.222  16.921 -0.5903  0.1879 -0.2639
  613MPD2    C1 9133   3.635   0.091  16.875  0.3435  0.2609 -0.2855
  613MPD2    C2 9134   3.556   4.736  16.945 -0.1626 -0.3323 -0.5977
  613MPD2    C3 9135   3.478   0.039  17.058  0.2914  0.4723 -0.8963
  613MPD2    C4 9136   3.487   0.171  17.096 -0.9174 -0.3167 -0.1207
  613MPD2    C5 9137   3.573   0.259  17.029  0.2447  0.6520  0.3791
  613MPD2     H 9138   3.532   4.637  16.907  0.8662 -0.2027 -1.5647
  613MPD2    H1 9139   3.422   0.215  17.171 -2.3447  1.4322 -2.3639
  613MPD2    H2 9140   3.684   0.305  16.863 -0.6129  0.1310 -0.3620
  613MPD2    H3 9141   3.556   0.362  17.058 -1.0160  0.6015 -0.1995
  613MPD2     N 9142   3.381   4.684  17.099 -0.5641 -0.6444 -0.1291
  613MPD2    H5 9143   3.386   4.594  17.053 -0.9798 -0.1366 -1.1774
  613MPD2    N1 9144   3.695   0.059  16.753 -0.0762  0.2038  0.5016
  613MPD2    H7 9145   3.742   0.137  16.708  1.9763 -1.3553 -0.0591
  614TMC3    C1 9146   3.705   4.679  16.549  0.3691 -0.3216 -0.3807
  614TMC3    C2 9147   3.733   4.550  16.506 -0.0254  0.4064 -0.2551
  614TMC3    C3 9148   3.661   4.518  16.385 -0.2072 -0.1201 -0.2150
  614TMC3    C4 9149   3.612   0.022  16.486  0.0593  0.2551 -0.2410
  614TMC3    C5 9150   3.536   4.718  16.376  0.3528 -0.0137 -0.4735
  614TMC3    C6 9151   3.573   4.600  16.323  0.8178  0.6352 -0.4952
  614TMC3     C 9152   3.700   4.677  16.696 -0.0299 -0.4887  0.2212
  614TMC3     O 9153   3.685   4.563  16.746  0.5983 -0.3401 -0.2443
  614TMC3     H 9154   3.803   4.479  16.546 -0.1819  0.9508  0.9944
  614TMC3    H1 9155   3.572   0.106  16.541  0.1425  0.2239 -0.1335
  614TMC3    H2 9156   3.504   4.562  16.248 -0.5122  1.2660  0.4044
  614TMC3    C7 9157   3.431   0.073  16.331  0.7188 -0.1677  0.0565
  614TMC3    C8 9158   3.610   4.385  16.404  0.1233  0.0546 -0.2678
  614TMC3    O1 9159   3.369   0.140  16.414  0.3171  0.1465  0.3756
  614TMC3    O2 9160   3.596   4.321  16.305 -0.0850  0.2411 -0.8160
  615MPD2     C 9161   3.277   1.033  15.826  0.5830 -0.0138 -0.2668
  615MPD2    C1 9162   3.218   1.155  15.857 -0.4495  0.2498 -0.3101
  615MPD2    C2 9163   3.132   1.217  15.767 -0.0216  0.5371  0.5889
  615MPD2    C3 9164   3.100   1.149  15.646  0.5919 -0.3460 -0.1601
  615MPD2    C4 9165   3.146   1.023  15.627  0.0148 -0.1858  0.0752
  615MPD2    C5 9166   3.240   0.975  15.711  0.0266  0.3532 -1.2540
  615MPD2     H 9167   3.092   1.313  15.796 -1.0579 -0.2344  1.7137
  615MPD2    H1 9168   3.122   0.961  15.541 -0.5463  0.6340 -0.3629
  615MPD2    H2 9169   3.350   0.985  15.890 -0.3801 -0.8796  0.1724
  615MPD2    H3 9170   3.280   0.879  15.680 -1.1217 -0.4182 -0.3284
  615MPD2     N 9171   2.993   1.192  15.567  0.0080 -0.4941  0.2296
  615MPD2    H5 9172   2.977   1.150  15.476  0.6041 -1.7410  0.6971
  615MPD2    N1 9173   3.249   1.227  15.968  0.1939 -0.2496 -0.4009
  615MPD2    H7 9174   3.190   1.310  15.976 -0.4510 -0.8953  1.5861
  616TMC3    C1 9175   3.311   1.286  16.187  0.3305 -0.1146 -0.2268
  616TMC3    C2 9176   3.400   1.277  16.290  0.1269  0.2209  0.3657
  616TMC3    C3 9177   3.422   1.392  16.364  0.6137  0.3032  0.7574
  616TMC3    C4 9178   3.239   1.399  16.167 -0.1709  0.1452  0.0697
  616TMC3    C5 9179   3.251   1.502  16.252  0.5829  0.2244 -0.7132
  616TMC3    C6 9180   3.350   1.504  16.348 -0.1970  0.1568 -0.4147
  616TMC3     C 9181   3.326   1.199  16.072  0.6750  0.6765  0.5181
  616TMC3     O 9182   3.413   1.112  16.085  0.5307  0.6330 -0.4163
  616TMC3     H 9183   3.460   1.187  16.299  0.1377  0.2050  0.1310
  616TMC3    H1 9184   3.157   1.401  16.096 -0.5923 -1.3987  0.5113
  616TMC3    H2 9185   3.352   1.572  16.432  3.1688  2.0975 -2.0971
  616TMC3    C7 9186   3.148   1.605  16.252  0.3682 -0.4097 -0.2431
  616TMC3    C8 9187   3.529   1.380  16.462 -0.3741  0.3217  0.0550
  616TMC3    O1 9188   3.054   1.587  16.178  0.9517 -0.4668  0.2844
  616TMC3    O2 9189   3.565   1.266  16.485  0.9089 -0.6062  0.0255
  617MPD2     C 9190   0.782   4.080  13.296 -0.4450 -0.1135  0.3076
  617MPD2    C1 9191   0.871   4.079  13.403 -0.3434 -0.3569  0.0948
  617MPD2    C2 9192   0.818   4.054  13.526  0.0141 -0.0778 -0.7149
  617MPD2    C3 9193   0.686   4.013  13.545  1.0063  0.1157 -0.1312
  617MPD2    C4 9194   0.602   4.024  13.433 -0.5999  0.3410 -0.3040
  617MPD2    C5 9195   0.651   4.060  13.310 -1.0904 -0.0484 -0.2576
  617MPD2     H 9196   0.874   4.061  13.619 -0.9134  2.7274 -0.3746
  617MPD2    H1 9197   0.498   3.995  13.431 -0.1377 -1.4308  1.5879
  617MPD2    H2 9198   0.821   4.100  13.197 -1.3639 -1.0083 -0.2208
  617MPD2    H3 9199   0.585   4.076  13.226  0.7577 -0.0668 -1.7219
  617MPD2     N 9200   0.625   3.957  13.659 -0.2648  0.8051 -0.3361
  617MPD2    H5 9201   0.536   3.909  13.646  0.7818 -0.7411 -1.7790
  617MPD2    N1 9202   1.009   4.093  13.379 -0.7616  0.6868 -0.2227
  617MPD2    H7 9203   1.041   4.088  13.283  0.0769 -1.7651  0.1819
  618TMC3    C1 9204   1.237   4.086  13.437  0.1254 -0.3432 -0.2940
  618TMC3    C2 9205   1.344   4.151  13.493 -0.1114 -0.2838 -0.1551
  618TMC3    C3 9206   1.466   4.106  13.451  0.5186 -0.7773 -0.2035
  618TMC3    C4 9207   1.241   3.995  13.337  0.2552  0.1060 -0.0410
  618TMC3    C5 9208   1.362   3.959  13.296 -0.4437 -0.3689 -0.2449
  618TMC3    C6 9209   1.479   4.010  13.353 -0.1614 -1.2425 -0.9927
  618TMC3     C 9210   1.105   4.131  13.473 -0.3477  0.6456 -0.2840
  618TMC3     O 9211   1.090   4.186  13.581 -0.6561  0.5623 -0.2176
  618TMC3     H 9212   1.337   4.222  13.574 -2.4339 -0.7657  0.0761
  618TMC3    H1 9213   1.162   3.939  13.287  0.5839 -0.4315  0.0386
  618TMC3    H2 9214   1.573   3.963  13.325  1.4385  1.0276  0.6215
  618TMC3    C7 9215   1.367   3.822  13.247 -0.4122  0.2639 -0.4611
  618TMC3    C8 9216   1.577   4.142  13.527 -0.0025 -0.1075 -0.3860
  618TMC3    O1 9217   1.264   3.751  13.250 -0.3866 -0.9377 -0.4164
  618TMC3    O2 9218   1.601   4.254  13.566  0.2218 -0.5505 -0.0057
  619MPD2     C 9219   2.482   0.796  13.646 -0.2948 -0.4108  0.6572
  619MPD2    C1 9220   2.429   0.732  13.537 -0.0266  0.3798 -0.1367
  619MPD2    C2 9221   2.321   0.649  13.548  0.2421  0.4182 -0.1044
  619MPD2    C3 9222   2.265   0.625  13.676 -0.5359  0.5651 -0.1833
  619MPD2    C4 9223   2.320   0.686  13.786  0.6584 -0.7835 -0.3866
  619MPD2    C5 9224   2.430   0.771  13.769  0.1858  0.1415 -0.5843
  619MPD2     H 9225   2.279   0.601  13.461 -0.5282  1.2863 -0.2043
  619MPD2    H1 9226   2.291   0.653  13.885 -1.0736  0.9801 -0.3079
  619MPD2    H2 9227   2.554   0.877  13.642  0.7815 -1.3547  1.1244
  619MPD2    H3 9228   2.487   0.816  13.849 -1.1831  0.5759  0.1438
  619MPD2     N 9229   2.147   0.552  13.699  0.4940  0.4959  0.1784
  619MPD2    H5 9230   2.108   0.560  13.793  1.4552 -1.8557  0.7653
  619MPD2    N1 9231   2.477   0.763  13.406  0.2163  0.0581  0.4354
  619MPD2    H7 9232   2.423   0.723  13.330 -1.6053 -1.7879  2.7302
  620TMC3    C1 9233   2.584   0.874  13.233 -1.1133  0.8362 -0.5678
  620TMC3    C2 9234   2.453   0.892  13.189 -0.1631  0.3305  0.0826
  620TMC3    C3 9235   2.420   1.021  13.162 -0.4370 -0.1965 -0.1150
  620TMC3    C4 9236   2.682   0.965  13.207  0.7624 -0.3207 -0.2346
  620TMC3    C5 9237   2.637   1.089  13.174  0.3585  0.9126  0.3934
  620TMC3    C6 9238   2.505   1.117  13.155 -0.5725  0.3485  0.1990
  620TMC3     C 9239   2.590   0.831  13.371 -0.2337  0.0539  0.0366
  620TMC3     O 9240   2.685   0.878  13.439  0.4040  0.3412 -0.0492
  620TMC3     H 9241   2.380   0.811  13.187 -0.7312  0.8910 -2.9807
  620TMC3    H1 9242   2.785   0.947  13.235  0.8390  0.5337  0.0594
  620TMC3    H2 9243   2.473   1.219  13.135  3.1220  1.2830 -0.9898
  620TMC3    C7 9244   2.714   1.191  13.240  0.5497  0.6714 -0.4730
  620TMC3    C8 9245   2.308   1.066  13.251  0.2494 -0.0649  0.3028
  620TMC3    O1 9246   2.836   1.173  13.242 -0.2285 -0.2957  0.2806
  620TMC3    O2 9247   2.339   1.157  13.332  0.3684 -0.3809 -0.0571
  621MPD2     C 9248   2.781   0.567  10.398  0.5246 -0.6755  0.2022
  621MPD2    C1 9249   2.885   0.526  10.485 -0.8215  0.3215 -0.3123
  621MPD2    C2 9250   3.016   0.551  10.448 -0.3398 -0.1369  0.0348
  621MPD2    C3 9251   3.048   0.620  10.330 -0.2213  0.9960  0.0477
  621MPD2    C4 9252   2.941   0.662  10.245  0.1367  0.1223  0.2486
  621MPD2    C5 9253   2.815   0.634  10.286  0.3917 -0.0433 -0.5406
  621MPD2     H 9254   3.095   0.535  10.520  1.0940 -1.6326 -1.8767
  621MPD2    H1 9255   2.967   0.724  10.161 -1.5517  0.7138  0.1746
  621MPD2    H2 9256   2.676   0.544  10.414 -0.3196  3.0289 -0.1139
  621MPD2    H3 9257   2.734   0.667  10.222 -1.4799 -3.2257  0.2060
  621MPD2     N 9258   3.182   0.653  10.314  0.2215 -0.1097 -0.4186
  621MPD2    H5 9259   3.240   0.618  10.389 -2.1314 -1.3321  0.8257
  621MPD2    N1 9260   2.863   0.472  10.612 -0.1215  0.3574  0.5616
  621MPD2    H7 9261   2.941   0.434  10.664 -0.6378 -1.7217 -0.1706
  622TMC3    C1 9262   2.728   0.385  10.774 -0.1238 -0.3290 -0.1217
  622TMC3    C2 9263   2.609   0.403  10.830 -0.0261  0.1769  0.1839
  622TMC3    C3 9264   2.528   0.301  10.838 -0.4014  0.1560  0.0056
  622TMC3    C4 9265   2.770   0.256  10.737  0.0566  0.4204  0.6690
  622TMC3    C5 9266   2.678   0.157  10.733 -0.6924  0.3754 -0.7755
  622TMC3    C6 9267   2.564   0.176  10.795 -0.0055 -0.0766 -0.1529
  622TMC3     C 9268   2.743   0.481  10.673 -0.0609 -0.4181 -0.3694
  622TMC3     O 9269   2.645   0.551  10.648 -0.0776 -0.5684  0.5536
  622TMC3     H 9270   2.573   0.501  10.859 -1.4786  0.3624 -2.2380
  622TMC3    H1 9271   2.867   0.243  10.691 -0.3624  1.4193 -0.4906
  622TMC3    H2 9272   2.490   0.098  10.811  1.5008 -1.3057  0.8669
  622TMC3    C7 9273   2.657   0.088  10.607 -0.0376 -0.9035  0.4688
  622TMC3    C8 9274   2.391   0.317  10.890 -0.1167  0.4745  0.2471
  622TMC3    O1 9275   2.564   0.005  10.602  0.7667  0.0723  0.0107
  622TMC3    O2 9276   2.344   0.225  10.953 -0.3785 -0.2326  0.6493
  623MPD2     C 9277   2.193   2.103  16.112  0.3259  0.0364  0.2416
  623MPD2    C1 9278   2.163   1.987  16.175 -0.2486  0.1011  0.1291
  623MPD2    C2 9279   2.237   1.951  16.284 -0.3687 -0.0499  0.7741
  623MPD2    C3 9280   2.334   2.035  16.327  0.1259 -0.9655  0.1368
  623MPD2    C4 9281   2.372   2.151  16.262  0.0428 -0.3983 -0.7736
  623MPD2    C5 9282   2.296   2.182  16.152  1.0083  0.7915 -0.5452
  623MPD2     H 9283   2.211   1.857  16.331 -1.8137 -0.1564 -0.2359
  623MPD2    H1 9284   2.456   2.212  16.293 -1.2758  0.6336  0.7823
  623MPD2    H2 9285   2.149   2.139  16.020 -0.2875 -3.0454 -0.6959
  623MPD2    H3 9286   2.305   2.279  16.104 -1.2063 -0.4294 -3.4565
  623MPD2     N 9287   2.404   1.998  16.446 -0.1875  0.2194  0.1292
  623MPD2    H5 9288   2.376   1.909  16.486 -0.7880 -1.1058 -3.1826
  623MPD2    N1 9289   2.051   1.908  16.147  0.1227 -0.0647 -0.0916
  623MPD2    H7 9290   2.046   1.827  16.209 -0.5776  0.5283  0.6360
  624TMC3    C1 9291   2.687   1.890  16.773 -0.2870 -0.5041 -0.9180
  624TMC3    C2 9292   2.585   1.865  16.863  0.5969 -0.1177  0.1440
  624TMC3    C3 9293   2.457   1.906  16.831  0.0136  0.2044 -0.0528
  624TMC3    C4 9294   2.670   1.973  16.657 -0.1644 -0.0075 -0.3682
  624TMC3    C5 9295   2.542   1.998  16.630  0.6362  0.8323 -0.0440
  624TMC3    C6 9296   2.436   1.969  16.716 -0.2827  0.3222  0.0853
  624TMC3     C 9297   2.796   1.792  16.790 -0.0541 -0.5371  0.4692
  624TMC3     O 9298   2.831   1.777  16.907 -0.4180  0.3829 -0.1566
  624TMC3     H 9299   2.605   1.790  16.939  1.0006  0.0752  0.2255
  624TMC3    H1 9300   2.749   1.985  16.585  0.9399  0.0981  0.8624
  624TMC3    H2 9301   2.340   2.010  16.688  0.2603 -0.5385 -3.0306
  624TMC3    C7 9302   2.509   2.059  16.507  0.2505 -0.3485  0.2420
  624TMC3    C8 9303   2.334   1.847  16.883 -0.3968 -0.3450 -0.2934
  624TMC3    O1 9304   2.591   2.136  16.458  0.3335  0.2997  0.0957
  624TMC3    O2 9305   2.244   1.848  16.802  0.1326  0.6627 -0.1364
  625MPD2     C 9306   2.196   2.492   0.363 -0.2159  0.1125  0.1135
  625MPD2    C1 9307   2.243   2.619   0.389  0.0951 -0.3064 -0.4509
  625MPD2    C2 9308   2.370   2.630   0.454  0.5615  0.2780 -0.4064
  625MPD2    C3 9309   2.450   2.512   0.460  0.2389 -0.2974 -0.6050
  625MPD2    C4 9310   2.402   2.395   0.405  0.0323  0.0195  0.1605
  625MPD2    C5 9311   2.276   2.387   0.363 -0.1626  0.6192 -0.4858
  625MPD2     H 9312   2.410   2.722   0.494 -0.1153 -0.5549  2.2142
  625MPD2    H1 9313   2.457   2.301   0.412 -1.4803 -0.9138 -0.3571
  625MPD2    H2 9314   2.095   2.475   0.330  0.0488 -0.7730 -0.2603
  625MPD2    H3 9315   2.232   2.293   0.329  2.3718 -0.8571  0.3101
  625MPD2     N 9316   2.571   2.538   0.536  0.2515  0.4505 -0.0427
  625MPD2    H5 9317   2.587   2.637   0.552 -1.0800  0.5151  0.9106
  625MPD2    N1 9318   2.174   2.740   0.369  0.4170 -0.1095  0.1962
  625MPD2    H7 9319   2.205   2.822   0.420  1.0776  0.2549 -0.7897
  626TMC3    C1 9320   2.034   2.888   0.270 -0.1209  0.2016 -0.2688
  626TMC3    C2 9321   1.966   2.932   0.160  0.2277  0.2274 -0.6394
  626TMC3    C3 9322   1.882   3.039   0.169 -0.1451  0.4678 -0.5143
  626TMC3    C4 9323   1.999   2.937   0.396 -0.1725 -0.1214  0.1304
  626TMC3    C5 9324   1.903   3.023   0.402  0.6314  0.3368 -0.4210
  626TMC3    C6 9325   1.849   3.082   0.294  0.8433  0.0038  0.1888
  626TMC3     C 9326   2.084   2.753   0.261 -0.0595 -0.1426  0.6605
  626TMC3     O 9327   2.044   2.669   0.180 -0.2959 -0.2430 -0.3817
  626TMC3     H 9328   1.981   2.887   0.063  0.0526 -2.3722  0.5394
  626TMC3    H1 9329   2.031   2.895   0.491  2.1735 -0.9106 -1.0207
  626TMC3    H2 9330   1.797   3.177   0.302  1.1304  0.2562 -0.9370
  626TMC3    C7 9331   1.808   3.016   0.517  0.1610  0.0132 -0.0614
  626TMC3    C8 9332   1.839   3.102   0.043 -0.4639  0.1184  0.4201
  626TMC3    O1 9333   1.838   2.937   0.606 -0.2388  0.0395  0.1910
  626TMC3    O2 9334   1.832   3.030  17.700 -0.2582 -0.5332 -0.0225
  627MPD2     C 9335   0.371   2.883  14.591  0.0292 -0.0081 -0.7241
  627MPD2    C1 9336   0.470   2.839  14.673 -0.0817  0.0366  0.8086
  627MPD2    C2 9337   0.456   2.719  14.741 -0.0756 -0.5100 -0.3413
  627MPD2    C3 9338   0.351   2.633  14.710 -1.1773 -0.0063 -0.9890
  627MPD2    C4 9339   0.252   2.671  14.621  0.3502 -0.6454 -0.0184
  627MPD2    C5 9340   0.270   2.795  14.561  0.2194  0.2915  0.5482
  627MPD2     H 9341   0.526   2.687  14.817 -0.6713 -0.8592  0.0665
  627MPD2    H1 9342   0.162   2.612  14.611 -0.2461  0.2289  0.2507
  627MPD2    H2 9343   0.365   2.976  14.535  0.5524 -0.2880 -1.2469
  627MPD2    H3 9344   0.190   2.830  14.496  0.3570  0.1870  0.3245
  627MPD2     N 9345   0.354   2.505  14.772  0.4765  0.3198 -0.4315
  627MPD2    H5 9346   0.436   2.484  14.829 -1.0423  0.3628  1.7882
  627MPD2    N1 9347   0.577   2.922  14.717  0.6591  0.2120 -1.0220
  627MPD2    H7 9348   0.630   2.883  14.795  0.6418  0.3256 -0.9526
  628TMC3    C1 9349   0.727   3.095  14.739 -0.1841  0.1725  0.2523
  628TMC3    C2 9350   0.836   3.008  14.753 -0.0063  0.0364 -0.5067
  628TMC3    C3 9351   0.962   3.059  14.779  0.0980 -0.5187 -0.5325
  628TMC3    C4 9352   0.747   3.238  14.742  0.0384 -0.8603 -0.4802
  628TMC3    C5 9353   0.877   3.276  14.772  0.2460  0.1430  0.4980
  628TMC3    C6 9354   0.982   3.193  14.791  1.4073 -0.1880  0.4463
  628TMC3     C 9355   0.611   3.046  14.674 -0.1206 -0.2551  0.3156
  628TMC3     O 9356   0.544   3.128  14.610  0.0106 -0.0621 -0.1880
  628TMC3     H 9357   0.822   2.902  14.736 -1.5374  0.1302  0.1916
  628TMC3    H1 9358   0.667   3.310  14.730 -0.3187 -1.1872 -0.0551
  628TMC3    H2 9359   1.075   3.242  14.768  1.2551 -1.5499 -3.0415
  628TMC3    C7 9360   0.902   3.411  14.745 -0.5856 -0.3850 -0.0054
  628TMC3    C8 9361   1.067   2.989  14.707 -0.1595  0.2402  1.0553
  628TMC3    O1 9362   0.991   3.465  14.805  0.3708  0.3681 -0.0034
  628TMC3    O2 9363   1.030   2.924  14.609  0.2023  0.9168  0.4010
  629MPD2     C 9364   3.846   1.580  16.805  0.0927  0.4409 -0.1385
  629MPD2    C1 9365   3.830   1.671  16.706  0.1062 -0.8809  1.2178
  629MPD2    C2 9366   3.750   1.638  16.598  0.3718 -0.3356 -0.3731
  629MPD2    C3 9367   3.676   1.521  16.597 -0.1735 -0.9256  0.7200
  629MPD2    C4 9368   3.705   1.425  16.692 -0.4759  0.4392 -0.2620
  629MPD2    C5 9369   3.800   1.450  16.784 -0.3326 -1.0188 -0.6499
  629MPD2     H 9370   3.728   1.718  16.529 -1.7204 -0.4996  0.1172
  629MPD2    H1 9371   3.651   1.332  16.697  2.2623 -1.1982 -1.1209
  629MPD2    H2 9372   3.914   1.597  16.887 -0.5359  1.7725  0.1090
  629MPD2    H3 9373   3.845   1.370  16.843  0.3563 -0.8418 -0.9329
  629MPD2     N 9374   3.582   1.498  16.497 -0.0504 -0.1262  0.1718
  629MPD2    H5 9375   3.570   1.570  16.426  2.3880 -0.6301 -0.7541
  629MPD2    N1 9376   3.904   1.791  16.715 -0.1215 -0.0674 -0.6693
  629MPD2    H7 9377   3.944   1.823  16.803  1.1025  0.7574 -1.5176
  630TMC3    C1 9378   3.957   2.004  16.635  0.4547  0.2205 -0.3089
  630TMC3    C2 9379   3.993   2.085  16.530 -0.9481  0.4161 -0.0654
  630TMC3    C3 9380   4.039   2.213  16.555  0.5601  0.3260 -0.3330
  630TMC3    C4 9381   3.953   2.065  16.762  0.5680 -0.6416 -0.0076
  630TMC3    C5 9382   4.010   2.185  16.777 -0.5059 -0.1612  0.6489
  630TMC3    C6 9383   4.048   2.262  16.673  0.1710 -0.3549 -0.1787
  630TMC3     C 9384   3.921   1.866  16.607  0.6218 -0.2850  0.2515
  630TMC3     O 9385   3.913   1.839  16.488 -0.1722  1.0149  0.1151
  630TMC3     H 9386   3.977   2.041  16.433  1.2101  0.2177 -0.3226
  630TMC3    H1 9387   3.940   2.003  16.850 -0.0525 -3.4635 -2.0661
  630TMC3    H2 9388   4.079   2.366  16.679  0.4115 -0.3462 -1.7416
  630TMC3    C7 9389   4.104   2.186  16.896  0.4542  0.2812 -0.2977
  630TMC3    C8 9390   4.104   2.281  16.444 -0.2332  0.2755 -0.9270
  630TMC3    O1 9391   4.080   2.110  16.989 -0.4571 -0.2898 -0.1273
  630TMC3    O2 9392   4.162   2.382  16.462  0.3535 -0.1633 -0.0445
  631MPD2     C 9393   2.247   1.826  15.849 -0.2008  0.1611  0.1462
  631MPD2    C1 9394   2.293   1.863  15.727 -0.1351  0.3319 -0.2420
  631MPD2    C2 9395   2.348   1.768  15.637 -0.0010 -0.6984  0.2713
  631MPD2    C3 9396   2.352   1.637  15.669 -0.5826  0.4635 -0.2748
  631MPD2    C4 9397   2.303   1.600  15.796  0.0185  0.3565  0.6206
  631MPD2    C5 9398   2.253   1.694  15.883  0.0041  0.5503  0.6410
  631MPD2     H 9399   2.379   1.794  15.536 -1.4200 -1.8856 -0.4621
  631MPD2    H1 9400   2.302   1.494  15.818  1.1018  0.0754 -0.7214
  631MPD2    H2 9401   2.204   1.892  15.923  1.3734 -0.1583  1.3308
  631MPD2    H3 9402   2.195   1.664  15.969 -0.3060 -0.8086 -0.0477
  631MPD2     N 9403   2.420   1.547  15.582  0.4421 -0.2475  0.5146
  631MPD2    H5 9404   2.457   1.585  15.496  2.7652 -2.2222  0.6396
  631MPD2    N1 9405   2.274   2.001  15.699  0.4083  0.1296 -0.3695
  631MPD2    H7 9406   2.213   2.049  15.764 -0.5110  0.5256 -1.5187
  632TMC3    C1 9407   2.322   2.208  15.602  0.2508 -0.1072  0.3793
  632TMC3    C2 9408   2.248   2.263  15.703 -0.2752 -0.2862 -0.4968
  632TMC3    C3 9409   2.195   2.388  15.684  0.7824 -0.0628 -0.2922
  632TMC3    C4 9410   2.331   2.266  15.477 -0.8394  0.2776 -0.4781
  632TMC3    C5 9411   2.271   2.386  15.452  0.3558  0.5282  0.3298
  632TMC3    C6 9412   2.206   2.447  15.558 -0.8841 -0.5463  1.0564
  632TMC3     C 9413   2.333   2.066  15.596  0.1131  0.1897 -0.0789
  632TMC3     O 9414   2.403   2.016  15.507  0.2343  0.4495 -0.3988
  632TMC3     H 9415   2.225   2.214  15.796 -1.1764  0.3703 -0.3682
  632TMC3    H1 9416   2.414   2.232  15.416 -0.9750  0.0776 -0.5501
  632TMC3    H2 9417   2.150   2.538  15.543 -1.5435 -1.0365  0.5747
  632TMC3    C7 9418   2.288   2.456  15.324 -0.1427 -0.1682  0.5801
  632TMC3    C8 9419   2.071   2.418  15.755 -0.0922  0.0123  0.7511
  632TMC3    O1 9420   2.254   2.573  15.318  0.0028 -0.0631  0.4356
  632TMC3    O2 9421   2.044   2.342  15.843 -0.0755 -0.4327 -0.0287
  633MPD2     C 9422   2.061   4.484  17.176  0.6592  0.2559 -0.5812
  633MPD2    C1 9423   2.055   4.443  17.046  0.2193 -0.0021  0.2213
  633MPD2    C2 9424   2.034   4.310  17.025  0.0500 -0.3064 -0.0297
  633MPD2    C3 9425   2.023   4.225  17.130 -0.3374 -0.3180 -0.1660
  633MPD2    C4 9426   2.026   4.265  17.257  0.0619 -0.5948 -0.5544
  633MPD2    C5 9427   2.048   4.397  17.287  0.0021 -0.3012  0.0878
  633MPD2     H 9428   2.030   4.284  16.920  0.5696 -0.6045  0.0216
  633MPD2    H1 9429   2.002   4.195  17.336  0.2540  1.2980  1.1746
  633MPD2    H2 9430   2.091   4.586  17.199  0.1236  0.1739  0.4934
  633MPD2    H3 9431   2.052   4.432  17.389  0.6838 -1.6529  0.5300
  633MPD2     N 9432   2.015   4.084  17.120 -0.1118 -0.0569  0.1293
  633MPD2    H5 9433   2.047   4.031  17.200  0.9913  1.0524  0.4152
  633MPD2    N1 9434   2.070   4.514  16.930 -0.6268  0.0560 -0.1961
  633MPD2    H7 9435   2.064   4.462  16.843  1.4267 -1.2034  0.4136
  634TMC3    C1 9436   2.115   4.693  16.785 -0.1021  0.1799 -0.7268
  634TMC3    C2 9437   2.128   4.603  16.680  0.5019  0.2142 -0.8154
  634TMC3    C3 9438   2.141   4.654  16.551 -0.4717 -0.4745  0.0568
  634TMC3    C4 9439   2.116   0.090  16.763 -0.2935  0.1626  0.7666
  634TMC3    C5 9440   2.115   0.140  16.631 -0.1821 -0.4494 -0.0176
  634TMC3    C6 9441   2.121   0.052  16.522  0.4087 -0.8823 -0.3915
  634TMC3     C 9442   2.089   4.647  16.921 -0.1900 -0.5639 -0.2442
  634TMC3     O 9443   2.085   4.725  17.014 -0.1634  0.1338  0.6055
  634TMC3     H 9444   2.144   4.497  16.694  1.2993  0.4153 -0.2051
  634TMC3    H1 9445   2.119   0.157  16.848  1.5185 -1.9848  2.4132
  634TMC3    H2 9446   2.114   0.104  16.427 -1.5935  0.9278  0.7616
  634TMC3    C7 9447   2.098   0.282  16.599 -0.3763 -0.5185 -0.1352
  634TMC3    C8 9448   2.193   4.565  16.439 -0.5303  0.4072 -0.3923
  634TMC3    O1 9449   2.125   0.317  16.487 -0.2442  0.2583  0.1123
  634TMC3    O2 9450   2.228   4.451  16.466 -0.0519  0.2056 -0.2660
  635TMC3    C1 9451   2.585   0.688   0.110 -0.0120 -0.3634 -0.4088
  635TMC3    C2 9452   2.627   0.595   0.020 -1.0569 -0.2941  0.7573
  635TMC3    C3 9453   2.544   0.484  17.752 -0.0877  0.1876  0.0530
  635TMC3    C4 9454   2.469   0.680   0.177  0.4941 -0.5003 -0.5797
  635TMC3    C5 9455   2.400   0.561   0.162  0.2394 -0.0737  0.0358
  635TMC3    C6 9456   2.432   0.467   0.066  0.3103 -0.0361  0.4871
  635TMC3     C 9457   2.661   0.807   0.129  0.1115  0.7250  0.0408
  635TMC3     O 9458   2.634   0.885   0.221  0.1783 -0.4580  0.2783
  635TMC3     H 9459   2.732   0.592  17.747 -0.7727  2.4927  1.6408
  635TMC3    H1 9460   2.449   0.750   0.257 -1.2127 -2.2050  0.4843
  635TMC3    H2 9461   2.373   0.377   0.053  0.1515  0.0101  0.9006
  635TMC3    C7 9462   2.304   0.524   0.265 -0.1370 -0.2564  0.6665
  635TMC3    C8 9463   2.585   0.374  17.666  0.0697  0.2641 -0.2952
  635TMC3    O1 9464   2.285   0.611   0.354 -0.7624  0.1516  0.5662
  635TMC3    O2 9465   2.521   0.274  17.677  0.8616  0.1610 -0.3936
  636MPD2     C 9466   2.884   0.271  16.555  0.1460  0.1034  0.2057
  636MPD2    C1 9467   2.982   0.315  16.638  0.4626  0.9222  0.0322
  636MPD2    C2 9468   3.015   0.229  16.744  0.2081  0.2031 -0.1937
  636MPD2    C3 9469   2.954   0.104  16.761  0.2876 -0.0018 -0.5089
  636MPD2    C4 9470   2.840   0.077  16.688 -0.0647 -0.2719 -0.5456
  636MPD2    C5 9471   2.811   0.159  16.590  0.7911  0.1713 -0.3313
  636MPD2     H 9472   3.088   0.259  16.818 -1.7201  0.9201  1.4442
  636MPD2    H1 9473   2.780   4.729  16.713 -1.8270  1.0665 -0.1065
  636MPD2    H2 9474   2.851   0.321  16.465 -0.4281  0.2877  0.5239
  636MPD2    H3 9475   2.729   0.134  16.525  1.0065 -0.9627 -0.1707
  636MPD2     N 9476   3.000   0.021  16.865 -0.1887  0.7967 -0.2545
  636MPD2    H5 9477   3.082   0.054  16.916 -0.4434 -0.4201  0.9507
  636MPD2    N1 9478   3.035   0.446  16.628  0.5996 -0.1245  0.7752
  636MPD2    H7 9479   3.097   0.491  16.696  0.6193  0.8292  0.1314
  637TMC3    C1 9480   3.026   4.562  17.004  0.4928  0.2863 -0.2641
  637TMC3    C2 9481   3.060   4.645  17.105  1.0058  0.0377  0.8650
  637TMC3    C3 9482   3.177   4.613  17.169  0.2399 -0.0455  0.0939
  637TMC3    C4 9483   3.092   4.440  16.979 -0.0808 -0.1341 -0.1338
  637TMC3    C5 9484   3.196   4.400  17.054  0.3304 -0.4949 -0.6457
  637TMC3    C6 9485   3.240   4.493  17.148 -0.1593 -0.5888 -0.1167
  637TMC3     C 9486   2.965   4.626  16.888  0.0846  0.0796  0.1996
  637TMC3     O 9487   2.882   4.556  16.831 -0.1533  0.3844 -0.2992
  637TMC3     H 9488   3.003   4.733  17.129  0.1291  0.2683 -2.1305
  637TMC3    H1 9489   3.077   4.386  16.887 -1.6115  2.3391 -1.3419
  637TMC3    H2 9490   3.327   4.477  17.211 -0.7949  1.1303  1.1891
  637TMC3    C7 9491   3.312   4.360  16.966  0.5185  0.4891 -0.6816
  637TMC3    C8 9492   3.268   4.711  17.175 -0.8494  0.3920 -0.7132
  637TMC3    O1 9493   3.405   4.438  16.967 -0.0570  0.1014  0.1515
  637TMC3    O2 9494   3.227   0.082  17.216 -0.1137 -0.3782 -0.3796
  638MPD2     C 9495   3.056   3.928  14.655 -0.3942  0.2357  0.3960
  638MPD2    C1 9496   2.993   3.825  14.586  0.5188  0.6034  0.3474
  638MPD2    C2 9497   2.958   3.707  14.649  0.0652 -0.1586 -0.5521
  638MPD2    C3 9498   2.985   3.689  14.781 -0.5436  0.2194  0.3139
  638MPD2    C4 9499   3.031   3.801  14.858 -0.4519 -1.2176  0.2457
  638MPD2    C5 9500   3.062   3.921  14.792  0.1582  0.2108  0.0395
  638MPD2     H 9501   2.924   3.620  14.593 -1.7566  0.8482 -1.0093
  638MPD2    H1 9502   3.041   3.797  14.966  0.2976 -2.5739  0.1314
  638MPD2    H2 9503   3.076   4.024  14.610 -0.1919  0.0680  0.1261
  638MPD2    H3 9504   3.091   4.010  14.847 -0.2372 -0.4433  1.2767
  638MPD2     N 9505   2.974   3.566  14.845 -0.5475 -0.5350 -0.1591
  638MPD2    H5 9506   2.952   3.488  14.783  1.8909 -2.1990  1.0358
  638MPD2    N1 9507   2.985   3.843  14.447 -0.2156  0.3132  0.2366
  638MPD2    H7 9508   3.032   3.919  14.398 -0.4759 -1.0582 -2.1531
  639TMC3    C1 9509   2.952   3.417  15.023 -0.9989 -0.2633  1.2504
  639TMC3    C2 9510   2.854   3.361  14.946  0.6562 -0.5248  0.2256
  639TMC3    C3 9511   2.813   3.239  14.987  0.2137  0.8293  0.9176
  639TMC3    C4 9512   2.980   3.361  15.148 -0.4399  0.2582  0.0914
  639TMC3    C5 9513   2.918   3.247  15.192  0.2173  1.0235 -0.3841
  639TMC3    C6 9514   2.841   3.181  15.108  0.0573  0.2082 -0.2765
  639TMC3     C 9515   3.022   3.533  14.971  0.2834 -0.1721  0.4246
  639TMC3     O 9516   3.084   3.598  15.049 -0.4334  0.2078 -0.1721
  639TMC3     H 9517   2.832   3.384  14.842  1.1282 -1.4995 -0.0935
  639TMC3    H1 9518   3.054   3.399  15.217 -0.1250 -0.4740  0.1631
  639TMC3    H2 9519   2.803   3.081  15.129  1.7429 -0.1216  1.1883
  639TMC3    C7 9520   3.009   3.166  15.270 -0.3636 -0.5970 -0.6758
  639TMC3    C8 9521   2.769   3.140  14.891  0.9684 -0.0718 -0.2896
  639TMC3    O1 9522   2.997   3.154  15.386  0.0823  0.1400  0.3613
  639TMC3    O2 9523   2.833   3.137  14.790  0.1096  0.3435  0.0924
  640MPD2     C 9524   3.205   2.375  10.052 -0.3127 -0.2547  0.0031
  640MPD2    C1 9525   3.276   2.351   9.937  0.3728 -0.4804  0.4922
  640MPD2    C2 9526   3.324   2.457   9.865 -0.5361  0.3221  0.1827
  640MPD2    C3 9527   3.303   2.584   9.912  0.5769 -1.1871  0.0654
  640MPD2    C4 9528   3.234   2.604  10.030  0.6475  0.0213  0.0333
  640MPD2    C5 9529   3.178   2.502  10.095 -0.0628  0.2884 -0.3121
  640MPD2     H 9530   3.379   2.438   9.774 -3.5300 -0.8535 -1.3896
  640MPD2    H1 9531   3.208   2.701  10.069 -0.5338  0.4135 -1.7275
  640MPD2    H2 9532   3.171   2.290  10.110 -0.8123 -0.1290 -0.1014
  640MPD2    H3 9533   3.120   2.517  10.186 -1.1300  3.7134 -1.5726
  640MPD2     N 9534   3.351   2.705   9.851 -0.0592 -0.9554 -0.1252
  640MPD2    H5 9535   3.352   2.788   9.908 -0.9392 -0.6320 -0.5875
  640MPD2    N1 9536   3.291   2.214   9.903 -0.1927  0.0349  0.2332
  640MPD2    H7 9537   3.245   2.142   9.958  0.3995 -1.4340 -1.1963
  641TMC3    C1 9538   3.364   2.024   9.788  0.5073  0.1625  0.6098
  641TMC3    C2 9539   3.461   1.966   9.712  0.0312 -0.0905  0.6375
  641TMC3    C3 9540   3.458   1.834   9.684  0.3410  0.7550 -0.3546
  641TMC3    C4 9541   3.258   1.951   9.832  0.1712 -0.6871 -0.0350
  641TMC3    C5 9542   3.255   1.819   9.802  0.4457  0.2206 -0.2727
  641TMC3    C6 9543   3.351   1.757   9.724  0.1102 -0.2061  0.2607
  641TMC3     C 9544   3.374   2.167   9.805 -0.1497 -0.4998 -0.3967
  641TMC3     O 9545   3.455   2.224   9.735  0.3352 -0.0765  0.4996
  641TMC3     H 9546   3.534   2.031   9.664  0.5045 -1.5363 -0.6085
  641TMC3    H1 9547   3.177   1.997   9.888  1.8257 -0.2349  1.9617
  641TMC3    H2 9548   3.351   1.650   9.707  3.0361  0.1932 -2.4174
  641TMC3    C7 9549   3.129   1.754   9.820 -0.1932  0.1057 -0.3044
  641TMC3    C8 9550   3.575   1.759   9.645  0.3059  0.8536 -0.4388
  641TMC3    O1 9551   3.035   1.839   9.823 -1.1559  0.3121  0.7618
  641TMC3    O2 9552   3.556   1.641   9.621 -0.0966  0.2600  0.4423
  642TMC3    C1 9553   4.411   2.937  12.564 -0.5509  0.2615 -0.3640
  642TMC3    C2 9554   4.544   2.929  12.527 -0.0945 -0.3025  0.3424
  642TMC3    C3 9555   4.587   2.797  12.510  0.7449 -0.6922  0.7329
  642TMC3    C4 9556   4.325   2.827  12.579 -0.1804  0.4949 -0.0076
  642TMC3    C5 9557   4.372   2.704  12.547 -0.6434 -0.1571 -0.5472
  642TMC3    C6 9558   4.506   2.684  12.518  0.3933 -0.2031 -0.2711
  642TMC3     C 9559   4.371   3.067  12.608 -0.5650  0.1105  0.4752
  642TMC3     O 9560   4.454   3.156  12.599 -0.0277 -0.1780  0.2098
  642TMC3     H 9561   4.606   3.016  12.507  1.9585 -1.0654  3.3918
  642TMC3    H1 9562   4.221   2.841  12.607 -1.0116 -1.8170 -1.9211
  642TMC3    H2 9563   4.549   2.588  12.493  1.2577  0.2009 -0.3470
  642TMC3    C7 9564   4.279   2.598  12.514 -0.1662 -0.2934 -0.4240
  642TMC3    C8 9565   4.727   2.775  12.491 -0.4757  0.0504 -0.7077
  642TMC3    O1 9566   4.313   2.505  12.437 -0.1923  0.6401 -0.1473
  642TMC3    O2 9567   0.019   2.675  12.427  0.0207  0.1441 -0.0929
  643TMC3    C1 9568   4.100   2.881   0.541 -0.5289 -0.6668 -0.1638
  643TMC3    C2 9569   3.977   2.922   0.572  0.6447  0.0289  0.3680
  643TMC3    C3 9570   3.874   2.905   0.486 -0.0114  0.1063 -0.4687
  643TMC3    C4 9571   4.126   2.835   0.419 -0.0362 -0.4711 -0.2108
  643TMC3    C5 9572   4.025   2.819   0.326 -0.0151 -0.2502 -0.1841
  643TMC3    C6 9573   3.895   2.842   0.364 -0.5232 -1.1707  0.0829
  643TMC3     C 9574   4.205   2.934   0.624 -0.1124 -0.0901 -0.6301
  643TMC3     O 9575   4.180   3.043   0.673  0.0745 -0.2679 -0.2702
  643TMC3     H 9576   3.969   2.953   0.676  1.0129 -1.8838  0.9679
  643TMC3    H1 9577   4.228   2.815   0.388  0.3102  0.7143  0.1599
  643TMC3    H2 9578   3.807   2.830   0.302 -1.2499 -0.2706  0.9507
  643TMC3    C7 9579   4.061   2.786   0.195  0.2435  0.4199  0.9979
  643TMC3    C8 9580   3.799   3.024   0.459  0.2954 -0.7021  0.2347
  643TMC3    O1 9581   4.181   2.776   0.171 -0.2419  0.5677  0.1140
  643TMC3    O2 9582   3.683   3.008   0.425 -0.4615 -0.0337 -0.6692
  644MPD2     C 9583   3.514   1.976  10.295 -0.3671 -0.1123 -0.6951
  644MPD2    C1 9584   3.595   1.973  10.180  0.1269 -0.3679 -0.0630
  644MPD2    C2 9585   3.647   2.094  10.128  0.2273  0.4495  0.1964
  644MPD2    C3 9586   3.630   2.209  10.205  0.4272  0.2234 -0.3947
  644MPD2    C4 9587   3.548   2.208  10.320 -0.2420 -0.1571  0.2175
  644MPD2    C5 9588   3.487   2.093  10.360 -0.6534 -0.4785 -0.1904
  644MPD2     H 9589   3.693   2.098  10.030  1.1498 -2.1119  0.5327
  644MPD2    H1 9590   3.516   2.299  10.368  1.1838  2.4780 -3.8473
  644MPD2    H2 9591   3.467   1.887  10.334 -0.9680  0.4757 -0.0759
  644MPD2    H3 9592   3.430   2.094  10.452  0.2161 -0.3105  0.3436
  644MPD2     N 9593   3.689   2.325  10.159 -0.0649 -0.1258  0.3068
  644MPD2    H5 9594   3.731   2.326  10.067  0.7770 -4.1432  0.6708
  644MPD2    N1 9595   3.619   1.849  10.116  0.5318 -0.8710  0.4778
  644MPD2    H7 9596   3.579   1.764  10.154  0.7955 -2.0608 -1.8640
  645TMC3    C1 9597   3.739   2.560  10.141 -0.0239 -0.1821 -0.4114
  645TMC3    C2 9598   3.824   2.639  10.219 -0.2519  0.0580  0.0907
  645TMC3    C3 9599   3.883   2.746  10.162 -0.4301  0.1794 -0.1118
  645TMC3    C4 9600   3.723   2.580  10.005 -0.0365 -0.4074  0.8267
  645TMC3    C5 9601   3.807   2.668   9.952  0.1475 -0.0304  0.6182
  645TMC3    C6 9602   3.885   2.753  10.025 -0.4041  0.8470 -0.6813
  645TMC3     C 9603   3.674   2.452  10.211 -0.1757  0.1936  0.1219
  645TMC3     O 9604   3.598   2.496  10.300 -0.0686  0.2387 -0.0137
  645TMC3     H 9605   3.839   2.623  10.325 -0.5629  1.5671  0.3574
  645TMC3    H1 9606   3.641   2.532   9.952 -0.1669  0.8388 -0.1079
  645TMC3    H2 9607   3.942   2.829   9.972  1.0754  0.0285 -0.2450
  645TMC3    C7 9608   3.790   2.702   9.811 -0.3683  0.1437  0.3164
  645TMC3    C8 9609   3.986   2.807  10.254 -0.1161 -0.4918 -1.1297
  645TMC3    O1 9610   3.821   2.816   9.789  0.0921 -0.1468 -0.1342
  645TMC3    O2 9611   4.038   2.734  10.333  0.4530  0.6261 -0.4392
  646MPD2     C 9612   3.354   2.204  14.626  0.3101 -0.5256  0.2616
  646MPD2    C1 9613   3.250   2.217  14.722 -0.6154  0.0001 -0.0292
  646MPD2    C2 9614   3.141   2.294  14.686 -0.5555  0.4655  0.4863
  646MPD2    C3 9615   3.130   2.353  14.555  0.1402 -0.1091  0.7129
  646MPD2    C4 9616   3.241   2.349  14.474 -0.1317  0.1279  0.3180
  646MPD2    C5 9617   3.346   2.264  14.504 -0.5984 -0.1498 -0.6417
  646MPD2     H 9618   3.049   2.294  14.744  0.5167 -1.7376  2.1964
  646MPD2    H1 9619   3.253   2.387  14.374 -0.3708  0.5101  0.4349
  646MPD2    H2 9620   3.446   2.147  14.633 -0.0326 -0.7912  2.4369
  646MPD2    H3 9621   3.420   2.237  14.430  0.7209  0.2613  0.5105
  646MPD2     N 9622   3.011   2.409  14.500  0.1122  0.1642 -1.1285
  646MPD2    H5 9623   2.934   2.414  14.566 -0.4374  2.6577 -1.9544
  646MPD2    N1 9624   3.264   2.150  14.844 -0.3109 -0.4449 -0.8441
  646MPD2    H7 9625   3.349   2.096  14.856 -0.8062 -0.7835  1.1192
  647TMC3    C1 9626   3.230   2.074  15.071 -0.2513  0.0891  0.8327
  647TMC3    C2 9627   3.140   2.006  15.147 -0.1424  0.1130  0.1568
  647TMC3    C3 9628   3.187   1.954  15.272  0.2579 -0.1382 -0.1934
  647TMC3    C4 9629   3.358   2.095  15.106 -0.1045 -0.3670  0.1452
  647TMC3    C5 9630   3.401   2.059  15.231 -0.2618 -0.5079  0.6557
  647TMC3    C6 9631   3.316   1.986  15.312 -0.3227  0.1522  0.6036
  647TMC3     C 9632   3.175   2.127  14.947 -0.4344  0.3761 -0.7587
  647TMC3     O 9633   3.056   2.152  14.955  0.1581  0.2679  0.0019
  647TMC3     H 9634   3.036   1.989  15.122  0.7064 -2.6538 -1.5619
  647TMC3    H1 9635   3.414   2.148  15.029  0.5085 -1.1174  0.0722
  647TMC3    H2 9636   3.353   1.943  15.405 -1.9653 -2.2349  0.1481
  647TMC3    C7 9637   3.543   2.017  15.230 -0.4013 -0.6278  0.5883
  647TMC3    C8 9638   3.145   1.829  15.318 -0.5688  0.3683 -0.3765
  647TMC3    O1 9639   3.555   1.908  15.279  0.0719  0.2489 -0.3621
  647TMC3    O2 9640   3.169   1.793  15.431  0.1289 -0.1091 -0.2211
  648TMC3    C1 9641   2.535   4.640  16.074 -0.3575 -0.0263 -0.2449
  648TMC3    C2 9642   2.576   4.523  16.028 -0.2034 -0.4880  0.3594
  648TMC3    C3 9643   2.572   4.509  15.890  0.7311 -0.3531  0.6846
  648TMC3    C4 9644   2.485   0.001  15.992 -0.2925 -0.6034 -0.6027
  648TMC3    C5 9645   2.481   4.724  15.855  0.0229 -0.1686  0.2701
  648TMC3    C6 9646   2.521   4.602  15.806  0.6429 -0.1143  0.1665
  648TMC3     C 9647   2.568   4.680  16.209 -0.1242  0.2559  0.8429
  648TMC3     O 9648   2.549   0.057  16.237  0.0276 -0.2532 -0.0886
  648TMC3     H 9649   2.619   4.438  16.080  0.9158 -0.2563 -0.1758
  648TMC3    H1 9650   2.439   0.085  16.043  0.4557 -1.4498  1.4612
  648TMC3    H2 9651   2.514   4.575  15.701  1.0893  1.0636 -0.1625
  648TMC3    C7 9652   2.380   0.052  15.778 -0.0421  0.1075  0.6280
  648TMC3    C8 9653   2.580   4.376  15.841  0.1027 -0.0030  0.2452
  648TMC3    O1 9654   2.324   4.718  15.694 -0.1423  0.7727  0.4244
  648TMC3    O2 9655   2.508   4.328  15.755  0.1649 -0.0322 -0.0715
  649TMC3    C1 9656   1.446   0.810  12.879  1.0003 -0.5243 -0.6329
  649TMC3    C2 9657   1.577   0.839  12.908  0.5346  0.0219 -0.4813
  649TMC3    C3 9658   1.624   0.794  13.032 -0.0358 -0.0624 -0.6494
  649TMC3    C4 9659   1.362   0.741  12.963 -0.7329  0.3766 -0.0004
  649TMC3    C5 9660   1.410   0.703  13.087  0.2180  0.1684 -0.7091
  649TMC3    C6 9661   1.546   0.723  13.121  0.1386 -0.4767 -0.0182
  649TMC3     C 9662   1.390   0.861  12.754 -0.5590 -0.1553  0.2214
  649TMC3     O 9663   1.433   0.971  12.716  0.1317 -0.1877 -0.1383
  649TMC3     H 9664   1.645   0.887  12.838  0.5041  0.1464 -0.4254
  649TMC3    H1 9665   1.256   0.753  12.947 -0.7770  0.1635  0.1306
  649TMC3    H2 9666   1.589   0.693  13.215  0.3997  1.0975  0.3546
  649TMC3    C7 9667   1.314   0.649  13.186 -0.0251 -0.7040  0.3270
  649TMC3    C8 9668   1.763   0.789  13.069 -0.4640  0.1059  0.3939
  649TMC3    O1 9669   1.196   0.663  13.163  0.3772  0.4160  0.2574
  649TMC3    O2 9670   1.798   0.691  13.130 -0.2087 -0.2203  0.2352
  650TMC3    C1 9671   3.690   2.297  12.931 -0.1869 -0.1943  0.4250
  650TMC3    C2 9672   3.622   2.400  12.993 -0.4038 -0.5931  0.4455
  650TMC3    C3 9673   3.486   2.412  12.972  0.0745 -0.1503 -0.0554
  650TMC3    C4 9674   3.628   2.215  12.849  0.9429 -0.5756  0.3995
  650TMC3    C5 9675   3.493   2.236  12.820 -0.0634 -0.1889 -1.1423
  650TMC3    C6 9676   3.422   2.329  12.880  0.1696 -0.4422 -0.0932
  650TMC3     C 9677   3.831   2.286  12.958  0.3661 -0.3866  0.0548
  650TMC3     O 9678   3.885   2.244  12.859  0.2222 -0.1952 -0.5864
  650TMC3     H 9679   3.678   2.475  13.048 -0.9763 -1.7918  2.6638
  650TMC3    H1 9680   3.692   2.148  12.792  1.1195  1.0952 -1.3551
  650TMC3    H2 9681   3.316   2.339  12.860 -0.2750 -0.5326  2.1594
  650TMC3    C7 9682   3.451   2.213  12.678  0.0619  0.2064 -0.3926
  650TMC3    C8 9683   3.444   2.552  12.961 -0.5638  0.6341 -0.9734
  650TMC3    O1 9684   3.459   2.100  12.629  0.2453  0.5482 -0.1824
  650TMC3    O2 9685   3.531   2.623  12.912  0.0395  0.0866  0.2616
  651MPD2     C 9686   2.465   4.012  10.537  0.2935  0.2452 -0.0672
  651MPD2    C1 9687   2.430   4.095  10.637  0.2421  0.9536  0.1507
  651MPD2    C2 9688   2.532   4.148  10.713 -0.9653 -0.0573  0.2462
  651MPD2    C3 9689   2.667   4.133  10.687  0.8241  0.0417  0.3697
  651MPD2    C4 9690   2.705   4.061  10.571  0.3126  0.2760  0.4091
  651MPD2    C5 9691   2.602   4.001  10.504  0.5326  0.5053  0.0761
  651MPD2     H 9692   2.499   4.196  10.804  1.0545  2.4416 -0.3450
  651MPD2    H1 9693   2.807   4.059  10.535  0.1578  4.3748 -0.3375
  651MPD2    H2 9694   2.394   3.960  10.473  0.1232  1.3569 -0.7662
  651MPD2    H3 9695   2.622   3.938  10.418 -1.0764 -1.8377  1.4027
  651MPD2     N 9696   2.754   4.203  10.768  0.0439  0.3705  0.1450
  651MPD2    H5 9697   2.707   4.258  10.839  2.3317 -1.3209  2.9622
  651MPD2    N1 9698   2.302   4.125  10.682 -0.2479  0.8821 -0.4000
  651MPD2    H7 9699   2.293   4.198  10.751 -0.0993 -1.1253  1.7437
  652TMC3    C1 9700   3.106   4.413  10.981  0.9596 -0.0714 -0.2398
  652TMC3    C2 9701   3.060   4.308  10.908 -0.3204 -0.2423 -0.4632
  652TMC3    C3 9702   2.930   4.305  10.870 -0.2113 -0.6916 -0.1233
  652TMC3    C4 9703   3.024   4.508  11.031 -0.0558  0.9081 -0.2353
  652TMC3    C5 9704   2.899   4.503  10.986 -0.4100  0.0246 -1.1261
  652TMC3    C6 9705   2.845   4.403  10.910  0.2784 -0.5286  0.0444
  652TMC3     C 9706   3.239   4.410  11.019 -0.0004 -0.4361 -1.0043
  652TMC3     O 9707   3.300   4.305  11.000  0.3514  0.7831  0.2376
  652TMC3     H 9708   3.129   4.234  10.868 -0.4750 -1.6798  1.9080
  652TMC3    H1 9709   3.062   4.578  11.104 -0.3359  1.2234 -0.3901
  652TMC3    H2 9710   2.741   4.414  10.880 -0.4015 -0.2566  2.4111
  652TMC3    C7 9711   2.817   4.619  11.018  0.6409 -0.5283  0.3435
  652TMC3    C8 9712   2.889   4.211  10.770 -0.7823  0.1432  0.3933
  652TMC3    O1 9713   2.697   4.590  11.020 -0.0182 -0.0763 -0.0953
  652TMC3    O2 9714   2.982   4.156  10.711  0.4493  0.2323 -0.1084
  653MPD2     C 9715   1.777   4.466  17.673 -0.0185 -0.5772 -0.5104
  653MPD2    C1 9716   1.760   4.585  17.607  0.4810  0.4836  0.0679
  653MPD2    C2 9717   1.738   4.577  17.472 -0.3416  0.3551 -0.6434
  653MPD2    C3 9718   1.738   4.454  17.400  0.2633  0.2490 -0.7414
  653MPD2    C4 9719   1.761   4.335  17.472 -0.5219  0.2796  0.0000
  653MPD2    C5 9720   1.783   4.345  17.606 -0.5202 -0.4087  0.5937
  653MPD2     H 9721   1.726   4.662  17.407 -0.6059  0.9192  0.1425
  653MPD2    H1 9722   1.760   4.237  17.424  0.2554  1.0747 -1.6386
  653MPD2    H2 9723   1.784   4.457   0.028 -1.0072 -1.6151 -0.5339
  653MPD2    H3 9724   1.808   4.255  17.661 -0.4918 -0.6075  0.2528
  653MPD2     N 9725   1.711   4.457  17.262 -0.3219 -0.3508  0.4603
  653MPD2    H5 9726   1.712   4.550  17.222 -2.8078 -0.4031  0.2580
  653MPD2    N1 9727   1.766   4.712  17.673 -0.4692  0.4039  0.4088
  653MPD2    H7 9728   1.767   0.056  17.614  0.3448  0.1423  0.0563
  654TMC3    C1 9729   1.664   4.382  17.049 -0.8199 -0.3464 -0.4349
  654TMC3    C2 9730   1.597   4.494  17.024 -0.2882  0.2297  0.6775
  654TMC3    C3 9731   1.546   4.516  16.897 -0.3144 -0.4935  0.2643
  654TMC3    C4 9732   1.694   4.289  16.952 -0.6259  1.3309 -0.4397
  654TMC3    C5 9733   1.650   4.314  16.825 -0.1409 -0.5786 -0.2393
  654TMC3    C6 9734   1.579   4.428  16.796 -0.1785  0.0722  0.6831
  654TMC3     C 9735   1.695   4.347  17.183  0.4141 -0.5078  0.1741
  654TMC3     O 9736   1.709   4.225  17.199  0.1890  0.0518  0.1138
  654TMC3     H 9737   1.558   4.553  17.107  0.5603  0.5401  0.8582
  654TMC3    H1 9738   1.742   4.196  16.978 -1.2999  0.3025 -2.7945
  654TMC3    H2 9739   1.547   4.437  16.693 -1.6307  0.0327  1.1296
  654TMC3    C7 9740   1.617   4.203  16.738 -0.5785  0.6302  0.4119
  654TMC3    C8 9741   1.428   4.597  16.877 -0.2575 -0.4890  0.2108
  654TMC3    O1 9742   1.594   4.233  16.622  0.1231 -0.4946  0.6771
  654TMC3    O2 9743   1.352   4.567  16.790  0.5588  0.7764 -0.0901
  655MPD2     C 9744   3.040   4.553  15.664  0.3539  0.3506 -0.2196
  655MPD2    C1 9745   2.990   4.666  15.596  0.2396 -0.0046 -0.4001
  655MPD2    C2 9746   2.967   4.660  15.463 -0.3722  0.6464  0.3867
  655MPD2    C3 9747   2.984   4.537  15.403  0.5391  0.0172 -0.5533
  655MPD2    C4 9748   3.027   4.427  15.474  0.6504 -0.8675 -0.3298
  655MPD2    C5 9749   3.063   4.436  15.604 -0.2699 -0.0532  0.0686
  655MPD2     H 9750   2.935   0.012  15.413  0.4919  0.5562 -0.3272
  655MPD2    H1 9751   3.038   4.336  15.418  1.4348  0.1432 -1.8110
  655MPD2    H2 9752   3.067   4.554  15.769 -0.1316  0.8694 -0.1037
  655MPD2    H3 9753   3.119   4.366  15.665  0.7439 -0.6673 -1.5754
  655MPD2     N 9754   2.945   4.520  15.268 -0.4596  0.5378 -0.1799
  655MPD2    H5 9755   2.959   4.426  15.233 -1.3456 -0.3040  1.7157
  655MPD2    N1 9756   2.961   0.053  15.664 -0.4004  0.4208  0.3076
  655MPD2    H7 9757   2.915   0.128  15.612  2.5933  3.1583  1.5698
  656TMC3    C1 9758   2.935   0.213  15.833 -0.1742  0.6960 -0.5128
  656TMC3    C2 9759   2.844   0.241  15.934 -0.2041 -0.0882  1.0580
  656TMC3    C3 9760   2.796   0.365  15.953 -0.1365  0.7336  0.5631
  656TMC3    C4 9761   2.962   0.306  15.741  0.2662  0.7491 -0.0270
  656TMC3    C5 9762   2.895   0.425  15.749 -0.0367  0.1033 -0.1942
  656TMC3    C6 9763   2.820   0.461  15.861 -0.4327 -0.3708 -0.3523
  656TMC3     C 9764   2.964   0.078  15.797  0.0570  0.2867  0.0902
  656TMC3     O 9765   2.959   4.739  15.890  0.2134  0.2098 -0.1295
  656TMC3     H 9766   2.808   0.164  16.001 -1.9460 -0.1244  0.0928
  656TMC3    H1 9767   3.032   0.294  15.659  0.6680 -0.1879  0.4566
  656TMC3    H2 9768   2.769   0.556  15.870 -1.6095 -1.0883  0.5091
  656TMC3    C7 9769   2.838   0.465  15.622  0.6131  0.3029  0.2912
  656TMC3    C8 9770   2.659   0.374  15.995  0.3892  1.2402  0.2199
  656TMC3    O1 9771   2.906   0.436  15.521 -0.1060 -0.0555 -0.0333
  656TMC3    O2 9772   2.580   0.300  15.945 -0.2345  0.6996  0.3649
  657TMC3    C1 9773   1.931   4.061  14.841  0.3221 -0.8550  0.4217
  657TMC3    C2 9774   1.953   4.081  14.980  0.2161 -0.0560 -0.1325
  657TMC3    C3 9775   1.869   4.162  15.045  0.4836  0.4591  0.5426
  657TMC3    C4 9776   1.813   4.108  14.786 -0.0251  0.3155  0.2307
  657TMC3    C5 9777   1.725   4.183  14.863 -0.3124 -0.0906  0.2473
  657TMC3    C6 9778   1.752   4.207  14.994  0.0258  0.5508  0.4991
  657TMC3     C 9779   1.999   3.961  14.766 -0.3802 -0.0191 -0.1783
  657TMC3     O 9780   1.944   3.907  14.675 -0.1182 -0.0518  0.3700
  657TMC3     H 9781   2.037   4.030  15.025  0.3127 -0.1923 -0.4609
  657TMC3    H1 9782   1.794   4.088  14.681 -1.9680  0.9422  0.4600
  657TMC3    H2 9783   1.678   4.257  15.056 -0.2836 -0.5728  1.0349
  657TMC3    C7 9784   1.634   4.270  14.799 -0.5332 -0.6070 -1.2454
  657TMC3    C8 9785   1.909   4.227  15.169  0.7434 -1.1868 -0.3304
  657TMC3    O1 9786   1.570   4.338  14.875  0.1746 -0.2228 -0.1033
  657TMC3    O2 9787   1.823   4.291  15.229  0.0758  0.1499 -0.5968
  658MPD2     C 9788   3.304   4.164  14.882 -0.9413  0.6448 -0.0844
  658MPD2    C1 9789   3.232   4.246  14.802  0.3569 -0.6684  0.0415
  658MPD2    C2 9790   3.259   4.253  14.665  1.1248  0.1553  0.6710
  658MPD2    C3 9791   3.360   4.176  14.609 -0.4159 -0.6398 -0.2981
  658MPD2    C4 9792   3.419   4.081  14.689 -0.2973  0.3993  0.0993
  658MPD2    C5 9793   3.396   4.078  14.822 -0.0880 -0.4809  0.3688
  658MPD2     H 9794   3.217   4.330  14.602  1.5484  0.4680  0.7678
  658MPD2    H1 9795   3.497   4.011  14.660  0.1303  0.0020  2.1997
  658MPD2    H2 9796   3.282   4.150  14.987 -0.4071  0.9176  0.0646
  658MPD2    H3 9797   3.444   4.006  14.887 -2.4508 -0.0989  2.5536
  658MPD2     N 9798   3.385   4.192  14.473  0.9665  0.2623  0.2968
  658MPD2    H5 9799   3.333   4.257  14.415  0.0711 -1.7274 -1.1107
  658MPD2    N1 9800   3.124   4.318  14.860 -0.7526 -0.4877  0.4682
  658MPD2    H7 9801   3.111   4.318  14.961 -1.8637 -0.9436  0.3287
  659TMC3    C1 9802   2.929   4.459  14.866 -0.2574  0.1937 -0.3154
  659TMC3    C2 9803   2.955   4.502  14.994  0.3099 -0.7322 -0.5637
  659TMC3    C3 9804   2.851   4.557  15.061 -0.6097 -0.1545  0.6972
  659TMC3    C4 9805   2.809   4.491  14.795  0.4987 -0.3177  0.1375
  659TMC3    C5 9806   2.710   4.563  14.866  0.3451 -0.2221 -0.5183
  659TMC3    C6 9807   2.735   4.595  14.998 -0.9466 -0.5241 -0.2449
  659TMC3     C 9808   3.039   4.403  14.792 -0.0315 -0.6560  0.8487
  659TMC3     O 9809   3.018   4.415  14.672  0.5873 -0.0604 -0.3612
  659TMC3     H 9810   3.052   4.488  15.039  0.9989 -0.6733 -2.0246
  659TMC3    H1 9811   2.791   4.464  14.692 -0.9624  0.8956  0.0719
  659TMC3    H2 9812   2.663   4.644  15.063  0.0836  1.7957 -0.8572
  659TMC3    C7 9813   2.573   4.527  14.837  0.2292  0.9643 -0.0274
  659TMC3    C8 9814   2.876   4.608  15.193  0.4628 -0.4569  0.2992
  659TMC3    O1 9815   2.482   4.602  14.879  0.5084 -0.1993  0.8611
  659TMC3    O2 9816   2.819   4.713  15.219 -0.3236 -0.1802  0.3245
  660MPD2     C 9817   1.135   2.770  12.605  0.3730  0.5480  0.0999
  660MPD2    C1 9818   1.009   2.827  12.607  0.4774  0.2624  0.1798
  660MPD2    C2 9819   0.920   2.779  12.699  0.0089 -0.4760  0.7405
  660MPD2    C3 9820   0.949   2.664  12.782  0.3247 -0.0522 -0.0109
  660MPD2    C4 9821   1.073   2.610  12.766 -0.6115 -0.3722 -0.1115
  660MPD2    C5 9822   1.163   2.659  12.679 -0.1394  0.0885  0.0113
  660MPD2     H 9823   0.816   2.807  12.689  0.2974  0.7578  1.1539
  660MPD2    H1 9824   1.110   2.529  12.828  1.4888 -0.2010 -1.1381
  660MPD2    H2 9825   1.204   2.807  12.529 -1.3352  0.1427 -1.6650
  660MPD2    H3 9826   1.265   2.622  12.675  0.6887  2.5625 -1.7293
  660MPD2     N 9827   0.859   2.621  12.885 -0.1591 -0.1432  0.1397
  660MPD2    H5 9828   0.865   2.528  12.923  3.8402 -0.8452 -2.1580
  660MPD2    N1 9829   0.987   2.943  12.526  0.2721  0.2301 -0.4541
  660MPD2    H7 9830   1.044   2.955  12.443 -0.5688 -0.7985 -1.1816
  661TMC3    C1 9831   0.848   3.115  12.430 -0.6672 -0.7997 -0.1028
  661TMC3    C2 9832   0.951   3.151  12.343  0.1349 -0.1803 -0.2399
  661TMC3    C3 9833   0.913   3.243  12.245 -0.9703 -0.1375  0.5228
  661TMC3    C4 9834   0.718   3.160  12.427 -0.0704 -0.1278  0.2726
  661TMC3    C5 9835   0.685   3.224  12.314 -0.1682 -0.2022 -0.1823
  661TMC3    C6 9836   0.778   3.262  12.224  0.4014  0.1259  0.8893
  661TMC3     C 9837   0.882   3.030  12.546 -0.1301 -0.5393 -0.0401
  661TMC3     O 9838   0.806   3.044  12.636 -0.0711  0.0449 -0.2684
  661TMC3     H 9839   1.053   3.122  12.363  0.4384  0.6770 -0.5253
  661TMC3    H1 9840   0.640   3.123  12.491 -0.5787  0.6513  0.1040
  661TMC3    H2 9841   0.743   3.322  12.141 -0.1220 -1.9952 -0.4329
  661TMC3    C7 9842   0.549   3.239  12.271 -0.2145  0.0651  0.1133
  661TMC3    C8 9843   1.008   3.244  12.138  0.4512 -0.1207  0.0628
  661TMC3    O1 9844   0.531   3.249  12.154  0.0861  0.3098 -0.4084
  661TMC3    O2 9845   1.112   3.178  12.152  0.4230  0.0634 -0.4693
  662MPD2     C 9846   1.602   3.042  16.704  0.1477 -0.1591 -0.3292
  662MPD2    C1 9847   1.576   3.028  16.838 -0.0383 -0.0103 -0.0920
  662MPD2    C2 9848   1.491   3.113  16.906  0.0358 -0.4185  0.3542
  662MPD2    C3 9849   1.414   3.197  16.825 -0.5055  0.3445  0.6637
  662MPD2    C4 9850   1.443   3.219  16.694  0.5148  0.0003 -0.8384
  662MPD2    C5 9851   1.540   3.142  16.640  0.2291 -0.6467 -0.5178
  662MPD2     H 9852   1.469   3.092  17.010 -0.6281 -1.8614 -0.0847
  662MPD2    H1 9853   1.394   3.292  16.631 -0.7724  1.9302  2.4216
  662MPD2    H2 9854   1.678   2.988  16.650 -1.3436 -1.6478 -0.9371
  662MPD2    H3 9855   1.578   3.164  16.541  1.0724  1.2507  0.2325
  662MPD2     N 9856   1.311   3.264  16.877 -0.2321 -0.1385  0.7172
  662MPD2    H5 9857   1.234   3.286  16.815 -0.2474  0.2521  0.8698
  662MPD2    N1 9858   1.628   2.913  16.906  0.2010  0.5000 -0.0096
  662MPD2    H7 9859   1.594   2.902  17.001 -0.3052 -0.0401 -0.2581
  663TMC3    C1 9860   1.675   2.685  16.952 -0.5881 -0.6292 -0.0583
  663TMC3    C2 9861   1.627   2.728  17.073 -0.0479 -1.3758 -0.6964
  663TMC3    C3 9862   1.525   2.670  17.140  0.8871 -0.4051 -0.2875
  663TMC3    C4 9863   1.613   2.579  16.887  0.0944  0.6134  0.2135
  663TMC3    C5 9864   1.501   2.531  16.949 -0.2575 -0.1552 -1.4194
  663TMC3    C6 9865   1.454   2.569  17.073 -0.2899  0.0767 -0.3165
  663TMC3     C 9866   1.694   2.798  16.861  0.1077  0.0157 -0.9577
  663TMC3     O 9867   1.735   2.771  16.748  0.0592 -0.3759  0.6177
  663TMC3     H 9868   1.687   2.802  17.125  0.1050 -2.0456  0.0910
  663TMC3    H1 9869   1.640   2.548  16.787  0.1067  1.0564  0.0837
  663TMC3    H2 9870   1.347   2.558  17.089 -0.4343  3.0120  0.6199
  663TMC3    C7 9871   1.438   2.423  16.875  0.3043 -0.0349 -0.0703
  663TMC3    C8 9872   1.445   2.780  17.192  0.1027 -0.3186  0.3306
  663TMC3    O1 9873   1.431   2.444  16.757 -0.0762 -0.4091  0.4890
  663TMC3    O2 9874   1.470   2.899  17.170 -0.1632 -0.0190  0.3292
  664MPD2     C 9875   3.778   1.733  17.369 -0.0681 -0.1460  0.5646
  664MPD2    C1 9876   3.882   1.778  17.438 -0.3407 -0.7393 -0.3250
  664MPD2    C2 9877   3.923   1.706  17.545 -0.3161 -1.2252  0.4045
  664MPD2    C3 9878   3.849   1.590  17.576 -0.5184 -0.2916  0.5569
  664MPD2    C4 9879   3.746   1.541  17.494  0.5198 -0.2560  0.5357
  664MPD2    C5 9880   3.713   1.615  17.389 -0.6442 -0.4498  0.2503
  664MPD2     H 9881   4.009   1.739  17.602 -1.6120 -1.8650  2.7294
  664MPD2    H1 9882   3.692   1.448  17.512  1.2833 -0.8114 -0.0555
  664MPD2    H2 9883   3.741   1.778  17.277  1.3066  1.0190  0.5811
  664MPD2    H3 9884   3.622   1.592  17.335 -0.8815 -2.3941  1.5003
  664MPD2     N 9885   3.889   1.520  17.694 -0.3495 -0.2145  0.6051
  664MPD2    H5 9886   3.962   1.567  17.748 -0.9956  1.6538 -0.1403
  664MPD2    N1 9887   3.941   1.901  17.406 -0.0718 -0.0124 -0.1702
  664MPD2    H7 9888   4.030   1.915  17.451  0.8334 -2.1402 -1.2926
  665TMC3    C1 9889   3.872   1.354   0.111  0.1327  0.4028  0.1616
  665TMC3    C2 9890   3.858   1.226   0.148 -0.0414  0.1016 -0.3846
  665TMC3    C3 9891   3.855   1.193   0.275  0.2131 -0.1868  0.1929
  665TMC3    C4 9892   3.889   1.456   0.206 -0.5477 -0.5625 -0.2143
  665TMC3    C5 9893   3.883   1.416   0.336  0.2255 -0.2560 -0.6484
  665TMC3    C6 9894   3.854   1.283   0.373 -0.8416  0.2195  0.4059
  665TMC3     C 9895   3.856   1.392  17.721  0.4924  0.3230  0.0899
  665TMC3     O 9896   3.800   1.312  17.650 -0.5703  0.5405 -0.3366
  665TMC3     H 9897   3.860   1.154   0.068 -0.1371 -0.5309  0.1854
  665TMC3    H1 9898   3.882   1.560   0.179  0.3589  0.1878  2.4943
  665TMC3    H2 9899   3.851   1.250   0.476 -0.2854  0.0956  0.3832
  665TMC3    C7 9900   3.834   1.521   0.419  0.0787 -0.3069  0.3335
  665TMC3    C8 9901   3.779   1.069   0.308 -1.6330 -0.2019  0.2159
  665TMC3    O1 9902   3.714   1.542   0.402  0.5101 -0.1367  0.4332
  665TMC3    O2 9903   3.805   1.011   0.414 -0.2715 -0.1268 -0.1282
  666TMC3    C1 9904   3.376   0.771  10.241 -0.4213  0.4778  0.0148
  666TMC3    C2 9905   3.446   0.693  10.332 -0.4906  0.4987  0.9145
  666TMC3    C3 9906   3.558   0.739  10.384  0.4520  0.1827 -0.0945
  666TMC3    C4 9907   3.418   0.898  10.207  0.3540 -0.9151 -0.3499
  666TMC3    C5 9908   3.527   0.938  10.261  0.6845  0.5005 -0.6027
  666TMC3    C6 9909   3.602   0.861  10.344  0.2132 -0.2135  0.0148
  666TMC3     C 9910   3.233   0.742  10.222  0.3152 -1.0699 -0.0612
  666TMC3     O 9911   3.174   0.817  10.147 -0.2003 -0.6385  0.2525
  666TMC3     H 9912   3.421   0.589  10.350  2.0912 -0.8108 -2.9054
  666TMC3    H1 9913   3.352   0.958  10.146 -1.2863 -2.3413  0.0130
  666TMC3    H2 9914   3.691   0.911  10.383 -0.9039  1.3985  0.4973
  666TMC3    C7 9915   3.561   1.076  10.255 -0.7872  0.0589 -0.3399
  666TMC3    C8 9916   3.547   0.720  10.523  0.9237  0.3797 -0.3515
  666TMC3    O1 9917   3.682   1.103  10.274  0.7323  0.2434 -0.2776
  666TMC3    O2 9918   3.442   0.666  10.557  0.4308 -0.0899  0.0380
  667MPD2     C 9919   0.210   1.197  14.768  0.3023 -0.2721 -0.3424
  667MPD2    C1 9920   0.255   1.158  14.889 -0.0921 -0.6877  0.1112
  667MPD2    C2 9921   0.223   1.037  14.940  0.4252  0.1689 -0.0072
  667MPD2    C3 9922   0.141   0.948  14.880  0.5081  0.1032  0.0215
  667MPD2    C4 9923   0.109   0.980  14.750 -0.6068 -0.0972 -0.0977
  667MPD2    C5 9924   0.136   1.108  14.700 -0.4878  0.2766 -0.2902
  667MPD2     H 9925   0.269   1.001  15.032  0.1338 -1.2243 -0.4077
  667MPD2    H1 9926   0.049   0.913  14.690  0.9768 -0.8425 -0.8433
  667MPD2    H2 9927   0.233   1.296  14.730 -0.5011 -0.6337 -1.7753
  667MPD2    H3 9928   0.114   1.130  14.596 -0.0026 -2.9023 -1.0396
  667MPD2     N 9929   0.093   0.829  14.938  0.7069  0.1002 -0.3143
  667MPD2    H5 9930   0.045   0.763  14.878  0.5787  0.7240 -0.9033
  667MPD2    N1 9931   0.328   1.244  14.974  0.5037  0.3366  0.5780
  667MPD2    H7 9932   0.341   1.211  15.068 -0.2136 -0.3162  0.4460
  668TMC3    C1 9933   0.401   1.455  15.060  0.0698 -0.2486 -0.0334
  668TMC3    C2 9934   0.475   1.572  15.046 -0.5859  0.4172  0.0190
  668TMC3    C3 9935   0.483   1.639  15.163  0.3391  0.0982 -0.5788
  668TMC3    C4 9936   0.331   1.415  15.168  0.1562 -0.3188 -0.8290
  668TMC3    C5 9937   0.349   1.486  15.278 -0.5476  0.2507 -0.3433
  668TMC3    C6 9938   0.429   1.595  15.283 -0.0032  0.5411 -0.6403
  668TMC3     C 9939   0.369   1.374  14.942  0.3296 -0.8014 -0.1981
  668TMC3     O 9940   0.374   1.431  14.836 -0.0423  0.3689 -0.4210
  668TMC3     H 9941   0.516   1.595  14.948 -1.4915 -1.7292 -0.8614
  668TMC3    H1 9942   0.269   1.328  15.187  1.2637 -0.8241  0.4967
  668TMC3    H2 9943   0.438   1.654  15.374 -4.5815  0.7160 -0.3058
  668TMC3    C7 9944   0.263   1.465  15.396 -0.6005  0.3995 -0.4741
  668TMC3    C8 9945   0.544   1.776  15.179  0.4149 -0.2258 -0.2434
  668TMC3    O1 9946   0.316   1.494  15.504  0.3067  0.5869 -0.3917
  668TMC3    O2 9947   0.519   1.841  15.277 -0.2728  0.5749 -0.0396
  669TMC3    C1 9948   3.089   1.102  14.731 -0.5672  0.5869  0.6569
  669TMC3    C2 9949   2.999   1.142  14.634 -0.0613  0.2774 -0.1056
  669TMC3    C3 9950   3.029   1.225  14.528  0.1651 -0.2057  0.6790
  669TMC3    C4 9951   3.222   1.152  14.715  0.0993 -0.5209  0.4600
  669TMC3    C5 9952   3.249   1.243  14.617  0.7402  0.5125  0.1595
  669TMC3    C6 9953   3.157   1.274  14.514  0.1155  0.2432  0.3441
  669TMC3     C 9954   3.058   1.022  14.852 -0.0645 -0.3778 -0.3860
  669TMC3     O 9955   2.947   1.033  14.901 -0.0892  0.1059 -0.7216
  669TMC3     H 9956   2.898   1.108  14.652  0.2534  0.4474  1.9039
  669TMC3    H1 9957   3.292   1.138  14.797  1.2601 -0.7377 -0.5706
  669TMC3    H2 9958   3.180   1.361  14.454  0.7817 -0.2675 -0.1515
  669TMC3    C7 9959   3.337   1.351  14.644 -0.3718  0.1005  0.2468
  669TMC3    C8 9960   2.920   1.238  14.431  0.6655 -0.2297 -0.1537
  669TMC3    O1 9961   3.390   1.415  14.552 -0.3253  0.3754 -0.2272
  669TMC3    O2 9962   2.825   1.159  14.443  0.2774 -0.2576 -0.1145
  670MPD2     C 9963   0.840   3.318  13.601  0.0955 -0.5270  0.0374
  670MPD2    C1 9964   0.949   3.249  13.643 -0.3033  0.2689 -0.7563
  670MPD2    C2 9965   0.989   3.261  13.774  0.0121  0.2210  0.0129
  670MPD2    C3 9966   0.923   3.342  13.862  0.2090 -0.2293  0.0355
  670MPD2    C4 9967   0.815   3.420  13.820  0.4533  0.6767  0.1734
  670MPD2    C5 9968   0.777   3.404  13.684  0.4405 -0.5891  0.7339
  670MPD2     H 9969   1.072   3.200  13.807  0.3109 -0.5620 -2.2024
  670MPD2    H1 9970   0.760   3.487  13.885 -4.4568 -2.8069 -0.3699
  670MPD2    H2 9971   0.804   3.315  13.499 -0.7606 -3.1587  0.4052
  670MPD2    H3 9972   0.703   3.470  13.641 -0.8718 -1.9231  0.9369
  670MPD2     N 9973   0.975   3.343  13.994  0.2713  0.2268  0.7037
  670MPD2    H5 9974   1.052   3.280  14.015  0.3355 -0.6107 -2.0941
  670MPD2    N1 9975   1.028   3.169  13.558  0.0239 -0.4133  0.3588
  670MPD2    H7 9976   1.110   3.118  13.591  0.9966  1.3059  0.5765
  671TMC3    C1 9977   1.003   3.382  14.211 -0.4076 -0.0516  0.7176
  671TMC3    C2 9978   1.142   3.369  14.202 -0.5253  0.2145  0.1813
  671TMC3    C3 9979   1.200   3.278  14.291 -0.3286  0.0198  0.1702
  671TMC3    C4 9980   0.925   3.296  14.283 -0.5034  0.4739  0.6217
  671TMC3    C5 9981   0.986   3.196  14.351 -0.3255 -1.0073 -0.4781
  671TMC3    C6 9982   1.123   3.187  14.362 -0.0085 -0.3337  0.3933
  671TMC3     C 9983   0.930   3.425  14.092 -0.2469  0.1986  1.0908
  671TMC3     O 9984   0.855   3.518  14.100 -0.1180 -0.3744 -0.0677
  671TMC3     H 9985   1.209   3.437  14.150  0.9059 -0.4069  1.2036
  671TMC3    H1 9986   0.817   3.301  14.267 -0.7222 -2.0215  1.3323
  671TMC3    H2 9987   1.173   3.104  14.411  0.5425 -0.8047 -0.9682
  671TMC3    C7 9988   0.914   3.071  14.330 -1.0467  0.3767  0.1380
  671TMC3    C8 9989   1.322   3.227  14.245  0.1500  0.5547 -0.2872
  671TMC3    O1 9990   0.982   2.982  14.291 -0.2045 -0.1313 -0.2835
  671TMC3    O2 9991   1.324   3.221  14.124  0.2906 -0.0333 -0.2752
  672MPD2     C 9992   1.545   3.865   1.062  0.1318  0.1769  0.3802
  672MPD2    C1 9993   1.625   3.894   0.952 -0.1133 -0.3326 -0.3127
  672MPD2    C2 9994   1.737   3.975   0.980  0.1196  0.3029 -0.1404
  672MPD2    C3 9995   1.750   4.030   1.106 -0.5647  0.2887 -0.4836
  672MPD2    C4 9996   1.664   4.005   1.211  0.3804 -0.5266  0.3354
  672MPD2    C5 9997   1.554   3.922   1.190  0.1942  0.3691  0.3445
  672MPD2     H 9998   1.805   4.012   0.904 -0.8009  1.8696 -0.2157
  672MPD2    H1 9999   1.670   4.058   1.305  1.2935  0.6106 -0.3580
  672MPD2    H210000   1.454   3.807   1.051  0.2006 -0.0242  0.8571
  672MPD2    H310001   1.480   3.896   1.264 -1.6098  1.1220 -1.1858
  672MPD2     N10002   1.860   4.115   1.139 -0.1721 -0.3673 -0.3087
  672MPD2    H510003   1.863   4.143   1.237  2.2668 -1.8817  0.0667
  672MPD2    N110004   1.602   3.854   0.819  0.7103 -0.4673  0.3461
  672MPD2    H710005   1.688   3.848   0.765  0.6298 -0.3968  0.2114
  673TMC3    C110006   1.499   3.801   0.632 -0.3389  0.1760  0.4330
  673TMC3    C210007   1.619   3.744   0.586  0.0638 -0.4079  0.3210
  673TMC3    C310008   1.643   3.720   0.452  0.2094  0.1957 -0.2665
  673TMC3    C410009   1.406   3.846   0.542  0.5013 -0.4564  0.2818
  673TMC3    C510010   1.438   3.814   0.407  0.7743 -0.3986  0.3530
  673TMC3    C610011   1.547   3.742   0.359  0.1594  0.3740 -0.1557
  673TMC3     C10012   1.481   3.825   0.771 -0.4237  0.0673  0.1927
  673TMC3     O10013   1.372   3.855   0.814 -0.0851 -0.2906 -0.3417
  673TMC3     H10014   1.670   3.688   0.663  1.5988  0.2185 -0.2526
  673TMC3    H110015   1.315   3.896   0.573  0.4434  0.3151 -1.1053
  673TMC3    H210016   1.563   3.736   0.252  3.0960  1.2626  0.2250
  673TMC3    C710017   1.349   3.858   0.301 -0.1086 -0.7230  0.2334
  673TMC3    C810018   1.748   3.632   0.407  0.2491 -0.3855 -0.2008
  673TMC3    O110019   1.352   3.814   0.184 -0.6476 -0.5613 -0.3486
  673TMC3    O210020   1.725   3.577   0.300 -0.1854 -0.0010  0.0219
  674MPD2     C10021   1.144   4.573  17.587 -0.7446  0.2284  0.1076
  674MPD2    C110022   1.166   4.444  17.537  0.4720  0.2578  0.6795
  674MPD2    C210023   1.058   4.358  17.530  0.6065 -0.5454 -0.2527
  674MPD2    C310024   0.937   4.395  17.590 -0.4641 -0.2654 -0.3855
  674MPD2    C410025   0.921   4.523  17.629  0.5272  0.1512  1.2277
  674MPD2    C510026   1.023   4.615  17.624  0.4241 -0.5916  0.3397
  674MPD2     H10027   1.057   4.254  17.498 -0.7177 -0.9583  1.1116
  674MPD2    H110028   0.825   4.563  17.659  0.4830  1.2299 -0.3915
  674MPD2    H210029   1.219   4.651  17.598 -1.6038  1.2943 -1.5786
  674MPD2    H310030   1.005   4.714  17.663  2.4529 -0.7041  1.5564
  674MPD2     N10031   0.849   4.293  17.618 -0.1248 -0.0756 -0.0566
  674MPD2    H510032   0.886   4.201  17.597 -0.5372 -0.1620 -0.4148
  674MPD2    N110033   1.296   4.398  17.529  0.0663  0.1281  0.1931
  674MPD2    H710034   1.358   4.453  17.587 -0.1076 -0.9128  1.3390
  675TMC3    C110035   1.443   4.218  17.530 -0.0375 -0.8123  0.2619
  675TMC3    C210036   1.463   4.092  17.492 -0.2266 -0.0378  0.2964
  675TMC3    C310037   1.452   3.989  17.580  0.0211 -0.0819  0.0639
  675TMC3    C410038   1.454   4.246  17.671  0.4479 -0.0255 -0.1481
  675TMC3    C510039   1.477   4.136   0.000  0.0531  0.1807 -0.0155
  675TMC3    C610040   1.464   4.005  17.717  0.6273 -0.8016 -0.6753
  675TMC3     C10041   1.331   4.280  17.469 -0.6623  0.3104  0.7508
  675TMC3     O10042   1.263   4.212  17.388 -0.0143  0.0822  0.1423
  675TMC3     H10043   1.463   4.072  17.386 -1.1096  0.1487  0.2658
  675TMC3    H110044   1.477   4.346  17.707 -1.0998  1.7172 -4.0315
  675TMC3    H210045   1.500   3.926   0.028 -0.8569  0.0864  1.2500
  675TMC3    C710046   1.522   4.175   0.134  0.4998  0.3137  0.1541
  675TMC3    C810047   1.420   3.860  17.527 -0.4610  0.3929 -0.4539
  675TMC3    O110048   1.495   4.280   0.183 -0.8862  0.3859 -0.6917
  675TMC3    O210049   1.440   3.831  17.412 -1.0075  0.2134  0.0373
  676MPD2     C10050   3.857   2.083  11.312  0.3037  0.0971  0.2382
  676MPD2    C110051   3.744   2.023  11.359 -0.2813  0.1082 -0.6301
  676MPD2    C210052   3.725   1.890  11.329  0.8983  0.1890  1.0431
  676MPD2    C310053   3.817   1.819  11.257 -0.0840  0.2270  0.2624
  676MPD2    C410054   3.934   1.875  11.216 -0.1150  0.2783  0.3274
  676MPD2    C510055   3.949   2.012  11.236 -0.6145  0.0708  0.8074
  676MPD2     H10056   3.634   1.846  11.368  1.6824 -1.7349  0.7240
  676MPD2    H110057   4.017   1.826  11.165 -0.2074  2.1897 -1.6982
  676MPD2    H210058   3.875   2.187  11.338 -3.3901  0.7144  0.2974
  676MPD2    H310059   4.031   2.073  11.198 -0.8767 -1.7751 -2.7394
  676MPD2     N10060   3.786   1.692  11.204  0.4872 -0.6508 -0.6524
  676MPD2    H510061   3.857   1.655  11.142 -0.4146  0.5360 -2.3842
  676MPD2    N110062   3.640   2.083  11.427  0.2512  0.4527 -0.3578
  676MPD2    H710063   3.566   2.018  11.452  0.7247  0.3627  0.7998
  677TMC3    C110064   3.499   2.263  11.495  0.9808  0.6626  0.0626
  677TMC3    C210065   3.392   2.183  11.463  0.4822  0.1356  0.4070
  677TMC3    C310066   3.270   2.222  11.515  0.2331  0.1853  0.1340
  677TMC3    C410067   3.489   2.374  11.575 -0.2542 -0.1982  0.2880
  677TMC3    C510068   3.368   2.397  11.636  0.2400 -0.3620  0.2651
  677TMC3    C610069   3.257   2.320  11.610 -0.3076  0.0068 -0.6207
  677TMC3     C10070   3.639   2.214  11.472  0.2258 -0.4257  0.1109
  677TMC3     O10071   3.736   2.294  11.482  0.0401  0.1412  0.2256
  677TMC3     H10072   3.402   2.100  11.394  0.6089  2.5920 -2.5316
  677TMC3    H110073   3.574   2.435  11.604  0.6208 -0.2787 -2.1206
  677TMC3    H210074   3.159   2.330  11.654 -0.2024 -0.6143 -0.2463
  677TMC3    C710075   3.363   2.446  11.772  0.5422 -0.1398 -0.9140
  677TMC3    C810076   3.164   2.127  11.484 -0.1973 -0.0187 -0.0946
  677TMC3    O110077   3.253   2.438  11.821  0.4216 -0.4895  0.1718
  677TMC3    O210078   3.145   2.095  11.366 -0.3527 -0.5805  0.0170
  678MPD2     C10079   0.445   2.094   1.045 -0.9022 -0.3740  0.1129
  678MPD2    C110080   0.387   2.027   0.938  0.1870  0.1368 -0.4540
  678MPD2    C210081   0.261   2.067   0.899 -0.5692 -0.3111 -0.3676
  678MPD2    C310082   0.201   2.177   0.960 -0.2009  0.6112  0.7702
  678MPD2    C410083   0.264   2.250   1.054 -0.4027  0.2734  0.2615
  678MPD2    C510084   0.385   2.198   1.105 -0.7492 -0.1467 -0.5537
  678MPD2     H10085   0.210   2.017   0.817 -0.1110  0.2607 -1.0002
  678MPD2    H110086   0.226   2.337   1.106 -1.4599 -1.0363  1.6636
  678MPD2    H210087   0.548   2.068   1.066 -0.1214  3.9775  1.5854
  678MPD2    H310088   0.439   2.257   1.179 -1.8354  2.0736 -1.5121
  678MPD2     N10089   0.085   2.233   0.900 -0.5163 -0.0860  0.2968
  678MPD2    H510090   0.050   2.194   0.813  0.5799 -1.1363  0.3208
  678MPD2    N110091   0.441   1.915   0.869  0.2414 -0.1721  0.4442
  678MPD2    H710092   0.380   1.870   0.802 -1.8866  2.9327  0.2788
  679TMC3    C110093   0.781   1.598   0.777 -0.3606 -0.8265  0.1276
  679TMC3    C210094   0.688   1.653   0.858  0.2036  0.0108 -0.0804
  679TMC3    C310095   0.605   1.758   0.819 -0.1110 -0.2990 -0.1279
  679TMC3    C410096   0.789   1.639   0.649 -0.0962  0.8746 -0.1770
  679TMC3    C510097   0.716   1.751   0.612 -0.0382 -0.2909  0.0416
  679TMC3    C610098   0.620   1.801   0.690 -0.0639  0.1337 -0.1946
  679TMC3     C10099   0.887   1.531   0.834  0.3749  0.0263  0.2812
  679TMC3     O10100   0.995   1.522   0.780 -0.3539  0.0611  0.0689
  679TMC3     H10101   0.693   1.640   0.965 -0.2288  0.5405  0.0045
  679TMC3    H110102   0.857   1.600   0.574 -0.6556  1.1589 -0.8373
  679TMC3    H210103   0.569   1.888   0.651 -0.7035 -0.3315 -0.3947
  679TMC3    C710104   0.758   1.842   0.505 -0.1157 -0.0642 -0.0530
  679TMC3    C810105   0.556   1.857   0.914  0.2689 -0.0946 -0.0651
  679TMC3    O110106   0.686   1.931   0.473 -0.5509  0.8770  0.0966
  679TMC3    O210107   0.629   1.855   1.017 -0.1172  0.2890 -0.1519
  680MPD2     C10108   0.431   0.865  13.637 -0.6864  0.1067  0.1703
  680MPD2    C110109   0.563   0.818  13.643 -0.5848 -0.2684 -1.4935
  680MPD2    C210110   0.663   0.902  13.705  0.0679 -0.0260 -1.2283
  680MPD2    C310111   0.629   1.027  13.750 -0.1612  1.1784  0.1132
  680MPD2    C410112   0.504   1.074  13.730 -0.0963  0.1176  0.2572
  680MPD2    C510113   0.412   0.994  13.669 -0.6838 -0.0448  0.2860
  680MPD2     H10114   0.761   0.856  13.707  0.1525  0.1550 -1.2263
  680MPD2    H110115   0.479   1.174  13.761  0.5968 -0.0197  1.2711
  680MPD2    H210116   0.350   0.799  13.611  0.4495 -1.0243 -0.5142
  680MPD2    H310117   0.312   1.033  13.656  0.2362  2.3110  0.2541
  680MPD2     N10118   0.711   1.114  13.827 -0.8690  0.2321 -0.2452
  680MPD2    H510119   0.683   1.210  13.844  0.4156  0.8260 -1.5497
  680MPD2    N110120   0.588   0.682  13.612  0.3379  0.4183  0.0277
  680MPD2    H710121   0.673   0.648  13.658 -1.1781 -1.6882  1.3036
  681TMC3    C110122   0.561   0.461  13.565 -0.4493 -0.9497  0.4788
  681TMC3    C210123   0.489   0.350  13.611  0.2532 -0.3964  0.4950
  681TMC3    C310124   0.557   0.231  13.632 -0.4366 -0.5435 -0.5349
  681TMC3    C410125   0.695   0.455  13.544 -0.3063 -0.1181  0.4811
  681TMC3    C510126   0.761   0.340  13.577  0.9620  0.5303  0.5609
  681TMC3    C610127   0.690   0.232  13.613 -0.2616  0.3164  0.8173
  681TMC3     C10128   0.503   0.595  13.553  0.0104 -0.0505 -0.3717
  681TMC3     O10129   0.407   0.607  13.481 -0.0868 -0.1797 -0.0078
  681TMC3     H10130   0.383   0.354  13.633  0.7667 -0.8522  3.0372
  681TMC3    H110131   0.748   0.545  13.512  0.2105 -0.7200 -0.3537
  681TMC3    H210132   0.745   0.139  13.631 -1.1283 -0.3545 -0.0115
  681TMC3    C710133   0.904   0.337  13.598 -0.3725 -0.0332  0.0623
  681TMC3    C810134   0.522   0.182  13.765 -0.0461 -0.4073 -0.2537
  681TMC3    O110135   0.946   0.267  13.691 -0.1664  0.3261 -0.5121
  681TMC3    O210136   0.424   0.114  13.774  0.2896 -0.0780  0.2091
  682MPD2     C10137   2.743   2.183  10.694  0.1278  0.0659 -0.0913
  682MPD2    C110138   2.673   2.068  10.671 -0.2107  0.0854 -0.2646
  682MPD2    C210139   2.558   2.051  10.732 -0.0203 -0.4651 -0.1837
  682MPD2    C310140   2.516   2.144  10.828 -0.3969  0.4878  0.2971
  682MPD2    C410141   2.591   2.256  10.854  1.2391 -0.4180  0.7613
  682MPD2    C510142   2.700   2.278  10.781 -0.0473  0.3387  0.4604
  682MPD2     H10143   2.514   1.952  10.722 -0.7033 -0.2419  0.6481
  682MPD2    H110144   2.558   2.336  10.919 -0.4029  0.0734 -0.6832
  682MPD2    H210145   2.839   2.206  10.650 -0.5942 -0.8431 -2.1352
  682MPD2    H310146   2.755   2.371  10.790  4.0799 -2.1822  1.1032
  682MPD2     N10147   2.408   2.122  10.916  0.6601  0.4538  0.0655
  682MPD2    H510148   2.400   2.179  10.999 -1.1448 -0.0468  0.2181
  682MPD2    N110149   2.713   1.961  10.586  0.2225  0.2014 -0.2666
  682MPD2    H710150   2.665   1.872  10.590 -0.6500  0.7222  1.1964
  683TMC3    C110151   2.262   2.002  11.238  0.1935  0.2075  0.2029
  683TMC3    C210152   2.224   1.871  11.249 -0.0709 -0.2235 -0.5063
  683TMC3    C310153   2.194   1.807  11.131  0.1046  0.3270 -0.6650
  683TMC3    C410154   2.273   2.065  11.117 -0.0476  0.2826  0.6622
  683TMC3    C510155   2.231   1.997  11.007  0.3881  0.4896  0.3539
  683TMC3    C610156   2.196   1.865  11.012  0.2555  0.0928  0.1146
  683TMC3     C10157   2.249   2.084  11.354  0.1444  0.3817 -0.1906
  683TMC3     O10158   2.314   2.184  11.363 -0.1578  0.0869 -0.1925
  683TMC3     H10159   2.239   1.826  11.346  0.3674 -0.9896 -0.9277
  683TMC3    H110160   2.298   2.171  11.117  0.9110  0.0470 -1.2461
  683TMC3    H210161   2.181   1.817  10.916 -0.1088 -0.0758  0.2555
  683TMC3    C710162   2.312   2.026  10.888  1.0295 -0.0864  0.7647
  683TMC3    C810163   2.166   1.666  11.129  0.3983  0.6151 -0.1215
  683TMC3    O110164   2.298   1.955  10.786 -0.7379  0.3853  0.3016
  683TMC3    O210165   2.119   1.621  11.029  0.3824 -0.1416  0.0542
  684MPD2     C10166   1.703   1.605  16.604  0.1988 -0.2684  0.5572
  684MPD2    C110167   1.630   1.668  16.506 -0.6344  0.9656 -0.4235
  684MPD2    C210168   1.542   1.766  16.550 -0.4279  0.6105 -0.5904
  684MPD2    C310169   1.544   1.816  16.678 -0.3920  0.2809 -0.2903
  684MPD2    C410170   1.625   1.756  16.769  0.2359  0.5812  0.0794
  684MPD2    C510171   1.701   1.657  16.735  0.0916  0.1010  0.1140
  684MPD2     H10172   1.467   1.804  16.482 -0.6260  0.2863 -0.5567
  684MPD2    H110173   1.613   1.792  16.870  0.8593  2.5032 -0.5357
  684MPD2    H210174   1.766   1.519  16.585 -0.5048 -0.6530 -0.0350
  684MPD2    H310175   1.767   1.609  16.806  1.3011 -1.4451 -2.0700
  684MPD2     N10176   1.476   1.934  16.711  0.0358 -0.1829  0.3796
  684MPD2    H510177   1.525   1.987  16.782  0.5077 -1.0861  0.7193
  684MPD2    N110178   1.633   1.643  16.367 -0.0279 -0.9777 -0.5912
  684MPD2    H710179   1.572   1.702  16.311  1.2581  3.7019  2.9186
  685TMC3    C110180   1.754   1.631  16.167 -0.3056 -0.4714 -0.6589
  685TMC3    C210181   1.639   1.664  16.106 -0.5497 -0.1165 -0.3929
  685TMC3    C310182   1.641   1.748  16.000  0.1197 -0.2934  0.8127
  685TMC3    C410183   1.871   1.703  16.138 -0.2968  0.1137 -0.1994
  685TMC3    C510184   1.872   1.799  16.044  0.9103  0.6774  0.5200
  685TMC3    C610185   1.757   1.817  15.971  0.4379 -0.4687 -0.5072
  685TMC3     C10186   1.738   1.580  16.304 -0.8200  0.9396 -0.1772
  685TMC3     O10187   1.832   1.515  16.365  0.0567 -0.2411  0.4855
  685TMC3     H10188   1.556   1.597  16.125  0.6288 -1.6535 -0.6539
  685TMC3    H110189   1.956   1.686  16.204 -0.0682 -0.2510 -0.5893
  685TMC3    H210190   1.758   1.887  15.888 -0.0286 -0.1149 -0.2140
  685TMC3    C710191   1.969   1.913  16.040  0.2199 -0.0090 -0.0597
  685TMC3    C810192   1.526   1.762  15.911 -0.5439  0.0435  0.3153
  685TMC3    O110193   1.969   1.988  15.947  0.1959 -0.3758 -0.3352
  685TMC3    O210194   1.517   1.860  15.842  0.0694  0.4851  0.2760
  686MPD2     C10195   2.605   1.884  15.274 -0.0755  0.2903  0.5360
  686MPD2    C110196   2.651   1.789  15.365  0.8420 -0.1446 -0.6250
  686MPD2    C210197   2.685   1.664  15.318 -0.3531 -0.3872  0.5250
  686MPD2    C310198   2.649   1.620  15.187  0.3360  0.4917 -0.0499
  686MPD2    C410199   2.592   1.716  15.095  0.7533  0.6397  0.2347
  686MPD2    C510200   2.582   1.840  15.145  0.1290 -0.4036  0.2016
  686MPD2     H10201   2.736   1.588  15.378 -0.5464 -0.5827  0.4413
  686MPD2    H110202   2.562   1.680  14.998  0.3593 -1.3099  1.0718
  686MPD2    H210203   2.572   1.981  15.310  1.2808  1.2263 -0.7675
  686MPD2    H310204   2.542   1.913  15.075 -0.3559 -0.3149  0.5719
  686MPD2     N10205   2.650   1.489  15.138 -0.1276  0.5443 -0.1879
  686MPD2    H510206   2.634   1.489  15.038  2.2413 -1.8699 -0.5821
  686MPD2    N110207   2.653   1.824  15.505 -0.9030  0.4935 -0.1730
  686MPD2    H710208   2.614   1.913  15.533  0.8203  1.5390 -1.0693
  687TMC3    C110209   2.675   1.362  15.334  0.3760  0.0758 -0.1070
  687TMC3    C210210   2.560   1.395  15.396  0.0644 -0.0781  0.1047
  687TMC3    C310211   2.550   1.355  15.527  0.4015 -0.5334  0.4539
  687TMC3    C410212   2.780   1.295  15.397 -0.0434  0.2716 -0.0103
  687TMC3    C510213   2.773   1.274  15.525  0.3605  0.7841 -1.0576
  687TMC3    C610214   2.657   1.292  15.593 -0.4807  0.0580 -0.1423
  687TMC3     C10215   2.685   1.364  15.193  0.5849  0.1522 -0.9077
  687TMC3     O10216   2.719   1.261  15.137 -0.1353  0.0507 -0.7879
  687TMC3     H10217   2.480   1.449  15.348 -1.4011 -0.6643  1.8866
  687TMC3    H110218   2.869   1.281  15.336 -1.1649 -0.9596 -1.3681
  687TMC3    H210219   2.664   1.286  15.701  0.2939  0.7791 -0.1484
  687TMC3    C710220   2.892   1.277  15.610  1.0155 -0.4065 -0.1047
  687TMC3    C810221   2.465   1.420  15.622 -0.0577  0.2216 -0.3178
  687TMC3    O110222   2.876   1.339  15.715  0.4955  0.3281  0.5463
  687TMC3    O210223   2.456   1.373  15.734 -0.2670 -0.6426  0.2088
  688MPD2     C10224   2.187   0.575  17.646 -0.1082  0.3980  0.3834
  688MPD2    C110225   2.152   0.442  17.622  0.0568 -0.0751 -0.4970
  688MPD2    C210226   2.216   0.378  17.518 -0.0018 -0.4017  0.2034
  688MPD2    C310227   2.305   0.447  17.440  0.0749 -0.2019  0.1638
  688MPD2    C410228   2.335   0.582  17.474 -0.1384 -0.7739  0.1322
  688MPD2    C510229   2.276   0.638  17.577  0.0395  0.7012  0.0139
  688MPD2     H10230   2.188   0.275  17.504 -1.5234 -0.1097  1.1618
  688MPD2    H110231   2.409   0.642  17.424 -0.1973 -0.5348  0.3301
  688MPD2    H210232   2.148   0.628  17.732  1.2011 -0.4375  1.4927
  688MPD2    H310233   2.314   0.731  17.619 -0.7342  0.7802  0.5354
  688MPD2     N10234   2.380   0.395  17.328  0.5482 -0.2974 -0.2237
  688MPD2    H510235   2.440   0.455  17.272  0.8484 -1.0517 -0.7148
  688MPD2    N110236   2.061   0.366  17.695 -0.6377  0.0687 -0.0106
  688MPD2    H710237   2.046   0.266  17.685  1.5999 -0.3826  1.1750
  689TMC3    C110238   1.874   0.330   0.089 -0.6952  0.4010 -0.3012
  689TMC3    C210239   1.818   0.370   0.209 -0.1495  1.0735  0.3016
  689TMC3    C310240   1.738   0.280   0.279 -0.5661  0.1201  0.2337
  689TMC3    C410241   1.848   0.206   0.030  0.0446 -0.0597  0.4085
  689TMC3    C510242   1.769   0.125   0.106  0.6880  0.4313 -0.3029
  689TMC3    C610243   1.712   0.157   0.233  0.9712 -0.9016  0.2480
  689TMC3     C10244   1.982   0.411   0.045 -0.4065  0.1784  0.7232
  689TMC3     O10245   1.987   0.524   0.091  0.1900  0.2454 -0.0496
  689TMC3     H10246   1.846   0.470   0.242  0.5098  1.2556 -0.8182
  689TMC3    H110247   1.900   0.171  17.695  2.0232  0.7323  1.2547
  689TMC3    H210248   1.651   0.089   0.292 -2.2238  1.7576  0.0065
  689TMC3    C710249   1.751   4.733   0.054  0.3475  0.1146 -0.2095
  689TMC3    C810250   1.687   0.328   0.408  0.3156  0.3724 -0.6917
  689TMC3    O110251   1.707   4.653   0.135 -0.0674 -0.3017  0.1189
  689TMC3    O210252   1.639   0.248   0.488 -0.0104  0.1139 -0.1251
  690MPD2     C10253   4.245   2.432  15.717 -0.0864  0.5034 -0.4631
  690MPD2    C110254   4.214   2.402  15.583 -0.2047  0.1869 -0.2959
  690MPD2    C210255   4.317   2.391  15.491 -0.7619  0.3567 -0.1157
  690MPD2    C310256   4.445   2.418  15.528 -0.0789 -0.4446 -0.1285
  690MPD2    C410257   4.475   2.458  15.657 -0.2898  0.5187 -0.6127
  690MPD2    C510258   4.373   2.457  15.761 -0.1875 -0.0687  0.5885
  690MPD2     H10259   4.299   2.351  15.391  1.0650  0.8296 -0.6280
  690MPD2    H110260   4.578   2.483  15.683  0.2668 -1.5791 -0.8480
  690MPD2    H210261   4.172   2.445  15.796 -0.9909  0.5332 -1.3033
  690MPD2    H310262   4.391   2.507  15.855  0.9044  1.9547 -0.6755
  690MPD2     N10263   4.534   2.407  15.418  0.4786 -0.3037  0.5796
  690MPD2    H510264   4.499   2.391  15.325  0.9957  2.5083 -0.0773
  690MPD2    N110265   4.087   2.367  15.537 -0.2177 -0.4687 -0.4081
  690MPD2    H710266   4.083   2.348  15.438  0.4497  1.9480 -0.9057
  691TMC3    C110267   3.879   2.253  15.550 -0.4909 -0.0607 -0.6067
  691TMC3    C210268   3.749   2.261  15.600 -0.4800  0.4005  0.3966
  691TMC3    C310269   3.670   2.147  15.583 -0.2248  0.0023 -0.5825
  691TMC3    C410270   3.930   2.134  15.501  0.1584  0.6010 -0.1329
  691TMC3    C510271   3.854   2.024  15.518 -0.6538 -0.1267  0.1453
  691TMC3    C610272   3.719   2.026  15.544  0.3024  0.2461  0.4353
  691TMC3     C10273   3.975   2.334  15.616  0.4401 -0.5410  0.6534
  691TMC3     O10274   3.964   2.342  15.738  0.4748 -0.4000 -0.1251
  691TMC3     H10275   3.708   2.358  15.627 -1.9782 -0.2644  0.4783
  691TMC3    H110276   4.031   2.132  15.462 -0.4418 -0.1683 -1.6486
  691TMC3    H210277   3.655   1.938  15.534  0.7556 -0.2344  1.7919
  691TMC3    C710278   3.926   1.898  15.546  0.4396 -0.2715 -0.6354
  691TMC3    C810279   3.530   2.145  15.629  0.1559  0.4559 -0.0055
  691TMC3    O110280   4.049   1.910  15.568  0.7612  0.2396 -0.3245
  691TMC3    O210281   3.468   2.040  15.614  0.0252  0.2031  0.0169
  692TMC3    C110282   1.040   2.980  15.615  0.5577 -0.1606 -0.1745
  692TMC3    C210283   1.169   3.023  15.599 -0.2044  0.1994 -0.2873
  692TMC3    C310284   1.268   2.954  15.673  0.1763 -0.5962  0.5381
  692TMC3    C410285   1.014   2.867  15.686 -0.5889  0.1629  0.1766
  692TMC3    C510286   1.114   2.802  15.752  0.5214  0.7355 -0.0536
  692TMC3    C610287   1.235   2.855  15.765  0.0032 -0.4334  0.9598
  692TMC3     C10288   0.939   3.085  15.638 -0.1292 -0.1315  0.1691
  692TMC3     O10289   0.828   3.067  15.687  0.0948  0.3985 -0.6505
  692TMC3     H10290   1.204   3.105  15.538 -0.5528  0.3872 -0.2363
  692TMC3    H110291   0.914   2.830  15.702  0.3089 -3.1268 -1.9527
  692TMC3    H210292   1.321   2.797  15.797  3.0613  2.8012 -1.3114
  692TMC3    C710293   1.076   2.672  15.815  0.4842  0.7249 -0.1462
  692TMC3    C810294   1.349   3.049  15.746 -0.6556  0.5417 -0.1449
  692TMC3    O110295   0.985   2.614  15.760 -0.3857  0.0112  0.1770
  692TMC3    O210296   1.453   3.005  15.798 -0.0492 -0.1742  0.1187
  693MPD2     C10297   0.391   0.745  11.055 -0.7316 -0.1566  0.4766
  693MPD2    C110298   0.309   0.641  11.040 -0.6334 -0.1019 -0.2552
  693MPD2    C210299   0.367   0.513  11.027  0.8256 -0.6164  0.5337
  693MPD2    C310300   0.501   0.495  10.999  0.0094 -0.3069 -0.3988
  693MPD2    C410301   0.577   0.608  10.996  0.3856  0.6804 -0.2104
  693MPD2    C510302   0.527   0.732  11.027 -0.2418 -0.1824  0.2373
  693MPD2     H10303   0.301   0.429  11.014  1.0396 -0.3262 -2.3727
  693MPD2    H110304   0.684   0.607  10.980  0.2446  3.2804 -1.2932
  693MPD2    H210305   0.353   0.845  11.072 -2.6470 -1.4685  4.0849
  693MPD2    H310306   0.589   0.821  11.034 -0.0403 -0.3099  0.0930
  693MPD2     N10307   0.564   0.365  10.988 -0.1022 -0.5357  0.0107
  693MPD2    H510308   0.657   0.366  10.947  1.2365 -1.4268  3.0618
  693MPD2    N110309   0.171   0.652  11.064  0.4204 -0.0149 -0.1021
  693MPD2    H710310   0.132   0.741  11.094  0.7706 -0.4410  1.6629
  694TMC3    C110311   4.685   0.593  11.093 -0.3310  0.2776 -0.3084
  694TMC3    C210312   4.579   0.549  11.016 -0.3294 -0.4439 -1.0138
  694TMC3    C310313   4.454   0.584  11.058  0.0349  0.8918 -0.8785
  694TMC3    C410314   4.673   0.670  11.197  0.3600 -0.1682 -0.7933
  694TMC3    C510315   4.549   0.693  11.240  0.1299  0.0872  0.4883
  694TMC3    C610316   4.433   0.659  11.170  0.0295 -0.5031 -0.0752
  694TMC3     C10317   0.076   0.554  11.044 -1.1914 -1.3625  0.3677
  694TMC3     O10318   0.085   0.448  10.978 -0.7146 -0.2780  0.5150
  694TMC3     H10319   4.596   0.479  10.935  0.6725 -0.1418 -1.0664
  694TMC3    H110320   0.026   0.708  11.240 -0.2980 -0.8235  1.1702
  694TMC3    H210321   4.337   0.687  11.211 -0.0370  0.0542 -0.6163
  694TMC3    C710322   4.533   0.785  11.352  0.5977  0.5918  0.7277
  694TMC3    C810323   4.340   0.542  10.979  0.0142 -0.2948  0.3760
  694TMC3    O110324   4.626   0.857  11.380  0.6791 -0.8914 -0.3925
  694TMC3    O210325   4.230   0.558  11.029 -0.5370  0.7485  0.0260
  695MPD2     C10326   1.480   2.770  13.336  0.0921  0.7517 -0.1660
  695MPD2    C110327   1.467   2.786  13.472 -0.1879  0.1339  0.2064
  695MPD2    C210328   1.342   2.801  13.532 -0.1499 -0.4984  0.2606
  695MPD2    C310329   1.226   2.773  13.456  0.6244  0.6056  0.9869
  695MPD2    C410330   1.252   2.742  13.321 -1.0200  0.7079  0.7432
  695MPD2    C510331   1.371   2.735  13.263 -0.1809  0.0395  0.0043
  695MPD2     H10332   1.333   2.807  13.640 -0.4907 -2.2358  0.3224
  695MPD2    H110333   1.172   2.716  13.253  0.6089  1.2670 -1.3973
  695MPD2    H210334   1.577   2.772  13.287  0.2886  2.2147  0.2890
  695MPD2    H310335   1.375   2.734  13.155  0.6707 -0.8030  0.0508
  695MPD2     N10336   1.095   2.786  13.510  0.3625 -0.2812 -0.0091
  695MPD2    H510337   1.087   2.814  13.608  2.8023 -0.8087  0.3372
  695MPD2    N110338   1.579   2.807  13.557  0.0647  0.1426 -0.8237
  695MPD2    H710339   1.563   2.826  13.656  0.2893 -2.0405 -0.3513
  696TMC3    C110340   0.861   2.795  13.526 -0.5791  0.3692  0.1484
  696TMC3    C210341   0.873   2.792  13.656 -0.1406  1.1645  1.2029
  696TMC3    C310342   0.772   2.839  13.729 -0.8253 -0.1609  0.1073
  696TMC3    C410343   0.750   2.836  13.463  0.4043  0.2147 -0.1511
  696TMC3    C510344   0.658   2.908  13.540  0.0975  0.3015  0.4984
  696TMC3    C610345   0.670   2.908  13.674 -0.1201  0.3350  0.1344
  696TMC3     C10346   0.974   2.764  13.442 -0.3486  0.2077 -0.1609
  696TMC3     O10347   0.950   2.758  13.319 -0.5816  0.0659 -0.7161
  696TMC3     H10348   0.950   2.735  13.706  0.5004 -0.9266 -2.2172
  696TMC3    H110349   0.752   2.853  13.356  0.1640  2.2848  0.1634
  696TMC3    H210350   0.598   2.958  13.736  0.1465 -0.9859  1.5054
  696TMC3    C710351   0.605   3.026  13.468  0.2452  0.0877  0.5408
  696TMC3    C810352   0.784   2.852  13.874  0.1355 -0.1173  0.8531
  696TMC3    O110353   0.604   3.016  13.346 -0.3739 -0.5136 -0.1320
  696TMC3    O210354   0.898   2.873  13.908  0.3000 -0.4212 -0.0777
  697MPD2     C10355   0.685   4.694  15.693  0.1737 -0.0453 -0.2825
  697MPD2    C110356   0.690   4.673  15.554  0.7029 -0.3873 -0.0286
  697MPD2    C210357   0.751   0.033  15.480  0.1198 -0.4507 -0.1447
  697MPD2    C310358   0.793   0.157  15.534 -0.0535  0.4034 -0.0937
  697MPD2    C410359   0.782   0.177  15.669 -0.7174 -0.1226 -0.0069
  697MPD2    C510360   0.734   0.074  15.750 -0.4315  0.0441 -1.0808
  697MPD2     H10361   0.761   0.016  15.374 -2.1031 -0.8292 -0.2822
  697MPD2    H110362   0.824   0.265  15.717 -1.5268  1.4612 -2.2277
  697MPD2    H210363   0.653   4.623  15.768 -2.0390  0.5491 -0.6586
  697MPD2    H310364   0.739   0.079  15.858  2.7508 -1.0189 -1.1635
  697MPD2     N10365   0.838   0.255  15.443 -0.8617 -0.4188  0.7347
  697MPD2    H510366   0.833   0.217  15.349 -0.9056  0.4108  0.3968
  697MPD2    N110367   0.648   4.546  15.506  0.1382  0.2421 -0.0623
  697MPD2    H710368   0.594   4.485  15.567  1.4885  0.6523  1.5265
  698TMC3    C110369   0.957   0.421  15.343 -1.3402 -0.7618 -1.1238
  698TMC3    C210370   1.083   0.462  15.348  0.0062 -0.1160 -0.2502
  698TMC3    C310371   1.152   0.475  15.237  0.0717  0.1696 -0.1864
  698TMC3    C410372   0.889   0.408  15.225 -0.1152  0.5220  0.3002
  698TMC3    C510373   0.968   0.432  15.112  0.0255  0.2055  0.0284
  698TMC3    C610374   1.099   0.465  15.114  0.0298 -0.1051  0.1642
  698TMC3     C10375   0.902   0.373  15.464 -0.6079 -0.3407  0.1391
  698TMC3     O10376   0.923   0.429  15.571  0.0335  0.2596  0.0916
  698TMC3     H10377   1.129   0.458  15.446  2.0378  0.0314 -1.1960
  698TMC3    H110378   0.783   0.385  15.224 -0.1061  0.4641  0.6537
  698TMC3    H210379   1.158   0.481  15.025  0.1206 -2.1307 -0.1353
  698TMC3    C710380   0.904   0.383  14.994  0.4082  0.4347 -0.6897
  698TMC3    C810381   1.293   0.514  15.249 -0.5635 -0.0396 -0.1796
  698TMC3    O110382   0.787   0.358  15.013  0.4087 -0.7442  0.0409
  698TMC3    O210383   1.365   0.440  15.312 -0.4235  0.3032 -0.1813
  699TMC3    C110384   0.703   2.654  13.046 -1.0623  0.1458  0.7448
  699TMC3    C210385   0.755   2.556  13.122 -0.3969 -0.4051 -0.2121
  699TMC3    C310386   0.694   2.548  13.244  0.8076 -0.4313  0.5103
  699TMC3    C410387   0.603   2.745  13.086 -0.4250  0.1245 -0.0283
  699TMC3    C510388   0.543   2.721  13.206  0.7479  0.1708 -0.6761
  699TMC3    C610389   0.594   2.627  13.290 -0.2800  0.6829  0.2028
  699TMC3     C10390   0.781   2.715  12.941  0.4318 -0.4410 -0.3627
  699TMC3     O10391   0.771   2.838  12.924  0.0544 -0.5553  0.2439
  699TMC3     H10392   0.830   2.483  13.094 -0.4789  0.8766 -3.6739
  699TMC3    H110393   0.557   2.808  13.011 -1.7725  0.9112  1.4690
  699TMC3    H210394   0.551   2.610  13.388  1.0612 -0.7072  0.5436
  699TMC3    C710395   0.411   2.775  13.226  0.1873  0.3082  0.3077
  699TMC3    C810396   0.762   2.463  13.341  0.2384 -0.1420 -0.4357
  699TMC3    O110397   0.340   2.700  13.295  0.3094  0.0648 -0.4693
  699TMC3    O210398   0.693   2.423  13.431  0.7707  0.4752 -0.2983
  700TMC3    C110399   4.609   0.505  17.329  0.3066 -0.3942  0.1671
  700TMC3    C210400   4.676   0.387  17.341  0.3046  0.1227  0.0680
  700TMC3    C310401   0.044   0.387  17.418  0.1143  0.0786 -0.5993
  700TMC3    C410402   4.647   0.614  17.389  0.0145 -0.4332  0.6789
  700TMC3    C510403   0.018   0.608  17.472 -0.5549  0.2699  0.1026
  700TMC3    C610404   0.094   0.495  17.490  0.3614  0.4771  0.1558
  700TMC3     C10405   4.545   0.509  17.204  0.5323  0.2209  0.5505
  700TMC3     O10406   4.472   0.420  17.163  0.4321  0.2680 -0.7010
  700TMC3     H10407   4.634   0.301  17.291  0.8294 -0.5214  0.7397
  700TMC3    H110408   4.607   0.712  17.367  0.2447  0.5141  4.4460
  700TMC3    H210409   0.184   0.499  17.549  1.2896 -0.9231 -1.1850
  700TMC3    C710410   0.053   0.730  17.542 -0.5383 -0.5906  0.1843
  700TMC3    C810411   0.140   0.287  17.399  0.7018 -0.1763  0.6956
  700TMC3    O110412   0.171   0.758  17.556 -0.5342 -0.2816 -0.1288
  700TMC3    O210413   0.258   0.316  17.417  0.5881 -0.0964 -0.1426
  701TMC3    C110414   4.565   4.274  15.584  0.9151 -0.3210 -0.4936
  701TMC3    C210415   4.546   4.178  15.481  0.4290 -0.0358 -1.0763
  701TMC3    C310416   4.664   4.131  15.421  0.4628 -0.3065 -0.9915
  701TMC3    C410417   4.681   4.348  15.593 -1.2028  0.5821  0.1246
  701TMC3    C510418   0.049   4.294  15.522 -0.2364  0.1370 -0.3596
  701TMC3    C610419   0.049   4.182  15.445  0.5328  0.1266 -1.2861
  701TMC3     C10420   4.453   4.325  15.655 -0.6218  0.0510 -0.5012
  701TMC3     O10421   4.455   4.446  15.676  0.5574 -0.5784 -0.0170
  701TMC3     H10422   4.452   4.127  15.470  0.7084 -0.7306 -0.2441
  701TMC3    H110423   4.693   4.433  15.659 -1.9451  0.1597  0.8034
  701TMC3    H210424   0.137   4.143  15.394  1.2911 -0.7602  0.7269
  701TMC3    C710425   0.168   4.362  15.549  0.3982  0.1095  0.6528
  701TMC3    C810426   4.646   4.021  15.324 -0.3255  0.2237 -0.1968
  701TMC3    O110427   0.222   4.419  15.455  0.3994 -0.2469 -0.8497
  701TMC3    O210428   0.006   3.947  15.311 -0.0796  0.0309 -0.3854
  702MPD2     C10429   3.844   1.543  10.498 -0.6593  0.1323 -0.2406
  702MPD2    C110430   3.810   1.626  10.603  0.7344 -0.2306  0.3448
  702MPD2    C210431   3.835   1.760  10.586  0.3032  0.2656  0.0527
  702MPD2    C310432   3.881   1.813  10.471  0.0330 -0.7374  0.1708
  702MPD2    C410433   3.913   1.735  10.366  0.3365 -0.1759 -0.3592
  702MPD2    C510434   3.896   1.602  10.382  0.3646  0.0776 -0.5888
  702MPD2     H10435   3.800   1.818  10.670  0.7242  1.7427 -0.8032
  702MPD2    H110436   3.959   1.767  10.274 -0.0455  2.1533  0.2511
  702MPD2    H210437   3.842   1.434  10.494 -2.2944  0.1387  0.5235
  702MPD2    H310438   3.921   1.542  10.295 -1.6057  1.1656 -1.9076
  702MPD2     N10439   3.901   1.954  10.462  0.6653 -0.2413  0.3860
  702MPD2    H510440   3.873   2.008  10.544 -2.7255 -0.9516 -0.2949
  702MPD2    N110441   3.745   1.587  10.724  0.3026  0.0348 -0.5105
  702MPD2    H710442   3.717   1.661  10.786 -1.7064  0.1516 -1.5520
  703TMC3    C110443   3.959   2.174  10.377 -0.4637 -0.6779  0.7168
  703TMC3    C210444   3.865   2.227  10.458  0.2699 -0.4723  0.1202
  703TMC3    C310445   3.882   2.360  10.492  0.2981 -0.8984  0.1667
  703TMC3    C410446   4.065   2.241  10.326  0.4946 -0.8876 -0.1793
  703TMC3    C510447   4.092   2.361  10.377 -0.4972 -0.4742  0.1333
  703TMC3    C610448   3.998   2.430  10.452  0.2666  0.1574 -0.0640
  703TMC3     C10449   3.951   2.022  10.356 -0.3504 -0.6692 -0.1650
  703TMC3     O10450   4.015   1.983  10.259 -0.4203  0.5712  0.0164
  703TMC3     H10451   3.778   2.170  10.488 -0.9833  1.3937  0.0732
  703TMC3    H110452   4.138   2.199  10.258  0.5269 -0.7678 -0.2191
  703TMC3    H210453   4.020   2.531  10.483  2.6840 -0.8445  1.4890
  703TMC3    C710454   4.233   2.400  10.374  0.1022 -0.3084  0.2402
  703TMC3    C810455   3.796   2.425  10.588 -0.0476 -0.1701 -0.4313
  703TMC3    O110456   4.310   2.303  10.366 -0.9223 -0.0079  0.1550
  703TMC3    O210457   3.810   2.544  10.608 -0.4108  0.5907 -0.6773
  704TMC3    C110458   2.504   0.225  12.808  0.0471 -0.2651 -0.1041
  704TMC3    C210459   2.583   0.190  12.705 -0.1666  0.3794 -0.9416
  704TMC3    C310460   2.642   0.074  12.712 -0.9769  0.5049 -0.3625
  704TMC3    C410461   2.483   0.138  12.904  0.0098  0.9338  0.0559
  704TMC3    C510462   2.541   0.012  12.911  0.0188  0.6168 -0.4873
  704TMC3    C610463   2.625   4.719  12.809  0.4063 -0.0221 -0.5751
  704TMC3     C10464   2.378   0.297  12.780 -0.2489  0.8617 -0.3245
  704TMC3     O10465   2.312   0.346  12.867 -0.0795  0.3095 -0.1419
  704TMC3     H10466   2.611   0.257  12.625  0.7259  0.4796 -0.5523
  704TMC3    H110467   2.421   0.177  12.985 -0.0839  0.3156  0.2835
  704TMC3    H210468   2.653   4.615  12.798  2.3709  0.6866 -2.3051
  704TMC3    C710469   2.461   4.644  12.965 -0.0745  0.1193 -0.2498
  704TMC3    C810470   2.697   0.017  12.585 -0.0996 -0.2725  0.7554
  704TMC3    O110471   2.346   4.655  12.933  0.0793 -0.1733  0.2960
  704TMC3    O210472   2.655   0.054  12.480  0.4452  0.1455  0.2506
  705MPD2     C10473   1.335   2.907  16.382  0.0886 -0.5796 -0.4830
  705MPD2    C110474   1.360   3.040  16.347 -0.1226  0.2562  0.1075
  705MPD2    C210475   1.253   3.130  16.352  0.4359 -0.7028  0.2869
  705MPD2    C310476   1.121   3.084  16.383 -1.5420 -0.3406 -0.9511
  705MPD2    C410477   1.102   2.953  16.419  0.2093 -0.5584  0.2567
  705MPD2    C510478   1.206   2.867  16.409  0.0206 -0.0044 -0.6361
  705MPD2     H10479   1.271   3.226  16.304  0.2508 -0.0501  1.5232
  705MPD2    H110480   1.007   2.921  16.459  1.6401 -1.6703  2.8007
  705MPD2    H210481   1.413   2.832  16.375  0.3821 -0.4186  0.9590
  705MPD2    H310482   1.191   2.765  16.442 -0.6303 -0.0738 -1.1562
  705MPD2     N10483   1.018   3.174  16.405 -0.2238  0.5466  0.2517
  705MPD2    H510484   0.929   3.131  16.430  1.3101 -2.1001  1.1466
  705MPD2    N110485   1.479   3.088  16.283 -0.6579 -0.0384 -0.1342
  705MPD2    H710486   1.481   3.177  16.235  2.9973  0.2102  0.4468
  706TMC3    C110487   1.902   3.026  16.070  0.3063  0.1292  0.3807
  706TMC3    C210488   1.923   3.162  16.050  0.6187 -0.8486  0.0693
  706TMC3    C310489   1.836   3.244  16.111  0.2232  0.5930 -0.5882
  706TMC3    C410490   1.810   2.981  16.160 -0.4107  0.4428 -0.5993
  706TMC3    C510491   1.712   3.067  16.200 -0.7642  0.0166 -0.2498
  706TMC3    C610492   1.726   3.196  16.181  0.4638 -0.4151  0.0937
  706TMC3     C10493   1.991   2.935  16.007 -0.5011 -0.3244  0.5053
  706TMC3     O10494   2.026   2.836  16.067 -0.3873 -0.0524 -0.1053
  706TMC3     H10495   1.995   3.210  15.985  1.8068 -0.9151  1.3493
  706TMC3    H110496   1.808   2.873  16.165  0.4527  0.4483 -0.0959
  706TMC3    H210497   1.659   3.262  16.235  1.2896 -1.3047  2.2370
  706TMC3    C710498   1.598   3.009  16.271 -0.0206  0.0321 -0.2268
  706TMC3    C810499   1.855   3.387  16.097  0.4792 -0.9525  0.0750
  706TMC3    O110500   1.610   2.885  16.278 -0.0734 -0.1692  0.1168
  706TMC3    O210501   1.924   3.430  16.010 -0.4563 -0.1016 -0.0656
  707TMC3    C110502   3.517   4.312   1.221  0.4771 -0.0203 -0.5301
  707TMC3    C210503   3.419   4.342   1.133  0.2596  0.1445  0.9170
  707TMC3    C310504   3.367   4.229   1.069  0.0111  0.3701  0.4008
  707TMC3    C410505   3.551   4.184   1.254 -0.0438  0.0848 -0.2351
  707TMC3    C510506   3.501   4.078   1.185  0.0327  0.6073  0.1888
  707TMC3    C610507   3.408   4.096   1.091 -0.7361  0.5624  0.4313
  707TMC3     C10508   3.592   4.429   1.268  0.3163  0.0485 -0.8065
  707TMC3     O10509   3.556   4.536   1.225 -0.1144 -0.5940 -0.9444
  707TMC3     H10510   3.371   4.438   1.146 -0.4581 -0.0382 -0.3952
  707TMC3    H110511   3.637   4.182   1.321  0.9130  0.4493 -1.4488
  707TMC3    H210512   3.369   4.014   1.031  0.2687  0.3534  0.0654
  707TMC3    C710513   3.514   3.944   1.229  0.2138  0.4249  0.6930
  707TMC3    C810514   3.295   4.262   0.945 -0.2370 -0.2991 -0.4976
  707TMC3    O110515   3.438   3.861   1.179 -0.5484  0.4266  0.3673
  707TMC3    O210516   3.230   4.179   0.883  0.3325 -0.1212 -0.3867
  708MPD2     C10517   4.176   1.162  14.285 -0.9251  0.5852 -0.2130
  708MPD2    C110518   4.073   1.145  14.365  0.5377 -0.1212  0.8449
  708MPD2    C210519   4.088   1.070  14.483  0.0368 -0.6474  0.1913
  708MPD2    C310520   4.210   1.006  14.506  0.0305 -0.3799  0.3305
  708MPD2    C410521   4.311   1.016  14.413  0.1143  0.5041  0.4858
  708MPD2    C510522   4.290   1.093  14.302  0.2923  0.1591  0.7542
  708MPD2     H10523   4.005   1.051  14.551  0.2503 -0.2547  0.5607
  708MPD2    H110524   4.411   0.976  14.421  0.7118  1.1556 -3.8863
  708MPD2    H210525   4.162   1.211  14.190 -2.7739 -1.4875 -1.0238
  708MPD2    H310526   4.366   1.102  14.225  0.9812  2.0363  1.6715
  708MPD2     N10527   4.228   0.939  14.632 -0.2728  0.5166  0.0245
  708MPD2    H510528   4.151   0.956  14.696  0.7491 -0.4173  1.4863
  708MPD2    N110529   3.951   1.219  14.346 -0.3106  0.4881  0.5947
  708MPD2    H710530   3.949   1.271  14.259 -0.9360  1.0459  0.9459
  709TMC3    C110531   3.747   1.314  14.370  0.0325 -0.2607  0.0846
  709TMC3    C210532   3.782   1.372  14.250  0.1550 -1.1902  0.6547
  709TMC3    C310533   3.781   1.509  14.248 -0.0497  0.0928  0.1094
  709TMC3    C410534   3.693   1.380  14.481  0.1320  0.4743 -0.2903
  709TMC3    C510535   3.708   1.512  14.474  1.1281  0.3035  1.0490
  709TMC3    C610536   3.748   1.583  14.361  0.1778 -0.7236 -0.8052
  709TMC3     C10537   3.840   1.208  14.420 -0.0398  0.1147  0.4258
  709TMC3     O10538   3.820   1.164  14.532 -0.3327 -0.2467  0.1407
  709TMC3     H10539   3.797   1.313  14.161  0.1330  0.3853 -0.3788
  709TMC3    H110540   3.654   1.329  14.569 -0.5098 -1.9763 -1.9973
  709TMC3    H210541   3.750   1.692  14.358  4.5630 -0.7631  2.0097
  709TMC3    C710542   3.790   1.568  14.585  0.3475  0.0388 -0.7066
  709TMC3    C810543   3.730   1.562  14.120  0.0682  0.0129 -0.4393
  709TMC3    O110544   3.813   1.690  14.581 -0.6249 -0.1617 -0.1689
  709TMC3    O210545   3.654   1.501  14.046 -0.0729  0.1991 -0.2766
  710TMC3    C110546   0.756   2.630   0.165  0.1308  0.0999 -0.5327
  710TMC3    C210547   0.797   2.658   0.042  0.3295 -0.2651 -0.1054
  710TMC3    C310548   0.879   2.565  17.734  0.1619  0.1089 -0.4902
  710TMC3    C410549   0.786   2.511   0.228  0.3727  1.0192  0.0959
  710TMC3    C510550   0.860   2.417   0.168  0.2176  0.6886  0.4893
  710TMC3    C610551   0.905   2.446   0.042  0.1346 -1.1124  0.1782
  710TMC3     C10552   0.659   2.720   0.237  0.1661 -0.4218 -0.6685
  710TMC3     O10553   0.579   2.787   0.176 -0.3199 -0.1728 -0.4265
  710TMC3     H10554   0.768   2.749  17.744 -0.9341  0.6301  2.2072
  710TMC3    H110555   0.751   2.493   0.329 -1.0324 -1.4577 -0.8308
  710TMC3    H210556   0.961   2.375  17.737 -1.7269  0.2236 -3.2040
  710TMC3    C710557   0.868   2.289   0.234 -0.2921  0.2941 -0.4777
  710TMC3    C810558   0.959   2.601  17.619  0.2756  0.3196  0.2895
  710TMC3    O110559   0.776   2.272   0.308  0.0013  0.4579  0.1394
  710TMC3    O210560   1.047   2.523  17.586 -0.3276 -0.5615  0.8110
  711TMC3    C110561   0.579   3.574  15.049 -0.2813  0.0724  0.1541
  711TMC3    C210562   0.585   3.673  15.144 -0.7744 -0.4830 -0.7088
  711TMC3    C310563   0.685   3.654  15.233 -0.6850  0.5694  0.0233
  711TMC3    C410564   0.665   3.467  15.045 -0.3167  0.0419  0.2917
  711TMC3    C510565   0.759   3.449  15.143  0.1325 -0.1130  0.1240
  711TMC3    C610566   0.764   3.544  15.240 -0.0377  0.6841 -0.1838
  711TMC3     C10567   0.479   3.570  14.940 -0.7084  0.5331  0.3020
  711TMC3     O10568   0.494   3.483  14.855  0.0475 -0.8025  0.6329
  711TMC3     H10569   0.536   3.768  15.126 -1.4595 -0.3149  1.9620
  711TMC3    H110570   0.677   3.390  14.970  0.4430  1.3226 -0.9141
  711TMC3    H210571   0.829   3.532  15.326  0.8292  0.7162 -0.8263
  711TMC3    C710572   0.808   3.315  15.168  0.1945 -0.9505 -0.0510
  711TMC3    C810573   0.705   3.766  15.321 -0.5948  0.1721 -0.9336
  711TMC3    O110574   0.922   3.303  15.216 -0.2425  0.6497  0.2984
  711TMC3    O210575   0.606   3.830  15.342  0.3118  0.0185 -0.1557
  712MPD2     C10576   1.906   4.381  13.460 -0.5754 -0.1722  1.0298
  712MPD2    C110577   1.803   4.448  13.403  0.2719 -0.2958  0.6890
  712MPD2    C210578   1.792   4.586  13.432 -0.2310  0.4057  0.2947
  712MPD2    C310579   1.874   4.640  13.528  0.3638  0.2119 -0.1382
  712MPD2    C410580   1.981   4.568  13.577  0.6470  0.4345 -0.5953
  712MPD2    C510581   1.996   4.435  13.541  0.0259  0.2036 -0.5821
  712MPD2     H10582   1.712   4.644  13.387 -1.7152  0.0569  2.4738
  712MPD2    H110583   2.057   4.611  13.641  1.4910  0.1756 -1.4238
  712MPD2    H210584   1.919   4.276  13.434  0.4468  0.2267 -0.0450
  712MPD2    H310585   2.071   4.372  13.586 -2.0671 -1.5570  0.4503
  712MPD2     N10586   1.862   0.035  13.573  0.5117  0.1811 -0.2114
  712MPD2    H510587   1.944   0.071  13.620 -0.9307  2.2106  0.7857
  712MPD2    N110588   1.720   4.375  13.318 -0.3570 -0.0233 -0.2814
  712MPD2    H710589   1.773   4.290  13.298  1.3382  0.5566  1.8282
  713TMC3    C110590   1.793   0.255  13.610  0.3047 -1.2280  0.1594
  713TMC3    C210591   1.928   0.297  13.599  0.2426 -0.4988  0.0375
  713TMC3    C310592   1.954   0.413  13.658  0.1201  0.3075  0.4102
  713TMC3    C410593   1.700   0.326  13.682 -1.2396  0.1263 -0.2433
  713TMC3    C510594   1.729   0.450  13.731 -0.0580  0.2131  0.4648
  713TMC3    C610595   1.857   0.490  13.717  0.1961  0.1439 -0.9763
  713TMC3     C10596   1.755   0.122  13.555 -0.1303  0.7176  0.1778
  713TMC3     O10597   1.643   0.098  13.519 -0.0934  0.1094 -0.3494
  713TMC3     H10598   2.000   0.244  13.536 -2.5797 -2.9949 -1.1203
  713TMC3    H110599   1.606   0.278  13.709 -1.9398 -0.1184 -3.0842
  713TMC3    H210600   1.892   0.581  13.765  2.7788 -1.8782  1.0527
  713TMC3    C710601   1.641   0.495  13.839 -0.2271 -0.1373 -0.8430
  713TMC3    C810602   2.074   0.481  13.609  0.0218 -0.7752 -0.4199
  713TMC3    O110603   1.688   0.534  13.946 -0.0368  0.3021  0.0932
  713TMC3    O210604   2.112   0.449  13.494  0.0162  0.0538 -0.1843
  714MPD2     C10605   4.612   3.262   1.897  0.9750 -0.1710  0.4408
  714MPD2    C110606   4.625   3.222   1.771 -0.6065 -0.1888  0.4473
  714MPD2    C210607   4.545   3.283   1.674  0.3802  0.7379 -0.4594
  714MPD2    C310608   4.440   3.363   1.709 -1.0000  0.6270  0.1594
  714MPD2    C410609   4.427   3.397   1.843 -0.1643 -0.0713 -0.2878
  714MPD2    C510610   4.513   3.341   1.937 -0.3108  0.2552  0.0453
  714MPD2     H10611   4.563   3.277   1.567  0.0341 -2.1985 -0.3586
  714MPD2    H110612   4.353   3.470   1.873 -0.0393  0.5965 -1.5980
  714MPD2    H210613   4.672   3.214   1.973 -0.1758  2.6276  3.1203
  714MPD2    H310614   4.488   3.367   2.040  0.1233  2.9149 -0.5122
  714MPD2     N10615   4.370   3.423   1.599  0.6677 -0.1241  0.4494
  714MPD2    H510616   4.396   3.394   1.505 -2.0809 -1.4882  0.1103
  714MPD2    N110617   4.723   3.124   1.750 -0.3112  1.0588 -0.0789
  714MPD2    H710618   0.035   3.086   1.830  1.9570 -0.0852 -2.0619
  715TMC3    C110619   0.121   2.971   1.645 -0.4471  0.0960 -0.6881
  715TMC3    C210620   0.134   2.879   1.545  0.1436  0.4754 -0.2641
  715TMC3    C310621   0.235   2.781   1.558 -0.4736  0.0322 -0.7931
  715TMC3    C410622   0.215   2.979   1.747  0.3325 -0.5893 -0.0551
  715TMC3    C510623   0.303   2.875   1.759 -0.2319  0.1157  1.2057
  715TMC3    C610624   0.323   2.780   1.664 -0.1162  0.2435  0.2819
  715TMC3     C10625   0.021   3.076   1.630 -0.5930  0.5210  0.0518
  715TMC3     O10626   4.704   3.088   1.521  0.5933  1.1261 -0.1982
  715TMC3     H10627   0.068   2.883   1.459 -1.2305 -1.0603  0.7115
  715TMC3    H110628   0.219   3.059   1.820 -2.3793 -1.0566  0.6046
  715TMC3    H210629   0.407   2.711   1.670 -0.1092  0.2293  0.0127
  715TMC3    C710630   0.399   2.873   1.868  0.1273  0.8255  0.5766
  715TMC3    C810631   0.270   2.730   1.428 -0.5291  0.1622 -0.3019
  715TMC3    O110632   0.499   2.802   1.859 -0.1142  0.3027  0.3216
  715TMC3    O210633   0.187   2.732   1.341  0.8790 -0.6650 -0.4078
  716MPD2     C10634   3.929   1.864   9.616 -0.1609  0.6027  0.4085
  716MPD2    C110635   3.823   1.773   9.623  0.1691 -0.8939 -0.2743
  716MPD2    C210636   3.841   1.644   9.575 -0.4428  0.1374 -0.0882
  716MPD2    C310637   3.966   1.597   9.546  0.6770 -0.5185 -0.1215
  716MPD2    C410638   4.072   1.688   9.564 -0.1923  0.3943 -0.3467
  716MPD2    C510639   4.053   1.817   9.588 -0.3279 -0.1454  0.0531
  716MPD2     H10640   3.756   1.576   9.570 -1.0249  0.8608 -0.1655
  716MPD2    H110641   4.176   1.661   9.549 -0.2239  0.7579 -1.2346
  716MPD2    H210642   3.904   1.966   9.646 -2.5119 -0.0444  0.6487
  716MPD2    H310643   4.128   1.895   9.588  0.1090 -0.5763 -1.1305
  716MPD2     N10644   3.982   1.462   9.509  0.3291  0.0257  0.3328
  716MPD2    H510645   3.906   1.396   9.498  0.6479 -1.0894  4.5508
  716MPD2    N110646   3.696   1.830   9.655 -0.0205 -0.8026  0.2029
  716MPD2    H710647   3.689   1.924   9.691 -1.8630 -0.2025 -1.6583
  717TMC3    C110648   4.079   1.263   9.432  0.2228 -0.7402  0.0431
  717TMC3    C210649   3.975   1.248   9.347  0.5492 -0.2849 -0.4831
  717TMC3    C310650   3.970   1.126   9.275 -0.1256  0.0527 -0.7596
  717TMC3    C410651   4.186   1.178   9.439 -0.3038  0.0156 -0.4692
  717TMC3    C510652   4.177   1.065   9.364 -0.0755 -0.1837  0.1840
  717TMC3    C610653   4.074   1.034   9.277 -0.1770 -0.3098  0.6217
  717TMC3     C10654   4.100   1.397   9.497 -1.1814 -0.1858  0.4786
  717TMC3     O10655   4.215   1.434   9.518  1.0256 -1.1000  0.2281
  717TMC3     H10656   3.899   1.325   9.349  0.1232 -0.7522  1.8247
  717TMC3    H110657   4.277   1.207   9.490  0.9179 -0.6441 -2.2810
  717TMC3    H210658   4.059   0.929   9.253 -1.4068 -0.1868  0.8767
  717TMC3    C710659   4.287   0.970   9.361  0.6662 -0.0242 -0.6329
  717TMC3    C810660   3.850   1.092   9.210 -0.1023  0.3363  0.0232
  717TMC3    O110661   4.272   0.882   9.280  0.4852 -0.2872  0.1450
  717TMC3    O210662   3.753   1.162   9.231 -0.1644  0.1257  0.2234
  718MPD2     C10663   3.319   0.686  13.445  0.0887 -0.0924 -0.6497
  718MPD2    C110664   3.326   0.594  13.339 -0.2762 -0.3109  0.5613
  718MPD2    C210665   3.345   0.458  13.356 -0.2988 -0.5587 -0.4942
  718MPD2    C310666   3.342   0.421  13.492 -0.2196  0.3004  0.1108
  718MPD2    C410667   3.328   0.512  13.599 -0.6884  0.1019 -0.5241
  718MPD2    C510668   3.317   0.645  13.573  0.3096 -0.3684  0.6149
  718MPD2     H10669   3.359   0.388  13.274 -1.7161 -4.3210  2.4790
  718MPD2    H110670   3.328   0.483  13.704  1.4131  0.1762 -0.4974
  718MPD2    H210671   3.329   0.791  13.418  4.1152 -0.3201 -0.1091
  718MPD2    H310672   3.316   0.720  13.651 -1.3004  1.0322 -0.7376
  718MPD2     N10673   3.359   0.283  13.517  0.0510  0.3345  0.5083
  718MPD2    H510674   3.395   0.223  13.443 -1.7991  2.4643 -2.0861
  718MPD2    N110675   3.327   0.648  13.208 -0.8506  0.4988  0.2632
  718MPD2    H710676   3.351   0.745  13.190 -1.8367  0.4663 -1.1890
  719TMC3    C110677   3.327   0.619  12.966 -0.0891 -1.0428  0.4130
  719TMC3    C210678   3.293   0.524  12.870  0.5458 -1.1944  0.5866
  719TMC3    C310679   3.378   0.488  12.770  0.0910 -0.2437 -0.1128
  719TMC3    C410680   3.437   0.696  12.953 -0.3223  0.2471 -0.4684
  719TMC3    C510681   3.513   0.659  12.850 -0.4860 -0.0245 -0.9742
  719TMC3    C610682   3.497   0.555  12.769 -0.4087  1.0642 -0.2509
  719TMC3     C10683   3.286   0.573  13.100 -0.2649 -0.8441 -0.3246
  719TMC3     O10684   3.214   0.472  13.096  0.1824  0.1768  0.3446
  719TMC3     H10685   3.202   0.467  12.878  0.9656 -1.8263  0.8577
  719TMC3    H110686   3.466   0.767  13.029 -0.6167  0.4032 -0.5002
  719TMC3    H210687   3.567   0.528  12.691 -1.5612 -1.5183 -0.4078
  719TMC3    C710688   3.609   0.755  12.793  0.2086 -0.5384 -0.2773
  719TMC3    C810689   3.402   0.345  12.764 -0.2651  0.3815 -1.0895
  719TMC3    O110690   3.690   0.717  12.711  0.3699 -0.0254 -0.0806
  719TMC3    O210691   3.466   0.304  12.669  0.0219  0.5288 -0.4556
  720MPD2     C10692   1.968   1.665  14.315  0.2551  0.4139  0.6011
  720MPD2    C110693   1.960   1.784  14.237 -0.1710 -0.2816  0.5845
  720MPD2    C210694   2.056   1.875  14.256  0.4395  0.1124  0.0106
  720MPD2    C310695   2.166   1.853  14.346  0.2343  0.0097 -0.1164
  720MPD2    C410696   2.180   1.726  14.409  0.1506 -0.1517 -0.3165
  720MPD2    C510697   2.074   1.639  14.397 -0.0703  0.1056 -0.0105
  720MPD2     H10698   2.060   1.970  14.203  1.8067  0.0758  0.0580
  720MPD2    H110699   2.264   1.702  14.473  1.4065  2.9585 -0.8031
  720MPD2    H210700   1.889   1.590  14.313  0.8592 -0.2263  0.8752
  720MPD2    H310701   2.079   1.542  14.444 -2.3661 -0.2869 -0.5321
  720MPD2     N10702   2.274   1.938  14.350  0.3974 -0.3517 -0.1796
  720MPD2    H510703   2.285   2.019  14.290 -0.1094 -0.2482 -0.1368
  720MPD2    N110704   1.857   1.800  14.145  0.2144  0.5118 -0.1169
  720MPD2    H710705   1.847   1.893  14.107 -3.4177 -0.0218 -0.4695
  721TMC3    C110706   2.449   2.066  14.425  0.3626  0.6394 -0.1472
  721TMC3    C210707   2.441   2.157  14.530  0.3155  0.7859 -0.7856
  721TMC3    C310708   2.562   2.195  14.577  0.8305 -0.3134 -0.5908
  721TMC3    C410709   2.566   2.030  14.368 -0.2604 -0.9720  0.4977
  721TMC3    C510710   2.682   2.095  14.399 -0.2203 -0.6507 -0.3093
  721TMC3    C610711   2.677   2.180  14.501 -0.6164  0.4300 -0.4879
  721TMC3     C10712   2.368   1.949  14.448  0.4176  0.1172 -1.1558
  721TMC3     O10713   2.375   1.894  14.558  1.0409  0.1019  0.1674
  721TMC3     H10714   2.350   2.176  14.587 -0.8900  0.5778 -2.6181
  721TMC3    H110715   2.568   1.955  14.289  0.2980  1.5483 -1.8832
  721TMC3    H210716   2.771   2.223  14.534 -0.4634  0.3440 -0.8132
  721TMC3    C710717   2.818   2.047  14.360  0.9352 -0.4536 -1.0418
  721TMC3    C810718   2.557   2.302  14.670 -0.6386  0.2520 -0.0130
  721TMC3    O110719   2.852   2.037  14.245  0.5301  0.6570  0.4059
  721TMC3    O210720   2.637   2.391  14.657 -0.1850  0.5376 -0.5614
  722MPD2     C10721   0.658   0.551  13.124 -0.3371 -0.5895 -0.2106
  722MPD2    C110722   0.596   0.642  13.200 -0.3015  0.1119  0.1669
  722MPD2    C210723   0.461   0.651  13.199 -0.1088 -0.0867 -0.0491
  722MPD2    C310724   0.377   0.568  13.130 -0.0907  0.0675 -0.6873
  722MPD2    C410725   0.443   0.468  13.053  0.3354  0.2478 -0.2498
  722MPD2    C510726   0.579   0.462  13.052 -0.3940  0.3221  0.2747
  722MPD2     H10727   0.408   0.720  13.264  0.7132  0.7432 -0.2789
  722MPD2    H110728   0.387   0.397  12.993 -0.2583  1.1717 -0.7829
  722MPD2    H210729   0.765   0.534  13.123 -0.0923  0.7167  1.9344
  722MPD2    H310730   0.618   0.385  12.986  0.7215 -1.0526  2.5348
  722MPD2     N10731   0.236   0.570  13.146 -0.6640  0.4684 -0.0814
  722MPD2    H510732   0.202   0.631  13.220 -2.4612  0.2992 -0.7776
  722MPD2    N110733   0.670   0.732  13.276 -0.3458 -0.0359  0.0028
  722MPD2    H710734   0.637   0.820  13.313 -3.4931 -0.1753 -2.4008
  723TMC3    C110735   0.023   0.465  13.156  0.5373 -0.4820  0.2155
  723TMC3    C210736   4.646   0.451  13.090  0.1858 -0.1365  0.4777
  723TMC3    C310737   4.530   0.447  13.163 -0.1914  1.2203  0.5768
  723TMC3    C410738   0.029   0.475  13.295 -0.4379 -0.2609 -0.4157
  723TMC3    C510739   4.646   0.479  13.363 -0.6781  0.0322 -0.1088
  723TMC3    C610740   4.520   0.467  13.296  0.5129 -0.4846 -0.0866
  723TMC3     C10741   0.146   0.488  13.080  0.6528  0.2920 -0.5486
  723TMC3     O10742   0.151   0.457  12.964 -0.1831 -0.1416  0.1246
  723TMC3     H10743   4.659   0.426  12.985 -1.5279  2.2867 -0.3183
  723TMC3    H110744   0.127   0.483  13.340 -0.5870 -1.1523  0.0657
  723TMC3    H210745   4.423   0.479  13.342  1.3554  0.1937  1.5398
  723TMC3    C710746   4.649   0.498  13.507 -0.6000 -0.2361 -0.5386
  723TMC3    C810747   4.421   0.366  13.110  0.5887 -0.2081  0.4993
  723TMC3    O110748   4.566   0.559  13.572 -0.1503 -0.0231  0.9644
  723TMC3    O210749   4.315   0.389  13.158  0.2571 -0.3222  0.4799
  724TMC3    C110750   1.094   3.020  10.258 -0.0669 -0.2043 -0.3791
  724TMC3    C210751   1.138   3.030  10.130  0.5111 -0.2679  0.1859
  724TMC3    C310752   1.256   3.092  10.114  0.0142  0.4902 -0.6519
  724TMC3    C410753   1.164   3.060  10.367  0.7150 -0.1808  0.5154
  724TMC3    C510754   1.290   3.116  10.340  1.0326  0.1286  0.3553
  724TMC3    C610755   1.341   3.129  10.214  0.5407  0.1498 -0.0107
  724TMC3     C10756   0.955   3.000  10.273  0.3910  0.4284  0.2129
  724TMC3     O10757   0.913   3.035  10.379 -0.2634  0.4006 -0.1314
  724TMC3     H10758   1.074   3.044  10.044 -0.0638  1.9149  0.9614
  724TMC3    H110759   1.118   3.056  10.465  1.6715  1.4215  1.0472
  724TMC3    H210760   1.435   3.181  10.197  1.8698 -1.3050  2.9816
  724TMC3    C710761   1.339   3.223  10.421  0.0844  1.0805 -0.1627
  724TMC3    C810762   1.290   3.131   9.978  0.8040  0.2780 -0.3777
  724TMC3    O110763   1.454   3.271  10.410 -0.0689  0.2836 -0.6596
  724TMC3    O210764   1.252   3.073   9.879  0.5423  0.4731 -0.0857
  725TMC3    C110765   2.631   2.056  12.984 -0.2395 -0.9125 -0.0105
  725TMC3    C210766   2.527   2.088  12.902  0.5351  0.0506 -0.1452
  725TMC3    C310767   2.447   1.987  12.840  0.5632  0.6866 -0.0884
  725TMC3    C410768   2.659   1.927  13.020  0.0506  0.2565  0.0753
  725TMC3    C510769   2.578   1.833  12.965  0.7970  0.9753 -0.0081
  725TMC3    C610770   2.471   1.860  12.880  0.0959 -0.4216 -0.0615
  725TMC3     C10771   2.702   2.166  13.056 -0.1175  0.1083 -0.8183
  725TMC3     O10772   2.660   2.279  13.052  0.2604  0.7543 -0.2947
  725TMC3     H10773   2.507   2.194  12.895  0.2681  0.0184  0.1433
  725TMC3    H110774   2.740   1.897  13.085  0.2168  0.9270  0.1802
  725TMC3    H210775   2.424   1.780  12.823 -1.8966  0.6868  0.0264
  725TMC3    C710776   2.651   1.720  12.926 -0.3923 -0.2733 -0.2762
  725TMC3    C810777   2.313   2.020  12.796  0.1434 -0.1111  0.1073
  725TMC3    O110778   2.775   1.742  12.918  0.2737 -0.1706 -0.6529
  725TMC3    O210779   2.232   1.944  12.840 -0.1424  0.1406  0.4546
  726MPD2     C10780   0.112   3.025  10.714 -0.3134 -0.1115  0.4860
  726MPD2    C110781   0.158   3.150  10.746  0.8151  0.3706  0.6495
  726MPD2    C210782   0.123   3.205  10.870  0.5452 -0.4796  0.3798
  726MPD2    C310783   0.029   3.138  10.954 -0.1763 -0.8037  0.0655
  726MPD2    C410784   4.724   3.009  10.920  0.4421  0.0718  0.2951
  726MPD2    C510785   0.029   2.953  10.800  0.0793  0.2313  0.0757
  726MPD2     H10786   0.166   3.304  10.883  0.1489 -0.1500 -0.8678
  726MPD2    H110787   4.652   2.952  10.978 -1.3419  1.4985 -0.5153
  726MPD2    H210788   0.145   2.966  10.629 -0.0499 -0.6260  0.9437
  726MPD2    H310789   0.003   2.851  10.778  2.7991 -0.5867  0.6561
  726MPD2     N10790   4.717   3.207  11.066  0.7273 -0.6552 -0.4122
  726MPD2    H510791   4.642   3.156  11.112 -1.4501  1.9002 -1.0762
  726MPD2    N110792   0.240   3.223  10.654  0.5969  0.0735 -0.2315
  726MPD2    H710793   0.286   3.306  10.690  4.1098 -1.2487 -1.5878
  727TMC3    C110794   0.392   3.259  10.470 -0.1571 -0.3364  0.1963
  727TMC3    C210795   0.429   3.373  10.532  0.0766  0.2024 -0.1963
  727TMC3    C310796   0.512   3.457  10.459  0.2192  0.1556 -0.1013
  727TMC3    C410797   0.436   3.221  10.343  0.6059  0.1371  0.0945
  727TMC3    C510798   0.531   3.301  10.284 -0.1339 -0.2822  0.7682
  727TMC3    C610799   0.565   3.428  10.339  0.0590 -0.1851 -0.2041
  727TMC3     C10800   0.287   3.175  10.532  0.2516 -0.0348  0.5054
  727TMC3     O10801   0.228   3.101  10.456  0.6328 -0.4145 -0.3338
  727TMC3     H10802   0.373   3.423  10.610  0.5436 -0.7016  0.7048
  727TMC3    H110803   0.408   3.130  10.292 -0.0356  0.8752 -0.8806
  727TMC3    H210804   0.629   3.498  10.287  1.5211 -0.0825  1.7515
  727TMC3    C710805   0.572   3.275  10.156  0.0778 -1.1008  0.2031
  727TMC3    C810806   0.496   3.606  10.466 -0.4503 -1.0335  0.3137
  727TMC3    O110807   0.493   3.213  10.087  0.2683  0.4072  0.8768
  727TMC3    O210808   0.603   3.664  10.442  0.0151  0.1291  0.0810
  728TMC3    C110809   0.003   2.428  15.312 -0.3713  0.0881 -0.2484
  728TMC3    C210810   0.126   2.480  15.329 -0.6649 -0.2257 -0.2358
  728TMC3    C310811   0.178   2.543  15.218 -0.7623 -0.4125  0.1274
  728TMC3    C410812   4.684   2.421  15.188  0.6518  0.2017 -0.0116
  728TMC3    C510813   0.002   2.480  15.080 -0.0982  0.1866 -0.2705
  728TMC3    C610814   0.119   2.551  15.094  0.2275 -0.4703 -0.1862
  728TMC3     C10815   4.669   2.414  15.434 -1.1622  0.8746  0.4363
  728TMC3     O10816   0.000   2.430  15.532 -0.4185 -1.1228  0.3269
  728TMC3     H10817   0.172   2.491  15.426  0.7319 -0.8051 -0.8263
  728TMC3    H110818   4.601   2.352  15.184  0.5681  0.2032  1.7628
  728TMC3    H210819   0.176   2.602  15.018 -1.3563  0.7252 -0.5825
  728TMC3    C710820   4.670   2.472  14.953 -0.5539 -0.3847 -0.0191
  728TMC3    C810821   0.279   2.642  15.251 -0.3824  0.1851  0.9307
  728TMC3    O110822   4.589   2.380  14.941 -0.1578  0.3537  0.5201
  728TMC3    O210823   0.275   2.751  15.195  0.5546  0.1153  0.0097
  729MPD2     C10824   1.980   4.071  16.359  0.4939  0.3159 -0.6709
  729MPD2    C110825   2.045   3.948  16.353 -0.8494  0.4855  0.5308
  729MPD2    C210826   2.032   3.866  16.459 -0.4338 -0.5090 -0.8338
  729MPD2    C310827   1.957   3.905  16.566 -0.5857  0.2008  0.1375
  729MPD2    C410828   1.892   4.023  16.567 -0.3216 -0.2277 -0.4272
  729MPD2    C510829   1.893   4.097  16.454  0.3153  0.1856 -0.0270
  729MPD2     H10830   2.073   3.765  16.456  1.3929  0.2691 -1.7195
  729MPD2    H110831   1.837   4.057  16.654 -0.2876 -0.1257 -0.4451
  729MPD2    H210832   1.964   4.130  16.269 -0.6324  4.1987  2.0589
  729MPD2    H310833   1.838   4.190  16.446 -0.0117 -0.1505 -1.7678
  729MPD2     N10834   1.966   3.841  16.691  0.1687  0.0527 -0.1980
  729MPD2    H510835   1.922   3.884  16.772  0.2618 -0.7571  0.2758
  729MPD2    N110836   2.119   3.927  16.237  0.2577 -0.2942  0.0407
  729MPD2    H710837   2.122   3.998  16.165  1.7032  1.3757  1.7467
  730TMC3    C110838   2.011   3.686  16.858 -0.4388  0.3685 -0.6675
  730TMC3    C210839   2.135   3.666  16.896  0.1202 -0.5172 -0.0069
  730TMC3    C310840   2.197   3.754  16.978 -0.3853 -0.2786 -0.3374
  730TMC3    C410841   1.941   3.788  16.925  0.2635 -0.1758 -0.8397
  730TMC3    C510842   2.005   3.868  17.022  0.0158  0.3761  0.6841
  730TMC3    C610843   2.137   3.860  17.032  0.6296  0.0799 -0.7913
  730TMC3     C10844   2.004   3.709  16.719 -0.8311 -0.0132 -0.0056
  730TMC3     O10845   2.055   3.631  16.637  0.8548  0.4391  0.4624
  730TMC3     H10846   2.177   3.571  16.863  2.6329  0.9795 -1.1367
  730TMC3    H110847   1.836   3.801  16.900 -0.2176 -0.2772  1.1921
  730TMC3    H210848   2.199   3.939  17.073 -0.3035  0.9988 -1.1793
  730TMC3    C710849   1.963   4.007  17.012  0.0448 -0.3384  0.6976
  730TMC3    C810850   2.342   3.758  16.966  0.0982 -0.1857 -0.0555
  730TMC3    O110851   1.919   4.043  16.906  0.0915 -0.0699  0.4699
  730TMC3    O210852   2.394   3.701  16.870  0.0618  0.1188  0.0848
  731MPD2     C10853   2.309   1.375  12.316 -0.0589 -0.5918 -0.6108
  731MPD2    C110854   2.258   1.504  12.319  0.2841 -0.4112  0.3366
  731MPD2    C210855   2.186   1.544  12.433  0.5288 -0.8721 -0.4738
  731MPD2    C310856   2.167   1.461  12.544 -0.2842 -0.1866  0.2324
  731MPD2    C410857   2.208   1.328  12.536  1.2166  0.2246 -0.5711
  731MPD2    C510858   2.288   1.291  12.420 -0.7712 -0.5037 -0.0233
  731MPD2     H10859   2.142   1.643  12.442 -1.1618 -1.4346 -2.6465
  731MPD2    H110860   2.221   1.265  12.623  0.2313  0.4391 -0.2677
  731MPD2    H210861   2.368   1.344  12.230 -1.1567 -0.0578 -1.5604
  731MPD2    H310862   2.343   1.198  12.410 -0.7605 -0.5547  0.5229
  731MPD2     N10863   2.118   1.521  12.660 -0.0998  0.7270 -0.0891
  731MPD2    H510864   2.107   1.621  12.654  1.8499  0.9408  0.1023
  731MPD2    N110865   2.278   1.583  12.206  0.6668 -0.2078 -0.7815
  731MPD2    H710866   2.328   1.545  12.126  2.2911  1.7664 -0.7057
  732TMC3    C110867   2.271   1.767  12.060 -0.1918 -0.1896  0.1326
  732TMC3    C210868   2.192   1.691  11.978  0.4255  0.7002  0.2112
  732TMC3    C310869   2.209   1.710  11.843 -0.0099 -0.5147 -0.6736
  732TMC3    C410870   2.383   1.833  12.005  0.4925  0.3952 -0.0681
  732TMC3    C510871   2.401   1.837  11.870 -0.1821 -0.4948  0.1083
  732TMC3    C610872   2.315   1.775  11.783  0.1200  0.2518 -0.5936
  732TMC3     C10873   2.268   1.720  12.199 -0.4081  0.0873 -0.5369
  732TMC3     O10874   2.232   1.808  12.279  0.2746 -0.2370 -0.8905
  732TMC3     H10875   2.106   1.639  12.019  1.7671 -1.2741  0.5240
  732TMC3    H110876   2.435   1.895  12.076  3.0631 -0.1599 -1.4544
  732TMC3    H210877   2.327   1.772  11.676 -0.8710 -2.6154 -0.6221
  732TMC3    C710878   2.528   1.860  11.812 -0.2312 -0.2235  0.2028
  732TMC3    C810879   2.125   1.623  11.757  0.5563  0.0846  0.1156
  732TMC3    O110880   2.539   1.888  11.694 -0.0216 -0.2671  0.0179
  732TMC3    O210881   2.163   1.597  11.644  0.2639  0.7621 -0.0735
  733TMC3    C110882   3.252   4.597  13.661 -0.3164  0.3764 -0.6952
  733TMC3    C210883   3.287   4.724  13.707  0.1666 -0.4804  0.3713
  733TMC3    C310884   3.356   0.073  13.622 -0.3550  0.7611  0.0456
  733TMC3    C410885   3.320   4.554  13.545 -0.1361 -0.0050  0.1164
  733TMC3    C510886   3.390   4.637  13.466  0.4128  0.0027 -0.6168
  733TMC3    C610887   3.422   0.026  13.508  0.1788 -0.8574 -0.0413
  733TMC3     C10888   3.106   4.584  13.653  0.2070 -0.0117  0.1345
  733TMC3     O10889   3.038   4.669  13.706  0.5784 -0.2078  0.0356
  733TMC3     H10890   3.235   0.029  13.791 -1.4315 -1.5209 -0.0648
  733TMC3    H110891   3.299   4.457  13.502  2.3069 -0.8064  0.6882
  733TMC3    H210892   3.487   0.079  13.440 -0.4426  0.1088  0.1132
  733TMC3    C710893   3.382   4.609  13.322  0.0678 -0.7118 -0.3456
  733TMC3    C810894   3.319   0.215  13.633 -0.2385 -0.7267 -0.1084
  733TMC3    O110895   3.395   4.497  13.286  0.1227  0.1517  0.2828
  733TMC3    O210896   3.236   0.248  13.723  0.4234 -0.3796 -0.2392
  734MPD2     C10897   0.284   2.827  12.101  0.8037  0.0105 -0.0163
  734MPD2    C110898   0.178   2.773  12.034 -0.1174  0.0877  0.1626
  734MPD2    C210899   0.179   2.784  11.893 -0.5191 -0.2712 -0.0477
  734MPD2    C310900   0.284   2.833  11.824 -0.2464  0.1945  0.6174
  734MPD2    C410901   0.390   2.883  11.897  0.2881 -1.0543 -0.1195
  734MPD2    C510902   0.387   2.882  12.035 -0.2022 -0.3494  0.1656
  734MPD2     H10903   0.090   2.753  11.839  0.1208 -0.5810 -0.9123
  734MPD2    H110904   0.478   2.929  11.856 -0.0185  0.4266  0.8949
  734MPD2    H210905   0.274   2.823  12.209  0.4933 -1.5454 -0.0967
  734MPD2    H310906   0.462   2.928  12.099  1.9675 -1.0370 -1.8758
  734MPD2     N10907   0.269   2.842  11.681 -0.0004  0.3856 -0.2510
  734MPD2    H510908   0.178   2.814  11.645 -0.2468  0.1748  0.5346
  734MPD2    N110909   0.080   2.714  12.113 -0.0156  0.0062  0.3697
  734MPD2    H710910   0.099   2.704  12.213 -0.5050  0.0715  0.4721
  735TMC3    C110911   4.661   2.543  12.150  0.0559  0.2087 -0.4737
  735TMC3    C210912   4.550   2.486  12.097 -0.6621 -0.6760  0.0668
  735TMC3    C310913   4.516   2.359  12.110 -0.3542 -1.1673  0.4499
  735TMC3    C410914   0.008   2.460  12.224 -0.6094 -1.0873  0.9092
  735TMC3    C510915   4.698   2.335  12.255 -0.0071 -0.2211 -0.3678
  735TMC3    C610916   4.584   2.285  12.191  0.1290 -0.2837  0.9653
  735TMC3     C10917   4.714   2.648  12.064  0.3155 -0.0086 -0.3321
  735TMC3     O10918   4.670   2.642  11.950 -0.3409 -0.1498 -0.6709
  735TMC3     H10919   4.478   2.548  12.043  1.2233  2.1617  0.8027
  735TMC3    H110920   0.082   2.506  12.289 -1.6096 -0.0870  1.3441
  735TMC3    H210921   4.569   2.179  12.210 -0.5538 -0.1685  1.0490
  735TMC3    C710922   0.041   2.219  12.292  0.0185  0.7400 -0.9645
  735TMC3    C810923   4.505   2.291  11.981  0.0988 -0.2235  0.6621
  735TMC3    O110924   4.739   2.133  12.372  0.1531  0.3722 -0.0525
  735TMC3    O210925   4.458   2.176  11.970 -0.4642 -0.2985 -0.2054
  736MPD2     C10926   0.271   2.026  12.328  0.3213 -0.5125 -0.1820
  736MPD2    C110927   0.263   2.122  12.228 -0.4184 -0.5771 -0.5274
  736MPD2    C210928   0.365   2.129  12.134  0.2533 -0.0522 -0.5374
  736MPD2    C310929   0.473   2.047  12.142 -0.2466  0.2553 -0.2678
  736MPD2    C410930   0.485   1.959  12.244  0.1266  0.3564 -0.5609
  736MPD2    C510931   0.377   1.934  12.327  0.0104  0.4734 -0.1203
  736MPD2     H10932   0.370   2.207  12.059  0.3799  1.3039  0.8894
  736MPD2    H110933   0.558   1.879  12.244 -0.8788 -0.5622  0.1443
  736MPD2    H210934   0.198   2.009  12.406  1.3518  0.2342  0.9474
  736MPD2    H310935   0.381   1.871  12.415 -0.0482 -1.8956 -1.8149
  736MPD2     N10936   0.573   2.034  12.041 -0.2589  0.3360 -0.0418
  736MPD2    H510937   0.656   1.982  12.066 -0.7954 -0.3150  0.3937
  736MPD2    N110938   0.159   2.219  12.223  0.0903 -0.1087  0.5048
  736MPD2    H710939   0.173   2.297  12.160 -2.5860 -0.0987 -0.0587
  737TMC3    C110940   0.680   2.056  11.835  0.6498  0.0509  0.2539
  737TMC3    C210941   0.739   2.153  11.764 -0.0514  0.0963  0.4530
  737TMC3    C310942   0.842   2.127  11.681 -1.3081  0.0726  0.0560
  737TMC3    C410943   0.731   1.929  11.833 -0.0957 -0.4131 -0.0701
  737TMC3    C510944   0.847   1.908  11.763 -0.2992 -0.3886 -0.3316
  737TMC3    C610945   0.911   2.007  11.691 -0.3273 -0.0940 -0.4445
  737TMC3     C10946   0.568   2.097  11.917  0.4629  0.1804  0.6059
  737TMC3     O10947   0.495   2.186  11.873  0.6767  0.4738  0.0576
  737TMC3     H10948   0.697   2.252  11.772  0.8655  0.5429 -0.2450
  737TMC3    H110949   0.683   1.856  11.897  1.7446 -2.2959 -0.8275
  737TMC3    H210950   1.007   2.005  11.640  0.6452  1.2436  1.3346
  737TMC3    C710951   0.911   1.778  11.781 -0.1425 -0.5340 -0.2992
  737TMC3    C810952   0.887   2.248  11.622  0.5374 -0.1372 -0.0543
  737TMC3    O110953   0.870   1.704  11.868  0.0621 -0.0692 -0.2144
  737TMC3    O210954   0.862   2.353  11.682 -0.4595 -0.7784 -0.7425
  738MPD2     C10955   1.542   0.670  15.251 -0.1090 -0.3460 -0.5447
  738MPD2    C110956   1.445   0.697  15.161 -0.3132  0.9052 -0.3491
  738MPD2    C210957   1.471   0.791  15.067  0.9496 -0.0101 -0.3931
  738MPD2    C310958   1.598   0.838  15.047  0.2397  0.0125 -0.4584
  738MPD2    C410959   1.700   0.795  15.129 -0.4256 -0.0713  0.2898
  738MPD2    C510960   1.673   0.709  15.229 -0.5314 -0.6015 -0.3274
  738MPD2     H10961   1.388   0.835  15.014  1.6458  1.3839 -0.3175
  738MPD2    H110962   1.801   0.831  15.115  0.4654 -2.2468  1.1742
  738MPD2    H210963   1.535   0.599  15.333  0.9075 -0.3289 -0.4385
  738MPD2    H310964   1.757   0.673  15.287  1.4079  3.0235 -0.9237
  738MPD2     N10965   1.644   0.922  14.945 -0.0651 -0.8647  0.3514
  738MPD2    H510966   1.744   0.938  14.949  0.1350 -1.8793 -0.6645
  738MPD2    N110967   1.317   0.632  15.168  0.0426  0.2109 -0.4304
  738MPD2    H710968   1.242   0.661  15.106  0.4901  2.3075  0.0216
  739TMC3    C110969   1.631   1.068  14.768  0.3932  0.6959  0.6921
  739TMC3    C210970   1.576   1.096  14.644 -0.5908 -0.1144 -0.0666
  739TMC3    C310971   1.636   1.191  14.570 -0.0654  0.0665 -0.1864
  739TMC3    C410972   1.737   1.137  14.812 -0.3078  0.1099 -0.3524
  739TMC3    C510973   1.782   1.234  14.728 -0.0174  0.6341  0.0215
  739TMC3    C610974   1.733   1.273  14.612  0.2968 -0.5702 -0.5874
  739TMC3     C10975   1.556   0.978  14.856 -0.1321 -0.1414 -0.1940
  739TMC3     O10976   1.440   0.963  14.827  0.3039  0.4712 -0.5010
  739TMC3     H10977   1.504   1.030  14.597 -2.4690  1.8800  0.0238
  739TMC3    H110978   1.787   1.115  14.906 -0.1629  0.6913 -0.2910
  739TMC3    H210979   1.780   1.341  14.543  1.7795 -0.8775  0.1277
  739TMC3    C710980   1.918   1.275  14.770 -0.0440  0.4691 -0.0572
  739TMC3    C810981   1.549   1.242  14.468  0.3812 -0.0036 -0.2867
  739TMC3    O110982   1.970   1.225  14.866 -0.6028 -0.5237 -0.5156
  739TMC3    O210983   1.451   1.170  14.444  0.4180  0.1932  0.1820
  740TMC3    C110984   1.814   2.303  14.882  0.3088 -0.3123 -0.5867
  740TMC3    C210985   1.870   2.275  15.002 -0.1106  0.2835  0.0643
  740TMC3    C310986   1.989   2.206  14.994 -0.1653  0.2137  0.0163
  740TMC3    C410987   1.865   2.287  14.761  0.2294  0.0341 -0.3138
  740TMC3    C510988   1.984   2.218  14.757 -0.2832  0.6972  0.1146
  740TMC3    C610989   2.047   2.178  14.872  0.2193 -0.1616 -0.3882
  740TMC3     C10990   1.694   2.384  14.885  0.4327  0.3215  0.3445
  740TMC3     O10991   1.684   2.464  14.794 -0.0210 -0.3510 -0.4383
  740TMC3     H10992   1.817   2.293  15.095 -1.7605 -1.6842 -0.5030
  740TMC3    H110993   1.834   2.346  14.675  0.8696 -1.2606 -1.4393
  740TMC3    H210994   2.137   2.119  14.858 -0.3909 -0.9749 -0.8622
  740TMC3    C710995   2.070   2.258  14.651 -0.3362  1.0086  0.1231
  740TMC3    C810996   2.036   2.135  15.102  0.1265 -1.1320  1.2283
  740TMC3    O110997   2.165   2.331  14.686  0.2469  0.5461  0.5530
  740TMC3    O210998   2.090   2.028  15.069 -0.5296  0.5635 -0.5513
  741TMC3    C110999   1.339   1.645  14.639 -0.7869 -0.4758  0.1002
  741TMC3    C211000   1.244   1.555  14.588 -0.6128 -0.7032  0.4104
  741TMC3    C311001   1.253   1.423  14.626 -0.2639 -0.0443 -0.1959
  741TMC3    C411002   1.445   1.616  14.716  0.3013  0.4205 -0.1071
  741TMC3    C511003   1.453   1.482  14.747 -0.3607 -0.1377 -0.4204
  741TMC3    C611004   1.354   1.386  14.717  0.0899 -0.0513 -0.3735
  741TMC3     C11005   1.338   1.783  14.602 -0.9682  0.3355 -0.0256
  741TMC3     O11006   1.450   1.827  14.581  0.4363 -0.4065 -0.6748
  741TMC3     H11007   1.162   1.584  14.523  0.9320 -0.5219 -1.4616
  741TMC3    H111008   1.523   1.682  14.752  0.8623 -0.6686  0.6750
  741TMC3    H211009   1.368   1.282  14.742  1.4246  0.0693 -0.5856
  741TMC3    C711010   1.546   1.446  14.860  1.0753  0.2766  0.6086
  741TMC3    C811011   1.149   1.330  14.586 -0.3455 -0.3745  0.4131
  741TMC3    O111012   1.659   1.486  14.853 -0.4353 -0.9431 -0.1485
  741TMC3    O211013   1.040   1.383  14.601 -0.1485 -0.5732  0.1608
  742TMC3    C111014   1.177   0.093  15.244  0.1426  0.2443  0.0776
  742TMC3    C211015   1.098   0.027  15.155 -0.5155 -0.1103  0.1728
  742TMC3    C311016   1.149   0.019  15.022 -0.2021  0.6396  0.8449
  742TMC3    C411017   1.289   0.163  15.217  0.7247 -0.3994 -0.0681
  742TMC3    C511018   1.338   0.148  15.092  0.0119 -0.1914 -0.5950
  742TMC3    C611019   1.278   0.063  14.999  0.2388 -0.1296 -0.0902
  742TMC3     C11020   1.162   0.078  15.390  0.3919 -0.0044  0.2319
  742TMC3     O11021   1.219   0.158  15.463 -0.0801 -0.4708  0.5815
  742TMC3     H11022   1.000   4.725  15.179  0.0441 -0.7905  1.2633
  742TMC3    H111023   1.356   0.193  15.297 -2.4006 -0.7846  2.7144
  742TMC3    H211024   1.317   0.043  14.900 -1.0031 -0.4027 -0.5161
  742TMC3    C711025   1.488   0.167  15.079 -0.4265 -0.3460 -0.3773
  742TMC3    C811026   1.086   4.661  14.928 -0.4134  0.1129  0.1031
  742TMC3    O111027   1.537   0.092  14.996 -0.0251 -0.0003  0.1426
  742TMC3    O211028   1.162   4.602  14.856 -0.0567  0.3296  0.5196
  743MPD2     C11029   4.165   0.195   0.859 -0.3452  0.1900  0.1415
  743MPD2    C111030   4.092   0.308   0.845 -0.0666 -0.2956 -0.0312
  743MPD2    C211031   4.139   0.423   0.907 -0.2692 -0.4449 -0.2351
  743MPD2    C311032   4.261   0.427   0.978  0.2610 -0.1271 -0.4555
  743MPD2    C411033   4.337   0.304   0.990  0.8885 -0.0051 -0.6618
  743MPD2    C511034   4.288   0.203   0.913 -0.2469  0.5491 -0.5006
  743MPD2     H11035   4.079   0.514   0.906 -0.3457 -0.4972 -0.6128
  743MPD2    H111036   4.435   0.302   1.035  0.9519 -1.2047 -0.8563
  743MPD2    H211037   4.133   0.103   0.812  0.9957 -1.1893  1.9281
  743MPD2    H311038   4.358   0.120   0.913 -0.1559  0.6328 -1.4188
  743MPD2     N11039   4.298   0.550   1.035  0.0295  0.8113  0.0241
  743MPD2    H511040   4.249   0.637   1.017 -0.8140  0.7764  2.1393
  743MPD2    N111041   3.972   0.296   0.776  0.1520  0.1983  0.0250
  743MPD2    H711042   3.936   0.202   0.761  0.0076  0.3442 -0.5699
  744TMC3    C111043   3.778   0.362   0.651  0.4747 -0.6636  0.0746
  744TMC3    C211044   3.727   0.244   0.685  0.0085 -0.6545 -0.7776
  744TMC3    C311045   3.611   0.197   0.629 -0.5508 -0.2863 -0.0296
  744TMC3    C411046   3.715   0.442   0.557  0.9923  0.5228  0.3649
  744TMC3    C511047   3.607   0.389   0.493  0.3900  0.4991  0.4572
  744TMC3    C611048   3.551   0.269   0.528 -0.4830  0.2726  0.1890
  744TMC3     C11049   3.905   0.400   0.715  0.2413  0.4316  0.7778
  744TMC3     O11050   3.934   0.516   0.733  0.1134 -0.0420 -0.3866
  744TMC3     H11051   3.761   0.188   0.772  0.7314 -1.2865 -1.4765
  744TMC3    H111052   3.758   0.539   0.537  1.8408  0.4682  1.9581
  744TMC3    H211053   3.466   0.225   0.478 -0.6164  0.1998  0.4832
  744TMC3    C711054   3.548   0.463   0.386  0.1056  0.2793 -0.2614
  744TMC3    C811055   3.549   0.075   0.694 -0.4280 -0.1296  0.3967
  744TMC3    O111056   3.446   0.421   0.334 -0.1102 -0.1215 -0.8445
  744TMC3    O211057   3.602   0.029   0.793  0.6437  0.0157  0.3213
  745TMC3    C111058   1.543   4.528  13.274  0.0493  0.0584 -0.1604
  745TMC3    C211059   1.469   4.519  13.393 -0.7858  0.6334  0.5198
  745TMC3    C311060   1.368   4.612  13.398 -0.4984  0.0156 -0.3074
  745TMC3    C411061   1.531   4.618  13.173  0.1753  0.0229  0.5077
  745TMC3    C511062   1.442   4.717  13.195 -0.7560 -0.1153 -0.4467
  745TMC3    C611063   1.362   4.714  13.307 -0.1122  0.4470  0.2462
  745TMC3     C11064   1.618   4.412  13.229 -0.0604 -0.3376 -0.1465
  745TMC3     O11065   1.573   4.355  13.130 -0.2990 -0.5476 -1.0150
  745TMC3     H11066   1.491   4.456  13.478  0.1808 -0.4607 -0.5366
  745TMC3    H111067   1.582   4.600  13.079  1.8997  0.8236  1.2856
  745TMC3    H211068   1.293   0.057  13.328 -2.8086 -2.2893  2.0853
  745TMC3    C711069   1.472   0.107  13.135  0.6553  0.0275 -0.5048
  745TMC3    C811070   1.316   4.634  13.532 -0.7474  0.9149  0.2336
  745TMC3    O111071   1.389   0.198  13.130  0.0562  0.1755  0.4915
  745TMC3    O211072   1.195   4.653  13.544 -0.4120  0.5530 -0.5399
  746TMC3    C111073   3.655   1.514  11.118  0.2984  0.2503  0.6956
  746TMC3    C211074   3.716   1.520  10.988 -0.8417  0.5718 -0.4807
  746TMC3    C311075   3.653   1.452  10.885  0.1827  0.1136 -0.4208
  746TMC3    C411076   3.536   1.442  11.130 -0.6310  0.1106  0.1628
  746TMC3    C511077   3.479   1.378  11.025 -0.6772  0.0293  0.4142
  746TMC3    C611078   3.533   1.378  10.897 -1.1759  0.6330 -0.3041
  746TMC3     C11079   3.671   1.620  11.220  0.1864  0.6375 -1.0387
  746TMC3     O11080   3.568   1.654  11.271  0.6838  0.2547 -0.3468
  746TMC3     H11081   3.809   1.573  10.971 -1.4544  1.4070 -1.2495
  746TMC3    H111082   3.484   1.445  11.226 -0.0933 -0.8593  0.4901
  746TMC3    H211083   3.477   1.337  10.814  0.0332 -1.2947 -0.1517
  746TMC3    C711084   3.340   1.342  11.029  0.1837  0.1996 -0.0554
  746TMC3    C811085   3.710   1.453  10.754 -0.3382 -0.3572  0.9119
  746TMC3    O111086   3.274   1.336  10.927 -0.1607 -0.1819  0.0702
  746TMC3    O211087   3.713   1.353  10.687 -0.2716 -0.2594 -0.2707
  747TMC3    C111088   1.662   1.380  11.165  0.6254 -0.3618 -0.1930
  747TMC3    C211089   1.548   1.327  11.230 -0.2499 -0.1925  0.0784
  747TMC3    C311090   1.488   1.395  11.331  0.5201  0.2874 -0.0268
  747TMC3    C411091   1.712   1.502  11.201 -0.2930  0.3759 -0.0185
  747TMC3    C511092   1.654   1.566  11.309 -1.2280  0.3405 -0.4538
  747TMC3    C611093   1.542   1.518  11.374 -0.5118  1.4407  0.2168
  747TMC3     C11094   1.682   1.338  11.028  0.3711  0.2396  0.1456
  747TMC3     O11095   1.778   1.396  10.981  0.0865  0.3172  0.5029
  747TMC3     H11096   1.510   1.228  11.206  1.4800 -0.8641  0.1023
  747TMC3    H111097   1.801   1.548  11.158 -0.8125  3.5105  2.2147
  747TMC3    H211098   1.511   1.565  11.467 -2.6347  1.2014 -0.3621
  747TMC3    C711099   1.686   1.704  11.330  0.7452  0.3354  0.6035
  747TMC3    C811100   1.351   1.365  11.368 -0.2768 -0.5172 -0.0331
  747TMC3    O111101   1.645   1.751  11.436 -0.1763  0.1395 -0.0853
  747TMC3    O211102   1.301   1.256  11.336  0.6455  1.2280 -0.0838
  748MPD2     C11103   3.203   2.355   0.959  0.2505  0.1750  0.1108
  748MPD2    C111104   3.334   2.313   0.983  0.6838  0.3474  0.1216
  748MPD2    C211105   3.436   2.410   0.983  0.2577 -0.3446 -0.0442
  748MPD2    C311106   3.404   2.547   0.982 -0.3195  0.3197 -0.0007
  748MPD2    C411107   3.267   2.583   0.974  0.0033  0.8846  0.2910
  748MPD2    C511108   3.171   2.486   0.958 -0.3616 -0.3574  0.0379
  748MPD2     H11109   3.539   2.382   0.999  0.4730  1.1407  1.1339
  748MPD2    H111110   3.237   2.686   0.961  0.2487  0.7190 -1.6071
  748MPD2    H211111   3.121   2.286   0.939  1.2098 -0.2578 -2.2344
  748MPD2    H311112   3.067   2.514   0.965 -0.5249 -0.8779 -0.2751
  748MPD2     N11113   3.507   2.639   0.989 -0.3084  1.1575  0.4014
  748MPD2    H511114   3.597   2.603   1.020  0.6142 -1.2745 -5.2193
  748MPD2    N111115   3.359   2.173   0.993 -0.2579 -0.1765 -0.0539
  748MPD2    H711116   3.282   2.110   0.971 -0.5790  1.6970 -4.4815
  749TMC3    C111117   3.623   2.838   0.999  0.0205 -0.3915 -0.1617
  749TMC3    C211118   3.692   2.799   1.113  0.3386 -0.1114  0.2105
  749TMC3    C311119   3.793   2.882   1.147  0.6483  0.1592  0.2223
  749TMC3    C411120   3.638   2.957   0.939 -0.1128 -0.3318  0.1246
  749TMC3    C511121   3.735   3.041   0.983 -0.0287  0.0514 -0.2497
  749TMC3    C611122   3.815   3.004   1.086  0.0273  0.2655 -0.1720
  749TMC3     C11123   3.496   2.774   0.966  0.0781 -0.1255  0.1812
  749TMC3     O11124   3.404   2.834   0.908 -0.0744 -0.1749  0.2478
  749TMC3     H11125   3.671   2.706   1.165 -1.4607 -1.6404 -3.2766
  749TMC3    H111126   3.576   2.982   0.854 -0.8208 -0.5518  0.5768
  749TMC3    H211127   3.908   3.055   1.110  0.3780  0.7142 -2.4646
  749TMC3    C711128   3.768   3.164   0.922  0.3722  0.1140 -0.3548
  749TMC3    C811129   3.895   2.840   1.239  0.2697  1.0314  0.0543
  749TMC3    O111130   3.876   3.219   0.945  0.3641 -0.1898  0.4210
  749TMC3    O211131   3.950   2.923   1.307  0.5308 -0.6652 -0.4269
  750MPD2     C11132   3.865   3.268  11.813 -0.0155 -0.3916  0.1442
  750MPD2    C111133   3.740   3.225  11.839  0.1512 -0.5111 -0.0029
  750MPD2    C211134   3.698   3.110  11.776  0.6800  0.0542  0.0438
  750MPD2    C311135   3.775   3.034  11.685  0.3242  0.1686 -0.4237
  750MPD2    C411136   3.898   3.087  11.658 -0.3562 -0.7905  0.6493
  750MPD2    C511137   3.945   3.201  11.719  1.2464 -0.4277 -0.0858
  750MPD2     H11138   3.600   3.073  11.801  2.2849 -3.3739  1.2227
  750MPD2    H111139   3.968   3.035  11.594 -0.5057 -1.6432  1.1890
  750MPD2    H211140   3.894   3.361  11.861  0.7724 -0.0568 -0.9659
  750MPD2    H311141   4.048   3.227  11.696  0.7187  1.1065 -0.7414
  750MPD2     N11142   3.747   2.907  11.634  0.2016  0.5871  0.1040
  750MPD2    H511143   3.801   2.886  11.550  0.5474  0.8104  0.2751
  750MPD2    N111144   3.659   3.312  11.912  0.3721 -0.4736 -0.0898
  750MPD2    H711145   3.700   3.404  11.927 -0.8872  0.2522 -1.0838
  751TMC3    C111146   3.604   2.745  11.551  0.8727  0.3901  0.2110
  751TMC3    C211147   3.473   2.721  11.514 -0.6190  0.6039  0.7293
  751TMC3    C311148   3.455   2.662  11.395 -0.1350 -0.3244  0.3348
  751TMC3    C411149   3.715   2.688  11.487  0.5250 -0.5215 -0.3934
  751TMC3    C511150   3.690   2.630  11.372 -0.0935 -0.1263  0.1104
  751TMC3    C611151   3.566   2.634  11.316  0.2913 -0.6421  0.6077
  751TMC3     C11152   3.626   2.848  11.643  0.9690 -0.1502 -0.5820
  751TMC3     O11153   3.538   2.857  11.727 -0.1699 -0.3270 -0.3573
  751TMC3     H11154   3.394   2.765  11.575 -1.3981  0.9729 -0.5358
  751TMC3    H111155   3.816   2.696  11.526 -0.2302 -0.5253  1.5344
  751TMC3    H211156   3.556   2.593  11.216 -1.6860  1.3441 -0.0051
  751TMC3    C711157   3.799   2.579  11.286 -0.9679  0.2738  0.0590
  751TMC3    C811158   3.321   2.643  11.338  0.1399  0.4956 -0.0897
  751TMC3    O111159   3.906   2.635  11.290 -0.1580 -0.6307 -0.0983
  751TMC3    O211160   3.323   2.610  11.216  0.6996 -0.6125  0.8905
  752TMC3    C111161   2.687   3.382  17.018  0.5718  0.1547  0.5465
  752TMC3    C211162   2.738   3.267  17.077  0.2686  0.4447 -0.3455
  752TMC3    C311163   2.668   3.206  17.179  0.5251 -0.2032  0.3771
  752TMC3    C411164   2.572   3.433  17.066  0.4838  0.1191  0.6980
  752TMC3    C511165   2.503   3.368  17.166  0.1193 -0.2211  0.6264
  752TMC3    C611166   2.552   3.258  17.226 -0.1693  0.0055 -0.2044
  752TMC3     C11167   2.768   3.446  16.917  0.0547  0.3369  0.2522
  752TMC3     O11168   2.888   3.433  16.935 -0.3232 -0.0817 -0.2152
  752TMC3     H11169   2.835   3.227  17.050 -0.8932 -1.6283 -1.4723
  752TMC3    H111170   2.526   3.515  17.014 -1.2082 -0.9513  0.5143
  752TMC3    H211171   2.498   3.209  17.306 -2.2584 -0.8373 -2.1601
  752TMC3    C711172   2.373   3.435  17.201  0.2821 -0.8235 -0.1378
  752TMC3    C811173   2.710   3.074  17.228  0.2272  0.1620 -0.0524
  752TMC3    O111174   2.306   3.471  17.105  0.2800 -0.5783 -0.4233
  752TMC3    O211175   2.651   3.036  17.331  0.3905  0.2812 -0.0015
  753TMC3    C111176   4.559   4.192  13.782 -0.0925  0.3617 -0.3058
  753TMC3    C211177   4.687   4.178  13.834 -0.3129  0.0667 -0.2254
  753TMC3    C311178   0.005   4.050  13.827 -0.1161 -0.0085 -1.2070
  753TMC3    C411179   4.491   4.083  13.727 -0.2426  0.2030  0.5870
  753TMC3    C511180   4.552   3.958  13.726  0.3427 -0.4153 -0.1504
  753TMC3    C611181   4.680   3.935  13.778  0.6243 -0.3834 -0.2222
  753TMC3     C11182   4.500   4.321  13.748  0.0092 -0.7696  0.0835
  753TMC3     O11183   4.417   4.320  13.658  0.0074 -0.5221 -0.8219
  753TMC3     H11184   0.001   4.267  13.866 -0.4168  0.0016  0.1216
  753TMC3    H111185   4.397   4.095  13.674 -0.1159 -1.3858 -0.0138
  753TMC3    H211186   4.725   3.836  13.780  0.4714 -0.4306  0.9006
  753TMC3    C711187   4.486   3.850  13.657  0.7504  0.5371  0.2115
  753TMC3    C811188   0.122   4.016  13.910  0.4482  0.6294 -0.4977
  753TMC3    O111189   4.385   3.875  13.595  0.0941  0.7434  0.1823
  753TMC3    O211190   0.166   3.900  13.914  0.3460 -0.8590 -0.1895
  754MPD2     C11191   3.603   3.215  13.068 -0.4245 -0.2169 -0.0833
  754MPD2    C111192   3.607   3.090  13.111 -0.1124  0.3269  0.3359
  754MPD2    C211193   3.492   3.019  13.125 -0.1133  0.7115 -0.3835
  754MPD2    C311194   3.374   3.086  13.115  0.7205 -0.2032  0.0579
  754MPD2    C411195   3.368   3.216  13.072  0.2593 -0.1950 -0.3622
  754MPD2    C511196   3.485   3.280  13.046 -0.6600 -0.4276  0.6477
  754MPD2     H11197   3.492   2.914  13.151 -1.7092  0.7069 -0.4193
  754MPD2    H111198   3.274   3.266  13.050 -0.7853 -1.7893  0.4753
  754MPD2    H211199   3.697   3.266  13.050 -0.0882 -0.5231  0.8340
  754MPD2    H311200   3.483   3.377  12.999  0.3590 -1.2365 -1.0564
  754MPD2     N11201   3.247   3.037  13.151 -0.1615 -0.5287  0.3357
  754MPD2    H511202   3.170   3.102  13.145 -0.9229 -1.3852  0.7418
  754MPD2    N111203   3.739   3.034  13.132  0.0072 -0.0680 -0.4986
  754MPD2    H711204   3.816   3.083  13.088  0.6513 -0.8085 -0.1959
  755MPD2     C11205   2.408   3.374  13.061 -0.1553 -0.2971 -0.0558
  755MPD2    C111206   2.419   3.299  13.179 -0.1098 -0.0219  0.7183
  755MPD2    C211207   2.528   3.216  13.199 -0.0523  0.5854 -0.3577
  755MPD2    C311208   2.633   3.208  13.110 -0.3357  0.6326  0.0876
  755MPD2    C411209   2.629   3.297  13.010  1.1051 -0.4294 -0.7573
  755MPD2    C511210   2.518   3.369  12.981 -0.0954 -0.4482 -0.3673
  755MPD2     H11211   2.527   3.159  13.291  2.0677 -0.3563 -0.9191
  755MPD2    H111212   2.717   3.315  12.949  1.9335 -1.0820  0.2543
  755MPD2    H211213   2.315   3.423  13.031 -0.6023 -0.5726  0.8863
  755MPD2    H311214   2.518   3.440  12.899 -2.8805  0.2537  0.2304
  755MPD2     N11215   2.745   3.122  13.132  0.1100  0.0188  0.3416
  755MPD2    H511216   2.809   3.103  13.055  0.7055  1.1318  0.5563
  755MPD2    N111217   2.316   3.305  13.273  0.1691 -0.1276  0.0035
  755MPD2    H711218   2.320   3.236  13.347 -1.5466 -0.9408 -0.6622
  756MPD2     C11219   3.198   4.004   9.938  0.2261  1.1178  0.5375
  756MPD2    C111220   3.130   3.893   9.973 -0.0356  0.2575 -0.3256
  756MPD2    C211221   2.994   3.881   9.945 -0.6816  0.8827 -0.1152
  756MPD2    C311222   2.930   3.979   9.870  0.3353 -0.3951  0.1460
  756MPD2    C411223   3.014   4.085   9.821 -0.7234 -0.3427  0.4453
  756MPD2    C511224   3.148   4.091   9.855 -0.6696 -0.3717  0.5340
  756MPD2     H11225   2.940   3.799   9.990  1.5151 -0.3807  0.2245
  756MPD2    H111226   2.970   4.160   9.756  1.8662 -1.2076 -2.2990
  756MPD2    H211227   3.293   4.026   9.985  0.0610 -0.1434  1.4717
  756MPD2    H311228   3.199   4.183   9.828 -0.0940 -0.2531  2.0031
  756MPD2     N11229   2.792   3.967   9.841 -0.2383 -0.3204  0.8223
  756MPD2    H511230   2.743   3.881   9.866 -0.5474 -0.5337 -0.5311
  756MPD2    N111231   3.184   3.784  10.049  0.1809 -0.4499  0.0856
  756MPD2    H711232   3.126   3.714  10.095  0.5916 -0.6438  0.3010
  757MPD2     C11233   2.315   3.277   9.655  0.6298  0.4276 -0.0283
  757MPD2    C111234   2.443   3.322   9.655 -0.5445 -0.4043  0.1141
  757MPD2    C211235   2.478   3.448   9.689 -0.8310 -0.1702 -0.1582
  757MPD2    C311236   2.375   3.541   9.719 -0.2529  0.0461  0.0797
  757MPD2    C411237   2.242   3.500   9.712  0.0693 -0.4690 -0.3047
  757MPD2    C511238   2.215   3.367   9.686  0.1578  0.3373 -0.5718
  757MPD2     H11239   2.580   3.484   9.689 -1.3848  1.4158 -1.3892
  757MPD2    H111240   2.165   3.573   9.735  1.0378  0.3432  0.3435
  757MPD2    H211241   2.291   3.174   9.633 -0.3411  0.6197  0.1146
  757MPD2    H311242   2.112   3.339   9.670  0.4502 -2.3862  2.1880
  757MPD2     N11243   2.408   3.676   9.754  0.2520  0.4282 -0.4261
  757MPD2    H511244   2.507   3.698   9.749  0.7468 -1.8302 -0.2205
  757MPD2    N111245   2.534   3.222   9.616 -0.2984  0.3989 -0.3672
  757MPD2    H711246   2.491   3.133   9.595  1.3426 -0.8662  1.6438
  758MPD2     C11247   4.008   3.514  15.754 -0.6917  0.1542 -0.8155
  758MPD2    C111248   4.074   3.407  15.807 -0.5175 -0.3864 -0.1446
  758MPD2    C211249   4.025   3.335  15.914  0.2973  0.3986  0.1164
  758MPD2    C311250   3.907   3.379  15.980  0.0181  0.1988 -1.3178
  758MPD2    C411251   3.849   3.498  15.932  0.0147 -0.5120  0.3984
  758MPD2    C511252   3.892   3.560  15.817 -0.0746 -0.2125  0.4846
  758MPD2     H11253   4.077   3.246  15.947 -1.1478 -1.3640 -2.3457
  758MPD2    H111254   3.759   3.539  15.975  0.0935 -2.1715  2.1302
  758MPD2    H211255   4.033   3.556  15.657  0.0183 -0.2050 -0.7898
  758MPD2    H311256   3.843   3.649  15.778 -0.0135  0.0138  0.9184
  758MPD2     N11257   3.855   3.316  16.090 -0.3293 -0.7271 -0.6666
  758MPD2    H511258   3.768   3.352  16.129  0.0294 -0.0394 -0.5020
  758MPD2    N111259   4.197   3.373  15.741  0.5899  0.3308 -0.8740
  758MPD2    H711260   4.216   3.435  15.663 -2.0965  0.8431 -1.0962
  759MPD2     C11261   2.098   1.495  10.372  0.6013  0.1816  0.7063
  759MPD2    C111262   2.040   1.405  10.297  0.4248  0.1431 -0.1013
  759MPD2    C211263   2.069   1.416  10.161 -0.5599 -0.4776  0.9724
  759MPD2    C311264   2.132   1.525  10.103  0.3408 -0.0209  0.0642
  759MPD2    C411265   2.183   1.618  10.192  0.2163 -0.0066 -0.0120
  759MPD2    C511266   2.165   1.602  10.324 -0.5174  0.1248  0.2752
  759MPD2     H11267   2.023   1.341  10.097  2.5591 -0.6892 -1.0415
  759MPD2    H111268   2.223   1.712  10.156 -1.1161 -0.4638 -2.6859
  759MPD2    H211269   2.088   1.496  10.480  1.2230  0.9904  0.7607
  759MPD2    H311270   2.195   1.679  10.394  0.6607 -0.7301  0.6978
  759MPD2     N11271   2.138   1.529   9.959 -0.0585  0.0009 -0.6227
  759MPD2    H511272   2.117   1.444   9.908  1.3271 -0.9748  0.4323
  759MPD2    N111273   1.969   1.288  10.337 -0.3505  0.0191 -0.0242
  759MPD2    H711274   1.957   1.205  10.279  0.8901 -0.6598  0.6870
  760MPD2     C11275   1.777   3.460  12.337 -0.4111 -0.6820  0.4751
  760MPD2    C111276   1.883   3.420  12.264  0.1754 -0.0835 -0.8664
  760MPD2    C211277   1.922   3.289  12.258 -0.4931 -0.6817 -0.1998
  760MPD2    C311278   1.838   3.197  12.310 -0.2579  0.0412  0.3915
  760MPD2    C411279   1.728   3.229  12.384  0.2848 -0.0537  0.0700
  760MPD2    C511280   1.697   3.364  12.398 -0.3364 -0.8565  0.2203
  760MPD2     H11281   2.014   3.261  12.207  0.6412 -0.2337  1.5681
  760MPD2    H111282   1.666   3.155  12.432 -2.5020  2.3651  0.1931
  760MPD2    H211283   1.738   3.561  12.340  0.8512 -0.2587  1.9671
  760MPD2    H311284   1.597   3.379  12.435  0.0556  1.6069  0.2673
  760MPD2     N11285   1.855   3.059  12.303  0.1343 -0.3911 -0.0700
  760MPD2    H511286   1.784   2.999  12.344 -0.4324  0.5349  0.3033
  760MPD2    N111287   1.963   3.520  12.203  0.4007  0.8007  0.2780
  760MPD2    H711288   2.051   3.486  12.168 -0.8290 -1.1180 -0.9136
  761MPD2     C11289   2.881   2.401  11.416 -0.3092 -0.5552 -0.7766
  761MPD2    C111290   2.968   2.405  11.310 -0.7161 -0.1804 -0.5095
  761MPD2    C211291   3.069   2.502  11.294 -0.2572  0.0647 -0.1920
  761MPD2    C311292   3.096   2.575  11.406 -0.1798  0.0303  0.5177
  761MPD2    C411293   3.012   2.570  11.519 -0.1446  0.3579 -0.3601
  761MPD2    C511294   2.901   2.494  11.520  0.6447 -0.8559  0.1874
  761MPD2     H11295   3.136   2.487  11.211  0.1014  2.3233 -0.3094
  761MPD2    H111296   3.035   2.635  11.603  0.2322 -0.4902  0.1903
  761MPD2    H211297   2.799   2.331  11.433  0.3022 -1.1494 -0.2815
  761MPD2    H311298   2.856   2.476  11.617  0.5579  1.6855  0.6227
  761MPD2     N11299   3.220   2.648  11.423 -0.0957  0.1307  0.3077
  761MPD2    H511300   3.237   2.699  11.509  1.0320 -1.7102  1.1644
  761MPD2    N111301   2.946   2.306  11.210  0.2165 -0.0642  0.2674
  761MPD2    H711302   2.883   2.232  11.239 -0.0786 -0.0927 -0.4315
  762MPD2     C11303   3.395   2.459  10.902  0.6750  0.7055 -0.1190
  762MPD2    C111304   3.374   2.344  10.820  0.0814  0.5311  0.6540
  762MPD2    C211305   3.476   2.316  10.737  0.6496 -1.2821  0.3642
  762MPD2    C311306   3.596   2.380  10.729  0.3620  0.5739  0.4246
  762MPD2    C411307   3.621   2.480  10.811 -0.1042 -0.4526 -0.1679
  762MPD2    C511308   3.516   2.519  10.898 -0.6735 -0.4817  0.3165
  762MPD2     H11309   3.459   2.246  10.656 -1.7105  0.6443 -0.8002
  762MPD2    H111310   3.717   2.529  10.821  0.1953 -0.9430 -0.7059
  762MPD2    H211311   3.319   2.498  10.969  0.2949 -0.1367 -0.0673
  762MPD2    H311312   3.537   2.609  10.955 -0.1378 -0.4792  0.1120
  762MPD2     N11313   3.688   2.347  10.629 -0.6630  0.0498  0.1502
  762MPD2    H511314   3.679   2.256  10.586 -1.4472  1.1714 -2.0809
  762MPD2    N111315   3.254   2.271  10.826 -0.1026  0.4306  0.7071
  762MPD2    H711316   3.181   2.309  10.885 -1.0241 -0.7510  0.3505
  763MPD2     C11317   0.954   3.014  16.007  0.0014 -0.6001  0.0086
  763MPD2    C111318   0.840   3.096  16.009 -0.3445 -0.7874  0.1038
  763MPD2    C211319   0.853   3.229  16.037  0.0317 -0.1742 -0.7925
  763MPD2    C311320   0.979   3.289  16.054  0.5644 -0.3890 -0.6681
  763MPD2    C411321   1.088   3.210  16.049  0.2825  0.2396  0.5774
  763MPD2    C511322   1.073   3.072  16.033 -0.1892  0.6601 -0.8072
  763MPD2     H11323   0.762   3.288  16.034 -0.3940 -0.7711  0.3041
  763MPD2    H111324   1.191   3.244  16.058  0.2485 -0.1614  2.4658
  763MPD2    H211325   0.946   2.910  15.978  1.9962 -1.3821  2.2742
  763MPD2    H311326   1.163   3.012  16.027 -0.6545  0.0185 -1.4290
  763MPD2     N11327   0.997   3.432  16.066  0.2076  0.6375  0.7463
  763MPD2    H511328   1.090   3.468  16.079  0.6721  0.0935 -1.0926
  763MPD2    N111329   0.707   3.052  15.974  0.0749  0.1188 -0.2808
  763MPD2    H711330   0.642   3.128  15.956 -0.4135  0.1425  1.5827
  764MPD2     C11331   3.551   0.082   0.193 -0.0872 -0.2016  0.0386
  764MPD2    C111332   3.460   4.723   0.184  0.0574 -0.8744  0.4609
  764MPD2    C211333   3.470   4.620   0.270  0.0281 -0.1749  0.1964
  764MPD2    C311334   3.568   4.605   0.364  0.8188 -0.0683 -0.1035
  764MPD2    C411335   3.663   4.703   0.370  0.4649  0.6388 -0.1712
  764MPD2    C511336   3.656   0.067   0.282 -0.4893  0.6530  0.2567
  764MPD2     H11337   3.402   4.537   0.281  0.5921 -0.2858  2.8511
  764MPD2    H111338   3.740   4.712   0.446  0.8783  1.3787 -0.6754
  764MPD2    H211339   3.550   0.170   0.129 -1.0345 -1.6649 -1.9310
  764MPD2    H311340   3.731   0.145   0.290  0.2222  0.3110 -3.0546
  764MPD2     N11341   3.559   4.494   0.451  0.8501  0.0891 -0.1860
  764MPD2    H511342   3.497   4.421   0.418  0.2484  0.0459  1.0135
  764MPD2    N111343   3.350   4.723   0.095  0.2101 -0.2182 -0.0899
  764MPD2    H711344   3.293   4.640   0.106 -0.2623 -0.0233 -0.9886
  765MPD2     C11345   3.082   2.354  15.786 -0.1707  1.0690 -0.8830
  765MPD2    C111346   3.168   2.459  15.761 -0.7327 -0.3779  0.9448
  765MPD2    C211347   3.296   2.428  15.725  0.0785  0.0079  0.0451
  765MPD2    C311348   3.340   2.296  15.706  0.2685  0.4878  0.4620
  765MPD2    C411349   3.246   2.194  15.725 -0.2330 -0.0720 -0.2744
  765MPD2    C511350   3.118   2.221  15.759  0.3172  0.0722 -0.1463
  765MPD2     H11351   3.368   2.510  15.729  0.3016 -0.2347  0.9593
  765MPD2    H111352   3.272   2.090  15.710 -0.8653 -0.4107  1.0071
  765MPD2    H211353   2.985   2.382  15.826 -1.1776 -2.0061 -1.1631
  765MPD2    H311354   3.044   2.146  15.783  0.1351  0.4191  0.3945
  765MPD2     N11355   3.472   2.271  15.658  0.3475  0.1181 -1.0786
  765MPD2    H511356   3.528   2.355  15.644 -1.8612  1.6749 -0.4483
  765MPD2    N111357   3.123   2.589  15.778  0.2176  0.3550 -0.5354
  765MPD2    H711358   3.032   2.597  15.822  0.4384 -1.7010  0.3011
  766MPD2     C11359   2.669   2.813  15.332 -0.0568 -0.0221 -0.5468
  766MPD2    C111360   2.805   2.854  15.345 -0.2058  0.1916 -0.1999
  766MPD2    C211361   2.878   2.841  15.228  0.2375  0.0920 -0.7340
  766MPD2    C311362   2.834   2.784  15.113  0.2033 -0.0069  0.1902
  766MPD2    C411363   2.704   2.751  15.103  0.0945  0.4340 -0.0993
  766MPD2    C511364   2.625   2.753  15.213  0.0916  1.0593  0.0281
  766MPD2     H11365   2.980   2.876  15.242  0.4462 -0.4063 -1.0000
  766MPD2    H111366   2.652   2.709  15.018  1.9620 -0.5472 -0.7519
  766MPD2    H211367   2.601   2.812  15.416 -0.2361 -0.4998 -0.7030
  766MPD2    H311368   2.524   2.717  15.199  0.6158 -0.3168 -0.1988
  766MPD2     N11369   2.899   2.781  14.990 -0.2297 -0.0889 -0.4309
  766MPD2    H511370   2.844   2.756  14.909 -0.8840  2.6511 -0.8341
  766MPD2    N111371   2.858   2.914  15.461  0.4867 -0.0356 -0.4211
  766MPD2    H711372   2.948   2.961  15.451 -0.0439  0.9098 -0.7802
  767MPD2     C11373   2.443   2.980  14.886 -0.6465 -0.5378  0.0550
  767MPD2    C111374   2.580   2.992  14.852 -0.3234 -0.5973  0.4148
  767MPD2    C211375   2.627   2.922  14.752  0.3972  0.3285 -0.2275
  767MPD2    C311376   2.542   2.841  14.680 -0.0702 -0.8722 -0.9421
  767MPD2    C411377   2.407   2.838  14.696 -0.4391  0.4836  0.8053
  767MPD2    C511378   2.357   2.911  14.803 -0.7515 -0.4857 -0.1915
  767MPD2     H11379   2.734   2.908  14.748  0.3387  0.1335 -1.0266
  767MPD2    H111380   2.344   2.783  14.627 -0.0994  0.2521  0.6773
  767MPD2    H211381   2.413   3.029  14.978 -1.5704  0.8320 -0.9643
  767MPD2    H311382   2.251   2.909  14.826 -0.6178 -0.2214  0.4708
  767MPD2     N11383   2.614   2.756  14.590  0.1505 -0.9453 -0.6140
  767MPD2    H511384   2.712   2.782  14.581  0.1227 -0.9553 -0.9396
  767MPD2    N111385   2.652   3.086  14.928 -0.5817  0.2943 -0.1604
  767MPD2    H711386   2.607   3.119  15.012  0.9175 -1.7183  1.4284
  768MPD2     C11387   3.400   1.009  10.618  0.3344  0.1250 -0.3554
  768MPD2    C111388   3.338   0.970  10.740 -0.2192  0.0858  1.0407
  768MPD2    C211389   3.399   0.989  10.860 -0.2202 -0.4136  0.9796
  768MPD2    C311390   3.522   1.050  10.866 -0.0666  0.1582 -0.2746
  768MPD2    C411391   3.590   1.079  10.747 -0.2754 -0.0544  0.3017
  768MPD2    C511392   3.518   1.071  10.624 -0.0520 -0.2242 -0.1095
  768MPD2     H11393   3.345   0.959  10.950  1.8336  3.2154  3.3708
  768MPD2    H111394   3.691   1.117  10.733 -0.5979  1.2818  1.6276
  768MPD2    H211395   3.359   0.987  10.520  1.0798  0.1667 -0.6743
  768MPD2    H311396   3.561   1.103  10.530  1.2409  0.5333  0.7417
  768MPD2     N11397   3.603   1.066  10.979  0.5094  0.2999  0.7074
  768MPD2    H511398   3.702   1.063  10.962  0.7728 -0.1045  2.2630
  768MPD2    N111399   3.216   0.904  10.749  0.0644 -0.1464  0.0321
  768MPD2    H711400   3.185   0.867  10.838  0.6244 -1.5082 -0.3477
  769MPD2     C11401   4.399   3.779  14.941 -0.6064  0.0890  0.0575
  769MPD2    C111402   4.342   3.908  14.960 -0.0028 -0.9840  0.1005
  769MPD2    C211403   4.394   3.995  15.052  0.2940 -0.0455  0.8867
  769MPD2    C311404   4.491   3.946  15.141  0.6896  0.0873  0.1872
  769MPD2    C411405   4.552   3.827  15.121 -0.6191 -0.0880  0.5376
  769MPD2    C511406   4.505   3.741  15.024 -0.2485  0.2593  0.7423
  769MPD2     H11407   4.341   4.086  15.077  1.7865  0.8737  0.6407
  769MPD2    H111408   4.623   3.788  15.193 -1.2792 -1.8095  0.2528
  769MPD2    H211409   4.362   3.705  14.871 -0.9569  1.3739 -1.1137
  769MPD2    H311410   4.542   3.639  15.013  0.0593  0.6439 -1.8742
  769MPD2     N11411   4.527   4.029  15.251 -0.0146  0.1899  0.3505
  769MPD2    H511412   4.478   4.118  15.260 -1.3011 -0.5546  0.6857
  769MPD2    N111413   4.237   3.937  14.870  0.1362 -0.3085  0.2345
  769MPD2    H711414   4.211   3.861  14.807 -0.2666 -0.9560  1.1895
  770MPD2     C11415   3.690   3.572  15.175 -0.2752 -0.1194  0.4735
  770MPD2    C111416   3.748   3.542  15.053 -0.4411 -0.5128 -0.5928
  770MPD2    C211417   3.749   3.641  14.954 -0.0479  0.3616 -0.5283
  770MPD2    C311418   3.725   3.770  14.990 -0.1806  0.1238 -0.1602
  770MPD2    C411419   3.680   3.804  15.119  0.0124  0.4297  0.1998
  770MPD2    C511420   3.659   3.704  15.206  0.6289 -0.8164  0.3842
  770MPD2     H11421   3.776   3.624  14.850 -0.0190 -0.9700 -0.3108
  770MPD2    H111422   3.661   3.905  15.154  0.3176  0.2087  0.9914
  770MPD2    H211423   3.671   3.497  15.251  2.3814 -1.9444 -0.6826
  770MPD2    H311424   3.631   3.736  15.306 -0.7428  1.5486 -0.7671
  770MPD2     N11425   3.738   3.861  14.884  0.2099 -0.1908  0.1372
  770MPD2    H511426   3.777   3.818  14.801  2.3617  1.7585  0.1376
  770MPD2    N111427   3.780   3.404  15.030 -0.0432  0.1906  0.4642
  770MPD2    H711428   3.763   3.339  15.105  2.7085 -0.0076  0.9094
  771MPD2     C11429   0.945   1.470  14.212  0.2161 -0.8806  0.2066
  771MPD2    C111430   0.836   1.520  14.145 -0.9892  0.3293 -0.1417
  771MPD2    C211431   0.727   1.443  14.127  0.2307 -1.0994  0.7328
  771MPD2    C311432   0.724   1.315  14.170 -0.0721  0.0604 -0.1552
  771MPD2    C411433   0.830   1.255  14.232  0.3241  0.4619 -0.3219
  771MPD2    C511434   0.930   1.338  14.259 -0.4566  0.6107  0.0507
  771MPD2     H11435   0.644   1.486  14.070  0.9433  1.1665  1.4051
  771MPD2    H111436   0.837   1.150  14.258 -1.8013  0.3645 -0.0793
  771MPD2    H211437   1.034   1.526  14.239 -1.3139  0.9937  1.3592
  771MPD2    H311438   1.015   1.296  14.311 -0.7346 -0.1177 -0.0810
  771MPD2     N11439   0.607   1.249  14.123 -0.3717  0.2516 -0.3365
  771MPD2    H511440   0.525   1.307  14.105 -0.2857  0.5195  0.1385
  771MPD2    N111441   0.840   1.650  14.090 -0.1517  0.0539 -0.2690
  771MPD2    H711442   0.749   1.685  14.064  1.7888  3.0800 -3.0156
  772MPD2     C11443   0.573   2.248  14.325 -0.1358 -0.5981  0.0541
  772MPD2    C111444   0.544   2.135  14.247 -0.7905  0.3054  0.5352
  772MPD2    C211445   0.426   2.071  14.265  0.7244  0.1943 -0.2666
  772MPD2    C311446   0.323   2.136  14.329  0.0480 -0.4215 -0.0043
  772MPD2    C411447   0.346   2.251  14.409 -0.3662 -0.2090 -0.7426
  772MPD2    C511448   0.478   2.296  14.420  0.7178  0.1031  0.1531
  772MPD2     H11449   0.421   1.973  14.218  0.7393  1.1189 -2.2021
  772MPD2    H111450   0.265   2.305  14.456  0.2009  0.6714 -0.7815
  772MPD2    H211451   0.667   2.303  14.320 -0.5610 -0.0810 -2.6148
  772MPD2    H311452   0.500   2.368  14.498 -0.5104 -1.0431  1.5672
  772MPD2     N11453   0.190   2.099  14.312  0.0922  0.1148 -0.1765
  772MPD2    H511454   0.117   2.149  14.362  0.3764  1.9133 -1.5552
  772MPD2    N111455   0.640   2.078  14.163 -0.3166 -0.1203  0.6962
  772MPD2    H711456   0.609   1.995  14.114 -0.2434 -0.0214  0.4842
  773MPD2     C11457   4.707   3.287   0.123  0.9008  0.1355 -0.5723
  773MPD2    C111458   4.584   3.220   0.092  1.4047  0.1872 -0.5214
  773MPD2    C211459   4.553   3.097   0.148 -0.9120  0.4080  0.0845
  773MPD2    C311460   4.645   3.032   0.224 -0.6988 -0.5678 -0.6754
  773MPD2    C411461   0.027   3.094   0.249 -0.2340  1.0052  0.2442
  773MPD2    C511462   0.052   3.221   0.209 -0.2411  0.0757  0.0737
  773MPD2     H11463   4.456   3.051   0.129  0.0009 -1.0901 -0.9806
  773MPD2    H111464   0.097   3.053   0.320  0.2049  0.9742 -0.2048
  773MPD2    H211465   4.730   3.389   0.096 -1.1044  0.9019  0.6267
  773MPD2    H311466   0.138   3.266   0.257 -1.7827  0.9059  2.0603
  773MPD2     N11467   4.610   2.907   0.282  0.3493  0.5410 -0.1131
  773MPD2    H511468   4.516   2.874   0.261 -0.1984  0.7811  1.9494
  773MPD2    N111469   4.481   3.289   0.021 -0.1808 -0.3714 -0.1330
  773MPD2    H711470   4.385   3.260   0.034  0.0746 -0.2889  1.8346
  774MPD2     C11471   3.456   2.094  13.644 -0.1032 -0.2671  0.2364
  774MPD2    C111472   3.511   2.183  13.736 -0.3615 -0.4164  0.8352
  774MPD2    C211473   3.573   2.297  13.687 -0.3647  0.3078 -0.4127
  774MPD2    C311474   3.583   2.328  13.553  0.1029  0.1412  0.0404
  774MPD2    C411475   3.510   2.252  13.462  0.3623 -0.1119  0.3361
  774MPD2    C511476   3.446   2.140  13.516  1.4910 -0.1881 -0.4478
  774MPD2     H11477   3.614   2.379  13.744 -1.9874  0.2527  0.7999
  774MPD2    H111478   3.501   2.273  13.356  0.6500 -0.4016  0.2549
  774MPD2    H211479   3.405   2.008  13.687  2.1358 -0.5848  2.2821
  774MPD2    H311480   3.401   2.070  13.447  0.7128 -1.3766  1.2778
  774MPD2     N11481   3.647   2.453  13.512  0.3135 -0.1824  0.0737
  774MPD2    H511482   3.690   2.515  13.579  0.0048  0.8506 -0.6913
  774MPD2    N111483   3.508   2.151  13.874 -0.0666 -0.2601  0.2349
  774MPD2    H711484   3.476   2.060  13.904 -2.7123  0.9243  1.0127
  775MPD2     C11485   0.136   3.756  15.764  0.3210  0.3281 -0.2110
  775MPD2    C111486   0.132   3.896  15.777  0.2145 -0.4322 -0.2400
  775MPD2    C211487   0.211   3.970  15.690  0.1629  0.0976 -0.4793
  775MPD2    C311488   0.291   3.914  15.590  0.7335  0.2937 -0.1704
  775MPD2    C411489   0.294   3.782  15.580  0.9218 -0.1604  0.4797
  775MPD2    C511490   0.218   3.705  15.661 -0.3650  0.3966 -0.2460
  775MPD2     H11491   0.199   4.078  15.688  0.3696  0.1538  0.6834
  775MPD2    H111492   0.350   3.722  15.509 -0.5560  0.0760 -0.8990
  775MPD2    H211493   0.071   3.692  15.822  1.8245  0.0507  1.1582
  775MPD2    H311494   0.217   3.598  15.642  0.4773  0.3851 -0.2071
  775MPD2     N11495   0.375   3.994  15.503 -0.0840 -0.6121 -0.6650
  775MPD2    H511496   0.412   3.947  15.421 -1.4600 -1.1984 -0.9584
  775MPD2    N111497   0.032   3.946  15.862  0.2969  0.2037 -0.2211
  775MPD2    H711498   4.712   3.882  15.915  0.6085 -1.2626 -1.6531
  776MPD2     C11499   3.826   3.872  11.877 -0.0969  0.2908  0.0813
  776MPD2    C111500   3.701   3.872  11.832 -0.2077  0.8694 -0.0325
  776MPD2    C211501   3.651   3.981  11.753  0.0674  0.2752  0.4435
  776MPD2    C311502   3.730   4.092  11.719  0.1051 -0.4307 -0.2571
  776MPD2    C411503   3.858   4.089  11.770  0.7616  0.2183  0.3890
  776MPD2    C511504   3.903   3.977  11.837 -0.3269  0.0058  0.3309
  776MPD2     H11505   3.547   3.979  11.722  0.5827 -1.8764 -1.1745
  776MPD2    H111506   3.933   4.166  11.756  0.6601  0.1529 -0.5511
  776MPD2    H211507   3.876   3.792  11.929 -0.8003 -0.3193 -0.1811
  776MPD2    H311508   4.007   3.964  11.865  0.3964 -0.8009 -2.7470
  776MPD2     N11509   3.684   4.206  11.653  0.0029 -0.2281 -0.0075
  776MPD2    H511510   3.745   4.286  11.658  1.4878 -1.2766 -1.5362
  776MPD2    N111511   3.620   3.761  11.854  0.1824  0.6184 -0.3288
  776MPD2    H711512   3.667   3.673  11.872  1.4543  1.3085 -0.2821
  777MPD2     C11513   3.862   1.919   0.737 -0.2593  0.6877 -0.1038
  777MPD2    C111514   3.986   1.859   0.730  0.7769 -0.1729 -0.3028
  777MPD2    C211515   4.005   1.748   0.650  0.5183 -0.8089 -0.2377
  777MPD2    C311516   3.903   1.696   0.574  0.3083 -0.8385 -0.2909
  777MPD2    C411517   3.775   1.754   0.584  0.1939  0.1366 -0.3148
  777MPD2    C511518   3.761   1.874   0.660  0.8379 -0.0033  0.3449
  777MPD2     H11519   4.107   1.712   0.653  0.9268  0.4188  0.6163
  777MPD2    H111520   3.684   1.720   0.538 -1.4700  0.6872  2.5547
  777MPD2    H211521   3.848   2.001   0.806  0.1383  1.3573 -0.8222
  777MPD2    H311522   3.660   1.911   0.677  0.4740 -0.7093 -0.2823
  777MPD2     N11523   3.931   1.581   0.495 -0.0102 -0.0545 -0.2945
  777MPD2    H511524   4.025   1.545   0.487 -0.2166 -0.5790 -0.3711
  777MPD2    N111525   4.096   1.927   0.800 -0.2759 -0.1382 -0.5434
  777MPD2    H711526   4.063   2.004   0.858 -0.1531  0.2873 -1.0408
  778MPD2     C11527   0.648   2.046  15.134  0.2272 -0.3584 -0.4643
  778MPD2    C111528   0.681   1.934  15.058  0.0392 -0.1623 -0.1091
  778MPD2    C211529   0.785   1.936  14.972  0.0488 -1.0292 -0.0975
  778MPD2    C311530   0.850   2.056  14.950 -0.2962  0.5314 -0.9539
  778MPD2    C411531   0.813   2.172  15.016  0.3576  0.3627 -0.6804
  778MPD2    C511532   0.711   2.162  15.108  0.5083 -0.5513  0.2030
  778MPD2     H11533   0.814   1.848  14.916  1.0023  1.0352 -2.8907
  778MPD2    H111534   0.877   2.259  15.020 -0.8258  1.3185 -2.3948
  778MPD2    H211535   0.579   2.047  15.217 -0.5175  0.5150 -1.0926
  778MPD2    H311536   0.688   2.244  15.176 -1.2404 -0.8684 -0.0045
  778MPD2     N11537   0.975   2.053  14.886  0.2445  0.6038  0.1273
  778MPD2    H511538   1.020   1.962  14.882 -0.1063  0.5313 -2.1769
  778MPD2    N111539   0.611   1.811  15.061  0.3921 -0.4217 -0.6288
  778MPD2    H711540   0.626   1.737  14.992  0.4595 -1.7904  0.8445
  779MPD2     C11541   0.204   0.415  14.280 -0.1686 -0.1541  0.5661
  779MPD2    C111542   0.273   0.414  14.397  0.3340 -0.1139 -0.1388
  779MPD2    C211543   0.326   0.534  14.455 -0.5165  0.0381 -0.1945
  779MPD2    C311544   0.302   0.654  14.393  0.4377 -0.1359  0.3134
  779MPD2    C411545   0.236   0.655  14.273  0.1966 -0.1028  0.0891
  779MPD2    C511546   0.189   0.537  14.220 -0.3451 -0.2769 -0.0300
  779MPD2     H11547   0.380   0.519  14.548  2.0087 -0.2667 -1.7079
  779MPD2    H111548   0.208   0.745  14.220  2.0079 -1.2588 -2.8439
  779MPD2    H211549   0.180   0.323  14.229  1.6553 -0.5723  0.4490
  779MPD2    H311550   0.140   0.548  14.124  1.0284  0.5130 -0.6351
  779MPD2     N11551   0.344   0.772  14.460  0.1869 -0.2123 -0.3537
  779MPD2    H511552   0.395   0.765  14.548  0.2703  0.2561 -0.3647
  779MPD2    N111553   0.301   0.292  14.472  0.0379  0.5423 -0.3621
  779MPD2    H711554   0.374   0.299  14.542  0.9366 -0.5666 -1.1801
  780MPD2     C11555   0.796   0.414   0.905  0.4237 -0.3681 -0.1128
  780MPD2    C111556   0.659   0.437   0.916 -0.5662  0.2838  0.2272
  780MPD2    C211557   0.597   0.547   0.864 -0.4514  0.3945 -0.0555
  780MPD2    C311558   0.673   0.634   0.792  0.3636  0.4778  0.0749
  780MPD2    C411559   0.809   0.618   0.788 -0.4087  1.0551 -0.7511
  780MPD2    C511560   0.875   0.511   0.859 -0.6829  0.9849 -0.1769
  780MPD2     H11561   0.490   0.560   0.863 -0.5525 -0.6055 -2.5847
  780MPD2    H111562   0.875   0.675   0.724  0.8539  0.5361  0.0887
  780MPD2    H211563   0.837   0.328   0.957 -0.3112 -0.0020  1.0702
  780MPD2    H311564   0.983   0.514   0.865 -0.7058 -0.0632  0.8361
  780MPD2     N11565   0.605   0.726   0.716  0.3269  0.1054 -0.8590
  780MPD2    H511566   0.506   0.712   0.698 -0.2914  1.2653  1.5868
  780MPD2    N111567   0.584   0.336   0.987  0.0994  0.2154 -0.5345
  780MPD2    H711568   0.636   0.251   1.006 -0.6968 -0.0669  0.3717
  781MPD2     C11569   2.007   2.153  12.425 -0.0244 -0.6208  0.2650
  781MPD2    C111570   1.881   2.126  12.369 -0.1000 -0.5354 -0.2807
  781MPD2    C211571   1.865   2.165  12.235 -0.1226  0.0153 -0.3187
  781MPD2    C311572   1.962   2.223  12.161  0.2530 -0.0907 -0.3942
  781MPD2    C411573   2.085   2.229  12.215 -0.0346 -0.1420  0.5421
  781MPD2    C511574   2.104   2.197  12.348 -0.7634  0.3502  0.1586
  781MPD2     H11575   1.769   2.159  12.185 -0.5964 -1.4871  0.7891
  781MPD2    H111576   2.169   2.281  12.170  0.6850 -1.3829  0.4555
  781MPD2    H211577   2.019   2.138  12.532 -2.9328  0.6767  0.7855
  781MPD2    H311578   2.203   2.216  12.388 -1.5740  2.9327  0.9217
  781MPD2     N11579   1.939   2.271  12.031 -0.2392  0.2144  0.3387
  781MPD2    H511580   2.026   2.309  11.995 -0.3630 -1.4316 -1.6831
  781MPD2    N111581   1.774   2.084  12.446 -0.5084  0.5595  0.5030
  781MPD2    H711582   1.681   2.103  12.411 -1.5121 -0.4175  2.6357
  782MPD2     C11583   4.003   3.021  10.944 -0.0097 -0.3761 -0.3090
  782MPD2    C111584   4.131   3.016  10.908 -0.4337  0.6450  1.0861
  782MPD2    C211585   4.222   3.103  10.965 -0.6282 -0.4427  0.2301
  782MPD2    C311586   4.178   3.195  11.054  0.5846  0.0704  0.3041
  782MPD2    C411587   4.049   3.208  11.087 -0.7119  0.0701 -0.2991
  782MPD2    C511588   3.961   3.109  11.036  0.0407  0.2005  0.1022
  782MPD2     H11589   4.328   3.090  10.949 -1.0538 -0.2123 -2.7248
  782MPD2    H111590   4.015   3.280  11.161 -0.1406 -0.1241  0.1528
  782MPD2    H211591   3.935   2.943  10.912 -0.3285  0.8964 -2.7454
  782MPD2    H311592   3.856   3.100  11.063 -0.5622  1.5587 -1.7362
  782MPD2     N11593   4.288   3.273  11.102 -0.2217  0.2645 -0.2756
  782MPD2    H511594   4.371   3.246  11.051 -0.2952 -0.9208  0.2210
  782MPD2    N111595   4.178   2.914  10.818 -0.3080  0.3197  0.2066
  782MPD2    H711596   4.110   2.843  10.793  1.1174 -0.7745 -0.5976
  783MPD2     C11597   3.789   2.282  11.060  0.3679  0.8970 -0.0019
  783MPD2    C111598   3.841   2.398  11.114 -0.6680  0.2930 -0.2306
  783MPD2    C211599   3.960   2.443  11.064  0.2434 -0.3745  0.1045
  783MPD2    C311600   4.023   2.390  10.950 -0.0766 -0.2689  0.0450
  783MPD2    C411601   3.977   2.267  10.903  0.4005 -0.3663  0.2749
  783MPD2    C511602   3.857   2.224  10.957  0.3924 -0.4694  0.3688
  783MPD2     H11603   4.002   2.530  11.113 -2.3436 -0.5797  2.7148
  783MPD2    H111604   4.020   2.217  10.817 -0.4633 -0.2379 -0.2253
  783MPD2    H211605   3.695   2.241  11.094 -0.1096  0.7403 -1.5306
  783MPD2    H311606   3.826   2.130  10.912 -1.3098  0.4759 -0.4038
  783MPD2     N11607   4.130   2.463  10.899 -0.2417 -0.1012  0.6144
  783MPD2    H511608   4.159   2.540  10.957  0.3286  0.9673 -1.0697
  783MPD2    N111609   3.765   2.471  11.207 -0.4235  0.0779 -0.6322
  783MPD2    H711610   3.683   2.419  11.235  0.2119 -0.1083  0.8522
  784MPD2     C11611   2.169   3.348   0.473  0.0483  0.4005  0.1564
  784MPD2    C111612   2.150   3.429   0.585 -1.1353  0.7420 -0.2404
  784MPD2    C211613   2.045   3.529   0.585  0.0703  0.3386  0.3136
  784MPD2    C311614   1.953   3.525   0.484  0.0988 -0.7367  0.2496
  784MPD2    C411615   1.974   3.453   0.365 -0.0967  0.1751  0.3807
  784MPD2    C511616   2.078   3.363   0.362 -0.1281  0.2594  0.0915
  784MPD2     H11617   2.037   3.587   0.676  0.1896 -0.3718  0.7805
  784MPD2    H111618   1.912   3.454   0.277  1.9142 -2.5076 -1.0675
  784MPD2    H211619   2.230   3.259   0.470 -0.0967  0.3113 -0.2511
  784MPD2    H311620   2.081   3.308   0.269  0.9170 -1.2159  0.9997
  784MPD2     N11621   1.851   3.621   0.492 -0.9323 -0.0062 -0.3388
  784MPD2    H511622   1.844   3.674   0.578 -1.3744 -2.3297  1.0296
  784MPD2    N111623   2.225   3.422   0.701 -0.3831  0.4971 -0.7090
  784MPD2    H711624   2.200   3.488   0.774 -0.2075  0.2648 -0.4391
  785MPD2     C11625   2.005   1.755  10.640 -0.5813 -0.0876 -0.4316
  785MPD2    C111626   1.991   1.865  10.564  0.0312  0.2788  0.6595
  785MPD2    C211627   1.901   1.861  10.459 -0.8828  0.1665  0.1210
  785MPD2    C311628   1.808   1.757  10.436  0.8957  0.2205 -0.6831
  785MPD2    C411629   1.811   1.656  10.532 -0.2098 -1.2311  0.2934
  785MPD2    C511630   1.906   1.658  10.622  0.0617  0.5343 -0.3052
  785MPD2     H11631   1.895   1.938  10.383  0.3832  0.6573  0.5210
  785MPD2    H111632   1.747   1.569  10.523 -0.7120 -1.1700  3.4146
  785MPD2    H211633   2.075   1.747  10.723 -0.3617  1.1159 -0.5032
  785MPD2    H311634   1.915   1.569  10.684  1.4691  0.0954 -1.1547
  785MPD2     N11635   1.711   1.764  10.335  0.5308 -0.3884 -0.1604
  785MPD2    H511636   1.719   1.849  10.280  1.3944 -0.5607 -0.2986
  785MPD2    N111637   2.079   1.972  10.586  0.0395 -0.5962  0.1078
  785MPD2    H711638   2.157   1.955  10.649 -0.5227 -0.5282  0.8254
  786MPD2     C11639   0.658   4.413  14.763  0.1434 -1.4717 -0.3215
  786MPD2    C111640   0.786   4.428  14.704 -0.1852 -0.8304 -1.3892
  786MPD2    C211641   0.878   4.501  14.776  0.1536  0.5157  0.1852
  786MPD2    C311642   0.856   4.565  14.889  0.1635  0.2583 -0.2572
  786MPD2    C411643   0.725   4.566  14.940  0.0062 -0.7931 -0.0599
  786MPD2    C511644   0.632   4.483  14.881  0.5413  0.1380 -0.7306
  786MPD2     H11645   0.977   4.506  14.732 -0.4331 -1.3070 -1.3272
  786MPD2    H111646   0.703   4.617  15.033  1.0921 -2.6696  1.2285
  786MPD2    H211647   0.570   4.365  14.722 -0.2023 -1.4599  0.3931
  786MPD2    H311648   0.532   4.475  14.923  0.2983  0.8299 -1.1742
  786MPD2     N11649   0.948   4.658  14.952 -0.1928 -0.2219 -0.1409
  786MPD2    H511650   0.908   4.704  15.033 -0.2346  1.0379 -0.8657
  786MPD2    N111651   0.819   4.381  14.579 -0.2227  0.0786 -0.1637
  786MPD2    H711652   0.910   4.406  14.540 -0.0558 -0.0565  0.1359
  787MPD2     C11653   1.281   3.917  14.348  0.2356  0.1343 -0.3959
  787MPD2    C111654   1.188   3.941  14.256 -0.5021  0.2910 -0.0224
  787MPD2    C211655   1.201   3.857  14.144  0.4466 -0.2582 -0.6720
  787MPD2    C311656   1.288   3.750  14.137 -0.0476 -0.4342 -0.8807
  787MPD2    C411657   1.379   3.728  14.237  0.5627  0.5860  0.0259
  787MPD2    C511658   1.368   3.812  14.351  0.8553  0.3968  0.0962
  787MPD2     H11659   1.141   3.871  14.054 -0.7817 -0.3293  0.1369
  787MPD2    H111660   1.446   3.644  14.247 -1.7483 -0.9217  2.9456
  787MPD2    H211661   1.272   3.984  14.432  0.9601 -1.7105  1.1543
  787MPD2    H311662   1.418   3.787  14.444 -0.0106 -1.9478 -0.0473
  787MPD2     N11663   1.276   3.668  14.018  0.4650 -0.0936 -0.2790
  787MPD2    H511664   1.203   3.687  13.950 -1.2700 -1.4740  1.2092
  787MPD2    N111665   1.088   4.038  14.272  0.0316  0.2311  0.2036
  787MPD2    H711666   1.102   4.118  14.332 -2.1844 -0.2382  1.3085
  788MPD2     C11667   2.838   3.101   0.889  0.0363  0.1132  0.5804
  788MPD2    C111668   2.787   3.046   0.776  0.2238 -0.0014  0.6211
  788MPD2    C211669   2.727   3.135   0.692  0.3301 -0.1749  0.8291
  788MPD2    C311670   2.719   3.267   0.711 -0.0291  0.4479  0.3049
  788MPD2    C411671   2.775   3.323   0.828  0.2190 -0.6697 -0.3263
  788MPD2    C511672   2.830   3.234   0.916  0.2030 -0.2762  0.0238
  788MPD2     H11673   2.676   3.095   0.605  1.8784 -0.8873  0.2414
  788MPD2    H111674   2.786   3.430   0.847  0.5774 -0.6760 -0.5049
  788MPD2    H211675   2.888   3.042   0.966  1.7004 -0.3328 -0.8455
  788MPD2    H311676   2.874   3.268   1.010  0.5559  0.1819 -0.3062
  788MPD2     N11677   2.663   3.350   0.611 -0.3802 -0.1330 -0.3174
  788MPD2    H511678   2.623   3.303   0.531  1.3764  2.2480 -2.5984
  788MPD2    N111679   2.799   2.913   0.742 -0.7482  0.2555  0.5003
  788MPD2    H711680   2.760   2.886   0.652  0.8798  2.2173 -0.8225
  789MPD2     C11681   3.344   3.051  16.088  0.2939  0.7787  0.4292
  789MPD2    C111682   3.282   2.969  16.174  0.4461  0.5953 -0.4267
  789MPD2    C211683   3.195   3.017  16.265 -0.4229 -0.2078 -0.3800
  789MPD2    C311684   3.167   3.150  16.269 -0.2573 -0.5540  0.5613
  789MPD2    C411685   3.237   3.231  16.188  0.0389 -0.3492  0.0915
  789MPD2    C511686   3.323   3.183  16.094 -0.1535  0.0591  0.5403
  789MPD2     H11687   3.144   2.946  16.330 -0.0067 -0.2343 -0.0871
  789MPD2    H111688   3.230   3.338  16.203  0.3847 -0.1242 -1.2602
  789MPD2    H211689   3.403   3.012  16.006  0.6296 -1.7378  1.8785
  789MPD2    H311690   3.370   3.254  16.027 -2.8280  0.4256 -0.9577
  789MPD2     N11691   3.078   3.208  16.365 -0.2396  0.0955 -0.4566
  789MPD2    H511692   3.045   3.302  16.346 -1.1552 -0.1298  0.0477
  789MPD2    N111693   3.296   2.824  16.182  0.1606  0.0117 -0.0444
  789MPD2    H711694   3.245   2.780  16.258  0.5627 -0.5027 -0.0717
  790MPD2     C11695   3.770   4.682  13.379  0.0045 -0.2773  0.7326
  790MPD2    C111696   3.851   4.594  13.445  0.0055 -0.6148 -0.2103
  790MPD2    C211697   3.866   4.464  13.402  0.5753  0.7662 -0.3633
  790MPD2    C311698   3.789   4.422  13.292 -0.4041 -0.2225 -0.3292
  790MPD2    C411699   3.728   4.518  13.218 -0.0522 -0.1305  0.1788
  790MPD2    C511700   3.724   4.647  13.253 -0.4623  0.5828 -0.3363
  790MPD2     H11701   3.935   4.399  13.455  1.9699  1.8706 -0.7963
  790MPD2    H111702   3.673   4.508  13.125  1.2902  0.6309 -0.7003
  790MPD2    H211703   3.744   0.041  13.417 -0.6664  0.4640 -1.6311
  790MPD2    H311704   3.670   4.720  13.193  0.4395  0.7444 -0.9707
  790MPD2     N11705   3.773   4.286  13.259  0.2275 -0.2446  0.3943
  790MPD2    H511706   3.808   4.216  13.324  1.2409  0.7764  0.9609
  790MPD2    N111707   3.905   4.636  13.567 -0.0168 -0.2002 -0.3563
  790MPD2    H711708   3.893   4.736  13.579 -2.3935 -0.7608  1.8953
  791MPD2     C11709   3.195   4.156  12.818 -0.0133  0.1146  0.5281
  791MPD2    C111710   3.242   4.032  12.853 -0.3404  0.2189  0.5339
  791MPD2    C211711   3.175   3.920  12.798 -0.3092  0.4415 -0.7312
  791MPD2    C311712   3.076   3.937  12.704 -0.0569 -0.6833 -0.1713
  791MPD2    C411713   3.034   4.062  12.655  0.2058  0.6304  0.5182
  791MPD2    C511714   3.097   4.168  12.717  0.2371  0.4714  0.3119
  791MPD2     H11715   3.203   3.817  12.819  1.5041  1.1127  0.0990
  791MPD2    H111716   2.953   4.092  12.590 -0.5238 -0.5496  0.9024
  791MPD2    H211717   3.241   4.248  12.852  0.5184  0.2940 -0.6596
  791MPD2    H311718   3.057   4.267  12.698 -1.2391 -0.7851 -3.2150
  791MPD2     N11719   3.025   3.820  12.653 -0.2240 -0.1743  0.1153
  791MPD2    H511720   3.056   3.737  12.703 -0.2065 -0.9766 -1.2243
  791MPD2    N111721   3.355   4.017  12.934 -0.5230  0.1897  0.1023
  791MPD2    H711722   3.396   4.105  12.965 -1.3985  0.8565 -0.6410
  792MPD2     C11723   3.764   3.638  11.541 -0.0288 -0.1470  0.2628
  792MPD2    C111724   3.696   3.742  11.484  0.3816  0.1790  0.2261
  792MPD2    C211725   3.558   3.733  11.470  0.6891  0.0984  0.0998
  792MPD2    C311726   3.490   3.623  11.511 -0.6803 -0.4238 -0.2952
  792MPD2    C411727   3.560   3.534  11.588 -0.3951  0.8137  0.0913
  792MPD2    C511728   3.701   3.529  11.593 -0.5481 -0.1259 -0.1415
  792MPD2     H11729   3.499   3.805  11.414  0.8795 -0.0797 -0.3357
  792MPD2    H111730   3.507   3.448  11.626  0.3850  0.7949  1.1287
  792MPD2    H211731   3.872   3.642  11.554  0.3379  2.5645 -3.4956
  792MPD2    H311732   3.742   3.449  11.653  1.7160  0.2317 -1.2069
  792MPD2     N11733   3.350   3.607  11.498 -0.4087  0.2880 -0.4417
  792MPD2    H511734   3.310   3.525  11.542  0.1008 -0.5169 -1.4632
  792MPD2    N111735   3.776   3.840  11.426  0.2203 -0.5908 -0.1656
  792MPD2    H711736   3.877   3.834  11.436  0.1419  0.2162  1.1065
  793MPD2     C11737   2.952   3.395  10.642  0.0490  0.1339  0.3009
  793MPD2    C111738   3.059   3.478  10.678 -0.4539 -0.8520 -1.0335
  793MPD2    C211739   3.075   3.515  10.811 -0.1515 -0.1419  0.1719
  793MPD2    C311740   2.991   3.467  10.914 -0.1633 -0.3364  0.4529
  793MPD2    C411741   2.885   3.382  10.873 -0.1139  0.1589 -0.1099
  793MPD2    C511742   2.872   3.345  10.746 -0.0063  0.0793  0.3220
  793MPD2     H11743   3.170   3.565  10.825  0.5133 -1.2084 -0.4849
  793MPD2    H111744   2.816   3.335  10.942 -0.9712  0.9916 -0.3960
  793MPD2    H211745   2.934   3.360  10.542  2.8464 -1.0151  0.1997
  793MPD2    H311746   2.802   3.265  10.726  0.3542 -0.4398  1.1508
  793MPD2     N11747   3.019   3.491  11.046 -0.4357 -0.4604  0.2475
  793MPD2    H511748   3.095   3.556  11.065 -1.1709  1.3796 -3.0213
  793MPD2    N111749   3.158   3.521  10.584 -0.3914  0.6091 -0.4305
  793MPD2    H711750   3.236   3.570  10.626 -1.3684  1.3293  0.5327
  794MPD2     C11751   4.149   3.745  17.118 -0.0862 -0.9709 -0.5887
  794MPD2    C111752   4.077   3.749  17.234  0.5145  0.2797 -0.1902
  794MPD2    C211753   3.948   3.782  17.232 -1.2618  0.3228  0.4036
  794MPD2    C311754   3.883   3.799  17.110  0.0148 -0.1073 -0.2984
  794MPD2    C411755   3.953   3.790  16.991 -1.0363 -0.3977 -0.0433
  794MPD2    C511756   4.086   3.771  16.997 -0.0238  0.5558 -0.4260
  794MPD2     H11757   3.893   3.808  17.321  0.4971 -1.4828  2.0311
  794MPD2    H111758   3.909   3.805  16.893  1.1543 -0.0316 -0.9583
  794MPD2    H211759   4.257   3.737  17.114  0.0320 -0.2964  1.1947
  794MPD2    H311760   4.140   3.770  16.903 -0.4640 -1.0485 -0.6673
  794MPD2     N11761   3.742   3.827  17.095 -0.3572 -0.7794 -0.0195
  794MPD2    H511762   3.714   3.830  16.997  2.8367 -0.7679 -0.9621
  794MPD2    N111763   4.137   3.729  17.361 -0.0578 -0.2375 -0.9451
  794MPD2    H711764   4.086   3.758  17.444 -0.3052 -0.2593 -1.0905
  795MPD2     C11765   1.242   0.787  13.959 -0.3267 -0.4533 -0.1534
  795MPD2    C111766   1.239   0.763  13.822  1.1584  0.4170  1.3232
  795MPD2    C211767   1.323   0.665  13.769  0.2680  0.6452 -0.0787
  795MPD2    C311768   1.426   0.614  13.845  0.3398  0.6262 -0.1937
  795MPD2    C411769   1.426   0.640  13.985 -0.3768  0.3495 -0.2341
  795MPD2    C511770   1.338   0.720  14.041 -0.6390 -0.0886 -1.1243
  795MPD2     H11771   1.329   0.640  13.663  1.7506  0.2952  0.0965
  795MPD2    H111772   1.495   0.592  14.054 -1.5059 -2.4626 -1.0485
  795MPD2    H211773   1.158   0.834  14.010  0.1055 -0.4820  0.5802
  795MPD2    H311774   1.336   0.739  14.148  0.6149 -1.2866 -0.8944
  795MPD2     N11775   1.523   0.535  13.782  0.2566 -0.5471 -0.0019
  795MPD2    H511776   1.499   0.516  13.685 -0.0321  1.7482 -0.3676
  795MPD2    N111777   1.142   0.832  13.744 -0.3380  0.3682 -0.4987
  795MPD2    H711778   1.062   0.884  13.779 -0.6825 -0.3777 -0.1932
  796MPD2     C11779   1.056   2.357  16.211 -0.2873 -1.3255 -0.0639
  796MPD2    C111780   1.178   2.413  16.220  0.6623  0.8445 -0.1694
  796MPD2    C211781   1.208   2.506  16.118 -0.6526 -0.3962 -0.4363
  796MPD2    C311782   1.121   2.534  16.019  0.3334 -0.6562 -0.4705
  796MPD2    C411783   0.999   2.471  16.016 -0.1221 -0.3301 -0.3624
  796MPD2    C511784   0.965   2.381  16.105 -0.0404  0.6320  0.2247
  796MPD2     H11785   1.304   2.554  16.117 -0.7856 -0.1414 -1.4951
  796MPD2    H111786   0.926   2.512  15.946 -0.2592  0.0837  0.0211
  796MPD2    H211787   1.029   2.282  16.285  0.7441  2.5748  4.3032
  796MPD2    H311788   0.867   2.337  16.114 -0.3109  1.3745  0.9100
  796MPD2     N11789   1.147   2.639  15.927  0.6181 -0.0076  0.5278
  796MPD2    H511790   1.233   2.692  15.941  1.3900 -0.8708 -0.9225
  796MPD2    N111791   1.256   2.374  16.333  0.0726  0.6448  0.1490
  796MPD2    H711792   1.199   2.324  16.400 -0.9816  0.2038 -1.0682
  797MPD2     C11793   2.939   2.087  17.132  0.5852  0.5862 -0.0885
  797MPD2    C111794   2.883   2.161  17.234  0.1315  0.7810 -0.4940
  797MPD2    C211795   2.746   2.195  17.234 -0.2332  0.4109  0.4714
  797MPD2    C311796   2.675   2.188  17.122  0.7768 -0.6577  0.2173
  797MPD2    C411797   2.737   2.135  17.010  0.6409  0.5520 -0.4550
  797MPD2    C511798   2.858   2.069  17.022  0.3615  0.5102  0.2353
  797MPD2     H11799   2.709   2.229  17.330  0.1127  1.1543  0.3463
  797MPD2    H111800   2.685   2.141  16.915 -1.5616 -2.1688  0.5563
  797MPD2    H211801   3.040   2.048  17.131  0.0122 -0.8234 -2.7491
  797MPD2    H311802   2.898   2.020  16.934 -0.7423  0.5985 -0.3070
  797MPD2     N11803   2.546   2.249  17.114 -0.1270 -0.2667 -0.1334
  797MPD2    H511804   2.505   2.244  17.021  2.0906  4.5496 -1.3985
  797MPD2    N111805   2.953   2.191  17.352 -0.3821  0.2436 -0.3378
  797MPD2    H711806   2.917   2.257  17.420  3.5827  1.5802  0.4654
  798MPD2     C11807   2.623   2.791  17.540  0.7813  0.0779  0.0250
  798MPD2    C111808   2.605   2.653  17.519  0.2672  0.6102 -0.4473
  798MPD2    C211809   2.714   2.569  17.553  0.5807 -0.1836  0.2248
  798MPD2    C311810   2.841   2.616  17.598 -0.1895  0.5025 -0.2034
  798MPD2    C411811   2.854   2.750  17.608 -0.0687 -0.0764  1.5775
  798MPD2    C511812   2.748   2.837  17.585 -0.4800  0.1346  0.0616
  798MPD2     H11813   2.701   2.462  17.540 -1.0857  0.2052 -1.3445
  798MPD2    H111814   2.950   2.795  17.630  0.7810 -0.4995 -1.2922
  798MPD2    H211815   2.547   2.866  17.519  0.7782  0.1781  0.3938
  798MPD2    H311816   2.765   2.944  17.595  1.7111 -0.1994 -0.1094
  798MPD2     N11817   2.937   2.515  17.601 -0.6904  0.3436  0.6381
  798MPD2    H511818   2.915   2.416  17.607  0.3143  0.0680 -0.2379
  798MPD2    N111819   2.496   2.601  17.453 -0.6070  0.0830 -0.1419
  798MPD2    H711820   2.497   2.501  17.435 -2.5711  0.3243 -1.5154
  799MPD2     C11821   0.921   3.687  14.632  0.1605  0.1400 -0.7648
  799MPD2    C111822   0.838   3.591  14.585 -0.7336 -0.3272 -0.0891
  799MPD2    C211823   0.761   3.620  14.471  0.6324 -0.3347  0.2131
  799MPD2    C311824   0.775   3.740  14.410  0.0658 -0.4602  0.0154
  799MPD2    C411825   0.866   3.826  14.450  0.2527  0.1434  1.1515
  799MPD2    C511826   0.944   3.804  14.569  0.6163  0.0673 -0.2743
  799MPD2     H11827   0.688   3.549  14.434 -0.4745  0.1408  1.4885
  799MPD2    H111828   0.870   3.923  14.400  0.4358 -1.9068 -2.7807
  799MPD2    H211829   0.975   3.665  14.723 -0.0504  0.5987 -0.5309
  799MPD2    H311830   1.022   3.869  14.607 -0.8844  1.1905  0.9090
  799MPD2     N11831   0.721   3.774  14.284 -0.2604  0.8252  0.5910
  799MPD2    H511832   0.759   3.859  14.243  0.1794 -0.4687 -1.6590
  799MPD2    N111833   0.824   3.466  14.648  0.3546  0.2913  0.1267
  799MPD2    H711834   0.761   3.403  14.599 -1.6364  0.2943  2.7147
  800MPD2     C11835   1.392   0.145  13.987  0.0859  0.1611 -0.0923
  800MPD2    C111836   1.512   0.101  13.937  0.2932  0.3602 -1.2138
  800MPD2    C211837   1.520   0.027  13.815 -0.7031 -0.1868 -0.2800
  800MPD2    C311838   1.400   4.738  13.739  0.3720 -0.1556  0.0343
  800MPD2    C411839   1.281   0.053  13.788 -0.1863 -0.0156 -0.0751
  800MPD2    C511840   1.280   0.118  13.910  0.3740  0.2075  0.3124
  800MPD2     H11841   1.614   4.736  13.769 -0.2113 -2.8628  2.5082
  800MPD2    H111842   1.196   0.048  13.720 -1.4298  0.6589  1.4391
  800MPD2    H211843   1.389   0.204  14.078  1.7437 -0.8136  0.5878
  800MPD2    H311844   1.183   0.156  13.939  0.2759  0.0903  0.1416
  800MPD2     N11845   1.423   4.665  13.621 -0.7267 -0.6649 -0.4029
  800MPD2    H511846   1.521   4.665  13.594  0.1420  1.0589  2.7427
  800MPD2    N111847   1.620   0.134  14.016 -0.2159 -0.3925 -0.1207
  800MPD2    H711848   1.587   0.161  14.108 -1.2149 -1.4596 -0.1703
  801MPD2     C11849   1.685   0.638  14.520  0.4773 -0.0316 -0.4086
  801MPD2    C111850   1.617   0.535  14.452  0.8831 -0.2995  0.4036
  801MPD2    C211851   1.485   0.520  14.460 -0.0900 -0.8018  0.0612
  801MPD2    C311852   1.413   0.614  14.531 -0.1332 -0.4190  0.3959
  801MPD2    C411853   1.474   0.722  14.588  0.6323 -0.2315 -0.6131
  801MPD2    C511854   1.610   0.730  14.579  0.0202 -0.4400  0.2520
  801MPD2     H11855   1.440   0.434  14.413 -4.6881  1.6398  0.0038
  801MPD2    H111856   1.424   0.801  14.642 -0.4299  0.3150 -2.3841
  801MPD2    H211857   1.791   0.654  14.505  0.6074  0.0917  0.6578
  801MPD2    H311858   1.665   0.817  14.615  1.1870  0.7249 -4.4000
  801MPD2     N11859   1.275   0.624  14.537  0.2910 -0.0333 -0.6508
  801MPD2    H511860   1.230   0.689  14.600 -0.1714 -1.4149  0.4370
  801MPD2    N111861   1.687   0.440  14.367 -0.7593  0.8728 -0.0124
  801MPD2    H711862   1.624   0.371  14.327  1.0439  0.7726 -2.6775
  802MPD2     C11863   1.473   1.737  17.655  0.0964  0.2617  0.1207
  802MPD2    C111864   1.369   1.654  17.682 -0.0352 -0.1812 -0.8494
  802MPD2    C211865   1.385   1.514  17.682 -0.1703  0.2890 -0.1063
  802MPD2    C311866   1.518   1.466  17.686  0.1980 -0.9489  0.1846
  802MPD2    C411867   1.624   1.556  17.674 -0.2049 -0.2801  0.2190
  802MPD2    C511868   1.602   1.689  17.653  0.1463  0.0209  0.0968
  802MPD2     H11869   1.290   1.462  17.687  0.0199 -0.2416 -2.2409
  802MPD2    H111870   1.725   1.521  17.659  0.0746  0.9652 -0.8201
  802MPD2    H211871   1.472   1.845  17.661 -1.1676  0.3906 -2.4569
  802MPD2    H311872   1.691   1.750  17.649 -0.3624  0.7093 -0.8188
  802MPD2     N11873   1.532   1.331  17.696 -0.2054  0.3973  0.1854
  802MPD2    H511874   1.443   1.283  17.686  0.3391 -1.1409  2.7077
  802MPD2    N111875   1.230   1.700  17.681  0.3454  0.8386 -0.5882
  802MPD2    H711876   1.160   1.625  17.681  2.3862 -1.0726  1.9324
  803MPD2     C11877   2.109   4.219  12.095 -0.3200 -0.2178  1.1333
  803MPD2    C111878   2.217   4.186  12.181  0.2437 -0.4419 -0.8057
  803MPD2    C211879   2.193   4.174  12.321 -0.6607  0.6759  0.2038
  803MPD2    C311880   2.065   4.179  12.372 -0.1830  0.2610 -0.4566
  803MPD2    C411881   1.966   4.197  12.279  0.0496  0.0993  0.5029
  803MPD2    C511882   1.987   4.225  12.147 -0.3390 -0.6266  0.4115
  803MPD2     H11883   2.276   4.153  12.387 -1.2846  3.1274  1.7588
  803MPD2    H111884   1.866   4.221  12.315 -0.4053 -0.0362 -0.6533
  803MPD2    H211885   2.114   4.243  11.990  1.6837  1.1184  1.5262
  803MPD2    H311886   1.902   4.242  12.082  1.7629 -0.8908 -2.4229
  803MPD2     N11887   2.044   4.148  12.514  0.5918 -0.1691 -0.1360
  803MPD2    H511888   2.121   4.150  12.581 -0.4151 -0.3429  1.0219
  803MPD2    N111889   2.346   4.177  12.133  0.4612  0.1211  0.3306
  803MPD2    H711890   2.421   4.175  12.202  1.9544  2.3473 -1.2256
  804MPD2     C11891   1.898   0.908  17.146  0.3617  0.3598  0.0866
  804MPD2    C111892   1.913   0.825  17.259  0.6320 -0.5050  0.0008
  804MPD2    C211893   1.969   0.877  17.369  0.1443  0.5044  0.4550
  804MPD2    C311894   2.044   0.994  17.363  0.5003  0.1067  0.9081
  804MPD2    C411895   2.019   1.078  17.255 -0.2180  0.5946 -0.4454
  804MPD2    C511896   1.952   1.034  17.145  0.7824 -0.6804 -0.0046
  804MPD2     H11897   1.968   0.820  17.462  2.2705 -1.6215 -0.8285
  804MPD2    H111898   2.057   1.179  17.251 -1.4206  0.9968 -1.4131
  804MPD2    H211899   1.840   0.874  17.061  1.4305 -0.9899 -0.1022
  804MPD2    H311900   1.939   1.099  17.059  0.8841 -0.8505 -0.1479
  804MPD2     N11901   2.134   1.022  17.464  0.1329 -0.1546  0.2343
  804MPD2    H511902   2.151   0.947  17.531  0.3557 -0.5447 -0.2480
  804MPD2    N111903   1.857   0.697  17.281  0.2128 -0.0523  0.5880
  804MPD2    H711904   1.852   0.656  17.373 -1.2970  0.1051  0.5857
  805MPD2     C11905   0.803   3.984  15.505  0.9020  0.6516 -0.6333
  805MPD2    C111906   0.882   3.881  15.445 -0.4756 -0.2564 -0.2436
  805MPD2    C211907   1.016   3.891  15.468 -0.1497  0.7387  0.3743
  805MPD2    C311908   1.076   3.979  15.559 -0.1035 -0.0431  0.6953
  805MPD2    C411909   0.990   4.059  15.635 -0.1495  0.0632 -0.2060
  805MPD2    C511910   0.857   4.066  15.608 -1.1548  0.1532 -0.5179
  805MPD2     H11911   1.076   3.816  15.418 -0.8984  1.2518 -1.3285
  805MPD2    H111912   1.031   4.128  15.707  0.0631  1.1063 -1.3300
  805MPD2    H211913   0.699   4.003  15.481  0.9110 -0.5316 -1.5938
  805MPD2    H311914   0.786   4.139  15.644 -1.2926  0.0654 -0.6095
  805MPD2     N11915   1.216   3.983  15.584  0.1042  0.2319 -0.0098
  805MPD2    H511916   1.267   3.927  15.515  2.8002  3.6690 -0.8251
  805MPD2    N111917   0.836   3.782  15.357  0.0734  0.4460 -0.2633
  805MPD2    H711918   0.903   3.715  15.321  0.0660  0.4670 -0.3162
  806MPD2     C11919   1.244   3.383  17.579 -0.2712  0.3927  0.0427
  806MPD2    C111920   1.208   3.449  17.690  0.3200 -1.1280  0.0648
  806MPD2    C211921   1.237   3.586  17.700 -0.4653 -0.8780  0.1081
  806MPD2    C311922   1.313   3.653  17.595 -0.2832  0.4990 -0.3210
  806MPD2    C411923   1.351   3.572  17.487  0.2253 -0.4462 -0.5317
  806MPD2    C511924   1.318   3.440  17.485 -0.3226  0.3019  0.2554
  806MPD2     H11925   1.213   3.642   0.036 -1.5548 -0.8650 -0.1919
  806MPD2    H111926   1.411   3.610  17.405  0.4411  0.2728 -0.0389
  806MPD2    H211927   1.212   3.281  17.561  1.2711  0.3028 -2.2443
  806MPD2    H311928   1.351   3.382  17.399 -0.8205  0.4808 -0.0514
  806MPD2     N11929   1.363   3.782  17.621  0.0418 -0.0273  0.0171
  806MPD2    H511930   1.341   3.820  17.713 -0.6952 -2.2380  0.7573
  806MPD2    N111931   1.140   3.370   0.040  0.3007 -0.4711 -0.5860
  806MPD2    H711932   1.115   3.275   0.013 -0.5288 -0.7105  0.9942
  807MPD2     C11933   1.097   2.703   0.195 -0.8028  0.8844  0.5821
  807MPD2    C111934   1.040   2.740   0.315  0.2717  0.8156 -0.2832
  807MPD2    C211935   1.057   2.657   0.423 -0.0320 -0.3213 -0.2684
  807MPD2    C311936   1.123   2.533   0.418  0.0247 -0.2054 -0.4085
  807MPD2    C411937   1.177   2.501   0.297  0.1496 -0.0166 -0.0069
  807MPD2    C511938   1.160   2.585   0.190  0.4504  0.6371  0.2598
  807MPD2     H11939   1.016   2.680   0.520  0.8513 -1.8649  0.4704
  807MPD2    H111940   1.237   2.412   0.279 -1.5575 -1.1368 -0.0930
  807MPD2    H211941   1.087   2.753   0.099 -0.7100 -1.1226 -0.4736
  807MPD2    H311942   1.198   2.550   0.094  1.6836 -3.3812  2.2306
  807MPD2     N11943   1.127   2.457   0.529  0.7243 -0.5218 -0.5005
  807MPD2    H511944   1.065   2.476   0.608  0.6740  0.2434 -0.7214
  807MPD2    N111945   0.982   2.873   0.341 -0.1698 -0.6808 -0.0107
  807MPD2    H711946   0.996   2.898   0.438 -1.7604  1.1131 -0.2654
  808MPD2     C11947   1.958   4.294   9.630 -0.2785 -0.3544  0.3004
  808MPD2    C111948   1.862   4.344   9.711  0.3272  0.2900  0.3205
  808MPD2    C211949   1.848   4.481   9.732 -0.7273  1.0227 -0.2137
  808MPD2    C311950   1.935   4.570   9.669 -0.7778  0.9615  0.3000
  808MPD2    C411951   2.028   4.517   9.584 -0.4632  0.3185  0.4040
  808MPD2    C511952   2.034   4.383   9.558 -0.2580 -0.2699  0.2149
  808MPD2     H11953   1.778   4.517   9.806 -1.9106 -2.0844  0.1713
  808MPD2    H111954   2.104   4.579   9.537  0.3864  0.3829  1.8815
  808MPD2    H211955   1.973   4.191   9.600  2.4377 -0.0607  0.6502
  808MPD2    H311956   2.112   4.339   9.498 -1.8862 -2.7305 -0.0989
  808MPD2     N11957   1.927   4.711   9.685 -0.1266  0.4455 -0.9707
  808MPD2    H511958   1.995   0.016   9.624  2.1145 -0.6527  0.7531
  808MPD2    N111959   1.762   4.263   9.779 -0.0685 -0.4283  0.3678
  808MPD2    H711960   1.686   4.310   9.827  1.7682 -0.2257  3.0807
  809MPD2     C11961   2.477   0.770   9.558  0.1021  0.9950 -0.2048
  809MPD2    C111962   2.483   0.661   9.646 -0.0559 -0.2035 -0.4136
  809MPD2    C211963   2.370   0.585   9.659 -0.6237  0.6265  0.5436
  809MPD2    C311964   2.254   0.604   9.585 -0.2962 -0.2440  0.9149
  809MPD2    C411965   2.250   0.719   9.514  0.5482  0.5368  0.6143
  809MPD2    C511966   2.358   0.796   9.495 -0.5935  0.0681 -0.0774
  809MPD2     H11967   2.376   0.501   9.727 -1.1658  0.0815 -0.0845
  809MPD2    H111968   2.157   0.755   9.471  1.6980  2.5822 -0.1785
  809MPD2    H211969   2.559   0.839   9.540  0.8814  0.5315  1.6359
  809MPD2    H311970   2.364   0.883   9.431 -1.7127  0.3277  0.1747
  809MPD2     N11971   2.136   0.535   9.606  0.4097  0.0019  0.1132
  809MPD2    H511972   2.049   0.575   9.572  0.7426  2.4529  2.1462
  809MPD2    N111973   2.596   0.634   9.719 -0.3558 -0.0528  0.2677
  809MPD2    H711974   2.590   0.545   9.767  1.3024 -0.5591 -0.4487
  810MPD2     C11975   1.300   4.273  10.540 -0.7278 -0.4692 -0.0609
  810MPD2    C111976   1.197   4.172  10.554  0.7835  0.4203 -0.2805
  810MPD2    C211977   1.083   4.185  10.626 -0.5507  0.1911  0.6655
  810MPD2    C311978   1.059   4.312  10.685 -0.4198  0.5657 -0.3310
  810MPD2    C411979   1.157   4.404  10.680  0.1057 -0.0155 -0.0083
  810MPD2    C511980   1.278   4.386  10.615 -0.0543  0.1200 -0.6450
  810MPD2     H11981   1.009   4.107  10.620  1.2486 -1.7387  3.0195
  810MPD2    H111982   1.144   4.505  10.717 -0.7373 -0.0820 -0.1264
  810MPD2    H211983   1.385   4.261  10.474  1.2500 -0.2020  2.4578
  810MPD2    H311984   1.351   4.466  10.617  1.5213 -1.3123 -1.5413
  810MPD2     N11985   0.929   4.355  10.733 -0.5086  0.3026 -0.2611
  810MPD2    H511986   0.915   4.454  10.748  1.6691  0.4169  1.0485
  810MPD2    N111987   1.211   4.061  10.464  0.1847  0.2878 -0.3353
  810MPD2    H711988   1.282   4.072  10.392  0.4792 -0.9924 -0.2289
  811MPD2     C11989   0.537   3.867  10.081  0.3101  0.1329  0.1032
  811MPD2    C111990   0.639   3.957  10.106 -0.9007  0.0902 -0.0175
  811MPD2    C211991   0.603   4.088  10.132  0.3324  0.3240  0.7968
  811MPD2    C311992   0.473   4.132  10.134 -0.5503 -0.4173 -0.8437
  811MPD2    C411993   0.374   4.037  10.116  0.0204 -0.6338  0.3640
  811MPD2    C511994   0.406   3.901  10.089  0.3926  0.4592  0.2724
  811MPD2     H11995   0.681   4.162  10.143 -0.1370  1.2356 -1.8912
  811MPD2    H111996   0.267   4.051  10.126  0.1648  0.0945  0.9366
  811MPD2    H211997   0.558   3.766  10.047 -0.9921 -0.0640 -0.1106
  811MPD2    H311998   0.319   3.840  10.065  1.9928 -1.2420 -1.1597
  811MPD2     N11999   0.444   4.265  10.166 -0.9775 -0.0064 -0.4544
  811MPD2    H512000   0.531   4.307  10.197 -0.8192 -1.4886  1.1185
  811MPD2    N112001   0.768   3.896  10.105  0.5460 -0.0828 -0.1104
  811MPD2    H712002   0.771   3.795  10.098 -0.9716 -0.0988 -0.5164
  812MPD2     C12003   4.485   4.024  11.965 -0.3911  0.1466 -0.4396
  812MPD2    C112004   4.523   4.121  12.054 -0.4761  0.3491 -0.0826
  812MPD2    C212005   4.626   4.095  12.151  0.7956  0.0731 -0.7033
  812MPD2    C312006   4.710   3.986  12.135  0.2661  0.3439  0.2669
  812MPD2    C412007   4.679   3.897  12.042  0.2132 -1.0569  0.3158
  812MPD2    C512008   4.565   3.916  11.963  0.1091 -0.1183 -0.2497
  812MPD2     H12009   4.666   4.173  12.215  1.1924  0.7133 -1.7317
  812MPD2    H112010   4.737   3.807  12.029  1.7424 -0.0215 -0.0278
  812MPD2    H212011   4.414   4.047  11.887 -0.3287 -2.1524 -1.1626
  812MPD2    H312012   4.541   3.830  11.902  0.3352 -0.6853  0.4663
  812MPD2     N12013   0.078   3.977  12.226  0.0080  0.9303  0.3748
  812MPD2    H512014   0.081   4.044  12.303 -0.3406 -1.1146  2.1567
  812MPD2    N112015   4.459   4.250  12.039 -0.0378 -0.5238 -0.2233
  812MPD2    H712016   4.390   4.261  11.966 -0.0646  1.7458  0.1363
  813MPD2     C12017   4.346   1.850  13.871 -0.6520 -0.5037 -0.2950
  813MPD2    C112018   4.260   1.915  13.798  0.2323  0.4176 -0.0536
  813MPD2    C212019   4.152   1.857  13.729 -0.3242  0.2419 -0.1348
  813MPD2    C312020   4.134   1.720  13.738  0.2073 -0.0793 -0.4031
  813MPD2    C412021   4.226   1.655  13.812 -0.1805 -0.4412  0.8045
  813MPD2    C512022   4.331   1.720  13.877  0.0029 -0.0146  0.5572
  813MPD2     H12023   4.078   1.914  13.674 -1.6876 -0.8155  0.6276
  813MPD2    H112024   4.227   1.548  13.827 -0.5450 -1.0643 -3.4600
  813MPD2    H212025   4.431   1.902  13.914 -0.4641  1.6202 -3.2294
  813MPD2    H312026   4.398   1.655  13.932  0.3000  0.3223  0.5921
  813MPD2     N12027   4.015   1.664  13.686 -0.6344 -0.0418 -0.0457
  813MPD2    H512028   3.956   1.730  13.636  0.3385 -0.5062 -1.8340
  813MPD2    N112029   4.259   2.056  13.787  0.3671 -0.2465  0.6104
  813MPD2    H712030   4.196   2.094  13.717  1.6626  0.7984  0.0316
  814MPD2     C12031   3.790   2.438  12.541  0.7532 -0.7451  0.2016
  814MPD2    C112032   3.884   2.427  12.444 -0.3032  1.0285  0.4209
  814MPD2    C212033   4.012   2.485  12.449 -0.0493  0.4296  0.1171
  814MPD2    C312034   4.042   2.544  12.569  0.2755  0.1768  0.3507
  814MPD2    C412035   3.946   2.567  12.666 -0.4712 -0.1680 -0.6217
  814MPD2    C512036   3.825   2.508  12.654  0.3767  0.4720  0.0566
  814MPD2     H12037   4.080   2.473  12.365 -0.1666  1.1010 -0.0744
  814MPD2    H112038   3.972   2.622  12.756 -3.3398 -0.6330  0.4905
  814MPD2    H212039   3.690   2.399  12.527  1.0367 -1.1956 -0.5437
  814MPD2    H312040   3.748   2.531  12.727  0.8843 -0.8776  1.0239
  814MPD2     N12041   4.164   2.610  12.591 -0.6099  0.1608 -0.0771
  814MPD2    H512042   4.183   2.662  12.675  3.4864  1.1444 -1.6504
  814MPD2    N112043   3.871   2.363  12.318 -0.5263 -0.3889  0.1761
  814MPD2    H712044   3.950   2.365  12.255 -0.0510 -0.4405  0.7620
  815MPD2     C12045   4.697   0.890  11.886 -0.8610  0.0305  0.1765
  815MPD2    C112046   4.609   0.787  11.916 -0.1989  0.2645  0.3863
  815MPD2    C212047   4.512   0.812  12.008 -0.8661  0.2387 -0.3875
  815MPD2    C312048   4.496   0.942  12.061 -0.1121 -0.7714  0.5254
  815MPD2    C412049   4.584   1.039  12.036  0.2216 -0.0458  0.1445
  815MPD2    C512050   4.688   1.010  11.945 -0.1989  0.1709  0.4568
  815MPD2     H12051   4.443   0.730  12.027 -0.3126 -0.0266  0.4784
  815MPD2    H112052   4.580   1.141  12.072  1.1166  0.1056 -0.1804
  815MPD2    H212053   0.043   0.872  11.822  1.8940  1.1125  3.5561
  815MPD2    H312054   0.025   1.081  11.916 -0.8600  0.9953  0.7424
  815MPD2     N12055   4.383   0.947  12.142 -0.7482  0.1536  0.3511
  815MPD2    H512056   4.330   0.861  12.146 -1.0720  0.3126 -0.5933
  815MPD2    N112057   4.620   0.673  11.835  0.1718 -0.3701 -0.4873
  815MPD2    H712058   4.678   0.683  11.751 -0.9772  4.4764 -0.7166
  816MPD2     C12059   0.116   4.657  17.376  0.0389 -0.2835 -0.0335
  816MPD2    C112060   0.167   0.047  17.354 -0.1113 -0.3165  0.3529
  816MPD2    C212061   0.294   0.055  17.296  0.5159  0.2926 -0.5141
  816MPD2    C312062   0.362   4.678  17.256  0.1326  0.3677  0.6906
  816MPD2    C412063   0.315   4.554  17.294  0.1251 -0.3973 -0.5375
  816MPD2    C512064   0.191   4.547  17.350  0.6600  0.8499  0.4606
  816MPD2     H12065   0.330   0.149  17.257  2.6685 -0.6049 -0.7209
  816MPD2    H112066   0.370   4.461  17.280  0.7722  0.1537 -1.6986
  816MPD2    H212067   0.016   4.652  17.417 -0.0839 -1.8294 -0.5336
  816MPD2    H312068   0.139   4.455  17.375  1.9407  0.5113  1.8537
  816MPD2     N12069   0.466   4.697  17.163 -0.2630  0.1641 -0.2345
  816MPD2    H512070   0.505   0.048  17.140  1.0418 -0.9845 -2.5010
  816MPD2    N112071   0.090   0.158  17.390  0.2482 -0.1433  0.2810
  816MPD2    H712072   0.000   0.140  17.434  0.0330 -0.2162 -0.1931
  817MPD2     C12073   4.306   1.064   9.849  0.4041 -0.8514 -0.8943
  817MPD2    C112074   4.183   1.024   9.791 -0.3213  0.3229 -0.3641
  817MPD2    C212075   4.083   1.123   9.784  0.8170  0.1394 -0.0356
  817MPD2    C312076   4.099   1.248   9.838  0.3315  0.3103 -0.1346
  817MPD2    C412077   4.208   1.276   9.917 -0.4946 -0.6282 -0.0224
  817MPD2    C512078   4.314   1.186   9.918 -0.3330  0.6952 -0.8407
  817MPD2     H12079   3.995   1.106   9.723  0.7294 -0.1478  0.1702
  817MPD2    H112080   4.217   1.359   9.986  0.8488 -1.1302  0.3913
  817MPD2    H212081   4.395   1.006   9.830  1.3759  0.7005 -1.0761
  817MPD2    H312082   4.400   1.212   9.979 -0.3425  0.8664 -0.8992
  817MPD2     N12083   3.994   1.339   9.832  0.1539 -0.8337  0.8767
  817MPD2    H512084   3.905   1.303   9.799 -0.6943  0.6687  1.5218
  817MPD2    N112085   4.163   0.902   9.726  0.1225 -0.0844 -0.2517
  817MPD2    H712086   4.073   0.890   9.680 -0.4518  0.1100  0.8331
  818MPD2     C12087   3.451   1.567  10.249  0.0814  0.1888  0.2147
  818MPD2    C112088   3.325   1.499  10.257  0.2296  0.1502  0.2276
  818MPD2    C212089   3.327   1.357  10.257  0.3741  0.0136  0.5645
  818MPD2    C312090   3.449   1.294  10.235  0.0039 -0.9626 -0.7725
  818MPD2    C412091   3.566   1.364  10.223  0.2923 -0.8862  0.3584
  818MPD2    C512092   3.566   1.500  10.235 -0.6275 -0.7178  0.0202
  818MPD2     H12093   3.234   1.301  10.263 -1.3239  2.8790  0.8407
  818MPD2    H112094   3.662   1.317  10.240  0.0373 -0.6327  2.4673
  818MPD2    H212095   3.459   1.674  10.258 -1.8182  0.5210 -1.9046
  818MPD2    H312096   3.657   1.559  10.231 -0.2820 -1.3444 -1.6061
  818MPD2     N12097   3.452   1.156  10.242 -0.6929 -0.0689  0.5923
  818MPD2    H512098   3.360   1.114  10.253 -0.5628 -0.1555  1.3766
  818MPD2    N112099   3.206   1.564  10.283 -0.3770  0.2980 -0.0723
  818MPD2    H712100   3.137   1.496  10.315 -0.9170 -0.0396 -1.9007
  819MPD2     C12101   1.485   3.380  15.408  0.5856  0.5815 -0.0428
  819MPD2    C112102   1.553   3.263  15.396 -0.6069  0.2052 -0.1490
  819MPD2    C212103   1.683   3.248  15.432  0.5783 -0.3255 -0.9921
  819MPD2    C312104   1.744   3.352  15.492 -0.4209  0.3832 -0.5577
  819MPD2    C412105   1.673   3.472  15.509  0.4203  0.0976 -0.5409
  819MPD2    C512106   1.545   3.485  15.469  0.2774  0.7236 -0.3413
  819MPD2     H12107   1.743   3.162  15.403 -1.4306 -2.0812  0.1037
  819MPD2    H112108   1.705   3.552  15.575 -0.8616  0.5147 -0.4246
  819MPD2    H212109   1.380   3.385  15.380  0.3923  0.1416  0.6038
  819MPD2    H312110   1.497   3.579  15.493 -1.2209 -0.5676  1.7901
  819MPD2     N12111   1.879   3.341  15.523 -0.7380 -0.1644  1.0906
  819MPD2    H512112   1.934   3.262  15.490 -2.3594 -1.9055  2.5752
  819MPD2    N112113   1.480   3.150  15.351 -0.4658  0.3260 -0.0179
  819MPD2    H712114   1.406   3.177  15.287  0.9383 -0.1527 -1.8525
  820MPD2     C12115   0.646   2.996  15.061  0.9304  0.0342 -0.5279
  820MPD2    C112116   0.749   3.080  15.097 -0.1390 -0.0142 -0.8150
  820MPD2    C212117   0.881   3.033  15.097  1.2902 -0.1683  0.3809
  820MPD2    C312118   0.900   2.902  15.077  0.1714  0.5218  0.2705
  820MPD2    C412119   0.793   2.814  15.051 -0.7292 -0.2522 -0.0116
  820MPD2    C512120   0.667   2.866  15.041  0.0228  0.7181 -0.7576
  820MPD2     H12121   0.964   3.101  15.110  1.2660 -0.6162  2.8376
  820MPD2    H112122   0.812   2.708  15.061 -1.0614 -0.0339  2.9578
  820MPD2    H212123   0.548   3.044  15.061  1.1894  0.5557  0.1544
  820MPD2    H312124   0.583   2.801  15.020 -0.4892  1.0482  0.2859
  820MPD2     N12125   1.036   2.852  15.089 -0.6530  0.1904  0.4709
  820MPD2    H512126   1.048   2.754  15.113 -0.7746  0.6808  2.5144
  820MPD2    N112127   0.722   3.218  15.118  0.1330  0.8640  0.9987
  820MPD2    H712128   0.624   3.237  15.101  0.2064  0.8231  0.5316
  821MPD2     C12129   1.645   0.336  13.220  0.1577  0.3889  0.0063
  821MPD2    C112130   1.693   0.211  13.187  0.4697  0.5866  0.0258
  821MPD2    C212131   1.829   0.180  13.206  0.0334  0.1472  0.7737
  821MPD2    C312132   1.915   0.266  13.267 -0.8594  1.5905 -0.8194
  821MPD2    C412133   1.863   0.386  13.315 -0.3051  0.0855  0.2207
  821MPD2    C512134   1.727   0.417  13.296 -0.1782 -0.0041 -0.2589
  821MPD2     H12135   1.860   0.080  13.181  0.4735  0.2596  0.8545
  821MPD2    H112136   1.919   0.463  13.365  0.4525 -0.4686  0.2200
  821MPD2    H212137   1.541   0.365  13.209 -0.2761 -1.1216  0.1596
  821MPD2    H312138   1.698   0.503  13.356 -0.0784  0.2752 -0.6118
  821MPD2     N12139   2.047   0.239  13.304  0.3325  0.5041  0.7022
  821MPD2    H512140   2.094   0.314  13.355  1.9031 -0.6444  0.9490
  821MPD2    N112141   1.608   0.108  13.144  0.1229 -0.5124 -0.1432
  821MPD2    H712142   1.648   0.015  13.144  0.6694 -0.2786  0.9730
  822MPD2     C12143   2.199   0.238  15.632  0.2679 -0.1661 -0.7478
  822MPD2    C112144   2.261   0.272  15.753  0.2009  0.3566 -0.3157
  822MPD2    C212145   2.236   0.396  15.804 -0.4361  0.1991 -0.0592
  822MPD2    C312146   2.135   0.483  15.763  0.5646 -0.2063 -0.6413
  822MPD2    C412147   2.050   0.420  15.675 -0.5295 -0.0782  0.6191
  822MPD2    C512148   2.091   0.318  15.600 -0.2012  0.2509  0.3738
  822MPD2     H12149   2.296   0.412  15.893 -1.3709  2.6535  0.1427
  822MPD2    H112150   1.952   0.461  15.655 -1.4190 -2.1533  0.6991
  822MPD2    H212151   2.242   0.164  15.566  2.9599  1.1008 -0.4006
  822MPD2    H312152   2.030   0.287  15.517  0.1801  2.1109 -0.6031
  822MPD2     N12153   2.103   0.607  15.836 -0.2972 -0.2244 -0.1257
  822MPD2    H512154   2.003   0.615  15.853 -0.4911 -1.0277 -0.8876
  822MPD2    N112155   2.362   0.189  15.808  1.0217  0.0057  0.1056
  822MPD2    H712156   2.421   0.227  15.880  2.7749  1.1185 -1.9152
  823MPD2     C12157   1.962   0.763  16.675 -0.0591 -0.4014 -0.1013
  823MPD2    C112158   1.975   0.695  16.554  0.4728  0.3636  1.1629
  823MPD2    C212159   2.013   0.561  16.562 -0.3739 -0.0075 -0.4639
  823MPD2    C312160   2.020   0.497  16.685 -0.3683  0.5250  0.1370
  823MPD2    C412161   1.994   0.565  16.801  0.4387 -0.5002  0.3202
  823MPD2    C512162   1.967   0.699  16.798  0.2357 -0.3536  0.3131
  823MPD2     H12163   2.042   0.519  16.466  0.7451  0.7403 -0.4488
  823MPD2    H112164   1.977   0.507  16.892 -0.3406  1.0065  1.1329
  823MPD2    H212165   1.942   0.870  16.677 -0.2919 -0.4660  0.8992
  823MPD2    H312166   1.949   0.747  16.894  0.0306 -0.1608  0.1784
  823MPD2     N12167   2.052   0.364  16.699 -0.1132 -0.0919  0.0012
  823MPD2    H512168   2.044   0.323  16.792  0.6680 -1.7841 -0.6718
  823MPD2    N112169   1.971   0.762  16.430  0.0112 -0.2916  0.1918
  823MPD2    H712170   1.949   0.861  16.435 -1.3705 -0.5354 -1.1656
  824MPD2     C12171   2.672   4.098  15.784  0.7020 -0.8148 -0.3916
  824MPD2    C112172   2.747   4.198  15.848 -0.1242 -0.8278 -0.2081
  824MPD2    C212173   2.874   4.166  15.889  0.3571  0.1356  0.7316
  824MPD2    C312174   2.923   4.041  15.859  0.3578 -0.3379  0.5760
  824MPD2    C412175   2.851   3.946  15.795  0.4399  0.5673  0.2552
  824MPD2    C512176   2.726   3.980  15.756 -0.1698  0.2760  0.2088
  824MPD2     H12177   2.929   4.237  15.949 -0.9636  0.2469  1.7925
  824MPD2    H112178   2.883   3.846  15.766 -0.9859 -0.4880  2.3007
  824MPD2    H212179   2.574   4.122  15.743  0.2690  1.2493  1.8541
  824MPD2    H312180   2.661   3.903  15.715 -0.3455  0.8470 -0.5775
  824MPD2     N12181   3.057   4.019  15.875 -0.0299  1.0139 -0.0429
  824MPD2    H512182   3.107   4.107  15.885 -1.1017  1.6766 -0.5570
  824MPD2    N112183   2.706   4.324  15.874  0.1077  0.2508 -0.0946
  824MPD2    H712184   2.768   4.385  15.926  0.9007  0.9326 -1.8352
  825MPD2     C12185   3.482   4.216  15.208  0.2966  0.0972  0.6682
  825MPD2    C112186   3.414   4.253  15.324 -0.6376  0.4244 -0.1359
  825MPD2    C212187   3.362   4.378  15.339  0.0564 -0.6730  0.6503
  825MPD2    C312188   3.369   4.477  15.243  0.1116 -0.1038  0.0476
  825MPD2    C412189   3.428   4.442  15.123  1.0704 -1.1682  0.3206
  825MPD2    C512190   3.483   4.312  15.106  0.6958 -0.4833  0.1995
  825MPD2     H12191   3.308   4.400  15.431 -1.2204  1.8339 -0.6992
  825MPD2    H112192   3.451   4.521  15.052  0.4837 -0.3299  1.0673
  825MPD2    H212193   3.523   4.118  15.190  0.6165  1.2579 -4.9501
  825MPD2    H312194   3.527   4.293  15.008  1.6198  0.5934  0.4108
  825MPD2     N12195   3.323   4.611  15.262 -0.0434  0.2894  0.1289
  825MPD2    H512196   3.314   4.658  15.172  1.4469  1.4010  0.5573
  825MPD2    N112197   3.410   4.153  15.428  0.3912  0.5783 -0.0318
  825MPD2    H712198   3.439   4.058  15.410 -0.9689  0.6002 -2.3190
  826MPD2     C12199   2.285   3.783  13.247 -0.1739 -0.2201 -0.0280
  826MPD2    C112200   2.405   3.760  13.311  0.1015 -0.2256 -0.1276
  826MPD2    C212201   2.438   3.854  13.411  0.4945  0.5285  0.5363
  826MPD2    C312202   2.360   3.963  13.437  0.1257  0.2845 -0.4530
  826MPD2    C412203   2.237   3.982  13.376  0.2704 -0.6155  0.3961
  826MPD2    C512204   2.198   3.884  13.281 -0.1632 -0.5596  0.4549
  826MPD2     H12205   2.521   3.833  13.478  1.4572  2.0349 -0.1822
  826MPD2    H112206   2.175   4.071  13.380 -0.5771 -1.2559  1.3005
  826MPD2    H212207   2.258   3.717  13.165 -0.2585  0.3455 -0.4499
  826MPD2    H312208   2.106   3.890  13.224  0.3613 -0.3066 -0.3532
  826MPD2     N12209   2.402   4.058  13.533 -0.5475  0.3271  0.0663
  826MPD2    H512210   2.484   4.030  13.587 -2.7478 -3.3606  1.4830
  826MPD2    N112211   2.501   3.665  13.276 -0.0386 -0.3706 -0.6369
  826MPD2    H712212   2.469   3.601  13.204 -0.7261 -1.1413  0.3361
  827MPD2     C12213   3.561   0.441  10.161  0.2940 -0.4387 -0.1301
  827MPD2    C112214   3.494   0.367  10.250  0.5296  0.4655  0.3567
  827MPD2    C212215   3.393   0.289  10.196  0.4330 -0.2267 -0.4872
  827MPD2    C312216   3.365   0.293  10.060 -0.6779  0.1579  0.3523
  827MPD2    C412217   3.430   0.376   9.974  0.2953 -1.0108 -0.0188
  827MPD2    C512218   3.526   0.446  10.030 -0.2473  0.5580  0.4236
  827MPD2     H12219   3.339   0.214  10.253 -0.3489  0.6930 -0.0280
  827MPD2    H112220   3.407   0.395   9.870  2.0458 -0.4692 -0.2925
  827MPD2    H212221   3.653   0.491  10.188  0.2819  0.0670 -1.0158
  827MPD2    H312222   3.574   0.524   9.972 -0.2859  0.6776  0.5523
  827MPD2     N12223   3.246   0.225  10.029 -0.0757  0.3580 -0.2179
  827MPD2    H512224   3.199   0.189  10.111 -0.2959  0.3206 -0.3600
  827MPD2    N112225   3.537   0.361  10.385 -0.0754  0.6178  0.1486
  827MPD2    H712226   3.619   0.417  10.407 -0.2529  0.4966  1.1563
  828MPD2     C12227   2.553   0.500  12.399 -0.1807 -0.5037 -0.5423
  828MPD2    C112228   2.506   0.433  12.289  0.5654 -0.2204  0.3801
  828MPD2    C212229   2.585   0.337  12.228  0.4149 -0.8124  0.1667
  828MPD2    C312230   2.711   0.304  12.280  0.0419 -0.2157 -0.1436
  828MPD2    C412231   2.761   0.382  12.386 -0.0688  0.5983 -0.3373
  828MPD2    C512232   2.682   0.473  12.443  0.4133 -0.0263  0.2428
  828MPD2     H12233   2.544   0.275  12.149 -2.4066  1.0104  0.2055
  828MPD2    H112234   2.857   0.375  12.436 -0.7076 -0.7506  0.7254
  828MPD2    H212235   2.494   0.571  12.456 -1.3383 -0.0439 -2.3120
  828MPD2    H312236   2.716   0.530  12.529 -0.3216 -0.1401  0.6085
  828MPD2     N12237   2.794   0.208  12.212 -0.0695 -0.4390  0.2093
  828MPD2    H512238   2.890   0.193  12.241  0.1748  1.3767  0.3420
  828MPD2    N112239   2.384   0.447  12.226 -0.6277  0.0421 -1.1647
  828MPD2    H712240   2.355   0.386  12.150 -0.5659 -2.1749  0.5725
  829MPD2     C12241   2.198   4.704  11.564 -0.6928  0.3510 -0.0151
  829MPD2    C112242   2.076   0.032  11.574  0.5089 -0.5550 -0.1713
  829MPD2    C212243   2.067   0.136  11.665  0.0948  0.3179 -0.4851
  829MPD2    C312244   2.175   0.175  11.743 -0.0312  0.1890  0.4935
  829MPD2    C412245   2.294   0.113  11.725  0.0519 -0.1454  0.1205
  829MPD2    C512246   2.306   0.011  11.639  0.2169  0.0734 -0.7695
  829MPD2     H12247   1.969   0.178  11.686  0.1648  1.1433 -1.7706
  829MPD2    H112248   2.387   0.147  11.768  0.5755 -0.3099 -0.8832
  829MPD2    H212249   2.211   4.617  11.502  4.4147  0.9454  0.2145
  829MPD2    H312250   2.398   4.694  11.629  0.0450 -0.2136 -0.7726
  829MPD2     N12251   2.173   0.278  11.843  0.0874  0.2114 -0.6562
  829MPD2    H512252   2.265   0.302  11.878  0.7334 -3.1407 -0.0596
  829MPD2    N112253   1.969   4.721  11.498 -0.4349  0.1914 -0.0900
  829MPD2    H712254   1.985   4.629  11.458 -3.7442 -0.7061  0.5836
  830MPD2     C12255   2.681   3.298  15.661 -0.2347 -0.5473  0.0302
  830MPD2    C112256   2.585   3.288  15.560  0.1560 -0.3380  0.7079
  830MPD2    C212257   2.612   3.360  15.444  0.0484  0.4069 -0.3469
  830MPD2    C312258   2.725   3.443  15.446  0.4823 -0.0306 -0.4017
  830MPD2    C412259   2.823   3.444  15.547 -0.2219  0.8115  0.4642
  830MPD2    C512260   2.799   3.371  15.654 -0.3921  0.4652 -0.1915
  830MPD2     H12261   2.550   3.364  15.355  0.6315 -1.0284 -0.8288
  830MPD2    H112262   2.912   3.505  15.543 -1.2222  2.2451  0.1262
  830MPD2    H212263   2.661   3.242  15.752 -3.2242  0.9258  0.3103
  830MPD2    H312264   2.875   3.377  15.730  0.2488 -1.3171 -0.6916
  830MPD2     N12265   2.752   3.534  15.336 -0.3434  0.1740 -0.1951
  830MPD2    H512266   2.835   3.592  15.341 -0.0556 -0.1878 -0.7847
  830MPD2    N112267   2.464   3.226  15.588 -0.1582 -0.4237 -1.0673
  830MPD2    H712268   2.445   3.192  15.682 -0.4383  1.1438 -0.5586
  831MPD2     C12269   2.533   0.656  16.213 -0.0288  0.4009 -0.3283
  831MPD2    C112270   2.526   0.535  16.138  0.1774 -0.2802  0.3493
  831MPD2    C212271   2.411   0.456  16.144 -0.1523 -0.4640 -0.1575
  831MPD2    C312272   2.299   0.487  16.214  0.5273 -0.0711 -0.9703
  831MPD2    C412273   2.307   0.614  16.278 -0.3167 -0.3472 -0.1785
  831MPD2    C512274   2.423   0.695  16.276  0.4420 -0.1540 -0.1022
  831MPD2     H12275   2.410   0.373  16.074 -2.4759 -0.0595 -0.6241
  831MPD2    H112276   2.215   0.640  16.330 -1.2241 -1.0610 -1.4483
  831MPD2    H212277   2.618   0.723  16.198 -0.1588 -0.1770 -3.7332
  831MPD2    H312278   2.426   0.793  16.322 -2.0321 -0.3796  0.5146
  831MPD2     N12279   2.175   0.414  16.212 -0.1767 -0.3902  0.3084
  831MPD2    H512280   2.098   0.459  16.261  1.1132  2.3052 -0.1746
  831MPD2    N112281   2.643   0.491  16.071  0.0119  0.4191  0.1294
  831MPD2    H712282   2.732   0.532  16.097  0.7531 -0.3474 -1.1609
  832MPD2     C12283   0.815   1.156  17.260  0.0868  0.0657  0.8868
  832MPD2    C112284   0.799   1.268  17.174  0.3074 -0.7318  0.7353
  832MPD2    C212285   0.700   1.256  17.082  0.3787 -0.7244 -0.6649
  832MPD2    C312286   0.609   1.157  17.083  0.0511  0.3762 -0.8038
  832MPD2    C412287   0.616   1.054  17.168 -0.0482  1.4711 -0.1758
  832MPD2    C512288   0.726   1.051  17.255  0.3206 -0.9171 -0.2617
  832MPD2     H12289   0.696   1.333  17.005  0.2888 -1.4356 -1.3691
  832MPD2    H112290   0.547   0.971  17.173  0.8464  0.6234 -1.8986
  832MPD2    H212291   0.895   1.150  17.333  3.3172  3.2198 -2.3906
  832MPD2    H312292   0.739   0.974  17.330 -0.0297 -0.1053  0.6289
  832MPD2     N12293   0.490   1.148  17.003 -0.2490  0.1554  0.1526
  832MPD2    H512294   0.429   1.068  17.017  1.8373 -1.7290 -1.4995
  832MPD2    N112295   0.912   1.353  17.177  0.6108  0.3161  0.6153
  832MPD2    H712296   0.974   1.329  17.255  1.0347 -1.1692 -0.1863
  833MPD2     C12297   2.871   2.442  12.720  0.2525 -1.0075  0.3299
  833MPD2    C112298   2.779   2.526  12.658 -0.1011  0.4169 -0.1187
  833MPD2    C212299   2.754   2.507  12.525 -0.4203  0.1053  0.2794
  833MPD2    C312300   2.806   2.397  12.455  0.3126  0.3264  0.0828
  833MPD2    C412301   2.890   2.306  12.524  0.6416 -0.0735 -0.0188
  833MPD2    C512302   2.920   2.334  12.659  0.1215  0.3811 -0.2937
  833MPD2     H12303   2.696   2.579  12.468 -1.1647 -1.5067 -1.0514
  833MPD2    H112304   2.931   2.221  12.471  2.4210  0.6601  0.2016
  833MPD2    H212305   2.896   2.460  12.824 -2.3991 -0.1924  0.8357
  833MPD2    H312306   2.977   2.264  12.719 -2.8283 -0.8649  1.0690
  833MPD2     N12307   2.770   2.389  12.319 -0.1488 -0.7040 -0.9058
  833MPD2    H512308   2.707   2.461  12.288  1.8288  1.1308 -0.6437
  833MPD2    N112309   2.725   2.636  12.730 -0.3596 -0.4774  0.5371
  833MPD2    H712310   2.718   2.627  12.831 -3.4398  0.2116  0.3757
  834MPD2     C12311   2.074   1.998  11.670  0.5422 -0.2024  0.2256
  834MPD2    C112312   2.165   2.057  11.590 -0.2014 -0.5707  0.5323
  834MPD2    C212313   2.256   2.152  11.653 -0.5955  0.6358 -0.6638
  834MPD2    C312314   2.259   2.163  11.790 -1.4740  0.3171 -0.2076
  834MPD2    C412315   2.157   2.102  11.863 -0.2097  0.4343 -0.1082
  834MPD2    C512316   2.062   2.024  11.802 -0.0335 -0.7719  0.3515
  834MPD2     H12317   2.320   2.212  11.590 -0.0454  1.3749  0.6081
  834MPD2    H112318   2.154   2.132  11.967 -1.8318  0.0789 -0.0479
  834MPD2    H212319   2.003   1.927  11.628  1.5421 -1.6329  0.9727
  834MPD2    H312320   1.972   1.989  11.853  0.8559  0.4756  2.7652
  834MPD2     N12321   2.358   2.241  11.851 -1.0212  0.1197  0.0863
  834MPD2    H512322   2.414   2.301  11.791 -1.1718  0.4147  0.2419
  834MPD2    N112323   2.176   2.022  11.458 -0.2011 -0.2835  0.0989
  834MPD2    H712324   2.110   1.946  11.442 -0.0532 -0.0519 -1.6949
  835MPD2     C12325   2.695   4.714  11.422 -0.8657  0.2857 -0.5489
  835MPD2    C112326   2.677   0.099  11.478  0.2358  0.0025  0.5523
  835MPD2    C212327   2.785   0.151  11.546 -0.2882 -0.0560  0.1247
  835MPD2    C312328   2.908   0.088  11.568  0.5760 -0.1652  0.7595
  835MPD2    C412329   2.922   4.704  11.512 -0.1522 -0.5356  0.0487
  835MPD2    C512330   2.817   4.649  11.433  0.3123  0.2773 -0.0044
  835MPD2     H12331   2.763   0.247  11.591  2.0591 -0.0958  1.3750
  835MPD2    H112332   3.017   4.653  11.511 -0.4075 -0.9683 -3.6362
  835MPD2    H212333   2.620   4.650  11.376 -1.7884  1.5897 -0.8601
  835MPD2    H312334   2.815   4.549  11.394 -0.3810 -0.5938  2.2307
  835MPD2     N12335   3.012   0.143  11.649 -1.0724 -0.3256  0.6622
  835MPD2    H512336   3.096   0.086  11.647 -0.2100  0.9561  0.4317
  835MPD2    N112337   2.559   0.178  11.466 -0.1895 -0.1450 -0.3632
  835MPD2    H712338   2.560   0.273  11.502 -0.7755 -0.6510  0.9568
  836MPD2     C12339   3.193   0.087  12.492  0.6501 -0.4923 -0.1981
  836MPD2    C112340   3.166   0.195  12.412 -0.0397  0.5510 -0.2965
  836MPD2    C212341   3.121   0.310  12.475 -0.5741 -0.3211 -0.0583
  836MPD2    C312342   3.081   0.306  12.606 -0.4719 -0.3992  0.3740
  836MPD2    C412343   3.077   0.190  12.683  0.2851  0.3816  0.1713
  836MPD2    C512344   3.148   0.083  12.620 -0.3321 -0.2367  0.8254
  836MPD2     H12345   3.118   0.403  12.419 -0.5551 -0.9066 -1.0347
  836MPD2    H112346   3.038   0.176  12.782  1.2439 -0.1815  0.4708
  836MPD2    H212347   3.237   4.736  12.449 -1.4815 -0.4090 -2.5639
  836MPD2    H312348   3.153   4.726  12.671  1.3652  0.3383  1.7478
  836MPD2     N12349   3.029   0.422  12.663  0.6609 -0.0473  0.3796
  836MPD2    H512350   2.994   0.416  12.758 -0.8811  0.6307 -0.1443
  836MPD2    N112351   3.202   0.185  12.279  0.2983 -0.8829  0.4556
  836MPD2    H712352   3.252   0.104  12.243  1.5816 -0.0477  0.3489
  837MPD2     C12353   0.676   0.223  10.471 -0.2326 -0.4381  0.1605
  837MPD2    C112354   0.544   0.195  10.502  0.5703  0.0773  0.3221
  837MPD2    C212355   0.470   0.294  10.568 -0.0555 -0.6702 -0.2872
  837MPD2    C312356   0.517   0.417  10.591 -0.1631 -0.0962 -0.1342
  837MPD2    C412357   0.651   0.448  10.559 -0.6778 -0.1033  0.3524
  837MPD2    C512358   0.730   0.346  10.502 -0.4362  0.0362 -0.0413
  837MPD2     H12359   0.368   0.275  10.599 -0.3167  0.6691 -0.3106
  837MPD2    H112360   0.700   0.543  10.578 -1.3462  0.1807  0.6941
  837MPD2    H212361   0.740   0.148  10.425  1.6578  1.8386 -0.8801
  837MPD2    H312362   0.831   0.379  10.481  0.3032 -2.2611 -0.1075
  837MPD2     N12363   0.429   0.508  10.656  0.8611 -0.2161 -0.0480
  837MPD2    H512364   0.348   0.458  10.690 -0.3485  2.7689  1.4315
  837MPD2    N112365   0.480   0.078  10.465 -0.2999  0.2654  0.2406
  837MPD2    H712366   0.390   0.061  10.509 -0.2220 -1.2691 -0.1980
  838MPD2     C12367   3.533   3.401  12.306  0.4769 -0.3311 -0.4239
  838MPD2    C112368   3.543   3.257  12.297 -0.2533  0.0506 -0.1075
  838MPD2    C212369   3.430   3.183  12.309 -0.2663 -0.1175 -0.1921
  838MPD2    C312370   3.313   3.235  12.350  0.0353  0.3869  0.1879
  838MPD2    C412371   3.305   3.372  12.378  0.9432 -0.0028 -0.3143
  838MPD2    C512372   3.410   3.459  12.356  0.0092  0.1476 -0.1527
  838MPD2     H12373   3.450   3.077  12.294  0.7573  0.3696 -2.3666
  838MPD2    H112374   3.219   3.415  12.427 -0.3438 -1.0768 -1.6399
  838MPD2    H212375   3.622   3.463  12.305 -0.9028  1.6224 -2.8878
  838MPD2    H312376   3.400   3.563  12.385  0.9833 -0.1771  1.3256
  838MPD2     N12377   3.209   3.143  12.370  0.0918  0.0531 -0.4885
  838MPD2    H512378   3.238   3.046  12.368 -1.0187 -0.3072  1.2559
  838MPD2    N112379   3.676   3.198  12.274  0.6197 -0.2608 -0.5063
  838MPD2    H712380   3.681   3.097  12.278 -1.9148 -0.3966 -0.5926
  839MPD2     C12381   3.437   2.517  12.050 -0.6457 -0.0152 -0.1508
  839MPD2    C112382   3.510   2.563  11.946 -0.8862  0.3169  0.4246
  839MPD2    C212383   3.621   2.638  11.968 -0.0332  0.5887 -0.1243
  839MPD2    C312384   3.654   2.684  12.096 -0.2089  0.7020  0.1104
  839MPD2    C412385   3.587   2.636  12.205  0.3868 -0.4146  0.2595
  839MPD2    C512386   3.475   2.546  12.184  0.6589  0.6293  0.4562
  839MPD2     H12387   3.674   2.673  11.880 -2.1561  0.8783 -1.2711
  839MPD2    H112388   3.606   2.674  12.305  0.2218  0.7355 -0.1374
  839MPD2    H212389   3.358   2.444  12.037 -1.7330  0.5678  3.1511
  839MPD2    H312390   3.433   2.503  12.274  2.5482  2.1100  2.0238
  839MPD2     N12391   3.762   2.770  12.123 -0.0875  0.0795  0.1813
  839MPD2    H512392   3.758   2.811  12.216  1.6150 -0.2365  0.3936
  839MPD2    N112393   3.472   2.531  11.805 -0.5316 -0.4690 -0.3041
  839MPD2    H712394   3.546   2.563  11.744  1.0714 -0.5605  1.6073
  840MPD2     C12395   4.118   0.418  10.525  0.9435 -0.4380  0.3567
  840MPD2    C112396   4.067   0.417  10.649  0.1104 -0.6597 -0.9708
  840MPD2    C212397   4.159   0.442  10.754 -0.0988 -0.1002 -0.5092
  840MPD2    C312398   4.287   0.492  10.737 -0.5256  0.8060  0.3393
  840MPD2    C412399   4.336   0.498  10.607 -0.1899  0.4967  0.5489
  840MPD2    C512400   4.250   0.458  10.509  0.5587  0.4475  0.7462
  840MPD2     H12401   4.120   0.428  10.854 -0.9464 -0.3501 -0.8750
  840MPD2    H112402   4.435   0.534  10.580 -0.3633 -0.1893 -1.0514
  840MPD2    H212403   4.053   0.395  10.441  0.8216  0.4094  0.2223
  840MPD2    H312404   4.287   0.460  10.407 -0.4187  1.6581  0.4103
  840MPD2     N12405   4.373   0.535  10.840  0.1184 -0.6945  0.2327
  840MPD2    H512406   4.464   0.570  10.813  0.3085 -0.4087  1.2294
  840MPD2    N112407   3.930   0.392  10.658 -0.3101  0.0600  0.7041
  840MPD2    H712408   3.890   0.381  10.566  0.6440  0.1579  0.2782
  841MPD2     C12409   4.130   0.374  14.634 -0.0627 -0.1215 -0.0088
  841MPD2    C112410   4.205   0.261  14.664 -0.0667 -0.3757  0.6369
  841MPD2    C212411   4.327   0.284  14.731  0.3765  0.4919 -1.4042
  841MPD2    C312412   4.371   0.410  14.764 -0.1432  0.1397 -0.1132
  841MPD2    C412413   4.301   0.518  14.719  0.3004 -0.0508  0.5329
  841MPD2    C512414   4.181   0.496  14.647  0.0857 -0.5007  0.2224
  841MPD2     H12415   4.394   0.202  14.754  0.6362  1.4278  1.1608
  841MPD2    H112416   4.333   0.621  14.732 -1.2465  0.5781 -0.6857
  841MPD2    H212417   4.039   0.358  14.578 -0.5354  0.7903  0.5019
  841MPD2    H312418   4.123   0.578  14.606 -1.6885 -2.5132 -1.3009
  841MPD2     N12419   4.475   0.416  14.863  0.4923 -0.6201  0.3476
  841MPD2    H512420   4.517   0.326  14.884 -2.8921 -2.2179  0.3992
  841MPD2    N112421   4.161   0.132  14.620  0.2361 -0.2081  0.5118
  841MPD2    H712422   4.067   0.115  14.585  0.3348  0.8823 -0.2665
  842MPD2     C12423   4.384   2.428  16.932 -0.4449  0.8571  1.2805
  842MPD2    C112424   4.295   2.324  16.963  0.6722  0.7850 -0.3617
  842MPD2    C212425   4.310   2.285  17.097  0.2124  0.4610  0.0184
  842MPD2    C312426   4.386   2.348  17.198 -0.1594  0.0118 -0.0560
  842MPD2    C412427   4.483   2.427  17.151  0.0136 -0.1426  0.4137
  842MPD2    C512428   4.473   2.474  17.027  0.1401 -0.3107  0.1901
  842MPD2     H12429   4.249   2.199  17.120  1.8804 -0.5383  0.6539
  842MPD2    H112430   4.565   2.456  17.216 -0.7451 -1.1587  1.8517
  842MPD2    H212431   4.386   2.479  16.836 -1.0010 -0.1045  0.7515
  842MPD2    H312432   4.559   2.525  16.986 -0.0374 -0.6309 -0.5645
  842MPD2     N12433   4.394   2.296  17.331  0.3277  0.3843  0.2520
  842MPD2    H512434   4.476   2.314  17.388  0.5483 -1.3837  0.5009
  842MPD2    N112435   4.195   2.281  16.879 -0.1256  0.8210  0.6065
  842MPD2    H712436   4.193   2.319  16.785 -1.0124 -1.8703 -0.4680
  843MPD2     C12437   1.773   2.190   0.107 -0.4700 -0.3759 -0.2889
  843MPD2    C112438   1.876   2.129   0.046  0.5592  0.4721  0.3110
  843MPD2    C212439   1.983   2.209   0.017  0.6641 -1.0245  0.5143
  843MPD2    C312440   1.986   2.342   0.039  0.1811 -0.2006 -0.0861
  843MPD2    C412441   1.878   2.405   0.090  0.7943 -0.1691 -0.0672
  843MPD2    C512442   1.774   2.322   0.134 -0.1429 -0.0700  0.1294
  843MPD2     H12443   2.070   2.157  17.732  1.2228 -0.2889  0.7971
  843MPD2    H112444   1.875   2.512   0.110  1.2006 -0.2874  0.6227
  843MPD2    H212445   1.682   2.142   0.143 -1.4478  2.9377  1.6245
  843MPD2    H312446   1.693   2.375   0.183  1.4658  1.1261  1.4807
  843MPD2     N12447   2.097   2.420   0.021 -0.2390 -0.1054 -0.1205
  843MPD2    H512448   2.092   2.519   0.043 -2.0702 -0.1372 -0.4338
  843MPD2    N112449   1.880   1.986   0.035  0.4963 -0.5416 -0.3615
  843MPD2    H712450   1.796   1.939   0.069 -0.9368  0.9906 -1.7373
  844MPD2     C12451   0.534   0.420  16.822  0.6729  0.3470 -0.3494
  844MPD2    C112452   0.464   0.539  16.787 -0.6162 -0.1547 -0.4347
  844MPD2    C212453   0.522   0.669  16.811 -0.5656 -0.2952 -0.1013
  844MPD2    C312454   0.654   0.673  16.845 -0.5497  0.7172 -1.0567
  844MPD2    C412455   0.725   0.559  16.882 -0.1878 -0.4282  0.7844
  844MPD2    C512456   0.660   0.436  16.878  0.2897  0.8063  0.3232
  844MPD2     H12457   0.457   0.751  16.781  1.2388  1.0651 -0.3154
  844MPD2    H112458   0.829   0.557  16.913  0.3433  1.1400 -0.8587
  844MPD2    H212459   0.496   0.320  16.804  2.1711 -0.5330  1.3493
  844MPD2    H312460   0.717   0.349  16.907 -4.2438 -2.7174 -1.3838
  844MPD2     N12461   0.733   0.789  16.834 -0.5193 -0.0017 -0.6660
  844MPD2    H512462   0.824   0.783  16.878 -0.7150  3.2715  0.1828
  844MPD2    N112463   0.343   0.539  16.715 -0.8731  0.0643 -0.0813
  844MPD2    H712464   0.296   0.629  16.715 -3.0741 -1.0832  1.0716
  845MPD2     C12465   0.764   1.852  16.541  0.3312  0.2284 -0.4449
  845MPD2    C112466   0.788   1.844  16.675  0.0186  0.2352  0.2035
  845MPD2    C212467   0.801   1.721  16.736 -0.2107 -0.7389 -0.2079
  845MPD2    C312468   0.777   1.606  16.662 -0.0252  0.5054  0.1166
  845MPD2    C412469   0.729   1.615  16.528 -0.0444  0.8353  0.1882
  845MPD2    C512470   0.726   1.740  16.465  0.6868 -0.0491  0.2083
  845MPD2     H12471   0.798   1.706  16.843  1.6733  1.6761  0.1897
  845MPD2    H112472   0.695   1.527  16.474  1.8621  0.0831  0.2436
  845MPD2    H212473   0.759   1.952  16.499 -0.3699  0.7404  0.8505
  845MPD2    H312474   0.684   1.758  16.367 -2.4343 -0.3721  1.4629
  845MPD2     N12475   0.800   1.484  16.727  0.2139  0.3585  0.1204
  845MPD2    H512476   0.844   1.477  16.819  0.6915 -1.3347 -0.2413
  845MPD2    N112477   0.793   1.972  16.739 -0.0243  0.5866  0.2373
  845MPD2    H712478   0.801   2.056  16.682  1.1920  0.2582 -0.0669
  846MPD2     C12479   2.173   2.378  14.166  0.1571 -0.6148  0.1178
  846MPD2    C112480   2.069   2.286  14.164  0.6908 -0.0732  0.0241
  846MPD2    C212481   2.021   2.230  14.280  0.6430 -0.5768  0.2055
  846MPD2    C312482   2.080   2.269  14.403  0.1859  0.3949  0.0390
  846MPD2    C412483   2.195   2.347  14.400 -0.1756 -0.3204 -0.3684
  846MPD2    C512484   2.242   2.401  14.282  0.0566  0.1108 -0.4266
  846MPD2     H12485   1.939   2.160  14.281 -1.0622  1.4324 -0.7695
  846MPD2    H112486   2.250   2.378  14.489  1.3554 -0.9626 -1.0919
  846MPD2    H212487   2.209   2.416  14.071  0.3544 -1.4153 -0.1232
  846MPD2    H312488   2.330   2.465  14.288  0.6229 -0.3465 -3.6203
  846MPD2     N12489   2.020   2.234  14.528  0.2797  0.2120 -0.6274
  846MPD2    H512490   1.934   2.182  14.516 -0.0321  0.9774 -1.6656
  846MPD2    N112491   2.020   2.251  14.037 -0.2594  0.4902 -0.4638
  846MPD2    H712492   2.069   2.284  13.955 -2.1591  2.1676 -0.9157
  847MPD2     C12493   1.924   3.307  14.405  0.5315  0.3082 -0.5498
  847MPD2    C112494   2.004   3.393  14.329 -0.1033 -0.1752 -0.3750
  847MPD2    C212495   2.138   3.369  14.307  0.2719 -0.1264  0.2578
  847MPD2    C312496   2.194   3.260  14.362 -0.3852 -0.4771 -0.1949
  847MPD2    C412497   2.122   3.166  14.428 -0.8899  0.4820  0.0605
  847MPD2    C512498   1.987   3.188  14.449 -0.0151  0.4077  0.5209
  847MPD2     H12499   2.192   3.435  14.240  1.8024 -1.6537  0.0053
  847MPD2    H112500   2.173   3.076  14.458 -0.5242  1.3381  1.9877
  847MPD2    H212501   1.818   3.329  14.412  0.3568 -0.9852  0.8712
  847MPD2    H312502   1.929   3.107  14.493  0.9713  0.3049  1.6473
  847MPD2     N12503   2.330   3.241  14.332 -0.0640 -0.2738  0.2724
  847MPD2    H512504   2.376   3.311  14.274 -1.4331 -1.4346 -2.2104
  847MPD2    N112505   1.954   3.508  14.267  0.3699 -0.7979 -0.2613
  847MPD2    H712506   2.014   3.570  14.214 -2.5794  0.6354 -1.8735
  848MPD2     C12507   4.702   1.663  16.696  0.3520  0.3395 -0.1634
  848MPD2    C112508   0.052   1.621  16.591 -0.3335  0.2759 -0.1299
  848MPD2    C212509   0.084   1.711  16.493 -0.7867 -0.7188  0.0195
  848MPD2    C312510   0.030   1.838  16.488 -0.8141  0.0142 -1.0125
  848MPD2    C412511   4.670   1.870  16.578  0.0247  0.0135 -0.0661
  848MPD2    C512512   4.640   1.782  16.680 -0.6306  0.1294 -0.2119
  848MPD2     H12513   0.163   1.686  16.423 -0.1640 -1.4201  0.9732
  848MPD2    H112514   4.611   1.961  16.569 -2.2762 -1.3111  1.7889
  848MPD2    H212515   4.676   1.609  16.787 -0.3185 -0.3535 -0.7675
  848MPD2    H312516   4.562   1.810  16.750  0.2516  0.2441  0.7221
  848MPD2     N12517   0.048   1.935  16.386  0.1475 -0.0126 -0.6314
  848MPD2    H512518   4.728   2.018  16.388  0.0345 -0.0424 -2.2703
  848MPD2    N112519   0.122   1.499  16.606  0.1992  0.1395 -0.5242
  848MPD2    H712520   0.214   1.492  16.562  0.9811  1.1309  0.9704
  849MPD2     C12521   3.968   1.615  14.822  0.2369 -0.0057 -0.5429
  849MPD2    C112522   3.924   1.488  14.777 -0.6592  0.0783 -0.7974
  849MPD2    C212523   3.981   1.371  14.841  1.3804 -0.3144  0.2298
  849MPD2    C312524   4.085   1.386  14.933  0.9977 -0.0492 -0.3388
  849MPD2    C412525   4.128   1.515  14.967 -0.4589 -0.2453  0.4424
  849MPD2    C512526   4.070   1.626  14.920 -0.4778 -0.4388 -0.0497
  849MPD2     H12527   3.947   1.272  14.811  0.3786  0.2817 -0.5699
  849MPD2    H112528   4.203   1.527  15.045  0.5442 -2.9857 -0.0987
  849MPD2    H212529   3.913   1.702  14.788 -0.0009 -0.7830 -2.1208
  849MPD2    H312530   4.110   1.723  14.946  2.0489 -1.2746 -0.7383
  849MPD2     N12531   4.157   1.275  14.982  0.0279 -0.1269  0.3115
  849MPD2    H512532   4.221   1.294  15.059  0.8904  1.0220 -0.6810
  849MPD2    N112533   3.831   1.469  14.674 -0.2341  0.7415 -0.9886
  849MPD2    H712534   3.805   1.373  14.654 -0.1745  0.6516 -0.6367
  850MPD2     C12535   2.205   4.216  14.644 -0.4762 -0.3883 -0.2430
  850MPD2    C112536   2.199   4.344  14.700  0.3922  0.3296  0.6054
  850MPD2    C212537   2.310   4.408  14.744  0.7119  0.1542 -0.4724
  850MPD2    C312538   2.432   4.343  14.738 -0.0022  0.3595 -0.5666
  850MPD2    C412539   2.435   4.212  14.695  0.2245 -0.2364  0.2021
  850MPD2    C512540   2.327   4.155  14.639 -0.4846 -0.0838  0.4944
  850MPD2     H12541   2.309   4.509  14.783 -2.6104  0.4491 -1.3517
  850MPD2    H112542   2.530   4.160  14.688  0.9304  0.8052  2.0295
  850MPD2    H212543   2.116   4.169  14.606  0.5978  0.3974 -3.7687
  850MPD2    H312544   2.338   4.059  14.590  0.7133  1.0758 -1.4847
  850MPD2     N12545   2.556   4.401  14.777  0.3239 -0.1569  0.3693
  850MPD2    H512546   2.634   4.336  14.771 -1.2425 -1.9625 -0.4448
  850MPD2    N112547   2.065   4.384  14.721 -0.2820  0.3180  0.3086
  850MPD2    H712548   1.997   4.342  14.660 -0.0584 -1.7657  1.5127
  851MPD2     C12549   2.586   4.421  15.405 -0.5671 -0.4358  0.0749
  851MPD2    C112550   2.552   4.387  15.274 -0.8892  0.0528  0.3700
  851MPD2    C212551   2.600   4.273  15.216 -0.6078 -0.0928 -0.7220
  851MPD2    C312552   2.682   4.193  15.288 -0.2467  0.6334 -0.2086
  851MPD2    C412553   2.720   4.227  15.419  0.7068 -0.2671 -0.3925
  851MPD2    C512554   2.674   4.343  15.471  0.0960  0.1962  0.0797
  851MPD2     H12555   2.566   4.242  15.118 -1.6433 -2.2998  0.3523
  851MPD2    H112556   2.781   4.171  15.489  0.5577  0.1898  0.1041
  851MPD2    H212557   2.546   4.509  15.454 -0.1829  0.6188 -1.5327
  851MPD2    H312558   2.702   4.377  15.570 -1.9976  3.3803 -0.4341
  851MPD2     N12559   2.722   4.076  15.228  0.4886 -0.6002 -0.0791
  851MPD2    H512560   2.681   4.056  15.138 -0.6320 -1.7305  0.6838
  851MPD2    N112561   2.441   4.462  15.218 -0.6500  0.9536  0.4521
  851MPD2    H712562   2.407   4.543  15.271  0.8392  1.8003  0.1037
  852MPD2     C12563   1.777   1.641   9.585  0.4898 -0.0236  0.4723
  852MPD2    C112564   1.823   1.718   9.685 -0.6212  0.2480  0.2645
  852MPD2    C212565   1.946   1.781   9.672  0.5110 -0.4200 -0.2369
  852MPD2    C312566   2.023   1.768   9.558 -0.0596  0.6936 -0.4101
  852MPD2    C412567   1.983   1.678   9.464  0.5853 -0.7936 -0.8828
  852MPD2    C512568   1.861   1.619   9.482  0.0280 -0.0866 -0.0031
  852MPD2     H12569   1.983   1.839   9.756 -1.2062  1.0783 -0.5261
  852MPD2    H112570   2.046   1.681   9.376  1.5167  2.2729 -0.1142
  852MPD2    H212571   1.679   1.594   9.579 -0.0836  1.2634 -0.1990
  852MPD2    H312572   1.829   1.548   9.407 -0.7962 -0.2065  0.4610
  852MPD2     N12573   2.141   1.844   9.554  1.0073 -0.4574  0.5430
  852MPD2    H512574   2.154   1.919   9.622 -0.9874  1.4092 -1.1532
  852MPD2    N112575   1.754   1.738   9.809  0.1856 -0.0902 -0.4738
  852MPD2    H712576   1.804   1.800   9.871  3.2773 -1.5664 -1.4616
  853MPD2     C12577   3.550   1.572  12.556  0.0511  0.0267  0.0887
  853MPD2    C112578   3.466   1.655  12.486  0.1558  0.2475  0.1572
  853MPD2    C212579   3.474   1.664  12.347  0.2387 -0.2841 -0.1595
  853MPD2    C312580   3.575   1.592  12.284  0.4545 -0.7623  0.4727
  853MPD2    C412581   3.664   1.517  12.356 -0.1284  0.1835  0.2558
  853MPD2    C512582   3.647   1.502  12.490  0.4478 -0.1264  0.1427
  853MPD2     H12583   3.408   1.731  12.293 -0.1672  0.8196  1.6993
  853MPD2    H112584   3.744   1.469  12.301 -0.6933 -0.1573 -0.2777
  853MPD2    H212585   3.532   1.542  12.659  0.9742  0.1181  0.2708
  853MPD2    H312586   3.713   1.437  12.545  1.4332  0.6823 -0.0969
  853MPD2     N12587   3.584   1.599  12.141 -0.5440 -0.0857 -0.6635
  853MPD2    H512588   3.647   1.538  12.089  1.3269  1.4539 -0.2028
  853MPD2    N112589   3.375   1.724  12.562  0.2327 -0.7287 -0.4642
  853MPD2    H712590   3.385   1.715  12.663 -0.3682  2.6475 -0.0894
  854MPD2     C12591   0.430   2.032  13.087  0.5844  0.2009 -0.2682
  854MPD2    C112592   0.473   2.028  12.958  0.1053 -0.2171 -0.2080
  854MPD2    C212593   0.601   1.983  12.922 -0.0640 -0.0501  0.6762
  854MPD2    C312594   0.690   1.928  13.021  0.2622 -0.4091  0.3341
  854MPD2    C412595   0.634   1.928  13.149  0.2712  0.8018  0.0629
  854MPD2    C512596   0.511   1.979  13.180  0.4986  0.5658  0.8964
  854MPD2     H12597   0.630   1.983  12.817  0.5249 -0.6086  0.8389
  854MPD2    H112598   0.693   1.887  13.230  0.8204  0.7067 -0.3887
  854MPD2    H212599   0.330   2.055  13.121  0.7375  1.2891 -0.5539
  854MPD2    H312600   0.482   1.966  13.284  2.2295  0.8444  1.4178
  854MPD2     N12601   0.823   1.884  12.987  0.9766 -0.2508  0.2150
  854MPD2    H512602   0.878   1.858  13.068  0.5345  0.4680  0.7512
  854MPD2    N112603   0.385   2.084  12.862 -0.1788  0.3361  0.2602
  854MPD2    H712604   0.307   2.138  12.898  0.3282  1.2525 -0.0166
  855MPD2     C12605   0.870   1.803  13.620 -0.5959  0.2656 -0.1860
  855MPD2    C112606   0.966   1.713  13.578 -0.2024 -0.1305 -0.5229
  855MPD2    C212607   1.038   1.737  13.464  0.1586  0.3289 -0.3397
  855MPD2    C312608   1.007   1.842  13.379  0.5964  0.2973  0.2337
  855MPD2    C412609   0.910   1.929  13.418 -0.7616  0.1745  0.7712
  855MPD2    C512610   0.840   1.905  13.535 -0.6116 -0.2490  0.0054
  855MPD2     H12611   1.114   1.661  13.446 -0.7294 -0.8256  0.7223
  855MPD2    H112612   0.886   2.012  13.352  0.9299 -1.2899 -1.7340
  855MPD2    H212613   0.813   1.788  13.711 -0.3339  0.7399  0.0526
  855MPD2    H312614   0.772   1.984  13.563 -2.1877 -1.1746 -1.2078
  855MPD2     N12615   1.074   1.864  13.259 -0.3991 -0.5323  0.2778
  855MPD2    H512616   1.064   1.959  13.224 -1.5581 -1.1754 -1.1342
  855MPD2    N112617   1.007   1.604  13.659  0.4049 -0.2563 -0.1413
  855MPD2    H712618   1.095   1.555  13.645  0.4674 -0.6351  1.4808
  856MPD2     C12619   3.088   2.433  13.791  0.2863 -0.0961  0.5370
  856MPD2    C112620   3.064   2.559  13.853 -0.3979  0.4781  0.5299
  856MPD2    C212621   2.960   2.637  13.800  0.6173 -0.4410 -0.7944
  856MPD2    C312622   2.875   2.586  13.705 -0.8002  0.4507 -0.5175
  856MPD2    C412623   2.896   2.460  13.654 -0.6009  0.1536  0.5041
  856MPD2    C512624   2.996   2.378  13.701 -0.7991  0.7613 -0.3655
  856MPD2     H12625   2.939   2.728  13.855 -0.5900  0.0821 -2.1433
  856MPD2    H112626   2.826   2.416  13.584  0.6079  0.3648 -0.8365
  856MPD2    H212627   3.170   2.369  13.820  1.0396 -0.6268 -2.7280
  856MPD2    H312628   3.002   2.279  13.658  0.5758 -0.4844  2.7067
  856MPD2     N12629   2.747   2.647  13.668 -0.7233 -0.6427  0.2848
  856MPD2    H512630   2.684   2.605  13.601  0.7811  0.1134 -1.6051
  856MPD2    N112631   3.162   2.619  13.931 -0.2038 -0.2679  0.0589
  856MPD2    H712632   3.148   2.717  13.955  1.9443 -0.5220  2.4708
  857MPD2     C12633   4.211   0.035  12.796  0.0502 -0.4364 -0.0101
  857MPD2    C112634   4.341   0.008  12.804 -0.3760  0.0740  0.4415
  857MPD2    C212635   4.427   0.083  12.875  0.3820  0.9240 -0.1066
  857MPD2    C312636   4.377   0.198  12.932  0.0724 -0.7593  0.0487
  857MPD2    C412637   4.245   0.241  12.916  0.0622 -0.1457 -0.0776
  857MPD2    C512638   4.161   0.151  12.857  0.6321 -0.0416 -0.4110
  857MPD2     H12639   4.530   0.054  12.893 -1.0186 -2.2333  2.7608
  857MPD2    H112640   4.201   0.332  12.955 -0.5096 -0.4283 -0.0600
  857MPD2    H212641   4.149   4.707  12.737  0.0141  0.9009 -1.4772
  857MPD2    H312642   4.054   0.169  12.856  0.3602 -1.4457  2.5243
  857MPD2     N12643   4.463   0.271  13.021 -0.0353  0.3493 -0.1003
  857MPD2    H512644   4.560   0.240  13.020  0.2060  1.0468  2.0947
  857MPD2    N112645   4.376   4.626  12.733  0.8361  0.1845  0.5549
  857MPD2    H712646   4.311   4.567  12.682  1.4008 -1.4410  1.7203
  858MPD2     C12647   1.137   4.241  16.374  0.2430 -0.0335  1.0365
  858MPD2    C112648   1.115   4.105  16.409  0.9276  0.3840 -0.8733
  858MPD2    C212649   1.101   4.084  16.541  0.0095 -0.6903  0.0572
  858MPD2    C312650   1.108   4.188  16.634 -0.0908  0.5217 -0.1421
  858MPD2    C412651   1.144   4.317  16.603 -0.5844 -0.0672  0.2429
  858MPD2    C512652   1.155   4.345  16.469 -0.1854  0.8340 -0.2223
  858MPD2     H12653   1.073   3.983  16.567 -2.5600 -0.0415 -0.1713
  858MPD2    H112654   1.133   4.405  16.666 -2.6316 -0.3558  0.3021
  858MPD2    H212655   1.126   4.275  16.271 -0.9876 -0.5551  0.9909
  858MPD2    H312656   1.180   4.446  16.439  1.6114  0.5776  0.4419
  858MPD2     N12657   1.061   4.175  16.768 -0.1813  0.5251 -0.1196
  858MPD2    H512658   1.074   4.252  16.833  1.1477  0.2127 -0.0240
  858MPD2    N112659   1.114   4.003  16.308 -0.0931  0.1251 -0.2060
  858MPD2    H712660   1.124   4.030  16.210  1.8361 -1.1504 -0.3718
  859MPD2     C12661   3.947   1.188  15.245  0.1406  0.0859 -0.2549
  859MPD2    C112662   4.002   1.224  15.367  0.7080 -0.3229 -0.1315
  859MPD2    C212663   3.996   1.135  15.473  0.5233 -0.4769 -0.1647
  859MPD2    C312664   3.944   1.011  15.453  0.7047 -0.2472 -0.1399
  859MPD2    C412665   3.901   0.970  15.325 -0.5409 -0.8340  0.4391
  859MPD2    C512666   3.899   1.066  15.221 -0.0959 -0.1213  0.0001
  859MPD2     H12667   4.027   1.164  15.573  1.6769 -0.8168 -0.4201
  859MPD2    H112668   3.849   0.875  15.316 -2.7500  0.5445 -1.2351
  859MPD2    H212669   3.938   1.259  15.163 -0.5790 -0.1296 -0.3586
  859MPD2    H312670   3.854   1.042  15.125 -0.7713  1.9084 -0.1800
  859MPD2     N12671   3.929   0.912  15.554 -0.1833 -0.1327  0.7537
  859MPD2    H512672   3.906   0.820  15.518 -1.3788  0.7014 -0.6025
  859MPD2    N112673   4.067   1.347  15.373  0.5584  0.6585  0.2391
  859MPD2    H712674   4.059   1.416  15.299  0.3215  1.2170  0.7926
  860MPD2     C12675   1.916   1.442  11.653  0.3243 -0.7148  0.3261
  860MPD2    C112676   1.889   1.548  11.735 -0.0548  0.0012 -0.5868
  860MPD2    C212677   1.759   1.561  11.783  0.1407  0.7784 -0.0274
  860MPD2    C312678   1.657   1.479  11.741 -0.9682  0.1819 -0.1542
  860MPD2    C412679   1.691   1.374  11.650 -0.3524 -0.3686  0.2703
  860MPD2    C512680   1.820   1.350  11.605 -0.3186  0.2327  0.1311
  860MPD2     H12681   1.735   1.634  11.859 -0.7148  0.5976 -0.1282
  860MPD2    H112682   1.613   1.326  11.593  0.4987  0.0455 -1.2495
  860MPD2    H212683   2.019   1.423  11.624 -0.1072 -3.4550  0.5391
  860MPD2    H312684   1.838   1.274  11.530  1.5435 -0.2957  1.0973
  860MPD2     N12685   1.531   1.503  11.798  0.1382 -0.7787 -0.1294
  860MPD2    H512686   1.514   1.584  11.857  0.0103 -0.6559 -0.3357
  860MPD2    N112687   1.994   1.624  11.794 -0.0121 -0.4916 -0.7608
  860MPD2    H712688   1.973   1.653  11.889  0.0344  0.3095 -0.9975
  861MPD2     C12689   4.582   3.862  11.584 -0.1278  0.6710 -0.1938
  861MPD2    C112690   4.668   3.964  11.546  0.5432 -0.2523  0.7785
  861MPD2    C212691   4.648   4.030  11.430  0.4014 -0.6147  0.2536
  861MPD2    C312692   4.536   4.007  11.351  0.2712  0.0586  0.3622
  861MPD2    C412693   4.446   3.904  11.386 -0.5446  0.6890 -0.3055
  861MPD2    C512694   4.474   3.836  11.503  0.2827 -0.1044  0.4442
  861MPD2     H12695   4.710   4.116  11.407  1.7659 -1.5216  0.5452
  861MPD2    H112696   4.359   3.883  11.324 -0.4853 -0.3615 -0.0412
  861MPD2    H212697   4.589   3.813  11.680  0.1327  0.6179 -0.2408
  861MPD2    H312698   4.409   3.755  11.534 -0.8367  0.2933 -0.8424
  861MPD2     N12699   4.520   4.086  11.235  0.5212 -0.0597 -0.7987
  861MPD2    H512700   4.605   4.138  11.213  0.9023 -0.4068 -0.1448
  861MPD2    N112701   0.038   4.004  11.631 -0.0717  0.7790  0.1155
  861MPD2    H712702   0.074   4.096  11.606  0.9837  0.1394 -0.7191
  862MPD2     C12703   4.162   4.171  10.492  0.3210  0.1528 -0.1111
  862MPD2    C112704   4.258   4.106  10.561 -0.0668 -0.3385 -0.6591
  862MPD2    C212705   4.323   3.991  10.517  0.1155  0.3259 -0.0436
  862MPD2    C312706   4.277   3.941  10.399 -0.5481  0.5710 -0.3855
  862MPD2    C412707   4.164   3.986  10.340 -0.2911  0.3443  0.0866
  862MPD2    C512708   4.111   4.103  10.383 -0.0580  0.5433 -0.3321
  862MPD2     H12709   4.412   3.958  10.569  0.2463 -1.7550 -1.5889
  862MPD2    H112710   4.133   3.947  10.243 -0.1299  0.4661 -0.0146
  862MPD2    H212711   4.116   4.268  10.507  0.8622  0.6900 -1.8647
  862MPD2    H312712   4.036   4.152  10.322 -1.5594 -0.1964  0.9152
  862MPD2     N12713   4.343   3.838  10.337  0.3598 -0.8348 -0.2552
  862MPD2    H512714   4.293   3.780  10.269 -0.1141 -0.7306  0.0067
  862MPD2    N112715   4.301   4.157  10.684 -0.6819  0.0221  0.0569
  862MPD2    H712716   4.370   4.105  10.736 -0.5962  1.7249  1.6406
  863MPD2     C12717   4.313   3.240  16.604  0.3015  0.3573  0.0101
  863MPD2    C112718   4.212   3.161  16.644  0.6304 -0.1479  0.0233
  863MPD2    C212719   4.234   3.093  16.765  0.2827  0.9062 -0.1499
  863MPD2    C312720   4.357   3.094  16.825 -0.6081 -0.1727  0.3467
  863MPD2    C412721   4.455   3.172  16.776  0.3186  0.1120  0.2154
  863MPD2    C512722   4.435   3.256  16.670  0.0336 -0.4994  0.0224
  863MPD2     H12723   4.152   3.041  16.814 -0.1192  0.9355 -0.7906
  863MPD2    H112724   4.545   3.176  16.837 -1.0727  0.0353  2.2656
  863MPD2    H212725   4.288   3.294  16.514  0.4950  0.1845 -0.1467
  863MPD2    H312726   4.508   3.328  16.636  1.4841 -2.5522 -1.2440
  863MPD2     N12727   4.396   2.995  16.924  0.1629 -0.0537 -0.4537
  863MPD2    H512728   4.487   3.007  16.966 -0.9619  2.9449  1.0676
  863MPD2    N112729   4.086   3.164  16.571  0.0308  0.2185 -0.3642
  863MPD2    H712730   4.078   3.210  16.481 -2.2014  1.0788  0.2769
  864MPD2     C12731   4.558   3.888  17.242  0.4779 -0.0681  0.6519
  864MPD2    C112732   4.603   3.843  17.119  0.2902  0.1584  0.1702
  864MPD2    C212733   4.693   3.911  17.042 -0.0689 -0.1759 -0.2208
  864MPD2    C312734   4.727   4.041  17.092 -0.0049 -0.6325 -0.3787
  864MPD2    C412735   4.690   4.089  17.215  0.2219 -0.5829 -0.5581
  864MPD2    C512736   4.605   4.008  17.291 -0.3039 -0.6213 -0.2397
  864MPD2     H12737   4.721   3.886  16.941  1.1458 -0.8175  0.2743
  864MPD2    H112738   4.726   4.187  17.243 -0.1780  0.1604 -2.6700
  864MPD2    H212739   4.484   3.844  17.308 -0.0867  0.6896  0.5324
  864MPD2    H312740   4.582   4.046  17.390  1.5453 -1.8533  0.6478
  864MPD2     N12741   0.081   4.114  17.015 -0.3171 -0.2171 -0.1061
  864MPD2    H512742   0.114   4.204  17.050  2.1641 -1.9742  1.9986
  864MPD2    N112743   4.541   3.722  17.071  0.4867 -0.1565  0.4863
  864MPD2    H712744   4.475   3.673  17.130 -1.1335 -0.2106 -1.3706
  865MPD2     C12745   0.047   4.637  16.208  0.6525 -0.3936  0.5651
  865MPD2    C112746   0.012   4.518  16.267  0.4615 -0.3132  0.8061
  865MPD2    C212747   0.052   4.501  16.400  0.0754 -0.3231  0.1591
  865MPD2    C312748   0.137   4.588  16.467  0.1343  0.4600 -0.0555
  865MPD2    C412749   0.179   4.706  16.402 -0.3077 -0.2562  0.4780
  865MPD2    C512750   0.134   4.723  16.275  1.0892 -0.2715 -0.7081
  865MPD2     H12751   0.015   4.411  16.448  1.1850 -1.8227 -1.8485
  865MPD2    H112752   0.254   0.034  16.442 -0.3786 -0.5289  1.0687
  865MPD2    H212753   0.015   4.661  16.107 -0.0793  4.1280  1.8541
  865MPD2    H312754   0.173   0.072  16.225  2.5031  0.3457  1.5119
  865MPD2     N12755   0.190   4.552  16.591 -0.0292  0.3693  0.5878
  865MPD2    H512756   0.277   4.592  16.626  0.9304 -1.2743  0.1008
  865MPD2    N112757   4.669   4.426  16.198 -0.3700 -0.7753  0.5277
  865MPD2    H712758   4.648   4.445  16.100 -0.8274  0.2748  0.8338
  866MPD2     C12759   0.706   4.027  11.006 -0.0522  0.7207  0.3736
  866MPD2    C112760   0.742   4.140  11.079 -0.2576 -0.0585 -0.3809
  866MPD2    C212761   0.641   4.217  11.129  0.3726  0.2064  0.7300
  866MPD2    C312762   0.513   4.201  11.095  0.1923  0.3987 -0.0724
  866MPD2    C412763   0.476   4.096  11.023 -0.1002  0.5210  0.3982
  866MPD2    C512764   0.571   4.012  10.974  0.2998  0.4088 -0.7198
  866MPD2     H12765   0.669   4.298  11.195 -0.0575  0.6890  0.3243
  866MPD2    H112766   0.373   4.070  11.002 -0.6362  1.5721  1.7328
  866MPD2    H212767   0.780   3.950  10.987 -0.6270  0.3647 -0.4307
  866MPD2    H312768   0.539   3.936  10.904 -0.0985 -0.7928  0.7836
  866MPD2     N12769   0.409   4.286  11.131 -0.3789 -0.7246 -0.5911
  866MPD2    H512770   0.317   4.286  11.089  0.1031  1.4911 -1.6343
  866MPD2    N112771   0.876   4.175  11.079  0.1647 -0.5403  0.9579
  866MPD2    H712772   0.939   4.105  11.040 -0.4101  0.0271 -0.9801
  867MPD2     C12773   2.886   4.186  17.176 -0.0739 -0.0853 -0.0832
  867MPD2    C112774   3.004   4.186  17.242 -0.9291  0.3770 -0.2897
  867MPD2    C212775   3.028   4.281  17.338 -0.4453  0.1419 -0.0048
  867MPD2    C312776   2.933   4.379  17.359  0.6855  0.1410 -0.0497
  867MPD2    C412777   2.815   4.380  17.286  0.4399 -0.6483  0.2232
  867MPD2    C512778   2.794   4.285  17.193  0.1267 -0.5871  0.7348
  867MPD2     H12779   3.123   4.278  17.390 -1.5264  0.7968  2.0001
  867MPD2    H112780   2.743   4.461  17.296  1.9635  0.5569  1.4428
  867MPD2    H212781   2.854   4.114  17.101 -1.0619 -0.0553  0.3043
  867MPD2    H312782   2.703   4.286  17.134  1.6562 -1.5658 -1.6949
  867MPD2     N12783   2.954   4.483  17.450  0.5070  0.4978  0.2405
  867MPD2    H512784   2.878   4.550  17.458 -0.6240 -0.4092 -3.1039
  867MPD2    N112785   3.098   4.084  17.214 -0.7531 -0.6211 -0.7953
  867MPD2    H712786   3.075   4.017  17.141  1.5079 -3.5478  1.1608
  868MPD2     C12787   0.247   3.079  13.102 -0.1427  0.0754 -0.2485
  868MPD2    C112788   0.258   2.956  13.165  0.5874 -1.3628 -0.4469
  868MPD2    C212789   0.147   2.907  13.231  0.2532  0.4189  0.1823
  868MPD2    C312790   0.029   2.985  13.227  0.9315  0.4756  0.1900
  868MPD2    C412791   0.025   3.104  13.164  0.8790 -0.6539  0.1573
  868MPD2    C512792   0.132   3.151  13.103  0.9874  0.1321  0.5387
  868MPD2     H12793   0.145   2.819  13.294 -0.7869  0.4654  0.2167
  868MPD2    H112794   4.674   3.164  13.171  0.4123 -1.4586  1.1297
  868MPD2    H212795   0.327   3.128  13.047  0.6350 -1.5517 -0.5635
  868MPD2    H312796   0.136   3.245  13.049 -0.3085  0.2132  0.5821
  868MPD2     N12797   4.654   2.929  13.288  0.7015 -0.0539 -0.2635
  868MPD2    H512798   4.656   2.832  13.316 -1.0444  0.4575  1.6063
  868MPD2    N112799   0.385   2.893  13.160 -0.3202  0.0649 -0.2819
  868MPD2    H712800   0.465   2.943  13.123 -0.5586  1.1517  0.6783
  869MPD2     C12801   1.232   0.965   1.083 -0.4877  0.4247  0.6327
  869MPD2    C112802   1.321   1.023   0.992 -0.0933  0.0001 -0.0883
  869MPD2    C212803   1.454   1.033   1.030 -0.5855 -0.0490 -0.5162
  869MPD2    C312804   1.496   1.016   1.159  0.2734 -0.2628  0.2801
  869MPD2    C412805   1.408   0.957   1.249 -0.1455 -0.5666 -0.0207
  869MPD2    C512806   1.279   0.934   1.208 -0.0593 -0.5963 -0.2290
  869MPD2     H12807   1.516   1.095   0.966 -0.8853  1.6156  0.8290
  869MPD2    H112808   1.448   0.938   1.348 -0.3752 -1.7730 -0.1587
  869MPD2    H212809   1.125   0.958   1.067 -0.3953  1.0855 -0.3288
  869MPD2    H312810   1.215   0.888   1.282  0.1594 -0.7388 -0.1267
  869MPD2     N12811   1.632   1.042   1.195 -0.5023 -1.1497 -0.0395
  869MPD2    H512812   1.675   0.993   1.273 -1.3728  0.2866  1.3531
  869MPD2    N112813   1.255   1.067   0.877 -0.3562  0.3019 -0.1390
  869MPD2    H712814   1.155   1.049   0.872 -0.4126  0.9245 -1.1746
  870MPD2     C12815   2.237   4.186   1.495 -1.1321  0.3305 -0.3582
  870MPD2    C112816   2.137   4.094   1.484 -0.3433  0.2319 -0.4153
  870MPD2    C212817   2.005   4.134   1.498  0.3948 -0.2868 -0.1051
  870MPD2    C312818   1.975   4.269   1.526 -0.5847  0.3801  0.3361
  870MPD2    C412819   2.079   4.351   1.555 -0.5762  0.3289  0.1270
  870MPD2    C512820   2.211   4.312   1.538 -0.5987  0.0428 -0.4344
  870MPD2     H12821   1.924   4.064   1.485  0.8351 -0.5156 -1.6378
  870MPD2    H112822   2.058   4.455   1.576  0.1110  0.5408 -0.2436
  870MPD2    H212823   2.341   4.158   1.490 -0.7562  1.5366  0.5467
  870MPD2    H312824   2.291   4.384   1.549 -0.6171  0.4903 -3.1854
  870MPD2     N12825   1.842   4.305   1.534  0.3056  0.0776  0.1665
  870MPD2    H512826   1.771   4.234   1.520  0.4774  0.3588 -2.1261
  870MPD2    N112827   2.179   3.963   1.454 -0.2980 -0.0304 -0.3854
  870MPD2    H712828   2.279   3.948   1.454  0.1396  3.0708 -1.7852
  871MPD2     C12829   2.172   4.636  16.082  0.2628 -0.2521 -0.8379
  871MPD2    C112830   2.208   4.561  16.185  0.1249 -0.1576 -0.4534
  871MPD2    C212831   2.260   4.435  16.173 -0.1912  0.2441  0.2322
  871MPD2    C312832   2.258   4.373  16.053  0.5033 -0.7156 -0.6224
  871MPD2    C412833   2.207   4.444  15.945 -0.2437  0.0761  0.0819
  871MPD2    C512834   2.168   4.574  15.960  0.3647  0.0574 -0.3449
  871MPD2     H12835   2.295   4.381  16.260  1.8902 -1.6463 -1.7908
  871MPD2    H112836   2.221   4.409  15.843  0.2411  2.1069 -0.5405
  871MPD2    H212837   2.124   4.733  16.088 -1.4483 -0.9271 -3.5193
  871MPD2    H312838   2.134   4.626  15.871 -0.0847 -0.3804 -0.4247
  871MPD2     N12839   2.314   4.243  16.025 -0.0987 -1.1128  0.4141
  871MPD2    H512840   2.291   4.206  15.933  0.5964 -0.7650  0.0920
  871MPD2    N112841   2.185   4.627  16.310  0.1262 -0.3247  0.8994
  871MPD2    H712842   2.142   4.718  16.317 -0.8028 -0.4891 -2.7116
  872MPD2     C12843   3.264   1.850  14.502  0.2031 -0.3977 -0.4131
  872MPD2    C112844   3.235   1.916  14.387  0.3791 -0.4313 -0.1911
  872MPD2    C212845   3.112   1.974  14.377 -0.9797  0.9153  0.4927
  872MPD2    C312846   3.019   1.963  14.484  0.1634  0.5732  0.2001
  872MPD2    C412847   3.058   1.896  14.598 -0.4438 -0.1938  0.3326
  872MPD2    C512848   3.182   1.839  14.612  0.2753 -0.0731  0.0440
  872MPD2     H12849   3.088   2.018  14.281  0.1868 -1.6965 -0.9889
  872MPD2    H112850   2.995   1.896  14.686 -0.9944  0.0855 -0.0614
  872MPD2    H212851   3.360   1.803  14.520  0.0622 -0.1660  0.9974
  872MPD2    H312852   3.215   1.803  14.709  2.1772 -1.9220 -1.2902
  872MPD2     N12853   2.884   2.009  14.476 -0.3950 -0.6673  0.3708
  872MPD2    H512854   2.837   2.018  14.566 -0.4609 -2.2356  0.4874
  872MPD2    N112855   3.323   1.939  14.283 -0.2331  0.7667  0.8510
  872MPD2    H712856   3.317   2.025  14.230 -1.8354  0.3186  0.3076
  873MPD2     C12857   4.085   2.143   0.478 -0.0781  0.2496  0.1483
  873MPD2    C112858   4.211   2.113   0.509 -0.0860 -0.2916 -0.0134
  873MPD2    C212859   4.278   2.000   0.448 -0.0748  0.7757  0.4725
  873MPD2    C312860   4.200   1.916   0.372  0.7928  0.2839 -0.3652
  873MPD2    C412861   4.071   1.940   0.356  0.2301 -0.3412  0.1643
  873MPD2    C512862   4.005   2.049   0.407 -1.0597 -0.4580  0.1696
  873MPD2     H12863   4.379   1.967   0.470 -0.4159 -0.6546 -0.1180
  873MPD2    H112864   3.998   1.873   0.311 -1.2348  0.3983  1.4082
  873MPD2    H212865   4.033   2.227   0.523 -1.5717 -0.8372  0.4672
  873MPD2    H312866   3.901   2.065   0.384 -1.0853  0.7872  1.1280
  873MPD2     N12867   4.250   1.792   0.326  0.1197  0.6340  0.3206
  873MPD2    H512868   4.178   1.727   0.297 -0.3956  1.3861 -0.0932
  873MPD2    N112869   4.281   2.208   0.587 -0.9605  0.1554  0.1541
  873MPD2    H712870   4.220   2.278   0.628 -2.1300  0.5096 -2.2113
  874MPD2     C12871   4.115   2.210  16.089 -0.4777  0.4302 -0.4539
  874MPD2    C112872   4.160   2.229  16.215 -0.1302 -0.0463  0.1489
  874MPD2    C212873   4.294   2.247  16.242 -0.2747  0.1868  0.6197
  874MPD2    C312874   4.378   2.244  16.131  0.7978  0.3341  0.1589
  874MPD2    C412875   4.333   2.222  16.007 -0.5525 -0.0190  0.0736
  874MPD2    C512876   4.201   2.214  15.987 -0.7498  0.1464 -0.6180
  874MPD2     H12877   4.335   2.258  16.341  2.3538  0.7589 -0.5283
  874MPD2    H112878   4.407   2.208  15.928  0.9408 -0.2793  1.5202
  874MPD2    H212879   4.009   2.212  16.067 -0.7590 -0.7525  0.8181
  874MPD2    H312880   4.162   2.214  15.885 -2.0166  1.1026 -0.1365
  874MPD2     N12881   4.515   2.256  16.153 -0.9268  0.3940 -0.1779
  874MPD2    H512882   4.539   2.239  16.251 -0.1148 -2.2777 -0.8315
  874MPD2    N112883   4.070   2.230  16.321 -0.4252  0.2049 -0.7545
  874MPD2    H712884   3.983   2.178  16.318 -0.8904  0.9469  0.0750
  875MPD2     C12885   0.875   0.082  14.578  0.5459  0.9933  0.2264
  875MPD2    C112886   0.789   0.110  14.676  0.0367 -0.4102 -0.4854
  875MPD2    C212887   0.823   0.194  14.776  1.0467  0.5025  0.1332
  875MPD2    C312888   0.942   0.265  14.784  0.0057  1.1414  0.3748
  875MPD2    C412889   1.033   0.228  14.690 -0.0116  0.1755 -0.2058
  875MPD2    C512890   1.000   0.137  14.593  0.0010  0.3973 -0.2700
  875MPD2     H12891   0.752   0.222  14.853  0.0836 -1.5295  0.0022
  875MPD2    H112892   1.129   0.278  14.689  0.2047 -0.2849 -4.1630
  875MPD2    H212893   0.853   0.028  14.486  1.6373 -0.3155  0.7264
  875MPD2    H312894   1.071   0.130  14.512  0.8966 -2.2305  0.7551
  875MPD2     N12895   0.988   0.349  14.889 -0.5788  0.5728 -0.1738
  875MPD2    H512896   1.087   0.366  14.899 -0.7739  1.0241  1.0575
  875MPD2    N112897   0.656   0.055  14.669 -0.6714 -0.1156  0.2569
  875MPD2    H712898   0.591   0.079  14.743  0.2055 -2.7581  1.8626
  876MPD2     C12899   4.510   1.614  16.333  0.3288  0.2037 -0.6191
  876MPD2    C112900   4.534   1.570  16.200 -0.0964 -0.4159  0.2344
  876MPD2    C212901   4.506   1.438  16.178  0.4891 -0.2744  0.6155
  876MPD2    C312902   4.482   1.349  16.283  0.1205  0.4424 -0.2604
  876MPD2    C412903   4.448   1.396  16.410 -0.3229 -0.4502 -0.0193
  876MPD2    C512904   4.462   1.531  16.430  0.2762 -0.2884  0.0998
  876MPD2     H12905   4.515   1.392  16.081 -0.2120 -1.4411  1.1061
  876MPD2    H112906   4.421   1.334  16.494  2.1751 -2.4561 -0.6930
  876MPD2    H212907   4.525   1.716  16.365 -0.6207 -1.1906  4.3248
  876MPD2    H312908   4.453   1.567  16.531  1.3638 -1.9659  0.8069
  876MPD2     N12909   4.481   1.217  16.246  0.3103  0.0783  0.2431
  876MPD2    H512910   4.502   1.196  16.149 -0.6954 -0.4674  0.1563
  876MPD2    N112911   4.577   1.653  16.091 -0.2989 -0.0519 -0.1384
  876MPD2    H712912   4.594   1.613  15.999  0.6466 -0.6415  0.3044
  877MPD2     C12913   4.353   2.100  15.427  0.0013  0.7472 -0.3509
  877MPD2    C112914   4.492   2.069  15.439  0.0770  0.0664 -0.1452
  877MPD2    C212915   4.567   2.052  15.325 -0.2274 -0.3510 -0.1719
  877MPD2    C312916   4.509   2.055  15.196 -0.4999 -0.4629  0.3025
  877MPD2    C412917   4.374   2.093  15.189  0.5145 -0.4844 -0.0519
  877MPD2    C512918   4.304   2.117  15.303  0.3021  0.0660 -0.4956
  877MPD2     H12919   4.672   2.028  15.322 -0.2326 -0.2793 -0.9646
  877MPD2    H112920   4.320   2.111  15.097  0.0496  0.1551  0.3453
  877MPD2    H212921   4.279   2.109  15.505 -0.0765  2.7838 -0.6487
  877MPD2    H312922   4.197   2.135  15.301  0.5664  1.8765  1.5129
  877MPD2     N12923   4.573   2.040  15.068 -0.1816  0.3599  0.4023
  877MPD2    H512924   4.505   2.047  14.993 -1.0170  1.2212  1.2330
  877MPD2    N112925   4.552   2.042  15.564  0.1586 -0.2494  0.4312
  877MPD2    H712926   4.650   2.016  15.567 -0.3762 -2.4062 -1.4008
  878MPD2     C12927   3.740   1.943  13.778 -0.0850 -0.3314  0.1896
  878MPD2    C112928   3.823   1.977  13.881 -0.0419 -0.1435  0.4507
  878MPD2    C212929   3.838   1.889  13.987 -0.0806 -0.4472  0.0180
  878MPD2    C312930   3.761   1.774  13.993  0.3090 -0.2280 -0.2595
  878MPD2    C412931   3.671   1.748  13.891  0.5902 -0.2452  0.4256
  878MPD2    C512932   3.661   1.830  13.783  0.1303 -0.1083 -0.6144
  878MPD2     H12933   3.881   1.924  14.080 -3.1593 -2.5436  2.2175
  878MPD2    H112934   3.591   1.674  13.898  0.1394  0.3330  1.2754
  878MPD2    H212935   3.729   2.007  13.691 -0.3793 -1.7468 -0.8382
  878MPD2    H312936   3.600   1.814  13.695  0.7117  1.8322 -1.3667
  878MPD2     N12937   3.786   1.682  14.104  0.1272  0.3225  0.3609
  878MPD2    H512938   3.843   1.721  14.178  0.4226  0.4025  0.0888
  878MPD2    N112939   3.878   2.105  13.876  0.2036 -0.6654  0.1892
  878MPD2    H712940   3.859   2.145  13.784 -1.2931  0.6044  1.0604
  879MPD2     C12941   0.227   2.943  16.941  0.6412  0.2593  0.0443
  879MPD2    C112942   0.177   2.814  16.944  0.1920  0.0156 -0.3661
  879MPD2    C212943   0.060   2.792  16.869  0.5537  0.2177  0.4223
  879MPD2    C312944   4.734   2.893  16.793  0.3175  0.4222 -0.1994
  879MPD2    C412945   0.055   3.021  16.795  0.3752 -0.4122 -0.2921
  879MPD2    C512946   0.172   3.037  16.864  0.8782 -0.1011 -0.3046
  879MPD2     H12947   0.007   2.697  16.864 -0.3356  0.7114  0.4353
  879MPD2    H112948   0.003   3.096  16.738 -0.1171 -0.1023  0.5687
  879MPD2    H212949   0.315   2.977  16.995  2.1945 -1.8667 -1.1942
  879MPD2    H312950   0.215   3.136  16.858 -0.4534  0.4798 -0.0680
  879MPD2     N12951   4.620   2.870  16.714 -0.2846 -0.0351  0.0764
  879MPD2    H512952   4.578   2.944  16.659 -2.2528 -1.5888 -0.5172
  879MPD2    N112953   0.244   2.717  17.016  0.4188  0.3045 -0.5615
  879MPD2    H712954   0.321   2.749  17.073  0.1208 -2.0699  1.1873
  880MPD2     C12955   1.099   4.277   0.129 -0.7426  0.3585  0.4360
  880MPD2    C112956   1.152   4.297   0.257  0.1110 -0.4961  0.1917
  880MPD2    C212957   1.209   4.192   0.324  0.2776 -0.3044  0.1660
  880MPD2    C312958   1.215   4.065   0.270 -0.3894  0.4534 -0.4377
  880MPD2    C412959   1.172   4.046   0.141  0.3119  0.2637  1.2419
  880MPD2    C512960   1.107   4.150   0.080  0.0336 -0.5318 -0.5607
  880MPD2     H12961   1.264   4.209   0.416  1.0042 -1.6461 -0.0211
  880MPD2    H112962   1.183   3.947   0.098  0.2148 -0.3472  2.6225
  880MPD2    H212963   1.050   4.358   0.077  1.4233  2.0374  1.0548
  880MPD2    H312964   1.073   4.119  17.735 -1.2935  0.7386 -0.4960
  880MPD2     N12965   1.288   3.971   0.349 -0.1567 -0.9829 -0.2629
  880MPD2    H512966   1.312   4.000   0.443 -1.0275  0.2864 -0.4341
  880MPD2    N112967   1.146   4.429   0.305  0.8354 -0.0821 -0.3340
  880MPD2    H712968   1.112   4.498   0.238 -1.8629 -0.5262  0.5888
  881MPD2     C12969   1.540   0.556   0.022 -0.4606  0.1077 -0.2642
  881MPD2    C112970   1.513   0.440  17.713 -0.3688  0.2338  0.3825
  881MPD2    C212971   1.454   0.340   0.029  0.8441  0.4432 -0.1614
  881MPD2    C312972   1.408   0.366   0.157  0.2987  0.1795 -0.7012
  881MPD2    C412973   1.427   0.492   0.214 -0.1985  0.3710  0.6063
  881MPD2    C512974   1.499   0.585   0.150  0.3723 -0.1125 -0.5960
  881MPD2     H12975   1.440   0.241  17.742 -0.2184  0.6996 -0.4232
  881MPD2    H112976   1.389   0.513   0.313 -0.1659 -0.7871  0.8605
  881MPD2    H212977   1.561   0.645  17.718  0.4519  0.0779  0.0278
  881MPD2    H312978   1.510   0.680   0.201 -1.3371  0.0565 -0.5588
  881MPD2     N12979   1.356   0.272   0.248 -0.0455  0.2150  0.0215
  881MPD2    H512980   1.315   0.306   0.334 -0.3833 -0.5133  0.1462
  881MPD2    N112981   1.588   0.414  17.595  0.4743 -0.3622 -0.3150
  881MPD2    H712982   1.639   0.496  17.565  0.8309 -0.4004  0.1853
  882MPD2     C12983   4.391   1.644  14.595 -0.4660 -0.2591 -0.7285
  882MPD2    C112984   4.408   1.780  14.596 -0.5147  0.1213  0.0710
  882MPD2    C212985   4.294   1.861  14.587 -0.9205 -0.3454 -0.5183
  882MPD2    C312986   4.166   1.809  14.582  0.2386  0.2080  1.0429
  882MPD2    C412987   4.153   1.677  14.547  0.5082 -0.6269 -0.2211
  882MPD2    C512988   4.262   1.595  14.560  0.4664 -0.3902  0.0455
  882MPD2     H12989   4.306   1.968  14.602 -3.0485 -0.1907  0.1807
  882MPD2    H112990   4.060   1.629  14.517 -1.2665  2.0170  1.1158
  882MPD2    H212991   4.468   1.568  14.596 -1.5298 -1.3333 -0.1049
  882MPD2    H312992   4.246   1.488  14.554 -1.1159 -0.1954  0.7845
  882MPD2     N12993   4.047   1.881  14.601 -0.2165 -0.0156  0.2778
  882MPD2    H512994   3.960   1.835  14.575  1.4216 -1.7329 -2.1670
  882MPD2    N112995   4.534   1.830  14.614  0.2033  0.5071  0.5051
  882MPD2    H712996   4.601   1.757  14.637 -0.5424 -0.0071  1.0589
  883MPD2     C12997   1.797   1.965  16.440 -0.0898 -0.8949 -0.6335
  883MPD2    C112998   1.793   2.079  16.359  0.1032  0.4370 -0.4081
  883MPD2    C212999   1.893   2.169  16.365 -0.2551 -0.5231 -0.2037
  883MPD2    C313000   1.993   2.156  16.460  0.1582  0.0706 -0.3308
  883MPD2    C413001   1.988   2.051  16.550 -0.1035 -0.1396  0.5019
  883MPD2    C513002   1.889   1.957  16.543 -0.3680 -0.0328  0.0585
  883MPD2     H13003   1.891   2.249  16.292 -0.7081 -0.1923  0.1703
  883MPD2    H113004   2.060   2.050  16.631  0.9764  0.7184 -0.4391
  883MPD2    H213005   1.718   1.891  16.437 -0.5356 -0.4751  1.2315
  883MPD2    H313006   1.883   1.868  16.605 -0.3075 -0.5742 -0.7220
  883MPD2     N13007   2.093   2.257  16.471  0.8330  0.3051  0.0779
  883MPD2    H513008   2.098   2.336  16.408  2.0147  1.5138  1.6949
  883MPD2    N113009   1.696   2.098  16.262 -0.5113  0.1642 -0.4421
  883MPD2    H713010   1.708   2.182  16.206 -2.3493 -0.1197 -1.2669
  884MPD2     C13011   3.465   2.933  15.287  0.6076 -0.0429 -0.3409
  884MPD2    C113012   3.455   2.989  15.162 -0.7809  0.9127 -0.9375
  884MPD2    C213013   3.345   3.052  15.133 -0.3882 -0.0880 -0.4984
  884MPD2    C313014   3.239   3.068  15.223 -0.5908 -0.1130 -0.3812
  884MPD2    C413015   3.254   3.016  15.352 -0.5345 -0.2031 -0.7242
  884MPD2    C513016   3.364   2.944  15.382  0.6454 -0.6814  0.1085
  884MPD2     H13017   3.339   3.091  15.032 -0.6624 -1.2307 -0.9213
  884MPD2    H113018   3.177   3.022  15.428 -0.2566  0.0559 -0.4675
  884MPD2    H213019   3.550   2.881  15.330  0.2324 -1.5318 -1.3936
  884MPD2    H313020   3.367   2.901  15.482 -0.1800 -2.9371 -0.8377
  884MPD2     N13021   3.121   3.141  15.190  0.3534  0.1661  0.2184
  884MPD2    H513022   3.114   3.168  15.093 -0.2183 -0.5910  0.0501
  884MPD2    N113023   3.556   3.001  15.067  0.4761  0.0334  0.0239
  884MPD2    H713024   3.550   3.067  14.990 -0.6157  0.1100  0.1645
  885MPD2     C13025   1.697   3.436   0.001  0.9971 -0.2181  0.5988
  885MPD2    C113026   1.763   3.319  17.724 -0.8786  0.2463 -0.0168
  885MPD2    C213027   1.792   3.300  17.591  0.1809 -0.0224 -0.9143
  885MPD2    C313028   1.751   3.399  17.501 -0.1101 -0.8230  0.4779
  885MPD2    C413029   1.688   3.514  17.541  0.1587 -0.3028 -0.1084
  885MPD2    C513030   1.652   3.526  17.670 -0.1261 -0.2141 -0.4290
  885MPD2     H13031   1.855   3.222  17.551 -1.2851 -1.4926 -0.3299
  885MPD2    H113032   1.644   3.585  17.472  1.4567 -0.9005 -1.5752
  885MPD2    H213033   1.681   3.465   0.104 -4.0959  0.7037 -0.4489
  885MPD2    H313034   1.590   3.610  17.702 -1.4545 -0.1250 -3.3169
  885MPD2     N13035   1.777   3.372  17.364  0.1582 -0.6768 -0.3404
  885MPD2    H513036   1.813   3.279  17.344 -0.4871 -1.0727  0.3229
  885MPD2    N113037   1.800   3.228   0.068 -0.1472  0.2192 -0.1219
  885MPD2    H713038   1.790   3.250   0.167  3.3653 -2.1662  0.7718
  886MPD2     C13039   3.114   1.330  15.175 -0.3778 -0.1844 -0.9616
  886MPD2    C113040   3.172   1.387  15.281 -0.0078 -0.3432  0.0539
  886MPD2    C213041   3.150   1.519  15.303  0.7228  0.3493 -0.0106
  886MPD2    C313042   3.082   1.604  15.211 -0.0036  0.3875 -0.8294
  886MPD2    C413043   3.036   1.540  15.097  0.1301 -0.5419 -0.2741
  886MPD2    C513044   3.051   1.404  15.078 -0.7448  0.2975  0.5865
  886MPD2     H13045   3.195   1.562  15.391  0.0783 -1.8353  1.3938
  886MPD2    H113046   3.005   1.594  15.008 -2.4842 -1.3982  0.1389
  886MPD2    H213047   3.131   1.228  15.143  0.9263  0.7287 -3.1636
  886MPD2    H313048   3.005   1.353  14.994  1.6900 -1.5476  0.3851
  886MPD2     N13049   3.089   1.747  15.215  0.3982 -0.4849 -0.2286
  886MPD2    H513050   3.053   1.799  15.135 -0.3025 -0.4212  0.1281
  886MPD2    N113051   3.246   1.313  15.367  0.2576 -0.8214  0.2095
  886MPD2    H713052   3.283   1.365  15.446 -3.4376 -1.1577  2.1984
  887MPD2     C13053   3.871   1.429  15.728 -0.0667 -0.6942 -0.1852
  887MPD2    C113054   3.764   1.458  15.646 -0.1208 -0.8106  0.1115
  887MPD2    C213055   3.766   1.573  15.571 -0.9058 -0.3486  0.7306
  887MPD2    C313056   3.864   1.666  15.590 -0.1791 -0.9278  1.0788
  887MPD2    C413057   3.962   1.648  15.687  0.0184 -0.2352 -0.1029
  887MPD2    C513058   3.961   1.529  15.754  0.3148 -0.1818 -0.1039
  887MPD2     H13059   3.690   1.607  15.503  0.4177 -1.9813 -1.5478
  887MPD2    H113060   4.048   1.710  15.713  0.3728 -0.4796 -0.6949
  887MPD2    H213061   3.879   1.340  15.789  3.7655  0.7466  1.4304
  887MPD2    H313062   4.046   1.507  15.818  0.2519 -2.1882 -0.7196
  887MPD2     N13063   3.846   1.787  15.527  0.4353  0.1651 -0.0594
  887MPD2    H513064   3.755   1.797  15.482  0.1432 -1.4590  0.1706
  887MPD2    N113065   3.652   1.367  15.627  0.3483 -0.3505 -0.4494
  887MPD2    H713066   3.590   1.387  15.550 -1.1390  1.7157  1.2611
  888MPD2     C13067   0.743   1.331  15.200 -0.3815 -0.3159 -0.2453
  888MPD2    C113068   0.702   1.374  15.323  0.3559 -0.1408 -0.2926
  888MPD2    C213069   0.740   1.501  15.367  0.6782 -0.4156 -0.1716
  888MPD2    C313070   0.806   1.589  15.292  0.4322  0.2277  0.2642
  888MPD2    C413071   0.833   1.550  15.162 -0.2247  0.3727 -0.2755
  888MPD2    C513072   0.804   1.422  15.116  0.6733  0.2835  0.0272
  888MPD2     H13073   0.710   1.531  15.467 -1.5234 -3.5749  0.1372
  888MPD2    H113074   0.889   1.614  15.094  0.1017 -0.3806 -0.7090
  888MPD2    H213075   0.706   1.237  15.161 -1.2970 -0.1449  0.2247
  888MPD2    H313076   0.836   1.396  15.016  0.6618  2.7924 -0.6301
  888MPD2     N13077   0.843   1.718  15.338  0.6282 -0.3443 -0.0357
  888MPD2    H513078   0.818   1.753  15.430 -1.1944  0.3600 -0.7877
  888MPD2    N113079   0.618   1.285  15.405  0.6813 -0.0758 -0.6526
  888MPD2    H713080   0.581   1.329  15.488  0.7027  1.5476 -1.5117
  889MPD2     C13081   0.141   0.328  13.734 -0.1352 -0.0715 -0.1953
  889MPD2    C113082   0.072   0.431  13.681  0.2839  0.2356  0.2262
  889MPD2    C213083   0.096   0.554  13.735 -0.5078 -0.5759  0.8739
  889MPD2    C313084   0.188   0.575  13.839 -0.3466 -0.2320  0.0915
  889MPD2    C413085   0.251   0.463  13.897 -0.2974  0.2514 -0.5083
  889MPD2    C513086   0.217   0.345  13.846 -0.0573  0.0189 -0.1709
  889MPD2     H13087   0.059   0.645  13.687 -0.3641 -1.0630 -0.1627
  889MPD2    H113088   0.321   0.452  13.980 -1.4639  0.5076  0.5018
  889MPD2    H213089   0.109   0.227  13.707 -0.9321  0.4526 -1.1991
  889MPD2    H313090   0.263   0.261  13.896 -1.3762 -1.3318 -1.2292
  889MPD2     N13091   0.217   0.704  13.881 -0.1626 -0.0915 -0.1170
  889MPD2    H513092   0.162   0.780  13.844 -1.9650 -0.3966  1.9348
  889MPD2    N113093   0.013   0.415  13.552 -0.2589 -0.1835 -0.1550
  889MPD2    H713094   0.055   0.338  13.501 -0.0219 -1.6693  2.3224
  890MPD2     C13095   4.551   2.670  14.489 -0.4126  0.2777  0.4266
  890MPD2    C113096   4.619   2.770  14.556  0.1890  0.2284 -0.0181
  890MPD2    C213097   4.656   2.738  14.689 -0.3392  0.0933  0.2127
  890MPD2    C313098   4.630   2.614  14.754 -0.1915  0.1521 -0.3577
  890MPD2    C413099   4.560   2.520  14.678  0.3584  0.6543 -0.4302
  890MPD2    C513100   4.521   2.554  14.551 -0.4940  0.0130  0.3099
  890MPD2     H13101   4.706   2.812  14.750 -0.6080 -1.0304  1.7804
  890MPD2    H113102   4.517   2.426  14.712  0.7707  0.8269  0.5664
  890MPD2    H213103   4.511   2.701  14.393  0.3439 -0.2401 -0.0507
  890MPD2    H313104   4.457   2.486  14.496 -1.9300 -0.0118  2.0388
  890MPD2     N13105   4.693   2.585  14.879 -0.0572 -0.1700 -0.5475
  890MPD2    H513106   0.021   2.652  14.915 -1.1471  0.7777 -0.2781
  890MPD2    N113107   4.631   2.900  14.500  0.7125  0.8195  0.6266
  890MPD2    H713108   4.593   2.918  14.408 -1.1903  0.5989  1.3708
  891MPD2     C13109   2.936   1.555  16.543 -0.4489 -0.1127  0.3455
  891MPD2    C113110   2.927   1.621  16.666 -0.4059 -0.3461 -0.1326
  891MPD2    C213111   2.997   1.570  16.775  0.7506 -0.1660  0.6384
  891MPD2    C313112   3.080   1.461  16.765  0.3874  0.4860 -0.7609
  891MPD2    C413113   3.078   1.393  16.639 -0.5172 -0.5214  0.0089
  891MPD2    C513114   3.012   1.444  16.533 -0.1100  0.0813  1.1767
  891MPD2     H13115   2.996   1.616  16.872 -1.4474  1.3664 -0.1228
  891MPD2    H113116   3.124   1.297  16.614 -0.3826  0.0802 -2.0856
  891MPD2    H213117   2.869   1.576  16.461 -0.4776  2.5537  1.0462
  891MPD2    H313118   2.999   1.385  16.444  0.4070  2.7636 -0.6618
  891MPD2     N13119   3.146   1.408  16.885  0.0404 -0.0058 -0.2972
  891MPD2    H513120   3.119   1.440  16.978 -0.6500 -2.7973  0.4531
  891MPD2    N113121   2.834   1.729  16.672  0.6365  0.2395  0.3471
  891MPD2    H713122   2.795   1.760  16.584  1.2723  0.3738  0.1104
  892MPD2     C13123   3.698   2.877  14.710 -0.3272  0.3621  0.1957
  892MPD2    C113124   3.608   2.785  14.757 -0.4040 -0.6472  0.6068
  892MPD2    C213125   3.654   2.653  14.771  0.1291 -0.1510 -0.1501
  892MPD2    C313126   3.774   2.613  14.723  0.0593 -0.3910 -0.2350
  892MPD2    C413127   3.868   2.709  14.684 -0.9130  0.7179 -0.8672
  892MPD2    C513128   3.821   2.837  14.662  0.8527  0.2034  0.3398
  892MPD2     H13129   3.581   2.585  14.813 -0.4997 -0.2396 -1.3882
  892MPD2    H113130   3.965   2.678  14.648 -0.3724  0.4644  0.7876
  892MPD2    H213131   3.678   2.983  14.706  1.2624  0.5552 -2.2638
  892MPD2    H313132   3.893   2.906  14.620  0.3394 -0.6974 -2.0380
  892MPD2     N13133   3.808   2.469  14.721  0.0496 -0.4609  0.1701
  892MPD2    H513134   3.905   2.441  14.708  0.8644  1.4215  2.1154
  892MPD2    N113135   3.474   2.811  14.771 -0.1499  0.0303 -0.4560
  892MPD2    H713136   3.410   2.740  14.803  0.6257 -0.9540 -1.1152
  893MPD2     C13137   0.044   0.379   0.921  0.0220 -0.3740 -0.3913
  893MPD2    C113138   0.038   0.513   0.933  0.0435  0.1609  0.1088
  893MPD2    C213139   4.682   0.579   0.859 -0.0592  0.2473  0.2634
  893MPD2    C313140   4.576   0.511   0.789 -0.8132  0.0403 -0.1966
  893MPD2    C413141   4.576   0.373   0.804  0.3540 -0.0413 -0.4379
  893MPD2    C513142   4.687   0.312   0.855  0.9509 -0.9731 -0.0365
  893MPD2     H13143   4.682   0.687   0.867 -2.6767  0.2354  0.4950
  893MPD2    H113144   4.504   0.309   0.756 -0.7109 -0.0276  1.1265
  893MPD2    H213145   0.128   0.322   0.961 -0.6257 -1.8894 -1.1742
  893MPD2    H313146   4.687   0.204   0.853 -0.4899 -0.9789  0.8558
  893MPD2     N13147   4.470   0.571   0.717  0.1436 -0.6507  0.2711
  893MPD2    H513148   4.401   0.508   0.678  0.9825 -1.0297 -0.6061
  893MPD2    N113149   0.134   0.576   1.011  0.0385 -0.2136  0.1839
  893MPD2    H713150   0.213   0.519   1.042  0.5011  0.7911  0.8747
  894MPD2     C13151   3.469   3.331   1.084  0.2256 -0.2989 -0.2767
  894MPD2    C113152   3.531   3.266   1.188 -0.0858 -0.0873  0.7669
  894MPD2    C213153   3.648   3.310   1.241  0.0145  0.6295 -0.0053
  894MPD2    C313154   3.708   3.421   1.189  0.7581  0.3941  0.4849
  894MPD2    C413155   3.636   3.493   1.095 -0.0952  0.3556  0.3078
  894MPD2    C513156   3.518   3.447   1.039 -0.1908 -0.4791  0.5308
  894MPD2     H13157   3.692   3.251   1.321  0.9719 -1.7653 -2.2877
  894MPD2    H113158   3.687   3.579   1.052  1.0886  0.5599  2.1190
  894MPD2    H213159   3.373   3.301   1.044  0.4581  0.5495 -1.4710
  894MPD2    H313160   3.461   3.505   0.967  0.6929 -2.1091 -1.4757
  894MPD2     N13161   3.825   3.475   1.248 -0.1170 -0.4021 -0.5066
  894MPD2    H513162   3.853   3.560   1.201  0.4277 -0.8459 -0.9792
  894MPD2    N113163   3.476   3.139   1.236 -0.6530 -0.2640 -0.5682
  894MPD2    H713164   3.521   3.101   1.318 -0.1010 -2.1159 -1.7343
  895MPD2     C13165   2.755   1.522  13.625  0.5015  0.3259 -0.1775
  895MPD2    C113166   2.624   1.523  13.583  0.0245  1.2304  0.0589
  895MPD2    C213167   2.583   1.435  13.482  0.5848  0.3742  0.1404
  895MPD2    C313168   2.684   1.366  13.410  0.2373 -0.4801  0.6385
  895MPD2    C413169   2.820   1.374  13.445  0.0395 -0.4176  0.0133
  895MPD2    C513170   2.845   1.444  13.557 -0.1153  0.3556 -0.5465
  895MPD2     H13171   2.485   1.425  13.438  0.2720 -1.2732  1.1951
  895MPD2    H113172   2.902   1.319  13.402  1.2808  0.3055  1.4364
  895MPD2    H213173   2.778   1.580  13.714  0.7663  2.0100 -1.3404
  895MPD2    H313174   2.947   1.450  13.590  0.1214  2.2852 -1.6226
  895MPD2     N13175   2.633   1.274  13.317  0.2985 -0.3574  0.2133
  895MPD2    H513176   2.533   1.270  13.299 -0.1851  0.9624  2.6500
  895MPD2    N113177   2.521   1.599  13.655  0.9802  0.0539 -0.0339
  895MPD2    H713178   2.427   1.568  13.633 -0.0004  2.8768  0.2160
  896MPD2     C13179   0.966   3.271   1.354  0.3450 -0.6371  0.1652
  896MPD2    C113180   0.910   3.340   1.245  0.2638  0.4068  0.5861
  896MPD2    C213181   0.777   3.368   1.244  0.0356 -0.4008 -0.2463
  896MPD2    C313182   0.695   3.325   1.354  0.6936 -0.0704  0.1817
  896MPD2    C413183   0.758   3.259   1.457 -0.0616 -0.0664 -0.0287
  896MPD2    C513184   0.888   3.231   1.456  0.0548 -0.0675 -0.1437
  896MPD2     H13185   0.728   3.421   1.163 -0.3409  1.3864  1.1454
  896MPD2    H113186   0.704   3.230   1.546 -2.0939 -2.8664 -2.2146
  896MPD2    H213187   1.073   3.252   1.354 -0.0947 -3.2222  0.8896
  896MPD2    H313188   0.924   3.176   1.542 -0.0741  0.8286  0.4881
  896MPD2     N13189   0.553   3.321   1.341 -0.1825  0.8608  0.4258
  896MPD2    H513190   0.508   3.332   1.250  0.5612  1.7887  0.1747
  896MPD2    N113191   1.005   3.378   1.151 -0.1851  0.0229  0.1715
  896MPD2    H713192   1.097   3.351   1.184 -1.3386 -2.3158  1.4719
  897MPD2     C13193   1.182   0.181  10.453  0.2634  0.2459 -0.7701
  897MPD2    C113194   1.134   0.296  10.513  0.0114 -0.0348 -0.1906
  897MPD2    C213195   1.048   0.281  10.618  0.3613  0.7228  0.6324
  897MPD2    C313196   0.999   0.161  10.661 -0.4263 -0.4416 -0.3207
  897MPD2    C413197   1.046   0.046  10.597 -0.6830 -0.4195  0.0805
  897MPD2    C513198   1.137   0.062  10.496  0.0356 -0.7944  0.1046
  897MPD2     H13199   1.002   0.374  10.652 -3.0339 -0.1574 -1.5905
  897MPD2    H113200   1.018   4.684  10.624  0.2342 -0.0878  2.3213
  897MPD2    H213201   1.272   0.182  10.393 -0.0691 -2.3355 -1.3298
  897MPD2    H313202   1.165   4.711  10.441 -0.9366 -2.0795  1.7044
  897MPD2     N13203   0.906   0.153  10.768 -0.4445 -0.4685  0.2558
  897MPD2    H513204   0.871   0.240  10.807 -0.1448  0.2319 -1.0517
  897MPD2    N113205   1.196   0.417  10.467  0.3774  0.6009  0.0914
  897MPD2    H713206   1.243   0.404  10.378  1.0392 -1.4463  0.7409
  898MPD2     C13207   3.413   1.323   0.089 -0.0745  0.3823  0.0809
  898MPD2    C113208   3.481   1.397   0.179  0.2702 -0.3442  0.4511
  898MPD2    C213209   3.537   1.514   0.138 -0.2419 -0.5694  0.1306
  898MPD2    C313210   3.502   1.565   0.016 -0.1145 -0.0206 -0.5617
  898MPD2    C413211   3.437   1.488  17.679 -0.0287 -0.2864  1.1472
  898MPD2    C513212   3.390   1.368  17.712 -0.0292 -0.8864  0.2504
  898MPD2     H13213   3.581   1.579   0.213 -1.1173  0.3336 -0.1278
  898MPD2    H113214   3.405   1.522  17.581  0.7138  2.4936  1.8750
  898MPD2    H213215   3.362   1.231   0.114 -0.4791  1.1224  1.9698
  898MPD2    H313216   3.339   1.302  17.643 -1.1607 -0.7378  0.9510
  898MPD2     N13217   3.553   1.692  17.745 -0.4485 -0.1128  0.2806
  898MPD2    H513218   3.601   1.734   0.070 -1.0017 -1.2402  1.2114
  898MPD2    N113219   3.501   1.352   0.313 -0.5181 -0.7827 -0.4470
  898MPD2    H713220   3.554   1.416   0.372 -0.0762  0.1409 -1.8539
  899MPD2     C13221   3.938   2.661  17.462  0.2664  0.0976  0.2895
  899MPD2    C113222   4.063   2.687  17.511 -0.2852 -0.0978 -0.4622
  899MPD2    C213223   4.078   2.724  17.646  0.9433  0.6835 -0.2428
  899MPD2    C313224   3.975   2.709  17.726 -0.4714 -0.5152 -0.2371
  899MPD2    C413225   3.859   2.664  17.675 -0.3813  0.0424 -0.5875
  899MPD2    C513226   3.840   2.639  17.545 -0.3625 -0.1258 -0.4072
  899MPD2     H13227   4.174   2.753  17.688  0.5231  1.3007  0.2837
  899MPD2    H113228   3.772   2.660  17.740 -0.8770 -3.1304 -1.4685
  899MPD2    H213229   3.920   2.638  17.357 -0.6415 -0.0140  0.4755
  899MPD2    H313230   3.747   2.613  17.496 -1.9723  3.6953  0.5859
  899MPD2     N13231   3.960   2.749   0.110 -0.3858 -0.2234 -0.1469
  899MPD2    H513232   3.867   2.757   0.148 -1.5461 -4.0797 -2.1410
  899MPD2    N113233   4.157   2.701  17.411 -0.7377 -0.3955  0.0977
  899MPD2    H713234   4.124   2.685  17.317  2.2619 -0.0911 -1.0037
  900MPD2     C13235   3.555   3.874  12.680 -0.3724  0.6737 -0.4332
  900MPD2    C113236   3.465   3.780  12.633  0.5302 -0.2964 -0.6607
  900MPD2    C213237   3.363   3.814  12.543 -0.3991  0.1689  1.1632
  900MPD2    C313238   3.353   3.940  12.496 -0.1603  0.2416 -0.1768
  900MPD2    C413239   3.439   4.030  12.548  0.4220 -0.5587 -0.4784
  900MPD2    C513240   3.526   4.003  12.645  0.3672  0.4436 -0.1884
  900MPD2     H13241   3.284   3.743  12.519 -0.2651  0.0882  0.9658
  900MPD2    H113242   3.442   4.135  12.520  1.8766 -0.3808  0.3222
  900MPD2    H213243   3.639   3.854  12.746 -1.9571 -3.8230  0.2344
  900MPD2    H313244   3.589   4.080  12.688  1.1813 -0.2502 -0.1649
  900MPD2     N13245   3.270   3.968  12.382  0.4769 -0.6787 -0.6587
  900MPD2    H513246   3.219   3.894  12.335  0.2295 -1.0327  0.1669
  900MPD2    N113247   3.478   3.656  12.692 -0.2934 -0.9417  0.3754
  900MPD2    H713248   3.566   3.640  12.741  1.9415  1.3196 -2.9289
  901MPD2     C13249   3.100   2.667  12.927  0.3145 -0.3671  0.5348
  901MPD2    C113250   3.235   2.677  12.926 -0.5118  0.1684  0.2457
  901MPD2    C213251   3.299   2.790  12.875  0.0426  0.1186 -0.0110
  901MPD2    C313252   3.224   2.895  12.835 -0.0537  0.2366 -0.0535
  901MPD2    C413253   3.091   2.883  12.828  0.8475  0.0229  0.5182
  901MPD2    C513254   3.023   2.769  12.881 -0.4806  0.1389 -0.5216
  901MPD2     H13255   3.406   2.801  12.886  0.0315  1.5564 -1.3686
  901MPD2    H113256   3.025   2.948  12.772  1.6473 -1.7342 -2.4787
  901MPD2    H213257   3.054   2.571  12.943 -1.3427  0.1582 -1.0934
  901MPD2    H313258   2.921   2.748  12.851  0.2111 -2.0121 -1.4263
  901MPD2     N13259   3.296   3.000  12.773  1.0131  0.4430 -0.4240
  901MPD2    H513260   3.397   2.992  12.777  1.0227  1.0918  0.5472
  901MPD2    N113261   3.307   2.558  12.959 -0.1758 -0.5696 -0.1665
  901MPD2    H713262   3.263   2.482  13.009 -0.9039  0.3149  0.5234
  902MPD2     C13263   2.557   1.371  12.840  0.5737  0.0074  0.4889
  902MPD2    C113264   2.631   1.488  12.844  0.2714 -0.1558 -0.2368
  902MPD2    C213265   2.747   1.494  12.774  0.1589 -0.4107  0.0455
  902MPD2    C313266   2.796   1.391  12.703  0.7445  0.3308  0.8011
  902MPD2    C413267   2.718   1.278  12.699  0.5089 -0.3884  0.1590
  902MPD2    C513268   2.592   1.266  12.762  0.7637 -0.0286 -0.5909
  902MPD2     H13269   2.806   1.585  12.769 -1.3196  0.4723 -1.2879
  902MPD2    H113270   2.764   1.191  12.655 -1.7818 -1.4899 -0.0871
  902MPD2    H213271   2.461   1.360  12.888  0.2980  0.9297  0.1368
  902MPD2    H313272   2.533   1.177  12.745  0.0758 -0.1195  2.2021
  902MPD2     N13273   2.902   1.394  12.607  0.7625  0.6294  0.1047
  902MPD2    H513274   2.901   1.315  12.544 -1.6693  3.1011 -2.9930
  902MPD2    N113275   2.579   1.602  12.914 -0.0440  0.1286  0.4703
  902MPD2    H713276   2.488   1.596  12.958  0.2886  0.1007  1.1639
  903MPD2     C13277   3.012   1.681  11.811 -0.3319 -0.4923  0.4598
  903MPD2    C113278   2.967   1.699  11.943  0.0723  0.7551  0.4667
  903MPD2    C213279   2.845   1.760  11.965  0.7181 -1.2954  0.6322
  903MPD2    C313280   2.762   1.800  11.857 -0.2795  0.1910 -0.0706
  903MPD2    C413281   2.803   1.776  11.726 -0.0049  0.1983 -0.2843
  903MPD2    C513282   2.929   1.711  11.708 -0.3519 -0.4127  0.1790
  903MPD2     H13283   2.806   1.760  12.066  0.3630  2.0658  0.5089
  903MPD2    H113284   2.749   1.792  11.633 -2.5479 -0.7344  1.0495
  903MPD2    H213285   3.102   1.625  11.789 -0.4590 -0.9196  1.0386
  903MPD2    H313286   2.959   1.679  11.609  2.0332  0.3614  0.6437
  903MPD2     N13287   2.630   1.829  11.896  0.2650  0.0763  0.1800
  903MPD2    H513288   2.604   1.812  11.993  0.6611 -1.1113  0.0803
  903MPD2    N113289   3.053   1.650  12.044 -0.0616  0.0013  0.2461
  903MPD2    H713290   3.122   1.584  12.011  1.3622  1.4466  0.3352
  904MPD2     C13291   2.399   0.761  14.393 -0.2073 -0.2303 -0.6647
  904MPD2    C113292   2.459   0.861  14.318  0.2412  0.1319  0.1249
  904MPD2    C213293   2.591   0.887  14.327  0.7286 -0.8607 -0.8637
  904MPD2    C313294   2.661   0.817  14.424  0.1870  0.7020  0.4282
  904MPD2    C413295   2.607   0.717  14.501 -0.8124  0.2146 -0.0022
  904MPD2    C513296   2.476   0.692  14.485  0.3408 -0.0083 -0.8530
  904MPD2     H13297   2.642   0.963  14.269 -1.7045 -0.0213 -1.9251
  904MPD2    H113298   2.651   0.672  14.589  0.0413 -0.9635 -1.0257
  904MPD2    H213299   2.294   0.735  14.393 -0.3987  0.5367 -0.4642
  904MPD2    H313300   2.419   0.625  14.547  1.0733  2.2443  2.2271
  904MPD2     N13301   2.791   0.872  14.447 -0.0977 -0.4309  0.5117
  904MPD2    H513302   2.823   0.954  14.395 -2.2014  0.1003  0.0583
  904MPD2    N113303   2.386   0.938  14.224  0.3495 -0.4149 -0.7008
  904MPD2    H713304   2.444   1.007  14.177 -0.6904 -1.1164 -2.9629
  905MPD2     C13305   1.961   0.846  13.573  0.6331 -0.1554  0.2893
  905MPD2    C113306   2.070   0.933  13.596  0.0924 -0.2430  0.2275
  905MPD2    C213307   2.155   0.967  13.492  0.2957 -0.2193  0.0202
  905MPD2    C313308   2.128   0.933  13.364 -0.6253  0.4623  0.5498
  905MPD2    C413309   2.020   0.855  13.339 -0.6575 -0.0165  0.4033
  905MPD2    C513310   1.938   0.822  13.439 -0.2707  0.0876  0.0596
  905MPD2     H13311   2.253   1.005  13.518  0.4683 -1.1594  0.7676
  905MPD2    H113312   1.995   0.826  13.237 -0.8383 -0.6638  0.6289
  905MPD2    H213313   1.892   0.808  13.647  0.6960  3.4203  2.1791
  905MPD2    H313314   1.857   0.751  13.428 -0.8864  0.7045  0.5755
  905MPD2     N13315   2.220   0.967  13.255 -0.6273 -0.3910  0.0399
  905MPD2    H513316   2.200   0.920  13.168  0.3145  0.4255 -0.6194
  905MPD2    N113317   2.090   0.971  13.731 -0.0759 -0.1411  0.5306
  905MPD2    H713318   2.032   0.930  13.803 -1.7316  3.4036  1.2323
  906MPD2     C13319   4.433   0.918  11.592 -0.0395  0.0892  0.0436
  906MPD2    C113320   4.365   0.812  11.530  0.1934 -0.2984  0.0520
  906MPD2    C213321   4.241   0.777  11.561  0.0922 -0.0005  0.0107
  906MPD2    C313322   4.189   0.831  11.678 -0.4134  1.0226  0.4525
  906MPD2    C413323   4.259   0.925  11.754  0.0309 -0.0408 -0.1348
  906MPD2    C513324   4.379   0.971  11.702 -0.2835  0.0878 -0.0741
  906MPD2     H13325   4.188   0.707  11.498 -0.7425 -1.4516  2.3187
  906MPD2    H113326   4.218   0.964  11.847  1.9565  1.8765 -0.0851
  906MPD2    H213327   4.537   0.942  11.577 -0.5285  1.8131 -0.6353
  906MPD2    H313328   4.436   1.040  11.764  1.5127 -2.0627  0.6916
  906MPD2     N13329   4.062   0.805  11.724  0.3077 -0.7682 -0.0621
  906MPD2    H513330   4.020   0.869  11.791  1.2075 -3.1232  2.7596
  906MPD2    N113331   4.417   0.746  11.415 -0.2023  0.0558  0.1652
  906MPD2    H713332   4.372   0.662  11.380  1.3591 -0.8276  0.2816
  907MPD2     C13333   3.218   0.334  15.937  0.2674  0.0877 -0.5014
  907MPD2    C113334   3.301   0.239  15.888  0.1272 -0.1733  0.1328
  907MPD2    C213335   3.362   0.155  15.971 -0.5319  0.0655 -0.3452
  907MPD2    C313336   3.348   0.163  16.112 -0.0968  0.1624  0.2523
  907MPD2    C413337   3.264   0.259  16.159  0.6157  0.6926 -0.5979
  907MPD2    C513338   3.199   0.336  16.070 -0.0020  0.2479  0.6655
  907MPD2     H13339   3.428   0.083  15.924  1.3272  0.8595  1.0255
  907MPD2    H113340   3.241   0.263  16.264  0.9298  1.0751 -0.5444
  907MPD2    H213341   3.182   0.412  15.871  3.8924  2.0223 -0.1987
  907MPD2    H313342   3.136   0.419  16.100 -1.4525 -0.3430 -0.7455
  907MPD2     N13343   3.423   0.075  16.194  0.4280 -0.2687 -0.1159
  907MPD2    H513344   3.479   0.010  16.140  1.5108 -0.1980  0.9365
  907MPD2    N113345   3.329   0.222  15.750 -0.4502  0.4722 -0.6182
  907MPD2    H713346   3.382   0.141  15.719 -1.0585  0.2701 -1.1380
  908MPD2     C13347   1.442   0.446   9.655  0.6007 -0.2258 -0.3726
  908MPD2    C113348   1.420   0.352   9.752  0.3570 -0.8222  0.5294
  908MPD2    C213349   1.374   0.396   9.876  0.1211 -0.6620  0.0802
  908MPD2    C313350   1.365   0.534   9.901 -0.0268 -0.1436  0.5043
  908MPD2    C413351   1.395   0.624   9.802  0.3173 -0.4570  0.4064
  908MPD2    C513352   1.420   0.579   9.672 -0.0770  0.4177 -0.2160
  908MPD2     H13353   1.349   0.330   9.958  3.3482 -2.3336 -0.2961
  908MPD2    H113354   1.402   0.731   9.810 -2.3449 -0.1067 -1.7874
  908MPD2    H213355   1.470   0.417   9.554  2.8433  0.5780  0.0240
  908MPD2    H313356   1.430   0.660   9.601 -0.3077  1.1544  0.5784
  908MPD2     N13357   1.328   0.570  10.033 -0.6735  1.3303  0.1150
  908MPD2    H513358   1.316   0.493  10.097 -0.3028  0.8122 -0.4359
  908MPD2    N113359   1.438   0.217   9.708 -0.1968 -0.0773 -0.2470
  908MPD2    H713360   1.455   0.202   9.609 -0.6015  0.5156 -0.4060
  909MPD2     C13361   1.753   3.109  11.903 -0.2066 -0.2834 -0.0405
  909MPD2    C113362   1.748   3.245  11.875  0.0543 -0.8471  0.2410
  909MPD2    C213363   1.657   3.324  11.943 -0.8528 -0.0059 -0.3834
  909MPD2    C313364   1.577   3.274  12.039  0.3247  0.2658  0.9891
  909MPD2    C413365   1.589   3.142  12.073 -0.6530 -0.5091 -0.0150
  909MPD2    C513366   1.673   3.057  12.002  0.9922  0.3182  0.3167
  909MPD2     H13367   1.662   3.431  11.924  0.7422 -0.1228 -0.5725
  909MPD2    H113368   1.532   3.095  12.152  0.8901 -1.0422  0.7760
  909MPD2    H213369   1.811   3.033  11.852 -0.8790  1.4298 -3.3966
  909MPD2    H313370   1.674   2.951  12.025 -2.5392 -0.1979 -1.9555
  909MPD2     N13371   1.483   3.363  12.098 -0.1100  0.4670 -0.0113
  909MPD2    H513372   1.484   3.455  12.054  1.6566  0.9319  1.0104
  909MPD2    N113373   1.829   3.303  11.779  0.5817  0.0960  0.0932
  909MPD2    H713374   1.809   3.401  11.764 -1.1148 -0.1807  0.5522
  910MPD2     C13375   2.946   1.164  16.187 -0.2285 -0.2822  0.1697
  910MPD2    C113376   2.980   1.027  16.163  0.3864 -0.1689  0.3634
  910MPD2    C213377   2.946   0.969  16.041  0.4999  0.2010 -0.0322
  910MPD2    C313378   2.878   1.047  15.951 -0.0029 -0.6238 -0.1788
  910MPD2    C413379   2.834   1.174  15.988  0.3139  0.0876  0.0653
  910MPD2    C513380   2.875   1.238  16.102 -1.2168 -0.0385  0.1524
  910MPD2     H13381   2.977   0.867  16.018 -1.8296 -0.6830  0.7447
  910MPD2    H113382   2.778   1.235  15.918  0.4577  0.6678  0.4587
  910MPD2    H213383   2.997   1.216  16.268 -1.4789 -0.4962  1.0904
  910MPD2    H313384   2.865   1.343  16.124 -0.1554  0.4448 -1.7409
  910MPD2     N13385   2.833   0.999  15.821  0.0706  0.9331  0.2984
  910MPD2    H513386   2.773   1.067  15.774  0.1531 -0.2627 -1.5515
  910MPD2    N113387   3.040   0.954  16.266  0.1912 -0.0198  0.2326
  910MPD2    H713388   3.066   0.860  16.238  0.8863 -0.3474  2.0034
  911MPD2     C13389   1.360   0.905  16.745  0.2119  0.0628  0.5594
  911MPD2    C113390   1.377   1.036  16.709 -0.4344 -0.2811  0.0550
  911MPD2    C213391   1.285   1.108  16.632 -0.6389  0.4888  0.0415
  911MPD2    C313392   1.172   1.042  16.595 -0.0109  0.1949 -0.4576
  911MPD2    C413393   1.159   0.908  16.624 -0.0372  0.0426 -0.6413
  911MPD2    C513394   1.254   0.838  16.691 -0.3513 -0.0950  0.4484
  911MPD2     H13395   1.304   1.214  16.617  0.8585 -0.1737 -2.8922
  911MPD2    H113396   1.063   0.861  16.609  0.2835 -1.7594  2.9921
  911MPD2    H213397   1.424   0.848  16.812  0.4181 -1.4346 -0.9173
  911MPD2    H313398   1.245   0.733  16.717 -0.2539  0.1163  1.3516
  911MPD2     N13399   1.068   1.100  16.511  0.7064 -0.2997 -0.2244
  911MPD2    H513400   0.998   1.032  16.483  1.5703 -1.2204 -0.1608
  911MPD2    N113401   1.513   1.079  16.746  0.3152  0.0008 -0.2802
  911MPD2    H713402   1.562   1.009  16.801  1.7544  1.3023  0.0891
  912MPD2     C13403   0.276   1.258  16.312 -0.7653  0.4438  0.7582
  912MPD2    C113404   0.376   1.168  16.301  0.5936 -0.7612 -0.5046
  912MPD2    C213405   0.345   1.038  16.316  0.0745 -0.0685  0.5218
  912MPD2    C313406   0.223   0.995  16.361 -0.1870  0.5471  0.2473
  912MPD2    C413407   0.121   1.088  16.370  0.4922  0.1739 -0.2168
  912MPD2    C513408   0.148   1.224  16.337  0.1960 -0.1883 -0.7379
  912MPD2     H13409   0.419   0.961  16.299 -0.4838 -0.1357 -1.6545
  912MPD2    H113410   0.018   1.063  16.392  0.4582  1.7324  1.3984
  912MPD2    H213411   0.293   1.363  16.293 -1.7563  0.2441 -1.2125
  912MPD2    H313412   0.066   1.294  16.340  0.3306 -0.0022 -1.4625
  912MPD2     N13413   0.221   0.861  16.403  0.6095 -0.3849 -0.1226
  912MPD2    H513414   0.312   0.814  16.406  1.8770  2.0055 -1.0748
  912MPD2    N113415   0.507   1.221  16.286 -0.5992  0.5675  0.2529
  912MPD2    H713416   0.525   1.319  16.267  0.0420  0.0780 -1.6458
  913MPD2     C13417   0.684   1.807  10.287  0.5474 -0.0963 -0.2772
  913MPD2    C113418   0.771   1.897  10.347 -0.1403  0.6997  0.6193
  913MPD2    C213419   0.827   1.995  10.265 -0.0930  0.4426  0.5732
  913MPD2    C313420   0.803   2.000  10.129 -0.0941 -0.0914  0.7028
  913MPD2    C413421   0.726   1.895  10.073 -0.9102 -0.3391  0.3450
  913MPD2    C513422   0.660   1.807  10.150  0.2365  0.7038 -0.4544
  913MPD2     H13423   0.881   2.075  10.315 -3.1719  2.0338  1.3273
  913MPD2    H113424   0.699   1.907   9.969  1.7835  2.4441 -0.0469
  913MPD2    H213425   0.641   1.727  10.347 -0.1452  0.4768 -0.0154
  913MPD2    H313426   0.588   1.745  10.098 -1.2902  2.4281 -0.4087
  913MPD2     N13427   0.854   2.104  10.049  0.0752 -0.2457 -0.5914
  913MPD2    H513428   0.816   2.113   9.955 -0.2445  0.9156 -0.3515
  913MPD2    N113429   0.785   1.876  10.488  0.3035  0.0225  0.3650
  913MPD2    H713430   0.710   1.826  10.534 -1.6254  0.9075 -1.8391
  914MPD2     C13431   3.139   2.380  12.307 -0.1704 -0.6584 -0.1016
  914MPD2    C113432   3.162   2.488  12.396  0.1065  0.0499  0.3389
  914MPD2    C213433   3.251   2.457  12.504  0.7639 -0.4634 -0.2887
  914MPD2    C313434   3.302   2.330  12.520  0.0800  0.6104 -0.7096
  914MPD2    C413435   3.266   2.229  12.433 -0.6451 -0.1883 -0.2574
  914MPD2    C513436   3.180   2.258  12.324 -0.1140 -0.2987 -0.5586
  914MPD2     H13437   3.280   2.531  12.579 -0.6054 -2.4831  2.2181
  914MPD2    H113438   3.303   2.129  12.453  0.4056  0.1896 -0.3254
  914MPD2    H213439   3.070   2.395  12.225 -0.4203 -1.3171 -0.0112
  914MPD2    H313440   3.159   2.179  12.252  1.1771 -1.5104  0.3967
  914MPD2     N13441   3.383   2.317  12.627  0.0480 -0.3009 -0.1636
  914MPD2    H513442   3.387   2.401  12.683  0.4378  0.5128 -1.4218
  914MPD2    N113443   3.102   2.608  12.369  0.5569  0.4330 -0.2649
  914MPD2    H713444   3.044   2.606  12.285 -0.1705  1.4043  0.2098
  915MPD2     C13445   2.241   2.798  15.579  0.5166 -0.2835  0.5371
  915MPD2    C113446   2.132   2.871  15.543  0.5342  0.4518  0.1887
  915MPD2    C213447   2.048   2.926  15.642 -0.2548 -0.4363 -0.7443
  915MPD2    C313448   2.066   2.899  15.776  0.4929 -0.0279 -0.1487
  915MPD2    C413449   2.171   2.819  15.812  0.1877  0.0753 -0.4278
  915MPD2    C513450   2.249   2.774  15.712 -0.2271  0.0288 -0.2320
  915MPD2     H13451   1.960   2.977  15.604 -0.2728  0.2314  0.1669
  915MPD2    H113452   2.199   2.794  15.913 -0.8090 -0.8724 -0.3884
  915MPD2    H213453   2.315   2.743  15.521  1.8631 -0.4116  2.3563
  915MPD2    H313454   2.328   2.710  15.749 -0.1524  0.0102 -0.4225
  915MPD2     N13455   1.989   2.963  15.872 -0.2326 -0.3854 -0.1487
  915MPD2    H513456   1.923   3.031  15.833 -0.1914 -1.9733 -2.9168
  915MPD2    N113457   2.099   2.873  15.405 -0.0663  0.4040 -0.1596
  915MPD2    H713458   2.151   2.802  15.355  1.7565  0.6987  1.3580
  916MPD2     C13459   0.323   1.011  16.007 -0.7418  0.5005  0.2490
  916MPD2    C113460   0.253   0.895  16.015  0.0131 -0.1249  0.6308
  916MPD2    C213461   0.305   0.778  15.960 -0.4352  0.1906  0.2132
  916MPD2    C313462   0.427   0.781  15.896 -0.4053  0.0958 -0.4528
  916MPD2    C413463   0.498   0.897  15.906 -0.2702  0.1611  0.2934
  916MPD2    C513464   0.447   1.013  15.956  0.3023  0.4386 -0.2642
  916MPD2     H13465   0.249   0.686  15.964  1.8614 -1.2982 -1.9812
  916MPD2    H113466   0.599   0.909  15.869 -0.3251  2.4104  0.8340
  916MPD2    H213467   0.290   1.099  16.061  0.3060  0.9818  0.1131
  916MPD2    H313468   0.510   1.100  15.950  2.0923 -0.8831 -0.6324
  916MPD2     N13469   0.469   0.659  15.830 -0.0927 -0.2750  0.2940
  916MPD2    H513470   0.421   0.571  15.844 -0.1182 -0.5543 -1.5316
  916MPD2    N113471   0.125   0.910  16.074  0.8574  0.0411  0.3987
  916MPD2    H713472   0.122   0.993  16.134  0.7626 -1.1048  1.9832
  917MPD2     C13473   4.729   2.882  11.334  0.4163 -0.2160  0.1118
  917MPD2    C113474   0.028   2.988  11.423 -0.1121  0.3776  0.3904
  917MPD2    C213475   0.127   3.072  11.381  0.0626 -0.8355  0.5367
  917MPD2    C313476   0.199   3.055  11.257 -0.3623 -0.3075 -0.2260
  917MPD2    C413477   0.155   2.957  11.172 -0.0985  0.4682 -0.2981
  917MPD2    C513478   0.060   2.872  11.214 -0.3668  0.0013  0.0675
  917MPD2     H13479   0.158   3.142  11.457  1.2655 -0.3356 -0.4225
  917MPD2    H113480   0.205   2.946  11.076 -0.0505 -0.7179 -0.1379
  917MPD2    H213481   4.651   2.809  11.355  0.5142 -0.3620 -0.0276
  917MPD2    H313482   0.018   2.796  11.148  4.2719 -0.7116 -2.0576
  917MPD2     N13483   0.308   3.130  11.215  0.4372  0.0343  0.2796
  917MPD2    H513484   0.353   3.108  11.126 -0.0094 -0.9510  0.2955
  917MPD2    N113485   4.700   2.995  11.546 -0.2577  0.1143 -0.3023
  917MPD2    H713486   4.610   2.948  11.557  0.4169 -1.3779 -1.1659
  918MPD2     C13487   0.258   3.299  12.479 -0.1624 -0.3719  0.3454
  918MPD2    C113488   0.329   3.253  12.372 -0.7042 -0.2210 -0.2151
  918MPD2    C213489   0.261   3.205  12.255  0.0711 -0.5078  0.4814
  918MPD2    C313490   0.126   3.196  12.260  0.0481  0.3801 -0.7103
  918MPD2    C413491   0.058   3.240  12.373  0.4987 -0.6042 -0.0018
  918MPD2    C513492   0.124   3.294  12.480  0.4422  0.4837 -0.4158
  918MPD2     H13493   0.309   3.176  12.163  1.0346  0.0089  0.8091
  918MPD2    H113494   4.689   3.238  12.380  0.5859 -2.9737  0.7843
  918MPD2    H213495   0.303   3.352  12.562 -0.5342 -1.9808  1.5716
  918MPD2    H313496   0.069   3.318  12.571 -0.8878  0.8250 -1.3217
  918MPD2     N13497   0.061   3.153  12.143 -0.2431 -0.1096 -0.5475
  918MPD2    H513498   0.122   3.150  12.062  0.6071  3.3688 -0.0563
  918MPD2    N113499   0.466   3.270  12.381 -0.3811 -0.0045  0.3454
  918MPD2    H713500   0.508   3.286  12.472  0.7438  0.4382 -0.2426
  919MPD2     C13501   1.035   2.442  11.455  0.5738 -0.6084  0.5328
  919MPD2    C113502   1.038   2.308  11.432 -0.1852 -0.2778 -0.0753
  919MPD2    C213503   1.088   2.264  11.310  0.1299  0.4639  0.0621
  919MPD2    C313504   1.140   2.350  11.215  0.0485 -0.0215  0.5470
  919MPD2    C413505   1.143   2.484  11.242 -0.1537 -0.0976  0.3144
  919MPD2    C513506   1.083   2.526  11.361 -0.1193 -0.4607 -0.9394
  919MPD2     H13507   1.093   2.156  11.298 -1.7622  0.3257  0.5852
  919MPD2    H113508   1.176   2.555  11.167  0.1282  0.3351  0.8396
  919MPD2    H213509   0.991   2.490  11.541  0.6962  1.0350 -0.3127
  919MPD2    H313510   1.101   2.625  11.401 -0.9045 -1.0779  0.8994
  919MPD2     N13511   1.183   2.313  11.080  0.5316 -0.4341  0.4433
  919MPD2    H513512   1.207   2.396  11.025 -0.5783 -1.6224 -1.8281
  919MPD2    N113513   0.968   2.218  11.512  0.4201 -1.2565  0.2777
  919MPD2    H713514   0.967   2.121  11.485  1.2358 -1.3898  0.7199
  920MPD2     C13515   0.750   2.573  10.278 -0.0395 -0.2636  0.4780
  920MPD2    C113516   0.716   2.450  10.310  1.2563 -0.1232  0.0104
  920MPD2    C213517   0.795   2.368  10.381  0.1830  0.2616  0.1977
  920MPD2    C313518   0.917   2.411  10.422  0.0696 -0.5202 -1.0614
  920MPD2    C413519   0.961   2.537  10.382  0.1723  0.1829 -0.2504
  920MPD2    C513520   0.875   2.616  10.307  0.2861  0.6526  0.0542
  920MPD2     H13521   0.754   2.275  10.417  0.1892 -0.1745 -0.9349
  920MPD2    H113522   1.063   2.568  10.401 -0.4123  2.3875 -0.6769
  920MPD2    H213523   0.693   2.629  10.204 -0.9999 -1.3203  0.4344
  920MPD2    H313524   0.915   2.711  10.275 -1.3781  1.6226  0.8919
  920MPD2     N13525   0.980   2.329  10.518  0.2085  0.1762  0.9393
  920MPD2    H513526   0.960   2.232  10.535  1.1844 -0.7652 -3.1718
  920MPD2    N113527   0.591   2.398  10.266 -0.3159 -0.1562 -0.1185
  920MPD2    H713528   0.575   2.299  10.283  0.2171 -0.3968 -1.0260
  921MPD2     C13529   2.302   1.578  17.138 -0.8416  0.4934 -0.0696
  921MPD2    C113530   2.272   1.643  17.016 -0.6440 -0.4328  0.2241
  921MPD2    C213531   2.165   1.603  16.938 -0.0659 -0.4342  0.2755
  921MPD2    C313532   2.102   1.484  16.973 -0.3254  0.8894  0.5946
  921MPD2    C413533   2.134   1.411  17.091  0.3415  0.5610 -0.3405
  921MPD2    C513534   2.235   1.466  17.172 -0.2738  0.5916  0.5082
  921MPD2     H13535   2.126   1.663  16.857  2.0672  0.6694  0.0659
  921MPD2    H113536   2.084   1.318  17.116 -1.8370  1.4767 -1.2858
  921MPD2    H213537   2.379   1.620  17.201  0.0805 -0.0559 -0.8407
  921MPD2    H313538   2.274   1.415  17.260 -1.1476 -0.6081  0.2026
  921MPD2     N13539   2.008   1.421  16.890  0.2601 -0.5136 -0.4634
  921MPD2    H513540   1.953   1.349  16.936  0.4786 -0.4305 -0.0656
  921MPD2    N113541   2.350   1.754  16.989 -0.2174 -0.0894 -0.0234
  921MPD2    H713542   2.434   1.752  17.046 -0.1117  0.8916 -0.1503
  922MPD2     C13543   2.810   3.803  17.164 -0.0683  0.1159 -0.2743
  922MPD2    C113544   2.719   3.856  17.253  0.2864 -0.1835 -0.6236
  922MPD2    C213545   2.585   3.868  17.223 -0.2194  0.2909  0.0054
  922MPD2    C313546   2.539   3.813  17.106  0.3298  0.3393 -0.0139
  922MPD2    C413547   2.629   3.761  17.019  0.2783  0.1661  0.1713
  922MPD2    C513548   2.764   3.759  17.044 -0.4163 -1.0956  0.2405
  922MPD2     H13549   2.518   3.895  17.304  2.7386 -1.9441  3.2359
  922MPD2    H113550   2.610   3.723  16.919 -2.2226  0.4160  0.5616
  922MPD2    H213551   2.916   3.791  17.185 -0.1612  0.2339  0.2743
  922MPD2    H313552   2.833   3.707  16.978  0.6930 -1.3883  1.6147
  922MPD2     N13553   2.401   3.818  17.078 -0.1763  0.2721  0.1849
  922MPD2    H513554   2.340   3.858  17.148 -2.9233 -1.8812 -0.9688
  922MPD2    N113555   2.758   3.924  17.373 -0.4165 -0.0029  0.3637
  922MPD2    H713556   2.688   3.985  17.415 -2.5526 -0.7376 -2.0629
  923MPD2     C13557   3.566   0.856   8.852  0.2010  0.0745 -0.0611
  923MPD2    C113558   3.534   0.925   8.959  0.2577  0.0139 -0.8008
  923MPD2    C213559   3.627   0.982   9.041 -0.3759 -0.2275 -0.0243
  923MPD2    C313560   3.762   0.956   9.019 -0.3567 -0.0628 -0.6147
  923MPD2    C413561   3.798   0.869   8.924 -0.6417  0.7786 -0.4909
  923MPD2    C513562   3.699   0.835   8.832 -0.3713 -0.6419 -0.0574
  923MPD2     H13563   3.609   1.039   9.131 -0.6730 -2.0907  1.0736
  923MPD2    H113564   3.903   0.847   8.906 -0.5030  0.9609  0.0655
  923MPD2    H213565   3.485   0.810   8.796 -0.2027  0.5768  0.1087
  923MPD2    H313566   3.730   0.771   8.750  0.1564  2.5327 -2.3385
  923MPD2     N13567   3.869   1.002   9.105  0.6077  0.2931  0.5650
  923MPD2    H513568   3.960   0.960   9.091  1.3821  2.0999  0.2241
  923MPD2    N113569   3.393   0.938   8.979 -0.1076  0.2453  0.5439
  923MPD2    H713570   3.341   0.886   8.909  2.2504  0.7710 -1.6034
  924MPD2     C13571   3.315   4.105  16.696 -0.2938 -0.4985  0.1046
  924MPD2    C113572   3.360   4.210  16.770  0.1684 -0.8216  0.5220
  924MPD2    C213573   3.455   4.294  16.716 -0.0198 -0.2662  0.1774
  924MPD2    C313574   3.507   4.268  16.596 -0.2437 -0.6772  0.2306
  924MPD2    C413575   3.473   4.154  16.530  0.1983  0.9221  0.5613
  924MPD2    C513576   3.382   4.067  16.583  0.0874  0.2042 -0.4781
  924MPD2     H13577   3.485   4.387  16.764  1.1952  0.0823 -1.2763
  924MPD2    H113578   3.505   4.138  16.427 -0.8361 -1.1231  0.5453
  924MPD2    H213579   3.233   4.040  16.726  0.1592 -1.2718 -0.3657
  924MPD2    H313580   3.357   3.974  16.533  0.2180 -1.4550  2.5502
  924MPD2     N13581   3.584   4.368  16.535  0.4915 -0.0463  0.2526
  924MPD2    H513582   3.611   4.442  16.600  0.3890 -0.0554  0.3056
  924MPD2    N113583   3.282   4.252  16.877 -0.4883  0.0276  0.5045
  924MPD2    H713584   3.198   4.198  16.894 -0.4925 -0.1527 -0.0891
  925MPD2     C13585   2.453   2.508  14.844  0.2245 -0.3289  0.7663
  925MPD2    C113586   2.439   2.374  14.870  0.7162 -0.3274  0.1171
  925MPD2    C213587   2.398   2.327  14.996  0.2322  0.0770  0.6084
  925MPD2    C313588   2.349   2.419  15.093  0.3266  0.4006 -0.8149
  925MPD2    C413589   2.352   2.548  15.060  0.1141  0.8948  1.2026
  925MPD2    C513590   2.405   2.594  14.944  1.0125  0.8410  0.6274
  925MPD2     H13591   2.399   2.219  15.009 -0.3034  0.2623  2.2067
  925MPD2    H113592   2.321   2.628  15.126 -1.1664 -0.7978  2.6310
  925MPD2    H213593   2.499   2.553  14.757  0.6408  1.0094  1.6733
  925MPD2    H313594   2.416   2.701  14.940  3.7166  0.5537  0.3158
  925MPD2     N13595   2.311   2.369  15.220  0.4506 -0.5672 -0.7596
  925MPD2    H513596   2.318   2.271  15.245  1.9157  0.6323  3.4843
  925MPD2    N113597   2.481   2.272  14.782 -0.2271 -0.5780 -0.2142
  925MPD2    H713598   2.446   2.178  14.791 -2.4182  0.0853 -1.8153
  926MPD2     C13599   1.192   0.301  13.553  0.0247  0.4943 -0.0196
  926MPD2    C113600   1.114   0.388  13.480 -0.2212  0.4835 -0.1979
  926MPD2    C213601   1.169   0.475  13.386 -0.3456  0.0780 -0.5447
  926MPD2    C313602   1.309   0.473  13.362  0.1669  0.1305  0.3941
  926MPD2    C413603   1.386   0.387  13.438 -0.2758  0.4039 -0.3550
  926MPD2    C513604   1.329   0.303  13.530 -0.1751 -0.1809 -0.0392
  926MPD2     H13605   1.100   0.530  13.323  0.3392  0.3935 -1.0200
  926MPD2    H113606   1.495   0.386  13.443 -0.3498  0.8912  1.2880
  926MPD2    H213607   1.157   0.238  13.633 -0.9614 -0.0721 -0.9039
  926MPD2    H313608   1.394   0.236  13.585  0.0322 -0.9579 -1.2294
  926MPD2     N13609   1.374   0.556  13.269  0.6924  0.1236  0.3818
  926MPD2    H513610   1.474   0.548  13.260  0.8778  0.3401  2.1361
  926MPD2    N113611   0.982   0.402  13.498  0.8700 -0.1159  0.0574
  926MPD2    H713612   0.926   0.453  13.431 -0.2120  1.1102  1.8976
  927MPD2     C13613   1.030   2.932  17.478  0.3658  0.1309  0.5941
  927MPD2    C113614   1.050   2.798  17.489 -0.0950  0.4534  0.6060
  927MPD2    C213615   1.156   2.741  17.424 -0.1776 -0.0497 -1.2446
  927MPD2    C313616   1.234   2.806  17.336 -0.8328  0.8734 -0.0160
  927MPD2    C413617   1.207   2.943  17.317 -0.5231  0.0495  0.9185
  927MPD2    C513618   1.101   3.004  17.384 -0.2864  0.1496 -0.3592
  927MPD2     H13619   1.185   2.637  17.439 -1.8213 -0.1449  1.1605
  927MPD2    H113620   1.267   3.014  17.260  3.1499 -4.5625 -0.9699
  927MPD2    H213621   0.957   2.992  17.530 -0.5626 -0.9996  0.5978
  927MPD2    H313622   1.102   3.112  17.384  1.2067  0.1356 -1.2019
  927MPD2     N13623   1.353   2.738  17.282 -0.3780  0.6597 -0.3768
  927MPD2    H513624   1.352   2.638  17.300 -1.0324  0.3657 -1.9921
  927MPD2    N113625   0.958   2.737  17.583  0.2781 -0.5212  0.0366
  927MPD2    H713626   0.892   2.803  17.624  1.7915  1.7116 -1.1749
  928MPD2     C13627   3.474   0.666   0.172 -0.1000  0.5057  0.0344
  928MPD2    C113628   3.566   0.689   0.275 -0.5695 -0.5593 -0.3083
  928MPD2    C213629   3.633   0.809   0.291 -0.8799  0.3960  0.0705
  928MPD2    C313630   3.619   0.909   0.206 -0.7857  0.5803  0.1210
  928MPD2    C413631   3.519   0.896   0.112  0.6519  0.9204 -0.0614
  928MPD2    C513632   3.443   0.780   0.094 -1.0780 -0.7672 -0.0578
  928MPD2     H13633   3.700   0.811   0.376  0.3238 -1.5946 -0.8297
  928MPD2    H113634   3.502   0.978   0.044  3.1431  1.4953 -0.0074
  928MPD2    H213635   3.424   0.571   0.156  0.3415  0.4184 -0.8428
  928MPD2    H313636   3.355   0.769   0.033 -0.5755 -0.0679 -0.9010
  928MPD2     N13637   3.691   1.030   0.208 -0.2193 -0.4005  0.2364
  928MPD2    H513638   3.673   1.097   0.134  0.2180 -0.0511  0.4494
  928MPD2    N113639   3.604   0.585   0.367  0.4558  0.1285  0.5253
  928MPD2    H713640   3.683   0.620   0.420  0.8472  2.1461 -1.4014
  929MPD2     C13641   3.719   0.700  11.009 -0.4820  0.2014 -0.8495
  929MPD2    C113642   3.590   0.694  10.958 -0.3113 -0.0980  0.4956
  929MPD2    C213643   3.574   0.698  10.817  0.0988 -0.0044 -0.1480
  929MPD2    C313644   3.675   0.723  10.729  0.2680  0.1810 -0.4834
  929MPD2    C413645   3.804   0.723  10.791 -0.5681  0.3046 -0.2295
  929MPD2    C513646   3.830   0.721  10.925 -0.1902 -0.0229  0.2386
  929MPD2     H13647   3.474   0.707  10.778  0.6023  0.9194 -1.2297
  929MPD2    H113648   3.893   0.743  10.732 -0.5327  1.6855  0.2918
  929MPD2    H213649   3.746   0.695  11.114 -2.3700  0.7758 -0.3349
  929MPD2    H313650   3.928   0.731  10.970  1.0442  4.1463 -3.4524
  929MPD2     N13651   3.665   0.748  10.590  0.2739 -0.1603  0.1179
  929MPD2    H513652   3.748   0.784  10.544  0.5719  0.0929  0.8541
  929MPD2    N113653   3.485   0.705  11.053  0.2238 -0.4295 -0.1573
  929MPD2    H713654   3.516   0.724  11.147  0.0450 -1.2880  0.0698
  930MPD2     C13655   0.560   2.988  14.298  0.0650 -0.2059 -0.5754
  930MPD2    C113656   0.690   2.991  14.266  0.1958 -0.3447 -0.8552
  930MPD2    C213657   0.727   2.930  14.148 -0.5889  0.0074 -0.0533
  930MPD2    C313658   0.634   2.874  14.064 -0.6654 -0.4290  0.0645
  930MPD2    C413659   0.507   2.861  14.106  0.1371  0.8695 -0.0383
  930MPD2    C513660   0.472   2.907  14.228 -0.2877  0.9405 -0.9698
  930MPD2     H13661   0.834   2.925  14.127 -0.0652 -1.2978  2.9513
  930MPD2    H113662   0.432   2.820  14.039  1.2415 -0.8612 -0.2195
  930MPD2    H213663   0.518   3.038  14.384  3.4439 -0.5832  1.2820
  930MPD2    H313664   0.369   2.902  14.263 -0.7470 -0.0295 -2.4806
  930MPD2     N13665   0.662   2.836  13.934 -0.5848 -0.5743 -0.3024
  930MPD2    H513666   0.580   2.819  13.876 -0.3650  2.2607 -1.4051
  930MPD2    N113667   0.783   3.072  14.342  0.1623  0.7540  0.0602
  930MPD2    H713668   0.740   3.157  14.377  0.8998  1.4641 -0.7869
  931MPD2     C13669   1.125   2.037   0.196 -0.2396  0.7092 -0.2210
  931MPD2    C113670   1.009   2.088   0.241 -0.3491  0.0558  0.2943
  931MPD2    C213671   0.923   2.018   0.323 -0.2993  0.1647  0.3793
  931MPD2    C313672   0.973   1.901   0.387 -0.1382  0.1575 -0.2343
  931MPD2    C413673   1.091   1.853   0.345  0.3876  0.1315  0.0459
  931MPD2    C513674   1.166   1.919   0.247 -0.2352  0.3400 -0.1766
  931MPD2     H13675   0.836   2.065   0.367 -0.3181 -1.0320  1.6076
  931MPD2    H113676   1.125   1.759   0.388 -0.2237 -0.2332 -0.2655
  931MPD2    H213677   1.184   2.086   0.119  0.6911  0.3307  0.2484
  931MPD2    H313678   1.258   1.872   0.212  0.2450  1.3239 -0.2343
  931MPD2     N13679   0.890   1.830   0.477 -0.3096  0.4140 -0.4572
  931MPD2    H513680   0.941   1.757   0.525 -0.8404 -0.5929 -1.4277
  931MPD2    N113681   0.976   2.215   0.189  0.3305  0.0022  0.2682
  931MPD2    H713682   1.040   2.254   0.120  0.9429 -0.3896  0.6102
  932MPD2     C13683   2.057   1.412  11.195 -0.2920 -0.1902  0.0783
  932MPD2    C113684   2.152   1.472  11.274 -0.3215 -0.1634  0.3389
  932MPD2    C213685   2.188   1.415  11.396  0.4213 -0.5599 -0.1860
  932MPD2    C313686   2.155   1.284  11.422 -0.1289  0.1306  0.3394
  932MPD2    C413687   2.057   1.227  11.346  0.0196  0.2223 -0.0424
  932MPD2    C513688   2.005   1.289  11.232 -0.2626  0.0462  0.3626
  932MPD2     H13689   2.256   1.466  11.463 -1.9968  1.1974  0.9041
  932MPD2    H113690   2.024   1.127  11.373  0.1794  0.4884  1.1146
  932MPD2    H213691   2.023   1.446  11.097  0.1299  0.1234  0.0444
  932MPD2    H313692   1.938   1.236  11.166  1.7784 -1.3938 -0.5875
  932MPD2     N13693   2.208   1.220  11.531  0.5221  0.1001 -0.0405
  932MPD2    H513694   2.157   1.136  11.558  1.1329  0.1912  1.4035
  932MPD2    N113695   2.207   1.597  11.240 -0.6358 -0.0298 -0.1513
  932MPD2    H713696   2.270   1.646  11.301 -1.8686 -0.5662  1.5504
  933MPD2     C13697   3.243   4.627   0.584  0.5480  0.8451  0.3003
  933MPD2    C113698   3.353   4.652   0.666  0.7229 -0.2784 -0.1261
  933MPD2    C213699   3.371   4.582   0.784  0.1933 -0.0648  0.1389
  933MPD2    C313700   3.295   4.467   0.802  0.2510  0.2213 -0.6385
  933MPD2    C413701   3.200   4.432   0.708 -0.1861  0.2127  1.0243
  933MPD2    C513702   3.173   4.512   0.601 -0.7785  0.4190 -0.2155
  933MPD2     H13703   3.449   4.599   0.857  0.1470  2.7294 -0.4547
  933MPD2    H113704   3.152   4.335   0.708 -1.8752  1.0457  0.3951
  933MPD2    H213705   3.214   4.686   0.498  0.4851  3.8429  2.3956
  933MPD2    H313706   3.094   4.484   0.532  1.3610  0.2363 -2.5875
  933MPD2     N13707   3.334   4.391   0.913  0.2142 -0.3298 -0.1665
  933MPD2    H513708   3.409   4.425   0.972  1.4704  0.9356 -2.5028
  933MPD2    N113709   3.440   0.023   0.623  0.5235  0.1665 -0.5287
  933MPD2    H713710   3.407   0.068   0.539 -1.4057 -0.0482  0.1120
  934MPD2     C13711   0.596   3.079   2.290 -0.4621 -0.0116 -0.1298
  934MPD2    C113712   0.655   3.008   2.189  0.0317 -0.2033 -0.8442
  934MPD2    C213713   0.578   2.960   2.086  0.1357 -0.0980 -0.0545
  934MPD2    C313714   0.437   2.986   2.084 -0.5968 -0.3560 -0.6945
  934MPD2    C413715   0.387   3.055   2.189  0.0988 -0.5111 -0.2311
  934MPD2    C513716   0.465   3.108   2.289  0.2535 -0.8282 -0.9828
  934MPD2     H13717   0.615   2.915   1.994 -0.9402 -0.9680 -0.0531
  934MPD2    H113718   0.279   3.069   2.190  0.1144 -0.3394 -1.0901
  934MPD2    H213719   0.653   3.138   2.360 -0.6115  2.0021 -1.7083
  934MPD2    H313720   0.427   3.164   2.374  0.5960  0.4724 -1.6881
  934MPD2     N13721   0.351   2.950   1.978 -0.0256  0.7389  0.5761
  934MPD2    H513722   0.255   2.980   1.980 -0.3566 -0.3324  1.3078
  934MPD2    N113723   0.792   2.983   2.188  0.9621 -0.0476  0.3259
  934MPD2    H713724   0.828   2.925   2.113  1.2194  0.0645  0.3631
  935MPD2     C13725   0.613   2.522   1.103 -0.2132 -0.2845 -0.0478
  935MPD2    C113726   0.484   2.559   1.084 -0.0192  0.4636 -0.3791
  935MPD2    C213727   0.410   2.613   1.189 -0.0238  0.7786 -0.5373
  935MPD2    C313728   0.468   2.630   1.311  0.1321  0.5612 -0.8046
  935MPD2    C413729   0.597   2.595   1.328  0.5008  0.1159  0.6848
  935MPD2    C513730   0.669   2.537   1.225 -0.0910 -0.3095 -0.3398
  935MPD2     H13731   0.302   2.625   1.180 -0.1319 -1.0372 -1.7172
  935MPD2    H113732   0.647   2.592   1.424  0.9707 -2.8561  0.3515
  935MPD2    H213733   0.673   2.494   1.017  0.5904 -0.5647  0.6066
  935MPD2    H313734   0.772   2.508   1.244 -0.5439 -1.0578  0.9556
  935MPD2     N13735   0.405   2.682   1.425  0.3536  0.3579 -0.2868
  935MPD2    H513736   0.447   2.682   1.517  1.5180  1.3487 -0.8271
  935MPD2    N113737   0.415   2.545   0.965 -0.2635  0.7881  0.5417
  935MPD2    H713738   0.322   2.586   0.961 -0.7148 -0.0962  2.0017
  936MPD2     C13739   3.431   4.643  13.018 -0.3380  0.0017 -0.2436
  936MPD2    C113740   3.382   0.000  13.102  0.6252  0.2382  0.1752
  936MPD2    C213741   3.363   0.128  13.051 -0.3046  0.1383 -0.0236
  936MPD2    C313742   3.384   0.160  12.919  0.2926  0.7225  0.7691
  936MPD2    C413743   3.434   0.060  12.841  0.2356  0.1128  0.0226
  936MPD2    C513744   3.462   4.677  12.893  1.2407  0.6745 -0.7354
  936MPD2     H13745   3.329   0.201  13.124 -1.5363 -0.0409 -0.4184
  936MPD2    H113746   3.447   0.069  12.734  1.3760  2.2793  0.3562
  936MPD2    H213747   3.457   4.545  13.059  0.4484  1.1510  2.0090
  936MPD2    H313748   3.505   4.602  12.828 -3.3527 -1.4898 -1.2926
  936MPD2     N13749   3.367   0.291  12.884  0.4270  0.1672 -0.4546
  936MPD2    H513750   3.335   0.356  12.954  0.7637  1.2080 -1.2576
  936MPD2    N113751   3.384   4.720  13.244 -0.3571 -0.6407 -0.0197
  936MPD2    H713752   3.372   0.062  13.305 -1.2605  0.2136 -1.3249
  937MPD2     C13753   0.954   1.518  11.651  0.7952 -0.9598 -0.0563
  937MPD2    C113754   1.036   1.623  11.636 -0.3509  0.5071  0.0406
  937MPD2    C213755   1.138   1.610  11.545  0.0112 -0.0865  0.1748
  937MPD2    C313756   1.171   1.484  11.498  0.0186  0.0473 -0.1345
  937MPD2    C413757   1.095   1.375  11.518  0.5686  0.4600 -0.6479
  937MPD2    C513758   0.988   1.393  11.604 -0.2256 -0.3372  0.0983
  937MPD2     H13759   1.194   1.694  11.506 -1.0356  1.2119  1.4716
  937MPD2    H113760   1.114   1.274  11.483 -0.1797 -0.6169  2.0590
  937MPD2    H213761   0.867   1.527  11.715  0.8534 -0.5998 -0.0301
  937MPD2    H313762   0.920   1.309  11.615  2.0712 -2.1932  0.1490
  937MPD2     N13763   1.293   1.478  11.429 -0.9097  0.0166  0.7490
  937MPD2    H513764   1.351   1.561  11.417  2.7765 -2.4987  1.2475
  937MPD2    N113765   1.006   1.756  11.682 -0.0640 -0.5495 -0.3294
  937MPD2    H713766   1.049   1.834  11.633 -1.8587  0.4932 -0.2766
  938MPD2     C13767   3.706   3.557   0.593 -0.7339  0.0503 -0.5172
  938MPD2    C113768   3.817   3.495   0.645  0.6751  0.7824 -0.6421
  938MPD2    C213769   3.797   3.387   0.732  0.1549  0.3847  0.9283
  938MPD2    C313770   3.677   3.338   0.768  0.1130  0.2714  0.4280
  938MPD2    C413771   3.564   3.396   0.714 -0.7290 -0.7936 -0.2426
  938MPD2    C513772   3.581   3.499   0.622 -0.8065 -0.1982  0.2857
  938MPD2     H13773   3.891   3.353   0.773  0.0840 -0.8476  0.0721
  938MPD2    H113774   3.463   3.369   0.744 -0.7516 -0.2828  0.1374
  938MPD2    H213775   3.710   3.645   0.530 -0.6873 -0.1668 -0.8147
  938MPD2    H313776   3.490   3.532   0.573 -1.2166 -1.0307  0.4943
  938MPD2     N13777   3.661   3.222   0.852 -0.1401 -0.5115  0.2370
  938MPD2    H513778   3.571   3.174   0.850  0.7825 -2.3224  2.6169
  938MPD2    N113779   3.947   3.552   0.630  0.3642  0.0079 -0.1690
  938MPD2    H713780   4.022   3.494   0.664 -0.9416 -0.3270  2.1063
  939MPD2     C13781   0.744   3.517   0.659  0.3484 -0.3632 -0.1863
  939MPD2    C113782   0.679   3.628   0.718 -0.0074 -0.3120 -0.1611
  939MPD2    C213783   0.603   3.716   0.633  0.5644  0.2259  0.3918
  939MPD2    C313784   0.597   3.687   0.494  0.3426 -0.4278 -0.3454
  939MPD2    C413785   0.667   3.582   0.441 -0.8519  0.1923 -0.6069
  939MPD2    C513786   0.740   3.499   0.522 -0.7408 -0.1893  0.0755
  939MPD2     H13787   0.563   3.812   0.664 -0.8378 -0.1721 -0.1859
  939MPD2    H113788   0.659   3.554   0.337 -1.4861 -1.4631 -0.1151
  939MPD2    H213789   0.781   3.437   0.721 -0.6466  0.2992  1.2405
  939MPD2    H313790   0.791   3.414   0.479  1.2896  1.4762 -0.7815
  939MPD2     N13791   0.518   3.777   0.417  1.1903 -0.0044 -0.0600
  939MPD2    H513792   0.445   3.818   0.474  1.2066 -1.0480  0.7168
  939MPD2    N113793   0.705   3.655   0.854  0.7039 -0.8337  0.0956
  939MPD2    H713794   0.778   3.596   0.893  1.0526 -0.2380  0.3333
  940MPD2     C13795   3.850   0.738  13.279  0.3457  0.5909 -0.1075
  940MPD2    C113796   3.802   0.609  13.293 -0.1222 -0.1597  0.0725
  940MPD2    C213797   3.791   0.537  13.180  0.2579  0.5267  0.0957
  940MPD2    C313798   3.837   0.575  13.055  0.0072  0.1785  0.4941
  940MPD2    C413799   3.888   0.703  13.045  1.3025  0.2066 -0.2170
  940MPD2    C513800   3.902   0.774  13.160  0.3877 -0.4410 -0.1153
  940MPD2     H13801   3.751   0.438  13.193 -0.6924  0.8088 -0.6690
  940MPD2    H113802   3.920   0.744  12.950  2.2992 -0.7332 -0.2888
  940MPD2    H213803   3.856   0.812  13.358  2.0725  0.5216 -0.1701
  940MPD2    H313804   3.940   0.874  13.144 -0.6415  0.0489  0.4556
  940MPD2     N13805   3.834   0.493  12.939 -0.1243  0.2770 -0.1970
  940MPD2    H513806   3.885   0.528  12.858 -0.7080  0.1622 -0.6195
  940MPD2    N113807   3.753   0.550  13.412 -0.1279  0.1244  0.5098
  940MPD2    H713808   3.746   0.449  13.413 -1.3815  0.2003 -0.6334
  941MPD2     C13809   2.424   4.171  10.204 -0.5074  0.1003 -0.3888
  941MPD2    C113810   2.494   4.061  10.159 -0.1597  0.0448 -0.3068
  941MPD2    C213811   2.414   3.950  10.134 -0.6994  0.1922  0.4986
  941MPD2    C313812   2.279   3.947  10.143 -0.2788  0.0586  0.0538
  941MPD2    C413813   2.213   4.060  10.173  0.2423 -0.2481 -0.1205
  941MPD2    C513814   2.287   4.170  10.210  0.9971  0.4538  0.1307
  941MPD2     H13815   2.473   3.864  10.104 -1.4443 -0.4041  0.7723
  941MPD2    H113816   2.105   4.072  10.174  0.2237 -0.6925  3.2043
  941MPD2    H213817   2.469   4.263  10.240 -1.9371 -0.2085  2.2000
  941MPD2    H313818   2.235   4.261  10.237  1.6841  0.7548  0.4348
  941MPD2     N13819   2.212   3.823  10.131  0.1023 -0.6447  0.1719
  941MPD2    H513820   2.115   3.825  10.160 -0.2234 -0.8506 -0.8777
  941MPD2    N113821   2.635   4.051  10.148 -0.4548  0.0678  0.2294
  941MPD2    H713822   2.668   3.956  10.132  0.5667  0.1036  2.1543
  942MPD2     C13823   2.834   1.330   9.648  0.0994  0.6590  0.0929
  942MPD2    C113824   2.820   1.192   9.652  0.1523  0.1982  0.5796
  942MPD2    C213825   2.927   1.116   9.620  0.5796  0.1783 -0.1565
  942MPD2    C313826   3.047   1.165   9.571  0.1767  0.1041 -0.2093
  942MPD2    C413827   3.056   1.305   9.572  0.3243  0.5416  0.2644
  942MPD2    C513828   2.956   1.385   9.617 -0.1201  0.1167 -0.7178
  942MPD2     H13829   2.926   1.012   9.651 -0.9018 -0.1166 -1.2059
  942MPD2    H113830   3.151   1.354   9.549  1.4101 -0.8447  1.8344
  942MPD2    H213831   2.752   1.393   9.682  0.3646 -0.0382  2.0691
  942MPD2    H313832   2.959   1.493   9.626  1.0254 -0.0532  0.9187
  942MPD2     N13833   3.161   1.087   9.527  0.2752  0.5373  0.0854
  942MPD2    H513834   3.245   1.145   9.518 -1.1100  2.2593 -1.9437
  942MPD2    N113835   2.711   1.128   9.714 -0.5587 -0.4748  0.3258
  942MPD2    H713836   2.730   1.031   9.737  1.3373 -0.4439 -1.0932
  943MPD2     C13837   1.908   3.756   9.926 -0.8359 -0.4974 -0.2644
  943MPD2    C113838   1.813   3.676   9.984  0.2003  0.1459  0.2306
  943MPD2    C213839   1.753   3.717  10.103 -0.1895  0.3915 -0.2533
  943MPD2    C313840   1.790   3.835  10.166 -0.2581 -0.1413  0.3613
  943MPD2    C413841   1.885   3.915  10.106  0.1335  0.2813 -0.3975
  943MPD2    C513842   1.946   3.874   9.988 -0.0568  0.4343  0.1225
  943MPD2     H13843   1.674   3.660  10.148  0.1649  0.1048  0.0052
  943MPD2    H113844   1.908   4.013  10.147 -0.6500  0.8327 -1.2565
  943MPD2    H213845   1.953   3.727   9.831 -2.4471  4.1044 -2.4372
  943MPD2    H313846   2.025   3.933   9.942  1.4535 -2.1878 -0.6814
  943MPD2     N13847   1.723   3.865  10.282 -0.0418  0.1214 -0.5837
  943MPD2    H513848   1.654   3.797  10.314 -0.6668  1.8108  1.6395
  943MPD2    N113849   1.794   3.552   9.920  0.3594  0.0748  0.0148
  943MPD2    H713850   1.847   3.539   9.834 -0.5396  1.8842 -0.8045
  944MPD2     C13851   1.874   3.484  10.994  0.1045 -0.3386  0.1013
  944MPD2    C113852   1.893   3.349  10.989  0.1365 -0.2087  0.0995
  944MPD2    C213853   1.857   3.270  11.101  0.0571  0.6183 -0.0431
  944MPD2    C313854   1.812   3.331  11.213  0.8236 -0.6079 -0.7373
  944MPD2    C413855   1.792   3.469  11.215  0.2790 -0.2257 -0.9851
  944MPD2    C513856   1.820   3.542  11.107 -0.4051  0.2081 -0.4120
  944MPD2     H13857   1.864   3.161  11.101  1.5153  0.7024 -1.2286
  944MPD2    H113858   1.750   3.522  11.300  1.8885  1.9811 -1.5528
  944MPD2    H213859   1.913   3.553  10.920 -0.8542  1.6222  1.4263
  944MPD2    H313860   1.800   3.649  11.100  0.3714  0.5000  2.0878
  944MPD2     N13861   1.782   3.246  11.324  0.2279  0.4154 -0.1181
  944MPD2    H513862   1.777   3.146  11.310  0.4008  0.7080 -2.2967
  944MPD2    N113863   1.932   3.292  10.865  0.5686  0.5961  0.2232
  944MPD2    H713864   1.952   3.348  10.782  0.6478 -0.4593 -0.4723
    1TMC1    C113865   4.064   3.905  14.140 -0.1736  0.4365  0.2485
    1TMC1    C213866   4.016   3.824  14.037  0.1049  0.4112  0.0729
    1TMC1    C313867   3.885   3.842  14.000 -0.0486  0.5195 -0.0242
    1TMC1    C413868   3.986   4.005  14.200 -0.2082  0.1112  0.0321
    1TMC1    C513869   3.862   4.029  14.152 -0.8071  0.4037  0.0099
    1TMC1    C613870   3.816   3.953  14.043 -0.0492  0.0851 -0.0278
    1TMC1     C13871   4.182   3.859  14.216  0.2764  0.1412 -0.3358
    1TMC1     O13872   4.217   3.744  14.206 -0.1545 -0.5856  0.6719
    1TMC1     H13873   4.078   3.743  14.002  0.1789 -0.2255  1.6572
    1TMC1    H113874   4.022   4.069  14.280 -0.9170  2.7501 -1.7858
    1TMC1    H213875   3.715   3.962  14.005  0.3209  0.4077 -0.9356
    1TMC1    C713876   3.802   4.151  14.186 -0.5749  0.6533  0.6205
    1TMC1    C813877   3.827   3.761  13.892  0.2466  0.1772 -0.6015
    1TMC1    O113878   3.842   4.224  14.276 -0.3138 -0.6344  0.5552
    1TMC1    O213879   3.709   3.753  13.863 -0.4608 -0.1303  0.6040
    1TMC1    O313880   3.774   4.206  14.065  0.0061  0.2524 -0.3951
    1TMC1    H313881   3.767   4.140  13.993  0.1974  0.5998 -0.7307
    1TMC1    O513882   3.914   3.799  13.794 -0.3937 -0.1712 -0.0733
    1TMC1    H513883   4.003   3.826  13.828  0.3656 -0.5397 -1.7985
    2MPD2     C13884   4.475   3.929  14.633  0.6841 -0.3899 -0.9775
    2MPD2    C113885   4.436   4.053  14.600 -0.0032  0.9966 -0.4217
    2MPD2    C213886   4.355   4.058  14.488 -0.1201  0.2339 -0.2688
    2MPD2    C313887   4.323   3.945  14.407  1.1959  0.3664  0.1476
    2MPD2    C413888   4.356   3.825  14.457  0.2508 -0.1746  0.1427
    2MPD2    C513889   4.440   3.818  14.563  0.5428  0.1506 -0.3336
    2MPD2     H13890   4.318   4.157  14.462 -1.7156 -0.0568  0.9008
    2MPD2    H113891   4.345   3.732  14.402 -2.8985  0.9903 -1.2190
    2MPD2    H213892   4.544   3.915  14.716  1.1823  3.4335 -0.7446
    2MPD2    H313893   4.471   3.717  14.589  0.4191  0.4912  1.1478
    2MPD2     N13894   4.224   3.958  14.307 -0.1501 -0.1144 -0.0253
    2MPD2    H513895   4.190   4.052  14.290  0.9828  0.7959  2.7403
    2MPD2    N113896   4.485   4.162  14.675  0.3675  0.2792 -0.2675
    2MPD2    H713897   4.559   4.132  14.737 -0.1569 -0.2677  0.0944
    3TMC2    C113898   4.532   4.375  14.776  0.4276 -0.4646 -0.0621
    3TMC2    C213899   4.558   4.318  14.899  0.1570  0.5278 -0.9059
    3TMC2    C313900   4.610   4.400  14.998 -0.3165 -0.0480 -0.5818
    3TMC2    C413901   4.568   4.505  14.751  0.3183 -0.1991  0.4396
    3TMC2    C513902   4.637   4.576  14.845 -0.2919  0.2744 -0.2523
    3TMC2    C613903   4.666   4.524  14.967  0.2826  0.1457 -0.8624
    3TMC2     C13904   4.463   4.298  14.668 -0.1571  0.3362 -0.3865
    3TMC2     O13905   4.405   4.354  14.574 -0.0938 -0.5106 -0.3882
    3TMC2     H13906   4.525   4.217  14.922  2.0526  0.7844  2.8678
    3TMC2    H113907   4.550   4.553  14.655  0.4436 -0.0083  0.5095
    3TMC2    H213908   4.712   4.583  15.045  1.1018  0.1756 -1.3710
    3TMC2    C713909   4.712   4.694  14.808  0.0931  0.5932 -0.1960
    3TMC2    C813910   4.663   4.328  15.110 -0.2099 -0.4388 -0.3030
    3TMC2    O113911   0.062   4.724  14.888  0.7263  0.1838  0.2000
    3TMC2    O213912   4.709   4.221  15.086 -0.1643  0.2221  0.2667
    3TMC2    O513913   4.696   4.419  15.203  0.3944  0.7069  0.0254
    3TMC2    H513914   4.619   4.481  15.204  0.2570  0.5690 -2.5600
    4TMC2    C113915   4.275   0.672  14.238 -0.6212  0.6853  0.1763
    4TMC2    C213916   4.368   0.749  14.175 -0.8784 -0.3062 -0.1919
    4TMC2    C313917   4.498   0.716  14.190  0.0056 -0.0941 -0.1629
    4TMC2    C413918   4.304   0.572  14.328  0.0275 -0.2338  0.3318
    4TMC2    C513919   4.440   0.546  14.345 -0.0157  0.5348 -0.0392
    4TMC2    C613920   4.537   0.620  14.279  0.0805  0.2554  1.0212
    4TMC2     C13921   4.139   0.732  14.254  0.7532  0.5107 -0.7927
    4TMC2     O13922   4.076   0.705  14.357  0.1563  0.0833 -0.0279
    4TMC2     H13923   4.343   0.829  14.107 -1.1549 -0.2285  0.0031
    4TMC2    H113924   4.231   0.524  14.391  0.5456 -2.1781 -0.5448
    4TMC2    H213925   4.641   0.592  14.278  0.7303  2.7103 -0.0894
    4TMC2    C713926   4.478   0.442  14.439  0.1172  0.1555  0.0138
    4TMC2    C813927   4.597   0.809  14.154  0.2887 -0.7018 -0.8112
    4TMC2    O113928   4.401   0.345  14.431 -0.4555  0.4970  0.5441
    4TMC2    O213929   4.594   0.930  14.170  0.4485  0.3221 -0.1693
    4TMC2    O513930   4.700   0.742  14.090  0.4142 -0.1518 -0.4279
    4TMC2    H513931   4.679   0.651  14.062  1.2946 -0.7224  0.7720
    5MPD2     C13932   3.753   1.027  14.071 -0.1958  0.1024 -0.9260
    5MPD2    C113933   3.856   1.025  13.977 -0.7367  0.3470  0.2307
    5MPD2    C213934   3.970   0.946  14.002 -0.4457 -0.2856  0.1798
    5MPD2    C313935   3.987   0.882  14.120 -0.6721  0.3285  0.1890
    5MPD2    C413936   3.886   0.890  14.214 -0.2017  0.5207  0.1698
    5MPD2    C513937   3.768   0.955  14.187 -0.4832 -0.1460  0.3409
    5MPD2     H13938   4.043   0.926  13.925 -0.4040 -0.3450  0.2347
    5MPD2    H113939   3.883   0.843  14.311 -0.9392  1.9771  0.8482
    5MPD2    H213940   3.664   1.088  14.061  0.6177  1.5692  0.6414
    5MPD2    H313941   3.689   0.947  14.261 -0.6963  1.2231  0.2556
    5MPD2     N13942   4.105   0.809  14.145  1.0887 -0.1509  0.8711
    5MPD2    H513943   4.170   0.807  14.066  1.1940 -0.6423  0.9739
    5MPD2    N113944   3.824   1.087  13.852  0.2511 -0.0940  0.6960
    5MPD2    H713945   3.731   1.126  13.837  1.1297  1.5254 -0.5604
    6MPD1     C13946   2.630   1.847  13.436  0.2968 -0.4883  0.8828
    6MPD1    C113947   2.764   1.881  13.414 -0.1788 -0.4703 -0.0005
    6MPD1    C213948   2.835   1.799  13.335 -0.0736 -0.5760  0.2590
    6MPD1    C313949   2.782   1.695  13.260 -0.1646 -0.7235  0.3455
    6MPD1    C413950   2.645   1.683  13.263 -0.4489  0.6321 -0.0208
    6MPD1    C513951   2.575   1.747  13.358 -0.2036  0.2097  0.2076
    6MPD1     H13952   2.943   1.809  13.341  0.0116 -1.3647 -0.0384
    6MPD1    H113953   2.602   1.608  13.197  0.6194  1.3533 -1.5314
    6MPD1    H213954   2.568   1.901  13.507 -1.1952  0.0774 -0.8571
    6MPD1    H313955   2.469   1.730  13.368  0.0737 -1.5189  0.1963
    6MPD1     N13956   2.856   1.617  13.166 -0.4536 -0.5612  0.8791
    6MPD1    H513957   2.805   1.547  13.113  1.2639  0.6192 -2.3420
    6MPD1    N113958   2.828   1.981  13.489 -0.1785  0.2042  0.7476
    6MPD1    H613959   2.757   2.054  13.501 -0.6388 -0.0689 -0.3379
    6MPD1    H713960   2.905   2.029  13.444 -0.2209 -0.4378  0.0046
    7MPD2     C13961   3.053   1.111  13.440  0.5037  0.0305 -0.3167
    7MPD2    C113962   3.147   1.147  13.344 -0.3618 -0.6991  0.2282
    7MPD2    C213963   3.282   1.132  13.373 -0.5155 -0.6472 -0.1471
    7MPD2    C313964   3.328   1.076  13.490 -0.3373 -0.5578  0.1027
    7MPD2    C413965   3.239   1.060  13.589  0.0139  0.7441 -0.1723
    7MPD2    C513966   3.102   1.069  13.563  0.8040  0.1314  0.0025
    7MPD2     H13967   3.353   1.166  13.298 -0.9075  1.1703  0.3112
    7MPD2    H113968   3.270   1.028  13.688 -2.9600 -0.1331  0.4905
    7MPD2    H213969   2.948   1.118  13.415 -0.0983 -1.4308  1.7673
    7MPD2    H313970   3.031   1.045  13.641  0.2302 -0.6073 -0.7499
    7MPD2     N13971   3.462   1.043  13.517  0.0579 -0.1233  0.2806
    7MPD2    H513972   3.481   0.993  13.604 -1.3140 -1.3607 -0.1498
    7MPD2    N113973   3.098   1.203  13.223  0.0214 -0.8243 -0.6713
    7MPD2    H713974   2.997   1.208  13.212 -0.1278  0.3034  1.1518
    8TMC3    C113975   3.700   1.032  13.461 -0.7833  0.1489 -0.2196
    8TMC3    C213976   3.728   1.066  13.594 -0.1918  0.5601 -0.1655
    8TMC3    C313977   3.850   1.127  13.615  0.0380 -0.0244  0.3811
    8TMC3    C413978   3.793   1.061  13.362  0.3193 -0.7412  0.6562
    8TMC3    C513979   3.910   1.134  13.382  0.1385 -0.0625 -0.5601
    8TMC3    C613980   3.938   1.161  13.512 -0.1210 -0.0869 -0.7678
    8TMC3     C13981   3.564   1.046  13.420  0.7548  0.6214 -0.0325
    8TMC3     O13982   3.551   1.073  13.300  0.2673  0.1454  0.7254
    8TMC3     H13983   3.669   1.038  13.680 -0.7777 -0.5086 -0.9246
    8TMC3    H113984   3.768   1.036  13.260 -0.9563  1.6175  0.3779
    8TMC3    H213985   4.028   1.212  13.545 -1.1192  0.7541  0.6224
    8TMC3    C713986   3.898   1.258  13.301 -0.1111 -0.1676 -0.6662
    8TMC3    C813987   3.909   1.102  13.743 -0.1194  0.2652 -0.6807
    8TMC3    O113988   3.984   1.344  13.323  0.7814  0.1368 -0.0809
    8TMC3    O213989   4.025   1.075  13.737  0.0572  0.2680  0.2333
    9TMC3    C113990   3.032   1.547  13.026  1.0628  0.4253  0.9051
    9TMC3    C213991   3.130   1.586  12.944 -0.1691  0.0235 -0.4400
    9TMC3    C313992   3.215   1.489  12.890 -0.3480  0.0376 -0.4003
    9TMC3    C413993   3.007   1.416  13.063  0.5601 -0.1756 -0.3122
    9TMC3    C513994   3.093   1.323  13.016 -0.7164  0.7031  0.2935
    9TMC3    C613995   3.174   1.357  12.915  0.1269 -0.1679 -0.0697
    9TMC3     C13996   2.986   1.649  13.116 -0.3145  0.0203 -0.2371
    9TMC3     O13997   3.059   1.743  13.138 -0.4574  0.1461  0.5482
    9TMC3     H13998   3.151   1.691  12.928  1.4101 -0.2477 -0.1266
    9TMC3    H113999   2.940   1.387  13.143  2.0517 -0.5457  0.8040
    9TMC3    H214000   3.234   1.278  12.871 -2.2018 -0.8053 -2.0356
    9TMC3    C714001   3.168   1.252  13.113  0.3997  0.2133  0.0421
    9TMC3    C814002   3.358   1.529  12.887  0.3306  0.2506  0.0121
    9TMC3    O114003   3.286   1.248  13.090 -0.5555 -0.1448  0.4293
    9TMC3    O214004   3.390   1.640  12.855 -0.0291 -0.4063  0.5366
   10MPD2     C14005   3.805   1.498  13.137  0.1516  0.0844 -0.4360
   10MPD2    C114006   3.727   1.386  13.161 -0.2350 -0.1662  0.5222
   10MPD2    C214007   3.598   1.374  13.109 -0.4440  0.4064  0.0997
   10MPD2    C314008   3.557   1.469  13.018 -0.2072  0.5213 -0.7515
   10MPD2    C414009   3.640   1.569  12.981 -0.1770  0.6386  1.1137
   10MPD2    C514010   3.758   1.584  13.040 -0.4569 -0.1285  0.0435
   10MPD2     H14011   3.525   1.298  13.131 -1.5352  0.4977 -3.2746
   10MPD2    H114012   3.609   1.642  12.907 -0.9193 -0.5030  0.3040
   10MPD2    H214013   3.905   1.511  13.179  0.3691 -2.3747 -0.1940
   10MPD2    H314014   3.822   1.665  13.006 -0.0152 -1.2206 -1.7170
   10MPD2     N14015   3.428   1.445  12.967  0.2381  0.4114 -0.6971
   10MPD2    H514016   3.379   1.366  13.007  0.8843 -0.0117 -0.7456
   10MPD2    N114017   3.770   1.275  13.247  0.5142 -0.0247 -0.0359
   10MPD2    H714018   3.699   1.204  13.261  0.6987 -0.4020 -1.0559
   11MPD2     C14019   0.079   0.225  14.737  0.2830  0.1395 -0.5284
   11MPD2    C114020   4.707   0.166  14.675  0.1093  0.2365 -0.1602
   11MPD2    C214021   4.629   0.249  14.594 -0.1619 -0.0736 -0.5028
   11MPD2    C314022   4.667   0.384  14.580  0.6628  0.6622  0.6510
   11MPD2    C414023   0.040   0.433  14.637  0.1779  0.0884  0.4695
   11MPD2    C514024   0.119   0.351  14.708 -0.4376 -0.1297 -0.9807
   11MPD2     H14025   4.530   0.212  14.569 -0.1646 -0.3767 -0.0488
   11MPD2    H114026   0.065   0.538  14.623 -1.5031  0.2931 -1.0200
   11MPD2    H214027   0.163   0.182  14.791  0.5923  3.1293  1.3523
   11MPD2    H314028   0.210   0.391  14.751 -0.1453 -1.2760 -0.5473
   11MPD2     N14029   4.585   0.479  14.512 -0.2343 -0.0587 -0.0974
   11MPD2    H514030   4.626   0.572  14.506  2.0319 -0.8550  3.1200
   11MPD2    N114031   4.656   0.037  14.702  0.3445 -0.1394  0.6878
   11MPD2    H714032   4.562   0.017  14.670  0.5336 -0.3284  0.2486
    1MPD1     C14033   3.478   1.655  17.146 -0.4963  0.1891 -0.4068
    1MPD1    C114034   3.498   1.795  17.153 -0.7528 -0.3564 -0.0837
    1MPD1    C214035   3.517   1.860  17.032  0.3494 -0.5953  0.5671
    1MPD1    C314036   3.512   1.792  16.914  0.7750 -0.1411 -0.1791
    1MPD1    C414037   3.481   1.663  16.913  0.3817 -0.5058 -0.0775
    1MPD1    C514038   3.474   1.594  17.026 -0.8104 -0.3477 -0.2080
    1MPD1     H14039   3.545   1.964  17.019  1.0147 -1.0125 -1.2285
    1MPD1    H114040   3.461   1.610  16.821  0.0798 -1.2742  0.4358
    1MPD1    H214041   3.457   1.589  17.229  0.2172  0.5773  0.0796
    1MPD1    H314042   3.452   1.488  17.022 -1.7246 -0.2365  1.7768
    1MPD1     N14043   3.529   1.848  16.781 -0.1843  0.7054 -0.4171
    1MPD1    H514044   3.533   1.782  16.703  0.6027  1.3363 -0.9090
    1MPD1    N114045   3.486   1.869  17.271  0.4446  0.3243 -0.3798
    1MPD1    H614046   3.497   1.809  17.352 -1.6537  0.1290 -0.2210
    1MPD1    H714047   3.558   1.940  17.274  1.2430 -0.4892 -0.2886
    2MPD1     C14048   3.570   2.773  16.395 -0.1122 -0.4976 -0.0652
    2MPD1    C114049   3.485   2.701  16.481  0.2316  0.1437 -0.2531
    2MPD1    C214050   3.519   2.576  16.514  0.2571  0.1850  0.3231
    2MPD1    C314051   3.622   2.506  16.458 -0.2313  0.2126 -0.1973
    2MPD1    C414052   3.713   2.581  16.386 -0.3112  0.5350 -0.2924
    2MPD1    C514053   3.683   2.712  16.353 -0.7820  0.1033  0.2124
    2MPD1     H14054   3.457   2.519  16.583 -1.0603  0.2275 -0.8238
    2MPD1    H114055   3.807   2.551  16.341 -0.9870  1.9213 -2.6577
    2MPD1    H214056   3.546   2.879  16.388 -2.0907 -0.9120  0.3404
    2MPD1    H314057   3.759   2.770  16.302 -0.1090  0.9583  2.2148
    2MPD1     N14058   3.629   2.368  16.483 -0.3831 -0.5252 -0.2105
    2MPD1    H514059   3.552   2.319  16.528  1.4358 -1.7243  1.5387
    2MPD1    N114060   3.365   2.753  16.537  0.8776 -0.1628  0.4608
    2MPD1    H614061   3.364   2.854  16.550  1.0255  0.0110 -0.8201
    2MPD1    H714062   3.336   2.704  16.621 -0.4989 -0.8082 -0.3834
    3TMC3    C114063   3.678   2.154  16.451  0.0731  0.4735 -0.5822
    3TMC3    C214064   3.659   2.060  16.353 -0.3381 -0.3546  0.4809
    3TMC3    C314065   3.593   1.944  16.383 -0.4157 -0.2311  0.3175
    3TMC3    C414066   3.620   2.138  16.578 -0.8203  0.2735 -0.2342
    3TMC3    C514067   3.569   2.016  16.609  0.2123 -0.2967 -0.7463
    3TMC3    C614068   3.544   1.923  16.511 -0.7472 -0.0236 -0.0869
    3TMC3     C14069   3.708   2.285  16.415  0.4420  0.5906  0.4079
    3TMC3     O14070   3.767   2.295  16.307  0.2062 -0.1006  0.0835
    3TMC3     H14071   3.721   2.060  16.264  1.0554  0.4612  1.4749
    3TMC3    H114072   3.654   2.212  16.649  1.7814 -0.5727 -0.6083
    3TMC3    H214073   3.500   1.827  16.535  1.7415 -0.9086  0.8879
    3TMC3    C714074   3.568   1.980  16.752 -0.1717 -0.6923  0.2171
    3TMC3    C814075   3.588   1.825  16.302 -0.4923  0.2183  0.1516
    3TMC3    O114076   3.607   2.075  16.820  0.5459 -0.1933 -0.3184
    3TMC3    O214077   3.492   1.756  16.321  0.2817  0.0287  0.2203
    4MPD1     C14078   3.792   1.412  16.098  0.1618  0.4491  0.0915
    4MPD1    C114079   3.893   1.485  16.156  0.3561  0.0726 -0.3556
    4MPD1    C214080   3.863   1.602  16.220  0.6611  0.3128 -0.1528
    4MPD1    C314081   3.735   1.659  16.201 -0.4257  0.0975  0.1151
    4MPD1    C414082   3.636   1.593  16.131  0.1150 -0.0888 -0.2126
    4MPD1    C514083   3.669   1.467  16.084  0.2403  0.7958  0.1579
    4MPD1     H14084   3.942   1.642  16.282  0.5605 -1.6296  1.2192
    4MPD1    H114085   3.538   1.637  16.117 -0.2282 -0.9276 -0.4653
    4MPD1    H214086   3.811   1.314  16.056  0.6924  1.2757 -1.5910
    4MPD1    H314087   3.602   1.404  16.027  2.6020 -1.0250 -0.6018
    4MPD1     N14088   3.716   1.788  16.260 -0.3860 -0.2239  0.0201
    4MPD1    H514089   3.794   1.841  16.297 -0.9134 -0.3978  1.3708
    4MPD1    N114090   4.024   1.427  16.182 -0.7737  0.8565  0.3910
    4MPD1    H614091   4.046   1.374  16.098  0.2045 -1.6544  2.2226
    4MPD1    H714092   4.089   1.505  16.173 -0.6770  0.8126  0.7172
    1TCq1    O114093   3.005   1.368  11.754  0.3979  0.1290  0.3807
    1TCq1    C114094   2.980   1.248  11.696  0.6601 -0.2173  0.0621
    1TCq1    O214095   3.066   1.160  11.676 -0.2573 -0.5616 -0.0942
    1TCq1    C214096   2.856   1.235  11.626  0.2231 -0.0849  0.5876
    1TCq1    C314097   2.812   1.117  11.575 -0.1068  0.3426 -0.5612
    1TCq1    C414098   2.707   1.109  11.482  0.7271  0.3393  0.3342
    1TCq1    C514099   2.681   1.218  11.406 -0.2790  0.8564  0.2290
    1TCq1    C614100   2.724   1.334  11.457  0.1358  0.1379  0.1043
    1TCq1    C714101   2.812   1.349  11.566  0.2481  0.3631  0.6974
    1TCq1    C814102   2.682   1.462  11.398  0.0826 -0.3088  0.3510
    1TCq1    O414103   2.698   1.564  11.462  0.8098  0.3251  0.4467
    1TCq1    C914104   2.678   0.980  11.422  0.6725  0.9219  0.0207
    1TCq1    O514105   2.635   0.985  11.305  0.8776  0.5973 -0.3593
    1TCq1    O614106   2.727   0.873  11.467  0.0982  0.0042  0.0686
    1TCq1    H114107   2.920   1.398  11.792  0.1795 -0.1888  0.1530
    1TCq1    H214108   2.839   1.027  11.628  1.7832  0.9567 -0.5018
    1TCq1    H314109   2.608   1.203  11.328 -1.0326  0.2221  1.0607
    1TCq1    H414110   2.842   1.452  11.578  0.6197  0.5331 -1.5744
    2MPD1     C14111   2.585   1.738  10.966  0.5024 -0.0290 -0.4684
    2MPD1    C114112   2.584   1.604  10.933 -0.0152  0.6194 -0.3871
    2MPD1    C214113   2.598   1.511  11.036  0.0105 -0.3474  0.9271
    2MPD1    C314114   2.621   1.545  11.174 -0.4456  0.0867  0.3850
    2MPD1    C414115   2.637   1.678  11.205  0.2983  0.2746  0.0761
    2MPD1    C514116   2.611   1.771  11.099 -0.3118  0.5257  0.2223
    2MPD1     H14117   2.622   1.409  11.007 -2.7969 -0.7103 -0.1621
    2MPD1    H114118   2.650   1.710  11.308  0.2853 -1.4796  0.6282
    2MPD1    H214119   2.576   1.819  10.894  0.9175  1.0851  0.7248
    2MPD1    H314120   2.610   1.877  11.123  1.8454  0.5254  0.3547
    2MPD1     N14121   2.646   1.441  11.267  0.4139 -0.7922 -0.3026
    2MPD1    H514122   2.638   1.349  11.227  3.0589 -1.4405  0.6735
    2MPD1    N114123   2.605   1.565  10.802  0.3982  0.2295 -0.0186
    2MPD1    H614124   2.578   1.469  10.782 -0.5237  0.2488  1.0852
    2MPD1    H714125   2.547   1.625  10.744 -0.9983 -0.9766  0.1466
    1TMC1    C114126   0.862   0.550   1.617  0.7188 -0.1537  0.3685
    1TMC1    C214127   0.848   0.427   1.679 -0.2240 -0.6668 -0.0543
    1TMC1    C314128   0.726   0.387   1.732  0.6868 -0.0802  0.3244
    1TMC1    C414129   0.764   0.639   1.614 -0.5557 -1.0138  0.4084
    1TMC1    C514130   0.641   0.594   1.664  0.6692 -0.2927  0.1793
    1TMC1    C614131   0.617   0.475   1.726  0.0427  0.0700 -0.0065
    1TMC1     C14132   1.001   0.605   1.584 -0.5761  0.2482 -0.3578
    1TMC1     O14133   1.021   0.715   1.536  1.0500 -0.3023 -0.1963
    1TMC1     H14134   0.926   0.353   1.670  0.2606 -0.1648  0.0703
    1TMC1    H114135   0.770   0.740   1.574  1.6618 -1.5891 -0.7189
    1TMC1    H214136   0.522   0.448   1.770  0.2303 -0.3752  0.1331
    1TMC1    C714137   0.536   0.699   1.686  0.8863 -0.0668  0.4658
    1TMC1    C814138   0.709   0.251   1.786  0.5733  0.4934  0.2004
    1TMC1    O114139   0.557   0.818   1.683  0.1552  0.2632  0.0197
    1TMC1    O214140   0.799   0.178   1.823  0.9127  0.2478 -0.4798
    1TMC1    O314141   0.419   0.636   1.654 -0.1072 -0.0566  0.0712
    1TMC1    H314142   0.435   0.540   1.637  0.3051 -0.4370  2.5462
    1TMC1    O514143   0.580   0.211   1.766  0.2315 -0.1423  0.5128
    1TMC1    H514144   0.527   0.284   1.726  1.4260  0.1213 -0.5864
    2MPD1     C14145   1.513   0.532   1.537 -0.2898  0.0634  0.0874
    2MPD1    C114146   1.462   0.450   1.634  0.3400 -0.2204 -0.3315
    2MPD1    C214147   1.328   0.449   1.652 -0.7088 -0.4957 -0.3509
    2MPD1    C314148   1.234   0.527   1.581 -0.2127  0.6587  0.2436
    2MPD1    C414149   1.290   0.606   1.478 -0.0989 -0.0872 -0.0685
    2MPD1    C514150   1.427   0.607   1.462 -0.0318 -0.9631  0.3430
    2MPD1     H14151   1.292   0.394   1.738 -0.4300 -0.6550 -0.3354
    2MPD1    H114152   1.232   0.673   1.416  3.0200  3.7762  1.1787
    2MPD1    H214153   1.621   0.535   1.524 -0.4380 -1.4143 -1.5057
    2MPD1    H314154   1.464   0.688   1.401 -2.5061  0.2202  0.3857
    2MPD1     N14155   1.096   0.515   1.620 -0.0978 -0.7694 -0.3219
    2MPD1    H514156   1.069   0.446   1.689 -2.4323 -2.5832 -3.0696
    2MPD1    N114157   1.545   0.391   1.733  0.3418 -0.7443 -0.0132
    2MPD1    H614158   1.616   0.329   1.693  0.3559  0.3629 -1.7366
    2MPD1    H714159   1.484   0.332   1.788 -0.3142  0.7376  0.8273
    1MPD1     C14160   0.792   0.114  13.147 -0.8942  1.0198  0.0302
    1MPD1    C114161   0.666   0.049  13.160 -0.9175 -0.1992 -0.3508
    1MPD1    C214162   0.594   0.034  13.040 -0.8889  0.9169 -0.5289
    1MPD1    C314163   0.651   0.050  12.918 -0.7950  0.6162 -0.5896
    1MPD1    C414164   0.778   0.100  12.909 -0.3349 -0.0868  0.3174
    1MPD1    C514165   0.853   0.127  13.019  0.2143  0.0190 -0.2942
    1MPD1     H14166   0.496   4.726  13.043 -2.0948  3.4093 -1.0097
    1MPD1    H114167   0.838   0.111  12.819  0.5013 -2.9547  0.5244
    1MPD1    H214168   0.844   0.150  13.235  0.2681 -0.2952 -0.1213
    1MPD1    H314169   0.952   0.172  13.009 -0.2445  0.6535 -1.9869
    1MPD1     N14170   0.563   0.043  12.805  0.0466  0.0540  0.3803
    1MPD1    H514171   0.467   0.016  12.822  1.1116 -2.3099  2.7967
    1MPD1    N114172   0.610   0.013  13.281 -0.2372 -0.0356 -0.3575
    1MPD1    H614173   0.537   4.682  13.276 -1.2096  0.7958  2.1075
    1MPD1    H714174   0.676   4.723  13.353  0.1998 -0.4703 -0.9383
    2MPD1     C14175   0.451   1.788  11.706 -0.0045  0.1365 -0.1471
    2MPD1    C114176   0.495   1.854  11.594  0.1274 -0.0100 -0.2227
    2MPD1    C214177   0.574   1.781  11.511 -0.1295 -0.1055 -0.2400
    2MPD1    C314178   0.617   1.651  11.544  0.2930 -0.0748  0.4177
    2MPD1    C414179   0.575   1.600  11.663 -0.5490 -0.1669 -0.2121
    2MPD1    C514180   0.496   1.667  11.752  0.1272  0.2429 -0.5369
    2MPD1     H14181   0.595   1.826  11.415 -0.6463 -1.4888 -1.0098
    2MPD1    H114182   0.605   1.501  11.694 -2.5194 -0.3035  1.2238
    2MPD1    H214183   0.382   1.833  11.776  0.3517 -0.4924  0.6039
    2MPD1    H314184   0.453   1.624  11.841  2.0655 -0.2229  0.1622
    2MPD1     N14185   0.702   1.577  11.453  0.5066  0.1608  0.0384
    2MPD1    H514186   0.729   1.483  11.481 -1.3977 -0.3146  0.2453
    2MPD1    N114187   0.431   1.969  11.550 -0.0446 -0.4770  0.6684
    2MPD1    H614188   0.496   2.024  11.495  0.0940  0.7943  2.1142
    2MPD1    H714189   0.396   2.034  11.620  0.6767  1.3495 -0.6755
    3MPD1     C14190   1.555   1.788  10.980 -0.6606  0.7466 -1.1383
    3MPD1    C114191   1.484   1.841  11.081 -0.2236 -0.8423  0.2477
    3MPD1    C214192   1.367   1.771  11.120  0.0797 -0.5169 -0.6251
    3MPD1    C314193   1.334   1.647  11.074 -0.0844 -0.0817  0.8267
    3MPD1    C414194   1.429   1.586  10.994 -0.4274 -0.4811 -0.4412
    3MPD1    C514195   1.536   1.657  10.950  0.3586  1.2335  0.1707
    3MPD1     H14196   1.301   1.811  11.196 -1.2889  0.3645 -2.2845
    3MPD1    H114197   1.408   1.487  10.956 -0.8056 -0.0924 -1.2692
    3MPD1    H214198   1.647   1.833  10.943 -0.9922  1.8777 -0.5982
    3MPD1    H314199   1.599   1.608  10.877 -0.4317 -0.6776  0.7734
    3MPD1     N14200   1.216   1.586  11.129 -0.5474  0.0534 -0.7700
    3MPD1    H514201   1.160   1.648  11.187 -3.4438 -1.2436 -2.1825
    3MPD1    N114202   1.505   1.974  11.127 -0.2727  0.1718 -0.0587
    3MPD1    H614203   1.602   2.001  11.116 -0.0712 -0.8817 -0.9417
    3MPD1    H714204   1.474   2.000  11.221  1.3363  1.4397  0.1191
    4MPD2     C14205   0.122   0.419  12.290  0.3203  0.9477  0.3358
    4MPD2    C114206   0.210   0.321  12.236 -0.1720 -0.2670  0.5756
    4MPD2    C214207   0.245   0.332  12.104 -0.1308 -0.4024 -0.2795
    4MPD2    C314208   0.206   0.444  12.026 -0.3132  0.1449  0.7273
    4MPD2    C414209   0.125   0.540  12.088  0.4911 -0.1020  0.0335
    4MPD2    C514210   0.078   0.527  12.218  0.4112 -0.2426  0.2791
    4MPD2     H14211   0.306   0.252  12.064 -1.3756 -1.3556 -0.2930
    4MPD2    H114212   0.090   0.630  12.040  0.3124 -0.9577 -1.4458
    4MPD2    H214213   0.078   0.414  12.389 -1.2027  0.4365 -0.3678
    4MPD2    H314214   0.029   0.610  12.268  0.6616 -0.3487  0.7050
    4MPD2     N14215   0.253   0.446  11.894 -0.2155 -0.2662  0.4367
    4MPD2    H514216   0.301   0.362  11.865 -2.5120 -1.0071 -1.2924
    4MPD2    N114217   0.252   0.206  12.306  0.4453  0.5540  0.1033
    4MPD2    H714218   0.306   0.140  12.251  0.0620  0.5868 -0.3121
    5TMC3    C114219   0.300   0.057  12.483 -0.2208 -0.2094  0.0908
    5TMC3    C214220   0.371   0.069  12.597 -0.1117  0.2567  1.0722
    5TMC3    C314221   0.498   0.030  12.586  0.0111  0.0523 -0.3319
    5TMC3    C414222   0.340   4.725  12.373  0.5339  0.5655 -0.1340
    5TMC3    C514223   0.473   4.704  12.358 -0.1793 -0.5205  0.7516
    5TMC3    C614224   0.552   4.731  12.466 -0.1459 -0.1231  0.2796
    5TMC3     C14225   0.226   0.177  12.441  0.3081 -0.2396  0.1633
    5TMC3     O14226   0.181   0.253  12.523 -0.6678 -0.5106  0.0599
    5TMC3     H14227   0.340   0.135  12.678 -0.2217  2.5973 -0.8748
    5TMC3    H114228   0.268   4.706  12.294 -0.0706  0.5027  0.4250
    5TMC3    H214229   0.658   4.712  12.453 -0.2364 -0.3766 -0.0925
    5TMC3    C714230   0.525   4.734  12.227 -0.1975 -0.1160  0.1933
    5TMC3    C814231   0.601   0.075  12.676 -0.1107  0.1360  0.2885
    5TMC3    O114232   0.435   0.035  12.149  0.0799 -0.3875  0.2000
    5TMC3    O214233   0.707   0.116  12.629  0.5463 -0.1824  0.4261
    6TMC3    C114234   0.844   1.509  11.285  0.4117  0.6109 -0.3463
    6TMC3    C214235   0.955   1.540  11.217 -0.4882  0.3463  0.1148
    6TMC3    C314236   1.034   1.431  11.171 -0.1729  0.1707 -0.7280
    6TMC3    C414237   0.808   1.385  11.322 -0.1945  0.3849 -0.6650
    6TMC3    C514238   0.886   1.279  11.276 -0.2697  0.0029  0.1504
    6TMC3    C614239   0.999   1.304  11.203  0.5137  0.3988  0.7344
    6TMC3     C14240   0.773   1.624  11.348  0.3030  0.1808  0.6595
    6TMC3     O14241   0.790   1.740  11.311  0.4449  0.2179  0.6493
    6TMC3     H14242   0.972   1.643  11.188 -0.7302  0.8823  1.8916
    6TMC3    H114243   0.716   1.348  11.366 -1.0504  1.5603 -1.4738
    6TMC3    H214244   1.068   1.227  11.170 -0.5956 -0.1524 -0.3041
    6TMC3    C714245   0.832   1.145  11.315 -0.0239  0.1746  0.1391
    6TMC3    C814246   1.170   1.457  11.128 -0.6973 -0.5817 -0.2538
    6TMC3    O114247   0.786   1.140  11.427 -0.5549  0.0663  0.3682
    6TMC3    O214248   1.218   1.364  11.063  0.0553  0.2640  0.2770
    7MPD2     C14249   0.871   0.195  11.930  0.1924  0.2123  0.7535
    7MPD2    C114250   0.736   0.204  11.914  0.9101  0.9738 -0.7254
    7MPD2    C214251   0.669   0.133  12.006  0.2315 -0.5175  0.4571
    7MPD2    C314252   0.727   0.050  12.102  0.2721  0.0423 -0.7126
    7MPD2    C414253   0.868   0.035  12.105 -0.3338 -0.4831  0.0596
    7MPD2    C514254   0.940   0.121  12.024 -1.3007  0.1981 -0.2297
    7MPD2     H14255   0.561   0.147  12.007  0.2491 -0.1981 -1.9290
    7MPD2    H114256   0.925   4.730  12.186 -0.9979 -0.6270  0.4461
    7MPD2    H214257   0.932   0.275  11.891  1.9173 -1.3141  0.3513
    7MPD2    H314258   1.047   0.127  12.039 -1.1301 -1.0111 -0.9458
    7MPD2     N14259   0.659   4.726  12.212  0.8577  0.0654 -0.8012
    7MPD2    H514260   0.722   4.680  12.277 -0.3413 -1.0009 -0.3978
    7MPD2    N114261   0.676   0.289  11.815  0.5218 -0.2323 -0.0360
    7MPD2    H714262   0.739   0.340  11.754 -0.8136 -0.2334 -1.4212
    8TMC3    C114263   0.508   0.377  11.662 -0.2498  0.8208  0.0395
    8TMC3    C214264   0.598   0.476  11.625 -0.0749  0.2881  0.4115
    8TMC3    C314265   0.554   0.606  11.631  0.6653  0.0621 -0.2422
    8TMC3    C414266   0.372   0.395  11.674  0.5222  0.0099  0.5592
    8TMC3    C514267   0.340   0.528  11.693  0.5793  0.2870  0.7452
    8TMC3    C614268   0.424   0.631  11.666 -0.3214  0.5390 -0.3869
    8TMC3     C14269   0.543   0.295  11.784 -0.4000  0.5628  0.2686
    8TMC3     O14270   0.449   0.244  11.844 -0.2359 -0.3589  0.3458
    8TMC3     H14271   0.701   0.449  11.608 -1.0466 -0.9295 -3.5750
    8TMC3    H114272   0.310   0.311  11.700 -0.1641  0.6682  1.0231
    8TMC3    H214273   0.389   0.734  11.666  2.1541  1.3784  1.8595
    8TMC3    C714274   0.257   0.556  11.804  0.4269  1.0137 -0.4455
    8TMC3    C814275   0.625   0.701  11.547 -0.7197  0.1129 -0.0269
    8TMC3    O114276   0.219   0.670  11.813  0.2629  0.6855 -0.3810
    8TMC3    O214277   0.594   0.820  11.562 -0.4688 -0.5366  0.7320
    9MPD2     C14278   0.836   0.630  11.236 -0.2845  0.3096  0.6467
    9MPD2    C114279   0.767   0.702  11.335 -0.0981  0.3262 -0.5636
    9MPD2    C214280   0.770   0.847  11.322  0.6702 -0.9309 -0.2921
    9MPD2    C314281   0.849   0.908  11.227  0.1564  0.3138 -0.6660
    9MPD2    C414282   0.914   0.835  11.131  0.3657  0.2795 -0.0379
    9MPD2    C514283   0.896   0.700  11.138  0.6280 -0.5653 -0.0662
    9MPD2     H14284   0.721   0.903  11.400 -0.3588 -0.7972 -1.0429
    9MPD2    H114285   0.989   0.877  11.065  0.7210 -0.6456 -0.2199
    9MPD2    H214286   0.844   0.522  11.245  1.4004  0.3084 -0.8711
    9MPD2    H314287   0.959   0.644  11.070  1.0199  0.1526 -0.2881
    9MPD2     N14288   0.862   1.049  11.218  0.4599 -0.3170  0.3671
    9MPD2    H514289   0.921   1.085  11.144  0.2846  1.5983  1.1739
    9MPD2    N114290   0.704   0.641  11.449 -0.1710 -0.2237  0.5805
    9MPD2    H714291   0.721   0.541  11.447 -1.5616 -0.4140 -1.1814
    1MPD1     C14292   1.088   0.308  17.587  0.7113 -0.4013 -0.9235
    1MPD1    C114293   1.065   0.304  17.447  0.4029 -0.2279 -0.6704
    1MPD1    C214294   0.959   0.377  17.397  0.1622  0.9264  0.0381
    1MPD1    C314295   0.872   0.455  17.477 -0.3274  0.2155 -0.0778
    1MPD1    C414296   0.894   0.451  17.613  0.0854 -0.3141 -0.3438
    1MPD1    C514297   1.004   0.383  17.663 -0.3997  0.2505 -0.1034
    1MPD1     H14298   0.945   0.390  17.290  0.2623 -0.0768 -0.0922
    1MPD1    H114299   0.825   0.498  17.682 -1.9403 -1.3463 -1.6866
    1MPD1    H214300   1.174   0.258  17.629  0.7986  0.1421 -0.4433
    1MPD1    H314301   1.011   0.378   0.017  0.3731 -2.8659 -0.3126
    1MPD1     N14302   0.763   0.533  17.430  0.2355 -1.1459  0.2668
    1MPD1    H514303   0.704   0.578  17.500  2.2932  1.2487  0.4553
    1MPD1    N114304   1.169   0.238  17.372  0.4228 -0.1582 -0.7305
    1MPD1    H614305   1.149   0.188  17.286  0.1474 -2.0791  0.4386
    1MPD1    H714306   1.225   0.169  17.421 -0.4248 -1.3445 -1.4472
    2TMC2    C114307   0.386   0.631  17.221  0.1305  0.2007 -0.0777
    2TMC2    C214308   0.353   0.724  17.317  0.4605 -0.9847 -0.7264
    2TMC2    C314309   0.448   0.764  17.406  0.9092  0.3180 -0.1468
    2TMC2    C414310   0.514   0.587  17.207 -0.0373  0.4385  0.4948
    2TMC2    C514311   0.601   0.625  17.299 -0.3245 -0.4391 -0.0682
    2TMC2    C614312   0.573   0.707  17.412  0.2039  0.4846 -0.9841
    2TMC2     C14313   0.282   0.572  17.136 -0.1298 -0.3637 -0.4653
    2TMC2     O14314   0.171   0.626  17.130 -0.1598  0.4438  0.1748
    2TMC2     H14315   0.254   0.768  17.321  0.2942 -1.1348 -3.2001
    2TMC2    H114316   0.548   0.530  17.121 -1.1521 -3.2055  2.4516
    2TMC2    H214317   0.654   0.752  17.468  0.3366  0.3761 -1.0885
    2TMC2    C714318   0.725   0.557  17.297 -0.4900  0.4690  0.4350
    2TMC2    C814319   0.452   0.906  17.437 -0.7982  0.2232 -0.1803
    2TMC2    O114320   0.763   0.512  17.185 -0.6037 -0.8379  0.2178
    2TMC2    O214321   0.543   0.958  17.501  0.2137 -0.1188 -0.1833
    2TMC2    O514322   0.375   0.969  17.347  0.2214 -0.3074  0.0943
    2TMC2    H514323   0.335   0.915  17.275 -0.1165 -1.0628  0.8420
    3MPD1     C14324   0.056   0.168  16.910 -0.4435 -0.5733  0.1367
    3MPD1    C114325   0.168   0.120  16.975  0.0521 -0.2349  0.5552
    3MPD1    C214326   0.244   0.220  17.030  0.0333 -0.0072 -0.7344
    3MPD1    C314327   0.219   0.354  17.032  0.3387  0.3009  0.7597
    3MPD1    C414328   0.104   0.392  16.972 -0.4904 -0.3000 -0.0462
    3MPD1    C514329   0.021   0.299  16.912  0.0943  0.0804  0.2964
    3MPD1     H14330   0.340   0.198  17.074  0.2918  1.8675 -0.3968
    3MPD1    H114331   0.072   0.496  16.968 -0.6585 -0.3380  0.3403
    3MPD1    H214332   4.728   0.098  16.860  1.8077 -1.6431 -1.3519
    3MPD1    H314333   4.660   0.320  16.876  0.6218  1.2389 -0.4839
    3MPD1     N14334   0.306   0.440  17.100 -0.4069  0.1801  0.4064
    3MPD1    H514335   0.390   0.397  17.138 -0.6874  1.2045  2.1597
    3MPD1    N114336   0.213   4.727  16.963 -0.1536  0.1276 -0.5958
    3MPD1    H614337   0.136   4.660  16.950 -0.1029 -0.2711  1.1266
    3MPD1    H714338   0.272   4.704  17.042 -1.9503 -0.0744  0.7061
    1TMC1    C114339   2.714   4.119  12.831 -0.5479 -0.7352 -0.1471
    1TMC1    C214340   2.689   3.996  12.874 -0.6153 -0.1161  0.4774
    1TMC1    C314341   2.568   3.942  12.841  0.8077 -0.4108  0.5624
    1TMC1    C414342   2.633   4.190  12.749  0.0804  0.1436  0.0707
    1TMC1    C514343   2.517   4.129  12.714 -0.1052 -0.8859 -0.3281
    1TMC1    C614344   2.482   4.002  12.753  0.1174 -0.0274  0.5478
    1TMC1     C14345   2.816   4.197  12.895 -0.1294  0.5658 -1.0710
    1TMC1     O14346   2.820   4.317  12.864 -1.0053  0.2933 -0.3628
    1TMC1     H14347   2.766   3.929  12.907 -0.2779  1.2259  2.3896
    1TMC1    H114348   2.669   4.280  12.702  2.3678  0.0713  1.6644
    1TMC1    H214349   2.385   3.957  12.735 -0.4184  1.0909  0.6395
    1TMC1    C714350   2.418   4.204  12.648  0.4508  0.2815 -0.3450
    1TMC1    C814351   2.552   3.799  12.861  0.1866 -0.1190  0.0788
    1TMC1    O114352   2.302   4.163  12.642  0.4036 -0.3859 -0.1547
    1TMC1    O214353   2.646   3.721  12.860  0.1908  0.1094  0.3280
    1TMC1    O314354   2.478   4.286  12.565  0.3644  0.0692  0.1655
    1TMC1    H314355   2.573   4.264  12.560  0.2808 -0.6126  1.4945
    1TMC1    O514356   2.440   3.785  12.922 -0.0812  0.4581  0.3368
    1TMC1    H514357   2.382   3.864  12.933 -1.3160 -0.5373  1.0572
    2MPD2     C14358   3.028   4.290  13.064  0.1446 -0.6464 -0.1618
    2MPD2    C114359   2.973   4.168  13.085  0.3166 -0.7018 -0.3253
    2MPD2    C214360   3.013   4.086  13.187 -0.6632  0.3357 -0.4968
    2MPD2    C314361   3.109   4.133  13.276 -0.2784 -0.3136  0.2570
    2MPD2    C414362   3.163   4.258  13.248  0.1972  0.0336 -0.4554
    2MPD2    C514363   3.128   4.332  13.144  0.5391 -0.7906  0.3241
    2MPD2     H14364   2.981   3.983  13.200  0.0495 -0.2752 -3.6522
    2MPD2    H114365   3.247   4.302  13.302 -0.9232  1.9434 -0.2563
    2MPD2    H214366   3.018   4.355  12.979  1.3817 -1.2331 -0.7631
    2MPD2    H314367   3.181   4.422  13.114 -1.1489  0.0975  0.0326
    2MPD2     N14368   3.174   4.053  13.378  0.0016  0.1463  0.4052
    2MPD2    H514369   3.158   3.953  13.382  1.9396 -0.0867  2.5394
    2MPD2    N114370   2.873   4.123  12.997 -0.2098  0.0914  0.1658
    2MPD2    H714371   2.846   4.029  13.022 -2.1047  0.2798 -1.1506
    3TCq1    O114372   3.602   4.260  13.692 -0.0225 -0.7555  0.1418
    3TCq1    C114373   3.643   4.141  13.730  0.2762 -0.6370  0.7592
    3TCq1    O214374   3.708   4.113  13.829 -0.2489  0.6110 -1.1447
    3TCq1    C214375   3.544   4.052  13.664  0.4753 -0.0236  0.1896
    3TCq1    C314376   3.592   3.950  13.587 -0.6071  0.6135  0.0216
    3TCq1    C414377   3.510   3.879  13.506 -1.0168  0.1840 -1.2164
    3TCq1    C514378   3.387   3.924  13.485  0.3332  0.7184 -0.0248
    3TCq1    C614379   3.340   4.039  13.547  0.1829 -0.5659 -0.0884
    3TCq1    C714380   3.419   4.101  13.637 -0.4500 -0.0466 -0.1411
    3TCq1    C814381   3.244   4.120  13.480 -0.2915 -0.1121 -0.5497
    3TCq1    O414382   3.228   4.232  13.525  0.1723  0.3380  0.2697
    3TCq1    C914383   3.552   3.762  13.434  0.2088  0.2796 -0.1127
    3TCq1    O514384   3.669   3.726  13.452  0.1424  0.2934 -0.7486
    3TCq1    O614385   3.461   3.697  13.371  0.3060  0.5623  0.0207
    3TCq1    H114386   3.562   4.269  13.603 -1.0575 -1.1073  0.5719
    3TCq1    H214387   3.692   3.918  13.616  0.5923  2.6544 -1.8249
    3TCq1    H314388   3.315   3.865  13.429  0.2050  1.3072 -0.4855
    3TCq1    H414389   3.371   4.188  13.681 -0.1034 -0.6282  1.3944
    1MPD2     C14390   2.663   0.539  14.880  0.3984 -0.2844  0.1249
    1MPD2    C114391   2.531   0.522  14.827  0.5513  0.0001  0.3537
    1MPD2    C214392   2.515   0.423  14.738 -0.3131 -0.2793 -0.0737
    1MPD2    C314393   2.614   0.336  14.703  0.1058 -0.0845  0.0032
    1MPD2    C414394   2.746   0.358  14.750 -0.0398  0.5730  0.2488
    1MPD2    C514395   2.762   0.459  14.840 -0.4652  0.3914 -0.5077
    1MPD2     H14396   2.415   0.398  14.704 -1.8751  2.0575  2.7605
    1MPD2    H114397   2.831   0.304  14.712 -1.0828 -1.4125  0.7432
    1MPD2    H214398   2.688   0.617  14.952 -0.4665  1.1250 -1.0862
    1MPD2    H314399   2.858   0.468  14.891 -1.3602 -1.8094  1.5577
    1MPD2     N14400   2.574   0.222  14.629 -0.0622 -0.3876 -0.7125
    1MPD2    H514401   2.475   0.209  14.613  0.1955 -1.0493 -1.7871
    1MPD2    N114402   2.418   0.585  14.892 -0.4965  0.0181 -0.0239
    1MPD2    H714403   2.422   0.673  14.941 -0.5346  0.8425 -1.4779
    2TMC3    C114404   2.186   0.608  14.964 -0.4874 -0.0802 -0.3822
    2TMC3    C214405   2.077   0.537  15.003  0.4459 -0.5278 -0.0225
    2TMC3    C314406   1.951   0.583  14.974 -0.2704 -0.6051 -0.7462
    2TMC3    C414407   2.178   0.729  14.901 -0.3255 -0.4266 -0.2454
    2TMC3    C514408   2.051   0.777  14.882  1.0166  0.3585 -0.4013
    2TMC3    C614409   1.939   0.705  14.909 -0.0310  0.5420 -0.0733
    2TMC3     C14410   2.292   0.529  14.906 -0.0413  0.0905  0.3643
    2TMC3     O14411   2.261   0.412  14.881  0.4750 -0.3255  0.5386
    2TMC3     H14412   2.097   0.445  15.056 -0.8346  0.8000  2.7804
    2TMC3    H114413   2.256   0.782  14.848 -1.3929  0.0253 -1.3821
    2TMC3    H214414   1.838   0.741  14.892 -0.5768 -0.8866  0.1059
    2TMC3    C714415   2.033   0.876  14.783 -0.0614  0.8718 -0.0890
    2TMC3    C814416   1.892   0.491  14.883 -0.7783 -0.1927  0.0483
    2TMC3    O114417   1.921   0.863  14.728  0.9573  0.0336 -0.2751
    2TMC3    O214418   1.784   0.521  14.835  0.4116  0.3340  0.4745
    3TCq1    O114419   2.877   1.705  14.337  0.3865  0.4999 -0.2519
    3TCq1    C114420   2.739   1.714  14.313  0.3255 -0.1267  0.1546
    3TCq1    O214421   2.694   1.742  14.203 -0.0633  0.2562  0.3227
    3TCq1    C214422   2.662   1.664  14.416 -0.3372  0.4747 -0.4939
    3TCq1    C314423   2.708   1.680  14.543  0.5191 -0.0727  0.4069
    3TCq1    C414424   2.667   1.590  14.637  0.1306 -0.0783 -0.0345
    3TCq1    C514425   2.577   1.491  14.598  0.3831  0.7273  0.4568
    3TCq1    C614426   2.528   1.486  14.471 -0.0113 -0.1655  0.0009
    3TCq1    C714427   2.567   1.575  14.377  0.7620  0.3664  0.3302
    3TCq1    C814428   2.406   1.407  14.443  0.1392 -0.7387 -1.0518
    3TCq1    O414429   2.342   1.443  14.342  0.4028  0.0369 -0.3082
    3TCq1    C914430   2.709   1.588  14.781  0.7853  0.7512 -0.3699
    3TCq1    O514431   2.662   1.500  14.854 -0.9485  0.6646  0.6649
    3TCq1    O614432   2.802   1.663  14.809 -0.2244  0.2283 -0.6817
    3TCq1    H114433   2.912   1.650  14.410  0.0050  0.0977 -0.3708
    3TCq1    H214434   2.773   1.762  14.571 -1.0555  1.0730  0.7135
    3TCq1    H314435   2.537   1.423  14.673 -0.6616  1.3331  0.4478
    3TCq1    H414436   2.530   1.578  14.275  1.6481 -1.5860 -0.0556
    4MPD2     C14437   2.168   1.236  14.443 -0.3060 -0.1288 -0.0243
    4MPD2    C114438   2.279   1.215  14.524  0.0889 -0.5709 -0.2235
    4MPD2    C214439   2.280   1.111  14.619  0.0985  0.0195 -0.0310
    4MPD2    C314440   2.167   1.033  14.637 -0.3077 -0.3397  0.4937
    4MPD2    C414441   2.057   1.053  14.555  0.2846 -0.0642  0.2443
    4MPD2    C514442   2.057   1.156  14.464 -0.1158  0.2317 -0.2702
    4MPD2     H14443   2.370   1.093  14.676 -0.8541 -2.2628  0.7238
    4MPD2    H114444   1.967   0.993  14.559  1.1030 -1.2472  1.0253
    4MPD2    H214445   2.165   1.314  14.368 -1.1446  0.3143  0.4798
    4MPD2    H314446   1.970   1.185  14.406  0.2351 -1.0869 -1.4516
    4MPD2     N14447   2.148   0.945  14.749  0.4851  0.7738  0.3364
    4MPD2    H514448   2.224   0.934  14.815  1.4011 -1.1853 -1.0065
    4MPD2    N114449   2.390   1.298  14.521  0.2757 -0.0735 -1.1286
    4MPD2    H714450   2.467   1.282  14.586 -1.4412 -0.8531  0.7036
    5TMC2    C114451   2.342   4.662  14.504 -0.9894  0.1469 -0.4228
    5TMC2    C214452   2.391   4.542  14.457  0.0432 -0.6613  0.8977
    5TMC2    C314453   2.531   4.524  14.463 -0.4775  0.4817  0.0068
    5TMC2    C414454   2.427   0.031  14.534  0.6285 -0.3481 -0.2336
    5TMC2    C514455   2.565   4.738  14.555  0.2655 -0.2818 -0.6248
    5TMC2    C614456   2.612   4.616  14.522 -0.4648 -0.3029  0.2463
    5TMC2     C14457   2.197   4.687  14.514 -0.3066 -0.0045 -0.3451
    5TMC2     O14458   2.122   4.628  14.439  0.2849 -0.7837  0.0747
    5TMC2     H14459   2.322   4.460  14.438  1.9821 -1.9486 -0.6268
    5TMC2    H114460   2.382   0.130  14.532  0.2502 -0.4212  4.2282
    5TMC2    H214461   2.717   4.602  14.545 -0.3858 -2.1768 -1.2832
    5TMC2    C714462   2.647   0.109  14.612 -0.0850  0.2852  0.0591
    5TMC2    C814463   2.597   4.418  14.397  0.1130 -0.1282  0.0697
    5TMC2    O114464   2.764   0.091  14.637 -0.4047  0.7908  0.4088
    5TMC2    O214465   2.714   4.392  14.408 -0.2679 -0.5357  0.3942
    5TMC2    O514466   2.500   4.341  14.341  0.2329 -0.2754 -0.3566
    5TMC2    H514467   2.410   4.378  14.332 -0.5474 -1.6462  1.9032
    6MPD2     C14468   1.829   0.264  14.695  0.1206 -0.4562 -0.2042
    6MPD2    C114469   1.958   0.285  14.749  0.1974 -0.3953 -0.3840
    6MPD2    C214470   2.061   0.206  14.721 -0.0357  0.1634 -0.4762
    6MPD2    C314471   2.048   0.100  14.642  0.5877 -0.6190  0.3161
    6MPD2    C414472   1.931   0.072  14.585  0.0301 -0.4363 -0.3324
    6MPD2    C514473   1.820   0.149  14.614  0.9597 -0.0732 -0.2808
    6MPD2     H14474   2.161   0.218  14.761 -0.9828  2.5906  1.1834
    6MPD2    H114475   1.916   4.722  14.524  0.8589 -0.3721 -0.6306
    6MPD2    H214476   1.739   0.324  14.703 -1.2067 -2.6062  1.1961
    6MPD2    H314477   1.727   0.123  14.565  1.7027 -1.5941 -0.8839
    6MPD2     N14478   2.168   0.031  14.617 -0.2386 -0.5013 -0.1900
    6MPD2    H514479   2.241   0.060  14.681 -1.5746  0.2115  1.0074
    6MPD2    N114480   1.979   0.398  14.833 -0.6805  0.3912  0.0346
    6MPD2    H714481   2.073   0.419  14.865 -0.3288 -0.8806 -0.1962
  945NH4     N114482   1.752   0.750   7.224  0.3138 -0.3067  0.3354
  945NH4     H214483   1.852   0.752   7.250  0.7002 -0.4395 -1.1525
  945NH4     H314484   1.728   0.852   7.228 -2.5689 -0.9353 -1.0604
  945NH4     H414485   1.698   0.689   7.289  0.7965  1.3917  2.3359
  945NH4     H514486   1.722   0.721   7.129 -1.5320  1.7565  0.2743
  946SOD     NA14487   3.634   2.427   1.463  0.1606 -0.2502 -0.5043
  947SOD     NA14488   1.061   3.769  16.645 -0.0888  0.4170 -0.2599
  948SOD     NA14489   2.965   2.029  14.027  0.1449 -0.3780  0.0737
  949SOD     NA14490   3.988   2.642  16.060  0.1048  0.3017 -0.3313
  950SOD     NA14491   2.662   0.769  11.263  0.2225 -0.3789 -0.2401
  951SOD     NA14492   3.379   4.087  11.056  0.0710  0.2387  0.5260
  952SOD     NA14493   4.371   2.064  12.593 -0.3587  0.0204 -0.2538
  953SOL     OW14494   2.336   2.775   2.023  0.0233 -0.0938  0.3301
  953SOL    HW114495   2.301   2.847   2.075 -0.0605 -1.0468  1.5753
  953SOL    HW214496   2.251   2.748   1.987 -0.6393  2.0616  0.2285
  954SOL     OW14497   4.079   2.946   7.598  0.1767  0.7565  0.5354
  954SOL    HW114498   4.049   2.871   7.546 -0.1309 -0.0472  1.8708
  954SOL    HW214499   4.147   2.896   7.643 -1.5695 -0.8501  1.3613
  955SOL     OW14500   0.534   0.371   6.491  0.2236  0.0794 -0.4021
  955SOL    HW114501   0.453   0.386   6.541 -0.1429 -0.3709 -0.8616
  955SOL    HW214502   0.597   0.413   6.550  0.1739  0.1769 -0.4181
  956SOL     OW14503   2.689   4.447   6.186  0.1830 -0.0545 -0.4924
  956SOL    HW114504   2.661   4.368   6.140  0.4062  0.0718 -0.8510
  956SOL    HW214505   2.684   4.518   6.121  0.0088  2.8664  2.7429
  957SOL     OW14506   0.135   2.943   6.264  0.3035 -0.3442 -0.2068
  957SOL    HW114507   0.204   2.888   6.303  1.4972  1.9083  0.8510
  957SOL    HW214508   0.064   2.931   6.327 -0.9141  0.1620 -1.4918
  958SOL     OW14509   0.625   1.598   9.697  0.2057 -0.3043  0.0786
  958SOL    HW114510   0.605   1.505   9.686 -0.5785 -0.1636  0.3094
  958SOL    HW214511   0.575   1.618   9.776  0.5088 -0.7583  0.3919
  959SOL     OW14512   1.350   0.345   3.214  0.8679  0.3083 -0.9973
  959SOL    HW114513   1.414   0.277   3.237 -0.4371 -0.6659 -0.2540
  959SOL    HW214514   1.267   0.335   3.261  1.9188 -0.4521  0.6725
  960SOL     OW14515   3.603   4.581   4.303 -0.0454  0.3125 -0.0396
  960SOL    HW114516   3.615   4.579   4.208  1.7633 -1.7423  0.2148
  960SOL    HW214517   3.623   4.488   4.317  2.5428  1.0801  1.3879
  961SOL     OW14518   1.343   3.299   5.052 -0.7804  0.0598  0.1282
  961SOL    HW114519   1.320   3.261   4.967 -1.6390 -0.5419  0.6290
  961SOL    HW214520   1.434   3.325   5.037 -0.9476  1.1721  1.0698
  962SOL     OW14521   3.691   2.215   6.911  0.5714 -0.3000 -1.4061
  962SOL    HW114522   3.696   2.306   6.942  1.3807  0.2328 -3.0812
  962SOL    HW214523   3.767   2.224   6.854  1.9115 -0.1870  0.3921
  963SOL     OW14524   0.062   3.059   3.788 -0.5476  0.4062  0.0062
  963SOL    HW114525   0.130   3.054   3.720 -1.7420  2.0770 -1.3110
  963SOL    HW214526   0.116   3.063   3.867  0.5505 -3.0533 -0.5672
  964SOL     OW14527   0.734   3.204   7.348  0.4885  0.1464 -0.0443
  964SOL    HW114528   0.655   3.242   7.310 -0.8711 -0.1656  2.4663
  964SOL    HW214529   0.709   3.113   7.365 -0.3408  0.2159 -0.8645
  965SOL     OW14530   4.714   3.483   8.007 -0.0833 -0.4483  0.2451
  965SOL    HW114531   0.060   3.506   8.047 -0.0299 -1.9665  0.9895
  965SOL    HW214532   4.720   3.388   8.020 -0.4903 -1.0697 -4.1289
  966SOL     OW14533   4.694   3.344   6.642  0.9851  0.0249 -0.1568
  966SOL    HW114534   4.658   3.333   6.554 -1.0233 -0.5295  0.7280
  966SOL    HW214535   4.666   3.434   6.659 -0.0986 -0.5788  1.1926
  967SOL     OW14536   3.664   4.500   0.974  0.7018  0.1453  0.4329
  967SOL    HW114537   3.671   4.589   0.939  5.6740  0.7186  2.8808
  967SOL    HW214538   3.655   4.518   1.068  0.5733  0.9673  0.2642
  968SOL     OW14539   2.776   3.872   7.707 -0.2536  0.0429 -0.6164
  968SOL    HW114540   2.803   3.883   7.616 -0.7224 -0.0111 -0.7570
  968SOL    HW214541   2.693   3.825   7.707 -0.5097  0.5244 -2.7166
  969SOL     OW14542   1.518   2.406   6.660 -0.3004 -0.1886  0.2283
  969SOL    HW114543   1.538   2.486   6.612 -2.4662 -0.7051 -1.5047
  969SOL    HW214544   1.449   2.365   6.608 -1.5416  1.5911  0.4811
  970SOL     OW14545   2.313   0.234   7.670  0.2729 -0.1814  0.3029
  970SOL    HW114546   2.282   0.159   7.619 -0.8593  2.0858 -2.3713
  970SOL    HW214547   2.407   0.213   7.673  0.2156 -0.2598  1.5484
  971SOL     OW14548   3.114   0.010  11.291 -0.3669 -0.6638  0.0727
  971SOL    HW114549   3.041   0.017  11.352  0.2724 -1.4588  0.9372
  971SOL    HW214550   3.146   4.658  11.298  1.7524 -0.0494 -1.5771
  972SOL     OW14551   2.892   2.136   5.305 -0.1916 -0.1388  0.3228
  972SOL    HW114552   2.839   2.129   5.385  1.2289 -2.0968  1.0906
  972SOL    HW214553   2.880   2.047   5.273 -0.4685  0.1273 -0.3047
  973SOL     OW14554   2.868   1.876   1.054 -0.8347 -0.2015  0.1318
  973SOL    HW114555   2.806   1.906   0.988  0.6920  3.0729  0.1753
  973SOL    HW214556   2.853   1.782   1.043 -1.5358  0.0475 -0.9940
  974SOL     OW14557   0.135   2.999   2.472 -0.1977  0.4667 -0.3314
  974SOL    HW114558   0.173   3.076   2.515 -0.2985 -0.1076  0.8045
  974SOL    HW214559   0.049   3.032   2.447  0.5249  0.3909 -2.8512
  975SOL     OW14560   3.411   4.302  17.477  0.3465 -0.2740  0.2304
  975SOL    HW114561   3.334   4.338  17.522 -0.9843 -0.5337 -1.8265
  975SOL    HW214562   3.365   4.233  17.430  0.8694  0.4809 -1.4061
  976SOL     OW14563   2.471   0.330  11.925  0.1421  0.1585 -0.3449
  976SOL    HW114564   2.509   0.415  11.948  2.9995 -1.0638 -0.5944
  976SOL    HW214565   2.539   0.265  11.940 -0.4762 -0.1651  1.0791
  977SOL     OW14566   0.744   4.601  10.540  0.4902 -0.5112  0.2537
  977SOL    HW114567   0.825   4.573  10.497  1.3804 -0.8736  2.1578
  977SOL    HW214568   0.711   4.647  10.463 -3.5994 -1.3272  1.5447
  978SOL     OW14569   0.868   1.100  14.957  0.7323 -0.2623 -0.3067
  978SOL    HW114570   0.789   1.079  15.007  2.6699 -2.0332  2.0235
  978SOL    HW214571   0.826   1.075  14.875  0.8620 -1.8185  0.0997
  979SOL     OW14572   1.147   2.884   7.865  0.1164  0.7972  0.6427
  979SOL    HW114573   1.215   2.919   7.923 -0.2000  0.4449  1.2266
  979SOL    HW214574   1.130   2.792   7.885  2.0027  0.6624  1.6115
  980SOL     OW14575   2.170   4.461  10.486  0.4405  0.0098  0.4139
  980SOL    HW114576   2.186   4.518  10.411  1.2211  0.0734  0.6332
  980SOL    HW214577   2.244   4.488  10.539  0.5836  2.1857 -0.8803
  981SOL     OW14578   2.501   3.384   8.263  0.0577  0.0495  0.1949
  981SOL    HW114579   2.410   3.380   8.234 -0.0707 -1.2545  0.7454
  981SOL    HW214580   2.487   3.451   8.330 -1.4532 -0.7913  0.7287
  982SOL     OW14581   2.892   3.118  12.893  0.2333 -0.1521 -0.1103
  982SOL    HW114582   2.842   3.159  12.823 -1.8377 -2.6667 -0.0917
  982SOL    HW214583   2.977   3.149  12.861  0.0706 -0.7507 -1.1271
  983SOL     OW14584   3.156   1.994   4.604 -0.5330 -0.0372 -0.4246
  983SOL    HW114585   3.078   1.977   4.656 -0.4390 -0.0203 -0.2793
  983SOL    HW214586   3.169   2.088   4.604 -3.8112  0.4195  0.5342
  984SOL     OW14587   1.167   1.560  15.179  0.3402  0.5250 -0.1584
  984SOL    HW114588   1.110   1.634  15.197  0.2841  0.6469 -0.8240
  984SOL    HW214589   1.136   1.504  15.250 -0.5947 -1.4521 -2.1310
  985SOL     OW14590   2.992   3.707   9.423  0.1471  0.0140 -0.3750
  985SOL    HW114591   3.087   3.696   9.418  0.2026  1.3440 -1.9711
  985SOL    HW214592   2.967   3.615   9.422  0.8932 -0.1910 -0.0465
  986SOL     OW14593   3.718   1.366   1.725  0.1302 -0.6023 -0.5585
  986SOL    HW114594   3.790   1.416   1.763  0.9013 -2.6358  0.6670
  986SOL    HW214595   3.687   1.321   1.804  1.8077  0.6287  0.8113
  987SOL     OW14596   0.097   2.969  16.414  0.1923  0.7803  0.1011
  987SOL    HW114597   0.143   2.951  16.332  1.3743 -3.0116  1.6012
  987SOL    HW214598   0.104   2.882  16.453 -1.3359  0.4788 -0.2712
  988SOL     OW14599   3.187   2.742   2.132 -0.3795 -0.2139  0.2306
  988SOL    HW114600   3.206   2.835   2.125  0.9336 -0.5028 -0.2179
  988SOL    HW214601   3.269   2.710   2.171  0.2762 -1.2164 -1.9684
  989SOL     OW14602   2.870   1.153   3.307  0.3389 -0.3820 -0.2513
  989SOL    HW114603   2.916   1.181   3.227 -2.2459  2.3059 -0.7794
  989SOL    HW214604   2.879   1.227   3.366  1.7234 -1.3399  0.7332
  990SOL     OW14605   0.413   0.235  13.261  0.6562  0.0700 -0.2538
  990SOL    HW114606   0.446   0.321  13.283  3.7913 -1.3687  0.6341
  990SOL    HW214607   0.483   0.177  13.292 -0.9452 -0.8233  1.6816
  991SOL     OW14608   0.320   0.536   6.592 -0.1533  0.2965 -0.1581
  991SOL    HW114609   0.325   0.595   6.667 -1.7042  0.3675 -0.0994
  991SOL    HW214610   0.224   0.539   6.589 -0.0940 -0.2897 -3.5303
  992SOL     OW14611   0.080   3.980   6.092  0.6038  0.4492  0.2545
  992SOL    HW114612   0.122   3.989   6.007  0.4235  2.3387  0.3652
  992SOL    HW214613   0.109   4.058   6.138 -0.2153  0.7144  0.3205
  993SOL     OW14614   4.041   1.322  10.333  0.4883  0.0072 -0.3331
  993SOL    HW114615   4.132   1.347  10.317  0.5481  0.2284  0.3571
  993SOL    HW214616   4.030   1.253  10.267 -1.5746 -0.2194  0.2521
  994SOL     OW14617   0.206   4.651   8.383  0.2793 -0.5251 -0.2231
  994SOL    HW114618   0.146   4.716   8.419  1.8503  1.3165 -0.8989
  994SOL    HW214619   0.159   4.573   8.411  0.1615  0.3593  2.0597
  995SOL     OW14620   0.788   2.852   6.033  0.6771 -0.6313  0.5032
  995SOL    HW114621   0.873   2.826   5.997  0.5992 -0.0770 -0.0829
  995SOL    HW214622   0.770   2.925   5.974  0.2292 -0.7577  0.4782
  996SOL     OW14623   3.272   2.069  16.104 -0.0445  0.1498  0.2087
  996SOL    HW114624   3.238   2.023  16.027  0.5157 -0.1468  0.1391
  996SOL    HW214625   3.241   2.013  16.175  2.8809  0.1007  1.4058
  997SOL     OW14626   2.118   3.105   8.226  0.3560 -0.5355 -0.1834
  997SOL    HW114627   2.150   3.184   8.181  2.4465 -1.7792 -0.8515
  997SOL    HW214628   2.105   3.042   8.155 -2.8425  0.2867 -0.3339
  998SOL     OW14629   1.560   0.081   4.049  0.0252 -0.5632 -0.7581
  998SOL    HW114630   1.494   0.047   4.110 -1.4833  2.1879 -0.8913
  998SOL    HW214631   1.509   0.151   4.008 -3.7505 -1.9988  1.5202
  999SOL     OW14632   4.700   1.553  12.842  0.4422 -0.2128 -0.1004
  999SOL    HW114633   4.647   1.617  12.794  3.0555  1.0391 -1.2752
  999SOL    HW214634   4.637   1.483  12.824 -1.3971  0.8669  2.0365
 1000SOL     OW14635   2.586   2.230  12.630  0.3070 -0.2616  0.3078
 1000SOL    HW114636   2.677   2.203  12.630  0.6688  0.9145 -1.4500
 1000SOL    HW214637   2.575   2.314  12.675 -2.0154 -0.3801 -0.0178
 1001SOL     OW14638   3.493   1.158   4.375  0.0287 -0.0010  0.2870
 1001SOL    HW114639   3.442   1.233   4.345  2.2765  1.5010  0.2300
 1001SOL    HW214640   3.531   1.201   4.451 -0.7788  2.4290 -0.6812
 1002SOL     OW14641   4.400   2.378   3.033 -0.1792 -0.7725 -0.0953
 1002SOL    HW114642   4.480   2.332   3.056  1.9790  2.1278 -1.9588
 1002SOL    HW214643   4.389   2.351   2.942 -0.5111 -1.6156  0.1971
 1003SOL     OW14644   0.424   0.349   4.654  0.2107  0.1371 -0.1503
 1003SOL    HW114645   0.417   0.268   4.603  0.1235 -0.1351  0.2901
 1003SOL    HW214646   0.490   0.318   4.717  1.6649  0.9399 -1.2828
 1004SOL     OW14647   1.223   1.355   6.194  0.3173  0.7083  0.3475
 1004SOL    HW114648   1.272   1.309   6.262  0.7659  1.4663  0.5319
 1004SOL    HW214649   1.283   1.340   6.121 -2.3717 -0.8612 -1.5422
 1005SOL     OW14650   0.070   1.059   7.446  0.0648  0.1877  0.5161
 1005SOL    HW114651   0.082   1.153   7.432  0.7494 -0.5768 -3.9908
 1005SOL    HW214652   0.155   1.053   7.489  0.0103 -1.5545  0.3607
 1006SOL     OW14653   2.420   3.802  11.158 -0.2440 -0.7172  0.1345
 1006SOL    HW114654   2.421   3.897  11.143 -1.4976 -0.4524  1.7565
 1006SOL    HW214655   2.489   3.759  11.108  1.0194 -0.7355  1.8796
 1007SOL     OW14656   2.051   1.180   8.752 -0.4304  0.3507 -0.0792
 1007SOL    HW114657   2.036   1.262   8.703  3.5084  1.1600  0.0326
 1007SOL    HW214658   2.147   1.180   8.753 -0.3895  2.3879 -2.2976
 1008SOL     OW14659   4.684   0.173   2.195 -0.0862  0.2093  0.0252
 1008SOL    HW114660   4.611   0.118   2.169 -1.0040  1.2058  0.5226
 1008SOL    HW214661   4.685   0.159   2.290 -1.1298 -0.7929 -0.1118
 1009SOL     OW14662   1.164   0.478   7.933  0.3672 -0.4662  0.1350
 1009SOL    HW114663   1.138   0.386   7.935 -1.0101 -0.0498  1.7152
 1009SOL    HW214664   1.131   0.512   8.016 -1.0154  0.8122 -0.9291
 1010SOL     OW14665   3.724   1.787   1.819  0.6731 -0.4253 -0.1672
 1010SOL    HW114666   3.652   1.748   1.869 -0.4257 -0.3930 -1.7336
 1010SOL    HW214667   3.776   1.820   1.892  0.8273 -2.1284  0.5042
 1011SOL     OW14668   1.216   4.638   2.426 -0.1325  0.3065  0.3292
 1011SOL    HW114669   1.232   4.585   2.348 -0.3324  0.7251 -0.0008
 1011SOL    HW214670   1.253   4.579   2.492 -2.4553 -2.2578 -0.6566
 1012SOL     OW14671   2.866   0.819   3.167 -0.0693 -0.1609 -0.4250
 1012SOL    HW114672   2.805   0.880   3.209  1.2284  0.4887  0.4939
 1012SOL    HW214673   2.952   0.859   3.180 -0.4237 -0.5851  3.3491
 1013SOL     OW14674   4.456   2.362   5.474  0.1289  0.2498 -0.3645
 1013SOL    HW114675   4.432   2.330   5.387 -1.0183 -0.0934  0.0692
 1013SOL    HW214676   4.380   2.332   5.524 -0.1333  1.1817 -0.1983
 1014SOL     OW14677   0.051   1.803  11.067  0.1739  0.0477 -0.2004
 1014SOL    HW114678   0.011   1.824  11.150  0.1011  1.1621 -0.5243
 1014SOL    HW214679   0.100   1.885  11.057  0.0247  0.2366  0.6464
 1015SOL     OW14680   2.689   4.624   6.460 -0.1153  0.0264  0.0375
 1015SOL    HW114681   2.637   4.563   6.407  1.0676 -1.2534  0.3429
 1015SOL    HW214682   2.775   4.581   6.460  0.1587  0.5657  0.8829
 1016SOL     OW14683   0.327   1.360   9.192  0.0557  0.7116 -0.6796
 1016SOL    HW114684   0.321   1.308   9.112 -2.2698  0.3124 -0.2454
 1016SOL    HW214685   0.312   1.449   9.161 -0.9081  1.2393  1.2843
 1017SOL     OW14686   4.449   1.390  16.767  0.4390  0.3531  0.2879
 1017SOL    HW114687   4.437   1.297  16.751 -0.7240  0.0383  2.9540
 1017SOL    HW214688   4.544   1.389  16.751  0.5193 -1.9053  0.9330
 1018SOL     OW14689   3.332   3.733  10.695  0.0860 -0.0044  0.1548
 1018SOL    HW114690   3.240   3.757  10.698  0.0638  0.0350 -0.7629
 1018SOL    HW214691   3.363   3.801  10.636 -2.0029  1.6801  1.0169
 1019SOL     OW14692   3.477   1.500   3.062 -0.3824  0.1973 -0.0762
 1019SOL    HW114693   3.392   1.526   3.099 -0.3906 -0.7555  0.5711
 1019SOL    HW214694   3.533   1.560   3.109  0.9870  2.1828 -4.2609
 1020SOL     OW14695   0.934   3.185   4.243  0.2040 -0.8242 -0.5189
 1020SOL    HW114696   0.938   3.280   4.236  3.6520 -1.0106 -0.8859
 1020SOL    HW214697   0.885   3.167   4.163  0.8125 -2.9562 -0.4249
 1021SOL     OW14698   3.374   4.641  16.692 -0.3387  0.2815 -0.1734
 1021SOL    HW114699   3.320   4.573  16.734 -1.8073  1.6602  0.1445
 1021SOL    HW214700   3.370   4.621  16.598  2.6946 -0.4469 -0.1537
 1022SOL     OW14701   2.475   0.981   3.651  0.1756  0.2602 -0.2356
 1022SOL    HW114702   2.489   0.920   3.578 -0.4482 -2.1252  1.6119
 1022SOL    HW214703   2.396   1.016   3.610 -0.8529 -1.6504  0.0823
 1023SOL     OW14704   2.999   2.392   4.027 -1.1329 -0.2931 -0.5788
 1023SOL    HW114705   3.007   2.297   4.028 -0.9914 -0.2929 -2.4187
 1023SOL    HW214706   2.964   2.414   3.940  1.4749 -2.6768 -2.1877
 1024SOL     OW14707   2.380   3.546   6.617 -0.4103 -0.4196 -0.1266
 1024SOL    HW114708   2.314   3.530   6.685 -0.9938 -1.0104 -0.8252
 1024SOL    HW214709   2.333   3.587   6.544  1.1572  0.3656 -0.6852
 1025SOL     OW14710   2.949   0.215   5.729  0.0085  0.2063 -0.6333
 1025SOL    HW114711   2.981   0.295   5.770 -0.1371  0.1061 -0.3244
 1025SOL    HW214712   3.004   0.148   5.771 -2.6222 -0.8020  1.2023
 1026SOL     OW14713   1.137   1.945   2.955 -0.0645  0.7328  0.2738
 1026SOL    HW114714   1.047   1.947   2.924 -0.1712 -3.8420  0.3541
 1026SOL    HW214715   1.174   1.876   2.900 -0.0996  0.9340 -0.0011
 1027SOL     OW14716   1.734   0.771  11.887 -0.0967 -0.6665  0.1866
 1027SOL    HW114717   1.700   0.694  11.933 -0.6193  0.4720  1.7105
 1027SOL    HW214718   1.659   0.830  11.896  0.1846 -0.1565 -0.8464
 1028SOL     OW14719   3.113   2.918   0.046  0.4249  0.0541  0.3596
 1028SOL    HW114720   3.190   2.869   0.019  0.5798  0.5518 -0.0952
 1028SOL    HW214721   3.093   2.978  17.728  0.1942  1.0755  1.2746
 1029SOL     OW14722   3.783   1.879   2.883  0.3064  0.4977 -0.2927
 1029SOL    HW114723   3.710   1.864   2.822  0.8751  1.9850 -1.3411
 1029SOL    HW214724   3.730   1.881   2.963  0.6247  1.0567 -0.1009
 1030SOL     OW14725   2.555   1.396   1.636  0.1383  0.5056 -0.1038
 1030SOL    HW114726   2.605   1.385   1.717  0.2261  1.0210 -0.0863
 1030SOL    HW214727   2.573   1.486   1.609  0.3710  0.1986 -0.9819
 1031SOL     OW14728   0.908   0.501   9.334 -0.5240 -0.4371  0.4780
 1031SOL    HW114729   0.935   0.558   9.406  1.4578 -4.5488  3.0159
 1031SOL    HW214730   0.855   0.435   9.380 -0.3440  0.5317  2.1077
 1032SOL     OW14731   1.494   2.740   0.467  0.2702  0.2651 -0.1654
 1032SOL    HW114732   1.438   2.676   0.422  2.5633 -1.1579 -0.9828
 1032SOL    HW214733   1.493   2.815   0.407  1.2629  0.3343 -0.1004
 1033SOL     OW14734   0.013   2.804   7.873 -0.1715 -0.0238 -0.2180
 1033SOL    HW114735   4.671   2.779   7.917  0.0906 -2.5524 -1.2033
 1033SOL    HW214736   0.058   2.878   7.914 -1.7583  0.6403  0.3218
 1034SOL     OW14737   1.656   0.360   7.507 -0.2569 -0.0128 -0.6844
 1034SOL    HW114738   1.599   0.343   7.431 -3.1930 -2.6892  2.1024
 1034SOL    HW214739   1.639   0.279   7.556  1.9019  0.0839  0.2066
 1035SOL     OW14740   2.107   1.967   4.489  0.1187 -0.1116  0.1160
 1035SOL    HW114741   2.075   2.052   4.459 -1.1312 -0.2814  0.9522
 1035SOL    HW214742   2.175   1.952   4.423 -0.0235  0.8539 -0.2590
 1036SOL     OW14743   0.727   0.968   6.658  0.0918 -0.8568 -0.6521
 1036SOL    HW114744   0.723   1.055   6.617 -0.3960 -0.3432  0.4947
 1036SOL    HW214745   0.823   0.974   6.663 -0.1236  3.0187 -0.9330
 1037SOL     OW14746   1.759   2.776   5.300 -0.0009 -0.1002  0.0923
 1037SOL    HW114747   1.687   2.832   5.272 -0.3203 -0.8754 -0.6163
 1037SOL    HW214748   1.739   2.696   5.253  1.7991 -1.1743  1.1445
 1038SOL     OW14749   2.932   2.772   4.490  0.1716 -0.3458  0.0354
 1038SOL    HW114750   2.921   2.770   4.395  0.7978 -0.3840 -0.0363
 1038SOL    HW214751   2.846   2.806   4.515  0.0537 -1.6873  1.4352
 1039SOL     OW14752   0.633   4.338   2.713  0.0373  0.1077  0.1410
 1039SOL    HW114753   0.645   4.424   2.671 -0.6996 -0.2597 -0.8213
 1039SOL    HW214754   0.698   4.277   2.678  0.8431  2.3510 -2.3414
 1040SOL     OW14755   4.608   3.317   9.427  0.2118 -0.2771  0.0405
 1040SOL    HW114756   4.554   3.386   9.466 -1.3045 -0.4367 -1.8056
 1040SOL    HW214757   4.638   3.271   9.506 -1.9784  0.9032  1.5705
 1041SOL     OW14758   4.328   2.670   2.493 -0.3384  0.1258  0.5733
 1041SOL    HW114759   4.259   2.709   2.547 -0.5316 -1.2318  1.3106
 1041SOL    HW214760   4.413   2.698   2.526 -0.3000 -2.1927  2.4723
 1042SOL     OW14761   0.915   0.635   4.612 -0.2548 -0.2274  0.2448
 1042SOL    HW114762   0.992   0.639   4.669 -1.0358 -0.5812  1.2985
 1042SOL    HW214763   0.876   0.722   4.622 -1.2406 -0.7002  0.4382
 1043SOL     OW14764   1.682   4.286   5.314  0.2038  0.3652 -0.4237
 1043SOL    HW114765   1.751   4.314   5.374 -1.5544 -1.6403  2.5349
 1043SOL    HW214766   1.619   4.243   5.372  1.1870 -0.1229  0.2860
 1044SOL     OW14767   1.235   4.331   2.314  0.3872 -0.6443 -0.3255
 1044SOL    HW114768   1.189   4.247   2.311  2.0540 -1.5033 -1.5405
 1044SOL    HW214769   1.306   4.300   2.370  0.0756 -0.7482  0.0186
 1045SOL     OW14770   2.075   2.700   1.971 -0.4602 -0.3075  0.2559
 1045SOL    HW114771   1.998   2.745   1.936  1.2634  1.8562 -0.7350
 1045SOL    HW214772   2.046   2.613   1.941 -2.8145  0.5072  0.1470
 1046SOL     OW14773   0.986   1.675  14.725 -0.6299 -0.1325 -0.3125
 1046SOL    HW114774   1.045   1.672  14.800 -0.3784  1.5763 -0.4476
 1046SOL    HW214775   0.969   1.581  14.715  1.5398 -0.3812 -1.5783
 1047SOL     OW14776   1.208   2.319   0.004 -0.2175  0.3238 -0.3778
 1047SOL    HW114777   1.245   2.302  17.671  0.2404  1.4532 -0.4097
 1047SOL    HW214778   1.280   2.361   0.052 -0.9709 -1.5575  2.3806
 1048SOL     OW14779   0.939   1.155   7.824 -0.1023  0.5172  0.0636
 1048SOL    HW114780   0.862   1.164   7.881 -0.3719 -0.0938 -0.2044
 1048SOL    HW214781   0.898   1.115   7.748 -0.4932  0.7727  0.1352
 1049SOL     OW14782   2.081   2.953   7.950 -0.1060  0.2878  0.3065
 1049SOL    HW114783   1.991   2.936   7.977 -0.2521 -1.4370 -1.2845
 1049SOL    HW214784   2.076   2.922   7.860 -1.6048 -0.9002  0.8111
 1050SOL     OW14785   2.568   1.001   9.316  0.0747 -0.0866 -0.2230
 1050SOL    HW114786   2.650   1.002   9.366 -1.2651 -1.7213  2.0035
 1050SOL    HW214787   2.568   0.915   9.274 -1.1314  0.2887 -1.0024
 1051SOL     OW14788   0.943   0.623   6.366 -0.1142  0.7019  0.0830
 1051SOL    HW114789   0.963   0.530   6.356 -0.3011  0.8015 -1.1809
 1051SOL    HW214790   0.965   0.652   6.278 -0.8663  1.3157  0.1070
 1052SOL     OW14791   1.423   4.571   2.966 -0.1454  0.0729 -0.0540
 1052SOL    HW114792   1.442   4.631   3.038  1.2866 -0.3218 -0.0910
 1052SOL    HW214793   1.374   4.633   2.911 -2.1995 -2.9403 -1.5816
 1053SOL     OW14794   4.175   3.399   5.523  0.2537  0.2435  0.4668
 1053SOL    HW114795   4.235   3.415   5.596  1.7170 -0.6978 -0.5246
 1053SOL    HW214796   4.100   3.363   5.570 -0.8356  1.7743 -0.0945
 1054SOL     OW14797   0.522   0.711  12.845 -0.3207 -0.3987 -0.4909
 1054SOL    HW114798   0.523   0.752  12.932  0.3612 -2.6043  0.5377
 1054SOL    HW214799   0.502   0.785  12.788  0.4911 -0.1907 -0.5168
 1055SOL     OW14800   0.711   0.348   9.107 -0.8811  0.4805  0.5222
 1055SOL    HW114801   0.704   0.256   9.133  0.8223 -0.3538 -1.9104
 1055SOL    HW214802   0.784   0.352   9.044 -1.1369 -0.6234  0.1483
 1056SOL     OW14803   4.268   1.980  13.187  0.0524 -0.1697  0.6280
 1056SOL    HW114804   4.239   2.040  13.119 -1.9470 -1.1137  0.6644
 1056SOL    HW214805   4.236   1.899  13.148  0.3176  0.0106  0.0346
 1057SOL     OW14806   3.141   2.114   7.853 -0.0921 -0.0990 -0.0288
 1057SOL    HW114807   3.074   2.178   7.827 -2.2085 -2.3293 -0.1215
 1057SOL    HW214808   3.118   2.110   7.946 -1.1535 -0.9827 -0.3279
 1058SOL     OW14809   4.503   1.645   4.845  0.3024  0.0970  0.0574
 1058SOL    HW114810   4.507   1.628   4.939 -0.4638  0.4523  0.1510
 1058SOL    HW214811   4.512   1.740   4.842 -2.9407  0.3825  0.2500
 1059SOL     OW14812   0.288   3.683   7.078 -0.4911 -0.1002 -0.0895
 1059SOL    HW114813   0.246   3.655   6.997  0.3407 -1.3384 -0.1021
 1059SOL    HW214814   0.375   3.714   7.052 -1.4704  1.3775 -1.5446
 1060SOL     OW14815   1.648   4.511  16.128  0.2952  0.2773 -0.6790
 1060SOL    HW114816   1.664   4.418  16.144 -0.9844  0.5791  2.2867
 1060SOL    HW214817   1.653   4.554  16.213  1.4382 -0.8524 -0.1717
 1061SOL     OW14818   4.127   0.879   7.981  0.2529  0.2261 -0.7313
 1061SOL    HW114819   4.120   0.960   7.931 -0.6126  1.1875  0.9645
 1061SOL    HW214820   4.173   0.913   8.058 -1.1647 -0.2004  0.3025
 1062SOL     OW14821   3.651   2.036  10.632  0.2846  0.3576 -0.1924
 1062SOL    HW114822   3.677   1.993  10.713  0.0918  1.0012  0.2123
 1062SOL    HW214823   3.563   1.998  10.621  1.0793 -1.4939 -0.2720
 1063SOL     OW14824   1.273   2.161   5.842 -0.0673  0.0378  0.3843
 1063SOL    HW114825   1.215   2.107   5.789 -1.7237  1.5422  0.6535
 1063SOL    HW214826   1.359   2.121   5.828 -0.3345 -0.9467  1.5414
 1064SOL     OW14827   4.336   1.375   4.870  0.0448  0.0774  0.2320
 1064SOL    HW114828   4.272   1.384   4.941  0.1101 -1.4632  0.4958
 1064SOL    HW214829   4.413   1.334   4.908 -1.0783 -0.8434  1.5213
 1065SOL     OW14830   2.820   2.138   1.550  0.2166 -0.1665  0.2667
 1065SOL    HW114831   2.870   2.181   1.481  0.6961 -1.5323 -0.2491
 1065SOL    HW214832   2.818   2.048   1.517 -3.0146  0.7666 -2.0863
 1066SOL     OW14833   1.201   3.539   7.838 -0.1224 -0.0316  0.2024
 1066SOL    HW114834   1.156   3.609   7.791 -2.9450 -1.2427  1.0516
 1066SOL    HW214835   1.154   3.516   7.919  1.4798  2.2688  1.7883
 1067SOL     OW14836   3.414   2.626   6.442 -0.0305 -0.3213  0.1974
 1067SOL    HW114837   3.385   2.705   6.396 -1.6038  0.3757  2.3753
 1067SOL    HW214838   3.359   2.615   6.520 -0.2831  0.9778  0.2061
 1068SOL     OW14839   2.663   4.080   7.863 -0.1818  0.4529  0.3961
 1068SOL    HW114840   2.731   4.146   7.875 -0.1346  0.4586  0.1056
 1068SOL    HW214841   2.711   4.018   7.808 -1.2542 -0.5459  0.5756
 1069SOL     OW14842   4.046   3.093   8.826  0.2030  0.2057  0.3350
 1069SOL    HW114843   4.013   3.093   8.916  0.3324  3.2543  0.3511
 1069SOL    HW214844   4.138   3.106   8.849  0.5049 -0.0776 -0.7176
 1070SOL     OW14845   2.018   0.993   9.507 -0.0106 -0.3985  0.0969
 1070SOL    HW114846   1.956   1.055   9.468  0.0559 -0.8312 -0.6906
 1070SOL    HW214847   2.096   1.046   9.522  1.5886 -2.3195 -1.3077
 1071SOL     OW14848   0.718   2.907   1.600  0.6584  0.1317  0.5154
 1071SOL    HW114849   0.740   2.976   1.663 -2.6052 -1.0642  2.9833
 1071SOL    HW214850   0.730   2.837   1.664  1.1408  0.1257  0.4176
 1072SOL     OW14851   1.328   4.201  13.078  0.6212 -0.3091  0.2483
 1072SOL    HW114852   1.412   4.247  13.077 -0.5830  1.8537 -0.1180
 1072SOL    HW214853   1.265   4.267  13.106 -1.5439 -0.8527 -3.3173
 1073SOL     OW14854   4.672   1.387   3.821 -0.6364  0.2418 -0.0952
 1073SOL    HW114855   4.718   1.310   3.789  0.0429  0.2507  0.8478
 1073SOL    HW214856   4.722   1.464   3.793  0.7827  0.0432  1.9045
 1074SOL     OW14857   3.033   2.787   8.917  0.3445 -0.3866 -0.1244
 1074SOL    HW114858   3.049   2.842   8.995 -3.0148  0.1383  0.1944
 1074SOL    HW214859   3.089   2.713   8.940  2.2191  1.2354  0.5190
 1075SOL     OW14860   3.802   1.705   2.259  0.7102  0.4786 -0.0619
 1075SOL    HW114861   3.855   1.627   2.245  0.0559 -0.0647  0.4704
 1075SOL    HW214862   3.717   1.670   2.285  0.4953  1.1977  0.2219
 1076SOL     OW14863   2.191   1.429  15.338 -0.2930  0.0303 -0.5901
 1076SOL    HW114864   2.185   1.335  15.356 -2.0151 -0.3163 -3.0086
 1076SOL    HW214865   2.230   1.425  15.250  1.6862  0.2255  0.2764
 1077SOL     OW14866   0.824   0.608   3.128  0.0026  0.5162 -0.0419
 1077SOL    HW114867   0.797   0.698   3.111 -1.5430 -0.0009 -0.3214
 1077SOL    HW214868   0.781   0.593   3.212 -2.7418  0.2371 -1.5041
 1078SOL     OW14869   3.843   1.876   2.039 -0.4748 -0.0918 -0.2288
 1078SOL    HW114870   3.879   1.824   2.111  1.6830 -0.9598 -1.9290
 1078SOL    HW214871   3.779   1.928   2.086  1.5630  3.6666 -1.6354
 1079SOL     OW14872   3.528   3.917   8.963  0.1640 -0.4890  0.2194
 1079SOL    HW114873   3.549   3.888   8.874  1.8934  0.2240  0.3932
 1079SOL    HW214874   3.495   3.838   9.004 -3.6031  0.7108 -0.4796
 1080SOL     OW14875   3.488   0.909  13.768  1.0258 -0.0196 -0.1375
 1080SOL    HW114876   3.537   0.852  13.828  2.0414  2.0900  1.0590
 1080SOL    HW214877   3.408   0.931  13.816  2.0319 -1.3989  2.1824
 1081SOL     OW14878   4.192   3.481   2.704 -0.2833  0.1217 -0.0979
 1081SOL    HW114879   4.220   3.569   2.676  0.6270  0.3174  1.4147
 1081SOL    HW214880   4.238   3.476   2.788 -3.0450 -1.2850  1.2890
 1082SOL     OW14881   0.801   2.409   8.527  0.3892  0.4747  0.6111
 1082SOL    HW114882   0.877   2.433   8.580  0.7606  1.2763 -0.2751
 1082SOL    HW214883   0.730   2.424   8.590  0.0552  1.2432  0.0526
 1083SOL     OW14884   3.395   3.468  14.539  0.6690  0.3965  0.0782
 1083SOL    HW114885   3.443   3.486  14.620  2.0505  0.8776 -0.8472
 1083SOL    HW214886   3.334   3.542  14.538 -1.2970 -1.2185 -0.1052
 1084SOL     OW14887   0.050   1.524   5.350 -0.1385  0.0795 -0.2419
 1084SOL    HW114888   0.056   1.516   5.445 -2.3598 -0.9294 -0.1881
 1084SOL    HW214889   0.103   1.445   5.336  1.2671  0.9552  0.1679
 1085SOL     OW14890   1.633   1.682   3.797 -0.3593  0.3073 -0.0146
 1085SOL    HW114891   1.667   1.602   3.757 -1.1724 -0.8941  1.7281
 1085SOL    HW214892   1.553   1.657   3.842  1.2382 -1.7202  1.6736
 1086SOL     OW14893   3.683   2.841   6.580 -0.0324 -0.3334  0.9615
 1086SOL    HW114894   3.587   2.852   6.583  0.0081 -0.1233  1.4651
 1086SOL    HW214895   3.692   2.746   6.589  1.4494 -0.2709 -0.0494
 1087SOL     OW14896   0.523   4.023   7.163 -0.1250 -0.1753  0.2448
 1087SOL    HW114897   0.506   4.078   7.239  1.1037  2.1422 -1.1595
 1087SOL    HW214898   0.461   4.067   7.106 -0.0751 -1.4992 -0.8337
 1088SOL     OW14899   1.183   2.215   3.018  0.1066  0.0077  0.3779
 1088SOL    HW114900   1.119   2.232   2.949  2.0564 -2.1003 -1.9787
 1088SOL    HW214901   1.206   2.124   2.998  0.6038  0.2985 -0.4037
 1089SOL     OW14902   4.691   2.778   5.892  0.2483  0.4019  0.0926
 1089SOL    HW114903   4.643   2.848   5.938 -0.6437  0.2371 -0.5790
 1089SOL    HW214904   4.700   2.713   5.961  1.7414  0.2820 -0.2159
 1090SOL     OW14905   4.266   3.615   2.068 -0.2895 -0.3195 -0.1309
 1090SOL    HW114906   4.341   3.643   2.120 -0.8628 -0.7317  0.9184
 1090SOL    HW214907   4.193   3.619   2.130  2.1393 -0.9533  2.7912
 1091SOL     OW14908   1.151   1.882   4.292 -0.5633  0.3545  0.7440
 1091SOL    HW114909   1.087   1.894   4.222 -0.0061  1.8349  0.4856
 1091SOL    HW214910   1.095   1.901   4.367 -1.2109  1.5755 -0.0328
 1092SOL     OW14911   2.269   3.335   4.819  0.2324 -0.4294 -0.1431
 1092SOL    HW114912   2.345   3.341   4.761  0.5430 -0.2141  0.2857
 1092SOL    HW214913   2.272   3.239   4.827 -1.1376 -0.5218 -0.7333
 1093SOL     OW14914   2.613   1.957   6.368  0.0313 -0.3164 -0.4379
 1093SOL    HW114915   2.702   1.922   6.367  0.8533  1.7136  1.8710
 1093SOL    HW214916   2.629   2.042   6.409 -0.4145 -0.2553 -0.3852
 1094SOL     OW14917   3.631   1.414   8.268 -0.2542 -0.5010  0.0177
 1094SOL    HW114918   3.574   1.459   8.331  1.1895  1.0633  0.2164
 1094SOL    HW214919   3.577   1.358   8.213 -1.0946 -0.0312  0.3731
 1095SOL     OW14920   0.136   3.777  13.332 -0.2703  0.1702  0.2681
 1095SOL    HW114921   0.220   3.806  13.297 -0.8678 -1.0786 -2.1914
 1095SOL    HW214922   0.160   3.735  13.414 -1.8267  0.8050  1.0559
 1096SOL     OW14923   3.651   1.859  10.861  0.4278 -0.2379 -0.2633
 1096SOL    HW114924   3.569   1.810  10.870  0.3505 -0.2895 -1.2966
 1096SOL    HW214925   3.627   1.944  10.900  1.6475  0.0094 -0.0683
 1097SOL     OW14926   4.674   2.011   3.503  0.5054 -0.1057 -0.8133
 1097SOL    HW114927   4.714   1.959   3.432  0.3215  1.4448 -2.0422
 1097SOL    HW214928   0.011   2.037   3.555  1.3864  1.6144 -2.9538
 1098SOL     OW14929   2.668   2.741   5.436  0.1110  0.4933  0.0879
 1098SOL    HW114930   2.643   2.705   5.520 -1.3408  1.8626  0.2365
 1098SOL    HW214931   2.699   2.827   5.464  1.3851 -0.0553  0.3414
 1099SOL     OW14932   0.608   2.513   4.160  0.2874 -0.4978 -0.1998
 1099SOL    HW114933   0.538   2.567   4.195  0.2974 -1.2735  1.0221
 1099SOL    HW214934   0.663   2.509   4.239 -3.5541  2.1247  2.5950
 1100SOL     OW14935   1.859   2.241   7.940 -0.6548 -0.1282  0.6410
 1100SOL    HW114936   1.914   2.286   8.005  1.9904 -1.5875 -0.5917
 1100SOL    HW214937   1.914   2.166   7.917 -0.5042 -0.4281  1.9914
 1101SOL     OW14938   3.340   4.150   6.469  0.1144 -0.2073 -0.3122
 1101SOL    HW114939   3.425   4.181   6.498 -1.1201  1.3553  1.5967
 1101SOL    HW214940   3.367   4.149   6.377 -2.5093  0.1778 -1.1034
 1102SOL     OW14941   2.294   2.780  11.187 -0.5986  0.0476 -0.9748
 1102SOL    HW114942   2.205   2.784  11.222  0.4691 -1.5102  1.9096
 1102SOL    HW214943   2.274   2.742  11.102 -1.7214 -1.5682  0.0197
 1103SOL     OW14944   2.291   0.734  16.618  0.1794  0.0728  0.4629
 1103SOL    HW114945   2.195   0.737  16.615  0.0898 -1.3938  1.5434
 1103SOL    HW214946   2.317   0.821  16.588  0.7677  1.0885  3.8513
 1104SOL     OW14947   2.276   2.617   9.865 -0.0652 -0.2545  0.3051
 1104SOL    HW114948   2.213   2.583   9.802 -1.2456  2.1279  0.1768
 1104SOL    HW214949   2.335   2.666   9.808  0.6300 -0.3964  0.9067
 1105SOL     OW14950   1.399   2.353   7.056 -0.1097 -0.0293 -0.6417
 1105SOL    HW114951   1.348   2.378   6.979  0.5077  0.6200 -0.8447
 1105SOL    HW214952   1.405   2.437   7.102  0.1551 -0.6931  0.5541
 1106SOL     OW14953   2.581   4.199   0.885  0.0396  0.2566 -0.5852
 1106SOL    HW114954   2.635   4.262   0.933  1.1417 -1.7120  0.7623
 1106SOL    HW214955   2.574   4.126   0.947 -1.1392  0.4354 -0.5184
 1107SOL     OW14956   1.716   3.643   7.720 -0.1725 -0.1311 -0.0487
 1107SOL    HW114957   1.621   3.646   7.708  0.0831  2.3271 -1.4994
 1107SOL    HW214958   1.731   3.626   7.813  0.9627 -4.3277 -1.0035
 1108SOL     OW14959   2.654   4.638   3.630 -0.2158 -0.3623 -0.2080
 1108SOL    HW114960   2.693   4.709   3.681  0.0085 -1.5713  1.2935
 1108SOL    HW214961   2.615   4.579   3.694 -0.2746 -0.1551 -0.0542
 1109SOL     OW14962   4.177   2.449   9.045  0.1328 -0.0575  0.0093
 1109SOL    HW114963   4.201   2.540   9.030 -0.8876  0.5170  1.8445
 1109SOL    HW214964   4.217   2.430   9.130 -1.4769  0.4309  0.8784
 1110SOL     OW14965   3.971   3.690   1.078  0.4926 -0.4936  0.3077
 1110SOL    HW114966   3.947   3.735   0.997  0.0579 -1.5837 -0.1624
 1110SOL    HW214967   3.991   3.608   1.034  2.3535 -0.9196  1.9211
 1111SOL     OW14968   2.837   1.271  10.924 -0.0057  0.3237  0.1222
 1111SOL    HW114969   2.898   1.240  10.858 -0.1100 -1.6770  0.9771
 1111SOL    HW214970   2.887   1.339  10.969  0.7796 -0.1762  0.0092
 1112SOL     OW14971   4.261   4.571   1.618 -0.4589  0.4323  0.2535
 1112SOL    HW114972   4.223   4.509   1.556 -3.0521  3.2803 -0.9988
 1112SOL    HW214973   4.345   4.527   1.627 -0.2353  0.8595  0.2687
 1113SOL     OW14974   3.900   0.586   2.736  0.1164  0.1503  0.4241
 1113SOL    HW114975   3.837   0.590   2.664  0.9817  0.3327 -0.3217
 1113SOL    HW214976   3.867   0.528   2.805  0.5993  0.8832  1.2753
 1114SOL     OW14977   3.150   1.202   3.897  0.4515  0.1119  0.1831
 1114SOL    HW114978   3.077   1.165   3.847 -0.1653  1.3341  0.1693
 1114SOL    HW214979   3.223   1.183   3.838  0.5474  1.7360 -0.2246
 1115SOL     OW14980   2.389   1.358   2.023 -0.3106  0.5592 -0.2405
 1115SOL    HW114981   2.384   1.339   1.929 -3.0806  3.2302 -0.6225
 1115SOL    HW214982   2.409   1.274   2.064 -0.2584  0.0320 -1.3477
 1116SOL     OW14983   4.477   3.550  13.066  0.2693 -0.4733 -0.3157
 1116SOL    HW114984   4.564   3.555  13.107  0.8088 -2.6088 -1.2150
 1116SOL    HW214985   4.439   3.635  13.088 -1.3978 -0.5923 -2.7763
 1117SOL     OW14986   0.466   0.916   3.142  0.0357  0.2264  0.4590
 1117SOL    HW114987   0.480   1.001   3.182 -3.0224  0.4977  0.9079
 1117SOL    HW214988   0.371   0.909   3.148  0.0326 -0.4603 -0.2992
 1118SOL     OW14989   2.976   0.425   6.779 -0.7019 -0.3531  0.0206
 1118SOL    HW114990   3.023   0.473   6.847  0.1808 -0.1325 -0.7543
 1118SOL    HW214991   2.967   0.340   6.822  0.5782 -0.6021 -0.1996
 1119SOL     OW14992   3.396   2.101   8.767 -0.0913 -0.0782  0.0406
 1119SOL    HW114993   3.400   2.056   8.851  0.0279 -0.0673  0.0407
 1119SOL    HW214994   3.360   2.186   8.793  1.1007  0.8006 -1.1766
 1120SOL     OW14995   4.191   1.641   1.713  0.1518  0.1979  0.1335
 1120SOL    HW114996   4.220   1.689   1.635  0.3432 -2.1305 -1.2007
 1120SOL    HW214997   4.274   1.623   1.758 -0.6149 -0.2436  1.3544
 1121SOL     OW14998   0.656   1.699   5.330 -0.2784  0.5586  0.2577
 1121SOL    HW114999   0.711   1.648   5.271 -0.1752 -1.1527  1.8400
 1121SOL    HW215000   0.565   1.682   5.306 -0.5683  1.9803  0.3355
 1122SOL     OW15001   3.592   1.353   5.348  0.2673 -0.3129  0.1388
 1122SOL    HW115002   3.541   1.434   5.342  1.7632  0.6903  1.0273
 1122SOL    HW215003   3.520   1.293   5.365  0.0258  0.0212  0.3042
 1123SOL     OW15004   1.051   3.811   5.245  0.3908  0.4431  0.3017
 1123SOL    HW115005   1.117   3.806   5.176  2.2124 -1.5537  2.2042
 1123SOL    HW215006   0.982   3.851   5.192  1.8587 -0.2498 -2.1312
 1124SOL     OW15007   0.675   1.451   6.579  0.7281  0.1002 -0.0940
 1124SOL    HW115008   0.708   1.361   6.576  2.3840  0.6173  1.6576
 1124SOL    HW215009   0.756   1.499   6.562  2.0648 -1.7239  1.0547
 1125SOL     OW15010   1.846   1.920   7.569 -0.4458 -0.3726 -0.4780
 1125SOL    HW115011   1.937   1.951   7.570 -1.1160  1.4186  2.3484
 1125SOL    HW215012   1.858   1.835   7.612 -0.7822 -0.2078 -0.0655
 1126SOL     OW15013   4.504   3.889   4.966  0.1108 -0.0981 -0.3382
 1126SOL    HW115014   4.470   3.802   4.947 -1.2990  0.7087 -1.4781
 1126SOL    HW215015   4.587   3.878   5.013 -0.1382  2.3217  0.6631
 1127SOL     OW15016   1.471   2.520   3.855 -0.1559  0.6522  0.5406
 1127SOL    HW115017   1.474   2.462   3.932  0.6754  0.3759  0.2905
 1127SOL    HW215018   1.456   2.452   3.789 -2.3232  1.1265  0.5196
 1128SOL     OW15019   2.157   3.312   1.753  0.6993  0.1674 -0.3696
 1128SOL    HW115020   2.172   3.223   1.724  0.9775 -0.2583  1.0785
 1128SOL    HW215021   2.178   3.295   1.845  0.8086  1.8088 -0.0814
 1129SOL     OW15022   1.057   0.779   6.121 -0.1168 -0.0356  0.3529
 1129SOL    HW115023   1.134   0.723   6.131 -0.2716 -0.1589  0.8826
 1129SOL    HW215024   1.052   0.827   6.204 -0.4295  0.4227  0.0644
 1130SOL     OW15025   4.062   3.656  13.110  0.2810  0.0122  1.0092
 1130SOL    HW115026   3.973   3.676  13.081  0.4355  1.8920  1.8834
 1130SOL    HW215027   4.077   3.721  13.178  1.1846  0.2906  0.5408
 1131SOL     OW15028   1.842   2.404   3.587  0.3685 -0.4032  0.5524
 1131SOL    HW115029   1.918   2.462   3.594  0.2683 -0.1049 -0.7688
 1131SOL    HW215030   1.874   2.314   3.578  0.7483 -0.1163 -1.0476
 1132SOL     OW15031   2.229   3.777  11.531 -0.1430 -0.0724  0.0568
 1132SOL    HW115032   2.238   3.835  11.607 -3.0439  1.3395 -0.6612
 1132SOL    HW215033   2.185   3.840  11.473  1.2736  1.7821  0.9800
 1133SOL     OW15034   3.513   3.668   2.344 -0.2309  0.3098  0.1979
 1133SOL    HW115035   3.509   3.583   2.387  1.4623 -1.8554 -3.9385
 1133SOL    HW215036   3.439   3.722   2.371  0.9369  1.7437  0.5628
 1134SOL     OW15037   1.732   4.565   8.901  0.3463  0.0964  0.2723
 1134SOL    HW115038   1.747   4.543   8.993  1.7203  2.9894  0.7379
 1134SOL    HW215039   1.650   4.614   8.909  0.0441  0.1647 -3.2374
 1135SOL     OW15040   3.794   1.301   3.524 -0.8936  0.0523  0.0269
 1135SOL    HW115041   3.787   1.278   3.617  0.7484  0.4132  0.2284
 1135SOL    HW215042   3.712   1.350   3.517  0.0216  1.9756  3.2496
 1136SOL     OW15043   3.970   4.381  11.651 -0.2458 -0.1517 -0.2409
 1136SOL    HW115044   4.013   4.341  11.727  0.1675 -0.9271 -0.8819
 1136SOL    HW215045   4.042   4.422  11.602  0.8175 -1.9931 -0.2008
 1137SOL     OW15046   4.431   1.221   5.715 -0.3665 -0.7408  0.2721
 1137SOL    HW115047   4.348   1.262   5.739 -0.8291 -1.6963  0.3007
 1137SOL    HW215048   4.425   1.221   5.619 -2.7557  0.1639  0.4115
 1138SOL     OW15049   4.112   2.542  12.142  0.1203  0.1111 -0.0938
 1138SOL    HW115050   4.130   2.627  12.102 -1.0425 -0.4518 -1.8117
 1138SOL    HW215051   4.168   2.547  12.219  0.0036 -1.9755  0.1297
 1139SOL     OW15052   3.494   4.684   3.390  0.1858  0.7217  0.0544
 1139SOL    HW115053   3.437   0.005   3.440  0.2943  0.3273  0.6433
 1139SOL    HW215054   3.527   0.002   3.321 -0.2650 -2.6632 -2.9214
 1140SOL     OW15055   4.457   4.072   7.907  0.6149 -0.0541  0.1640
 1140SOL    HW115056   4.370   4.068   7.869  1.3146  1.5267 -1.6094
 1140SOL    HW215057   4.441   4.119   7.990  1.6650 -2.8342  1.9378
 1141SOL     OW15058   0.582   0.505  14.910 -0.5540  0.1557 -0.2959
 1141SOL    HW115059   0.649   0.439  14.925 -0.2375  0.4550 -0.3990
 1141SOL    HW215060   0.630   0.587  14.904  1.3733 -0.9841 -0.1773
 1142SOL     OW15061   0.308   1.256   9.613 -0.9109 -0.1806 -0.6194
 1142SOL    HW115062   0.395   1.278   9.577  0.7629 -0.6375  3.1777
 1142SOL    HW215063   0.324   1.183   9.673 -0.9883  1.6619  1.6553
 1143SOL     OW15064   2.771   4.255   8.624 -0.0859  0.1608  0.0792
 1143SOL    HW115065   2.701   4.308   8.662 -0.6333 -1.0248  0.6972
 1143SOL    HW215066   2.824   4.237   8.702  0.8064 -1.0052 -0.7949
 1144SOL     OW15067   2.586   1.452   8.015  0.4936 -0.4958 -0.6363
 1144SOL    HW115068   2.605   1.465   8.108 -2.6171  0.2814 -0.1006
 1144SOL    HW215069   2.675   1.421   7.996  0.8900  0.7962 -0.8629
 1145SOL     OW15070   1.434   0.561   5.171  0.1344 -0.1590 -0.1534
 1145SOL    HW115071   1.473   0.538   5.086 -1.0599 -2.3057 -0.1447
 1145SOL    HW215072   1.511   0.563   5.228  0.4296  1.7597 -0.6164
 1146SOL     OW15073   2.069   3.228   7.499  0.2142  0.4270 -0.1481
 1146SOL    HW115074   2.154   3.271   7.492 -0.2901  1.6797  1.2169
 1146SOL    HW215075   2.080   3.160   7.433 -0.2629 -1.7494  2.0188
 1147SOL     OW15076   4.008   4.593  17.584 -0.0867  0.2779 -0.0582
 1147SOL    HW115077   3.978   4.576  17.494 -0.0341  0.6102 -0.1394
 1147SOL    HW215078   4.042   4.680  17.565 -1.3681  1.2911  2.3405
 1148SOL     OW15079   1.916   2.898   4.540  0.2487 -0.2359 -0.8160
 1148SOL    HW115080   1.847   2.900   4.475 -1.2182  1.9135  0.8292
 1148SOL    HW215081   1.859   2.908   4.617  2.9128 -1.7658  1.3889
 1149SOL     OW15082   3.076   2.993   2.702 -0.3031  0.4610  0.3298
 1149SOL    HW115083   3.024   3.056   2.653 -0.3381  1.1988  1.3169
 1149SOL    HW215084   3.055   2.908   2.661 -0.5529  1.4273 -1.5469
 1150SOL     OW15085   2.154   2.026   9.797  0.2005  0.6752  0.2475
 1150SOL    HW115086   2.175   1.955   9.858 -1.2736 -0.0879 -0.1497
 1150SOL    HW215087   2.205   2.100   9.831  0.8772  0.6873 -0.7863
 1151SOL     OW15088   2.097   4.125   9.356 -0.1901 -0.1162  0.2000
 1151SOL    HW115089   2.191   4.145   9.350  0.0937 -0.7356  2.5127
 1151SOL    HW215090   2.105   4.038   9.394 -0.3744 -0.2121  0.0169
 1152SOL     OW15091   2.842   2.336   6.550  0.4032 -0.3665  0.6532
 1152SOL    HW115092   2.935   2.357   6.548  0.4354 -0.3759  2.3390
 1152SOL    HW215093   2.821   2.362   6.640  1.0684 -3.5991  1.7664
 1153SOL     OW15094   3.174   1.423   1.896  0.7706 -0.0981  0.0911
 1153SOL    HW115095   3.178   1.356   1.965  0.6148  1.6118  1.7611
 1153SOL    HW215096   3.243   1.481   1.928 -0.5747  1.0873  0.8250
 1154SOL     OW15097   4.091   0.878  12.826  0.1102 -0.1814  0.2145
 1154SOL    HW115098   4.082   0.952  12.767 -0.0142 -2.0930 -2.1832
 1154SOL    HW215099   4.170   0.900  12.875 -0.7689  2.5886  0.3791
 1155SOL     OW15100   3.211   4.547   7.858  0.2458  0.3148  0.3884
 1155SOL    HW115101   3.232   4.593   7.776 -0.2225  1.9115  1.1586
 1155SOL    HW215102   3.204   4.626   7.911 -3.6424  0.9648 -1.0935
 1156SOL     OW15103   1.776   2.031  16.879  0.4734  0.3589 -0.3419
 1156SOL    HW115104   1.787   2.115  16.834 -1.3472  1.4088  1.1793
 1156SOL    HW215105   1.863   2.017  16.918  0.5121  1.4206 -0.0325
 1157SOL     OW15106   1.133   1.908   2.281 -0.1771  0.1874 -0.4598
 1157SOL    HW115107   1.061   1.971   2.279 -0.0265  0.3830  0.2835
 1157SOL    HW215108   1.206   1.971   2.276 -0.0036 -0.1360 -2.1219
 1158SOL     OW15109   0.365   0.581   4.804  0.4119  0.0724  0.5255
 1158SOL    HW115110   0.286   0.572   4.858 -1.0526  1.1084 -1.4247
 1158SOL    HW215111   0.376   0.490   4.775 -2.4706 -0.0845 -0.1044
 1159SOL     OW15112   1.095   3.869  11.481  0.2692  0.1172  0.1628
 1159SOL    HW115113   1.012   3.824  11.490  0.2984  0.5724  2.6270
 1159SOL    HW215114   1.069   3.961  11.473  0.3110 -0.1227 -2.9786
 1160SOL     OW15115   3.496   0.542   4.525 -0.1046 -0.1591  0.1665
 1160SOL    HW115116   3.433   0.608   4.496 -1.0514 -0.6190  1.1981
 1160SOL    HW215117   3.576   0.586   4.496 -0.2448 -1.1193 -1.6745
 1161SOL     OW15118   1.103   1.878   7.427  0.1467  0.0838 -0.2380
 1161SOL    HW115119   1.149   1.911   7.350 -0.6706 -0.1546 -0.8238
 1161SOL    HW215120   1.137   1.929   7.500 -0.6634  0.9992 -0.5049
 1162SOL     OW15121   1.603   3.177   3.090 -0.0248 -0.7629 -0.1706
 1162SOL    HW115122   1.567   3.249   3.141  0.0119 -1.1352  0.3854
 1162SOL    HW215123   1.662   3.132   3.150  0.2988  0.8543  0.7219
 1163SOL     OW15124   3.218   1.046   4.163  0.2782  0.4196  0.1149
 1163SOL    HW115125   3.221   1.102   4.086  2.3394  1.5029  1.0105
 1163SOL    HW215126   3.304   1.005   4.160 -0.0700 -0.3531  0.4322
 1164SOL     OW15127   1.685   1.211   1.762  0.0983 -0.1725  0.2922
 1164SOL    HW115128   1.729   1.295   1.748  0.5550 -0.3370  0.7180
 1164SOL    HW215129   1.745   1.155   1.811  1.0357  0.4342 -0.1553
 1165SOL     OW15130   4.219   0.001   8.183 -0.3139 -0.7158  0.8944
 1165SOL    HW115131   4.259   0.086   8.201 -0.7908 -0.2487 -0.2350
 1165SOL    HW215132   4.211   4.714   8.275 -0.9391  1.1207  1.3441
 1166SOL     OW15133   1.199   0.174   6.375 -0.0473 -0.1211  0.5544
 1166SOL    HW115134   1.289   0.147   6.361 -0.1862 -0.3527  0.1008
 1166SOL    HW215135   1.153   0.124   6.308 -0.0399 -1.0463  1.2368
 1167SOL     OW15136   2.884   3.745  11.708 -0.2924 -0.0256 -0.7446
 1167SOL    HW115137   2.888   3.654  11.737 -0.3010  0.6535  1.4263
 1167SOL    HW215138   2.867   3.789  11.792  0.4459 -0.1602 -0.5288
 1168SOL     OW15139   1.042   1.910   1.858  0.4401 -0.0522 -0.1704
 1168SOL    HW115140   0.993   1.956   1.926  1.0465 -0.0103  0.2423
 1168SOL    HW215141   1.056   1.989   1.805  0.9774 -0.5681 -0.8090
 1169SOL     OW15142   0.077   2.348   6.767 -0.5736  0.1318  0.2021
 1169SOL    HW115143   0.072   2.336   6.862  1.8148 -1.9711  0.0634
 1169SOL    HW215144   4.733   2.394   6.752  0.5215  2.3414  0.9735
 1170SOL     OW15145   4.181   1.279   4.660 -0.7629 -0.3063 -0.4137
 1170SOL    HW115146   4.250   1.288   4.725 -1.3834 -0.6753  0.2855
 1170SOL    HW215147   4.155   1.367   4.634 -1.5200 -0.0546  1.2357
 1171SOL     OW15148   3.031   3.432   3.058  0.3254  0.0314  0.4928
 1171SOL    HW115149   3.013   3.341   3.079  1.5063 -0.6283 -1.4036
 1171SOL    HW215150   3.124   3.428   3.036  0.2185  0.6381 -0.0977
 1172SOL     OW15151   2.580   0.112   6.560  0.2284  0.2446  0.2368
 1172SOL    HW115152   2.496   0.069   6.574 -0.5870  1.8784  0.2827
 1172SOL    HW215153   2.628   0.035   6.527 -3.4321 -1.4988 -0.9650
 1173SOL     OW15154   2.003   0.274   1.639 -0.3491  0.7348 -0.1233
 1173SOL    HW115155   2.069   0.207   1.654 -0.9777  0.2906  0.6632
 1173SOL    HW215156   2.048   0.358   1.625  1.3213  0.0392  1.0198
 1174SOL     OW15157   1.551   4.150  12.265  0.2160 -0.9558 -0.5153
 1174SOL    HW115158   1.533   4.174  12.174  2.0890 -0.3797 -0.7496
 1174SOL    HW215159   1.568   4.056  12.266  0.8874 -0.7802  3.0904
 1175SOL     OW15160   4.214   2.976  15.922  0.6927 -0.2375 -0.5004
 1175SOL    HW115161   4.220   3.071  15.929 -3.4456 -0.0111  0.4474
 1175SOL    HW215162   4.224   2.951  16.014  0.2205  2.3015  0.2372
 1176SOL     OW15163   3.145   1.545   7.772 -0.6464  0.3750 -0.4139
 1176SOL    HW115164   3.136   1.500   7.688  0.2881  0.9013 -0.7944
 1176SOL    HW215165   3.191   1.627   7.756 -0.1507  0.2543  0.3895
 1177SOL     OW15166   0.834   2.212   7.338 -0.2450 -0.4843 -0.2445
 1177SOL    HW115167   0.833   2.116   7.334  0.6228 -0.4789 -0.4813
 1177SOL    HW215168   0.877   2.231   7.254 -3.1941 -0.5605 -1.7822
 1178SOL     OW15169   4.206   0.096   0.546 -0.5660  0.4762 -0.0786
 1178SOL    HW115170   4.211   0.022   0.607  0.9668 -0.2596 -1.0923
 1178SOL    HW215171   4.120   0.090   0.504 -0.2318 -1.8012 -0.4808
 1179SOL     OW15172   1.755   0.275   3.156  0.4841 -0.2785 -0.1581
 1179SOL    HW115173   1.763   0.267   3.251  0.3018  0.5006 -0.0760
 1179SOL    HW215174   1.786   0.366   3.148 -1.0185  0.4958  3.0737
 1180SOL     OW15175   1.002   1.565   4.264 -0.9948 -0.3209  0.3854
 1180SOL    HW115176   0.936   1.607   4.208 -1.7370 -0.3257  1.2550
 1180SOL    HW215177   0.980   1.472   4.267 -1.3471 -0.1969  1.4257
 1181SOL     OW15178   2.710   3.129   6.341 -0.1037  0.1694 -0.1218
 1181SOL    HW115179   2.802   3.147   6.361  0.4617 -1.3225 -1.3498
 1181SOL    HW215180   2.674   3.217   6.352 -2.3897 -0.5386 -1.9243
 1182SOL     OW15181   3.017   2.054   8.126  0.0027  0.1410 -0.0740
 1182SOL    HW115182   3.100   2.039   8.172  0.9994  1.6444 -1.3660
 1182SOL    HW215183   3.008   1.973   8.076 -1.1477 -0.1561  0.6314
 1183SOL     OW15184   2.343   1.691   3.363  0.1957  0.2567  0.4517
 1183SOL    HW115185   2.365   1.615   3.309 -1.6301  0.1396 -0.1237
 1183SOL    HW215186   2.301   1.754   3.304  1.9476 -0.1634 -1.2436
 1184SOL     OW15187   3.463   1.779   2.421  0.4258  0.4076  0.2767
 1184SOL    HW115188   3.478   1.873   2.414 -0.6980  0.6229  0.7778
 1184SOL    HW215189   3.370   1.780   2.397  0.2363 -3.7260  0.7784
 1185SOL     OW15190   4.369   3.535  12.429 -0.4925 -0.3493 -0.0275
 1185SOL    HW115191   4.445   3.593  12.427 -0.1258 -0.9569 -3.7046
 1185SOL    HW215192   4.382   3.503  12.518  0.4098  0.6669  0.2093
 1186SOL     OW15193   0.851   1.457   3.462 -0.4451 -0.0318 -0.0774
 1186SOL    HW115194   0.805   1.413   3.534  0.0209 -1.7857 -0.8581
 1186SOL    HW215195   0.862   1.391   3.394 -2.0894  0.9928 -1.3360
 1187SOL     OW15196   0.311   3.290  14.602  0.3806 -0.0636  0.5710
 1187SOL    HW115197   0.380   3.225  14.603  2.2624  1.9406  1.1390
 1187SOL    HW215198   0.361   3.372  14.601 -0.0800  0.2271  1.1979
 1188SOL     OW15199   2.668   3.220   8.134  0.0785  0.3804 -0.2064
 1188SOL    HW115200   2.616   3.289   8.176  0.2127  0.7563 -0.6472
 1188SOL    HW215201   2.618   3.197   8.056 -1.6255  1.1651  0.6394
 1189SOL     OW15202   3.982   3.646   9.779 -0.3893 -0.3792  0.1893
 1189SOL    HW115203   4.011   3.582   9.844 -0.9982 -2.4789 -1.6093
 1189SOL    HW215204   4.038   3.714   9.818 -1.8645  1.9882 -1.8015
 1190SOL     OW15205   3.743   3.305  17.153 -0.2011 -0.1083  0.4847
 1190SOL    HW115206   3.745   3.229  17.095 -0.7927  0.0785  0.2199
 1190SOL    HW215207   3.812   3.361  17.116  1.3812 -2.4135 -0.0800
 1191SOL     OW15208   2.907   3.442   8.780  0.6090  0.1971  0.3728
 1191SOL    HW115209   2.991   3.479   8.751 -0.1124  1.3578 -0.2644
 1191SOL    HW215210   2.912   3.446   8.876 -0.4295 -0.9291  0.4563
 1192SOL     OW15211   3.634   3.879   4.556  0.1380  0.0303  0.2726
 1192SOL    HW115212   3.639   3.971   4.530 -1.6216  0.0496  0.0078
 1192SOL    HW215213   3.725   3.867   4.583 -0.6247  0.0336  2.8436
 1193SOL     OW15214   4.658   1.923  12.864 -0.6097 -0.3659  0.4628
 1193SOL    HW115215   4.567   1.908  12.837 -0.2089 -0.4412 -0.8395
 1193SOL    HW215216   4.687   1.841  12.903  1.1934  0.2730  0.4791
 1194SOL     OW15217   4.578   0.941  10.889 -0.4790  0.4923 -0.1134
 1194SOL    HW115218   4.558   0.972  10.978  1.4622 -0.8505  0.7743
 1194SOL    HW215219   4.662   0.979  10.866  1.3637 -3.2832  0.4903
 1195SOL     OW15220   0.272   0.875   6.580 -0.4774  0.0566  0.2539
 1195SOL    HW115221   0.261   0.809   6.648  1.9487 -0.3683  0.2268
 1195SOL    HW215222   0.364   0.892   6.596 -0.3361 -0.5069  0.0418
 1196SOL     OW15223   3.158   0.686   4.156 -0.0021  0.1554  0.4997
 1196SOL    HW115224   3.083   0.716   4.208  1.2958  0.9760  1.8875
 1196SOL    HW215225   3.160   0.738   4.076 -2.3555 -1.9737 -0.9390
 1197SOL     OW15226   4.730   0.768   4.226  0.2689 -0.1984 -0.0988
 1197SOL    HW115227   0.007   0.745   4.318 -1.1068 -0.6977  0.0037
 1197SOL    HW215228   4.653   0.712   4.212 -1.2179  1.5547  1.1223
 1198SOL     OW15229   0.255   4.314   0.295 -0.6346 -0.2455 -0.4586
 1198SOL    HW115230   0.164   4.318   0.325 -0.7609  0.9282 -0.9826
 1198SOL    HW215231   0.280   4.247   0.357  3.0828  0.4858 -1.1726
 1199SOL     OW15232   2.269   2.979   0.937 -0.0490  0.5805 -0.4070
 1199SOL    HW115233   2.215   3.054   0.912 -0.9285  0.0439 -0.1093
 1199SOL    HW215234   2.196   2.919   0.951  1.1494 -0.4592  1.2765
 1200SOL     OW15235   0.438   1.682  13.226 -0.0381  0.1649  0.3936
 1200SOL    HW115236   0.354   1.718  13.256  1.3117  2.2762  1.6221
 1200SOL    HW215237   0.484   1.658  13.307 -1.1957  0.8843  1.2759
 1201SOL     OW15238   4.236   3.540   3.437  0.0794  0.0958 -0.1069
 1201SOL    HW115239   4.179   3.507   3.507  0.6673 -2.3267 -0.7560
 1201SOL    HW215240   4.202   3.492   3.361 -3.7254  1.2974  0.8601
 1202SOL     OW15241   3.854   1.748   6.800 -0.2427  0.2322 -1.1339
 1202SOL    HW115242   3.827   1.678   6.739 -1.6110  0.6660 -1.0388
 1202SOL    HW215243   3.839   1.709   6.886  1.8685 -0.4971 -1.0982
 1203SOL     OW15244   1.787   2.408   6.749  0.1319  0.1716  0.4024
 1203SOL    HW115245   1.706   2.392   6.701  1.5284 -2.9694 -0.9122
 1203SOL    HW215246   1.843   2.341   6.710 -2.1012 -0.3879 -1.8728
 1204SOL     OW15247   2.949   1.312   2.753  0.0493  0.1023  0.1578
 1204SOL    HW115248   3.012   1.240   2.769  0.1297  0.3024  0.7560
 1204SOL    HW215249   2.867   1.269   2.776 -0.2446 -0.1899 -1.4345
 1205SOL     OW15250   0.978   4.205  16.059 -0.2679  0.3256  0.1592
 1205SOL    HW115251   1.073   4.215  16.052  0.0452 -1.6321  1.9230
 1205SOL    HW215252   0.951   4.283  16.108  1.1230  0.2662  1.0214
 1206SOL     OW15253   2.063   4.516   2.257  0.0218  0.2048 -0.1350
 1206SOL    HW115254   2.084   4.609   2.252 -0.1435  0.3460  2.0120
 1206SOL    HW215255   2.082   4.486   2.168 -1.7581 -0.3637 -0.3149
 1207SOL     OW15256   4.540   2.566   4.357  0.0074  0.6876  0.2125
 1207SOL    HW115257   4.505   2.617   4.283  0.1608  1.9603  1.0179
 1207SOL    HW215258   4.452   2.541   4.385  1.1476 -0.2890  2.8764
 1208SOL     OW15259   0.603   3.047   5.942  0.8734 -0.2967  0.5916
 1208SOL    HW115260   0.521   3.096   5.931  0.3167 -2.0284 -3.1351
 1208SOL    HW215261   0.663   3.118   5.918  0.4494 -0.9014 -2.3172
 1209SOL     OW15262   2.540   0.573   8.303  0.0210 -0.3430 -0.3893
 1209SOL    HW115263   2.514   0.497   8.251 -2.6508  0.3439 -0.0770
 1209SOL    HW215264   2.621   0.588   8.255 -0.1185  0.1557 -0.4677
 1210SOL     OW15265   4.211   4.369  15.070  0.4489 -0.0415  0.6341
 1210SOL    HW115266   4.157   4.427  15.017  0.6277  0.9407  1.5210
 1210SOL    HW215267   4.206   4.286  15.022 -0.9269  1.8759 -2.5057
 1211SOL     OW15268   2.202   3.003   8.463  0.7592 -0.0626  0.1038
 1211SOL    HW115269   2.199   2.912   8.432  0.0575 -0.3720  1.0678
 1211SOL    HW215270   2.175   3.056   8.389 -1.2657  1.6093  2.0517
 1212SOL     OW15271   2.047   1.711   7.655  0.3541  0.1749  0.0984
 1212SOL    HW115272   1.996   1.630   7.646 -0.2442  0.3415  1.9148
 1212SOL    HW215273   2.078   1.724   7.566  0.1118  1.3291  0.1799
 1213SOL     OW15274   0.497   0.721   8.554  0.2764  0.1128  0.7070
 1213SOL    HW115275   0.447   0.683   8.481 -0.9684  1.7110  0.7425
 1213SOL    HW215276   0.486   0.660   8.627  4.1493 -1.8645 -0.3545
 1214SOL     OW15277   2.268   1.505   8.310  0.1791 -0.6821  0.4599
 1214SOL    HW115278   2.360   1.511   8.288 -0.2395 -0.8239 -1.2856
 1214SOL    HW215279   2.228   1.515   8.224 -1.9563 -0.8721  1.4048
 1215SOL     OW15280   3.654   4.610   8.560  0.2018 -0.1895 -0.3837
 1215SOL    HW115281   3.672   4.557   8.638 -0.7405 -0.7795 -0.5722
 1215SOL    HW215282   3.602   4.556   8.501  0.0209 -2.4408  1.8279
 1216SOL     OW15283   4.677   1.240   6.466 -0.1857  0.0815  0.4985
 1216SOL    HW115284   0.022   1.206   6.496  0.2810  2.2556  1.6649
 1216SOL    HW215285   4.627   1.173   6.420 -0.3993 -0.7729  1.9696
 1217SOL     OW15286   2.629   1.891   7.085 -0.0305 -0.0893 -0.2942
 1217SOL    HW115287   2.556   1.902   7.024 -2.2355  1.4655  2.6423
 1217SOL    HW215288   2.696   1.862   7.023  0.6094 -1.6167  1.1184
 1218SOL     OW15289   4.607   4.332   3.670  0.2668  0.0734 -0.3716
 1218SOL    HW115290   4.683   4.390   3.671  0.3743 -0.0795  0.2559
 1218SOL    HW215291   4.572   4.355   3.756  2.1420 -1.0287  0.6765
 1219SOL     OW15292   2.652   2.492  11.185  0.8913  0.0541 -0.2445
 1219SOL    HW115293   2.604   2.458  11.260  1.9614  0.4096  0.5980
 1219SOL    HW215294   2.732   2.440  11.193  0.4666 -0.6105 -0.3308
 1220SOL     OW15295   3.644   1.535   1.999 -0.3533 -0.1274  0.0889
 1220SOL    HW115296   3.622   1.446   1.972  1.9197 -0.0125 -2.0505
 1220SOL    HW215297   3.633   1.532   2.094 -1.5298 -1.3646 -0.0859
 1221SOL     OW15298   0.494   3.369   7.249 -0.5971 -0.3001 -0.1270
 1221SOL    HW115299   0.406   3.346   7.279 -0.6034  1.7798  1.4662
 1221SOL    HW215300   0.469   3.397   7.161  0.6783 -2.9104 -1.3233
 1222SOL     OW15301   3.540   0.609   2.153  0.7037 -0.2931  0.0255
 1222SOL    HW115302   3.466   0.622   2.212  1.0051 -0.1934  0.3832
 1222SOL    HW215303   3.571   0.525   2.184  1.1632 -1.4038 -3.4143
 1223SOL     OW15304   4.375   4.328   8.736 -0.1794  0.1147 -0.3158
 1223SOL    HW115305   4.404   4.241   8.708  2.2362  0.7514  0.2230
 1223SOL    HW215306   4.286   4.296   8.751 -0.5692  1.3834  0.0560
 1224SOL     OW15307   2.527   4.430   3.781 -0.0897 -0.3297  0.3412
 1224SOL    HW115308   2.488   4.466   3.860  2.1849  2.1420  0.3316
 1224SOL    HW215309   2.577   4.353   3.809  0.1524  0.0746  1.0233
 1225SOL     OW15310   1.827   3.618  10.697  0.4160 -0.3389  0.7764
 1225SOL    HW115311   1.768   3.667  10.754  0.9884  0.9119  0.2915
 1225SOL    HW215312   1.777   3.540  10.669  1.5788 -1.7573  2.6941
 1226SOL     OW15313   1.828   4.403   3.616 -0.6770  0.0037  0.4186
 1226SOL    HW115314   1.914   4.442   3.600 -0.1521 -1.5311 -0.5644
 1226SOL    HW215315   1.846   4.310   3.628  1.9684  0.5770  1.0632
 1227SOL     OW15316   4.255   0.195   4.093 -0.6869 -0.2069 -0.0030
 1227SOL    HW115317   4.236   0.116   4.143 -0.9017 -0.9908 -1.3269
 1227SOL    HW215318   4.181   0.185   4.033  0.8593 -0.1419 -1.9325
 1228SOL     OW15319   3.190   0.496   5.243  0.8549 -0.3866 -0.1163
 1228SOL    HW115320   3.257   0.564   5.237 -1.3013  1.7059 -0.4349
 1228SOL    HW215321   3.220   0.441   5.315 -0.6872  0.0201  0.8357
 1229SOL     OW15322   1.124   0.082   8.029  0.1695 -0.2655 -0.5214
 1229SOL    HW115323   1.127   0.118   7.940  0.7172 -1.3424 -0.9420
 1229SOL    HW215324   1.202   0.117   8.074 -1.3758  0.4663  1.5896
 1230SOL     OW15325   0.874   4.578   3.281  0.3162 -0.2160  0.0882
 1230SOL    HW115326   0.953   4.605   3.235 -0.3858 -1.7999 -2.0302
 1230SOL    HW215327   0.809   4.587   3.212  1.6814 -0.2771 -1.1897
 1231SOL     OW15328   1.130   0.989  17.350  0.1482 -0.6830  0.3110
 1231SOL    HW115329   1.071   0.917  17.326  0.1299  0.3704 -2.7483
 1231SOL    HW215330   1.212   0.969  17.304 -1.0039 -1.9004 -1.2240
 1232SOL     OW15331   2.743   3.906   7.424  0.1001 -0.0804 -0.7671
 1232SOL    HW115332   2.837   3.897   7.411  0.1856  0.7189 -0.6822
 1232SOL    HW215333   2.728   3.999   7.442 -1.4547 -1.1617  3.7857
 1233SOL     OW15334   4.638   4.106  10.524  0.3664 -0.3416 -0.0202
 1233SOL    HW115335   4.611   4.037  10.464 -0.2110 -0.2083  0.0841
 1233SOL    HW215336   4.659   4.168  10.455 -2.4107 -1.0242 -1.4878
 1234SOL     OW15337   1.118   1.264  17.406 -0.1576  0.3203  0.2646
 1234SOL    HW115338   1.121   1.173  17.377 -0.6635  0.7266 -1.0476
 1234SOL    HW215339   1.209   1.289  17.423 -0.5471  0.8212  1.6261
 1235SOL     OW15340   4.131   1.834   5.191  0.4226  0.0186 -0.0455
 1235SOL    HW115341   4.048   1.849   5.146 -1.8177 -3.7395  2.7855
 1235SOL    HW215342   4.151   1.742   5.174 -1.2308 -0.8622  2.7489
 1236SOL     OW15343   1.376   3.916   5.444 -0.7306  0.9072 -0.0193
 1236SOL    HW115344   1.451   3.877   5.489 -2.7717 -0.5355  2.1357
 1236SOL    HW215345   1.399   3.916   5.351  1.0762  0.3640  0.4210
 1237SOL     OW15346   0.938   4.240  12.480  0.3850 -0.0331 -0.0238
 1237SOL    HW115347   0.888   4.309  12.438  0.9716 -0.4524 -1.4127
 1237SOL    HW215348   0.962   4.194  12.400  1.2639  1.3370 -0.5515
 1238SOL     OW15349   0.509   4.249  13.712  0.0817  0.6043 -0.2796
 1238SOL    HW115350   0.590   4.248  13.661 -0.7983  1.5761 -1.6692
 1238SOL    HW215351   0.541   4.271  13.800  1.3566 -0.0110 -0.5927
 1239SOL     OW15352   2.182   1.854   4.996 -0.2673  0.5042 -0.8481
 1239SOL    HW115353   2.188   1.917   5.067 -1.4254  0.0340 -0.3234
 1239SOL    HW215354   2.225   1.776   5.029  2.1027  1.9891 -0.4313
 1240SOL     OW15355   1.351   3.827   6.381 -0.0188  0.0427  0.3278
 1240SOL    HW115356   1.431   3.879   6.388  0.2162 -0.1168 -1.2274
 1240SOL    HW215357   1.340   3.817   6.287  1.1369 -0.1708  0.2121
 1241SOL     OW15358   0.045   1.192   6.173 -0.3526  0.3809 -0.2650
 1241SOL    HW115359   0.038   1.106   6.216 -0.6217  1.0126  0.9551
 1241SOL    HW215360   0.081   1.247   6.242 -0.3702  1.5901 -1.2171
 1242SOL     OW15361   0.000   3.176   2.807 -0.3438 -0.1243  0.1497
 1242SOL    HW115362   0.068   3.179   2.740 -0.4255 -0.5090  0.0519
 1242SOL    HW215363   4.655   3.199   2.768  0.0734 -0.1863 -0.7769
 1243SOL     OW15364   3.066   4.645   3.451  0.2821 -0.2981  0.0050
 1243SOL    HW115365   3.116   4.575   3.492  0.5246 -1.1678 -1.7749
 1243SOL    HW215366   3.099   4.644   3.361 -0.0289  0.2652 -0.1143
 1244SOL     OW15367   1.178   1.107   4.976 -0.1309  0.3789 -0.9616
 1244SOL    HW115368   1.242   1.082   5.043 -0.1970  0.9296 -0.6945
 1244SOL    HW215369   1.218   1.078   4.894 -2.3179  0.5446 -2.0865
 1245SOL     OW15370   2.885   3.059   2.141 -0.1732 -0.3188  0.2623
 1245SOL    HW115371   2.796   3.091   2.157  0.6751  2.1449 -0.0469
 1245SOL    HW215372   2.870   3.002   2.065 -0.2194 -1.8841  1.4551
 1246SOL     OW15373   1.312   2.546   3.065 -0.4306  0.4617 -0.5982
 1246SOL    HW115374   1.343   2.514   2.981  2.1389  0.5095  0.3294
 1246SOL    HW215375   1.356   2.631   3.069  1.5887 -0.4885 -2.6869
 1247SOL     OW15376   0.858   0.838  14.092  0.1602 -0.1083  0.0208
 1247SOL    HW115377   0.796   0.909  14.109  1.1118  0.4437  1.0853
 1247SOL    HW215378   0.895   0.858  14.006  1.8489  0.4430  0.8878
 1248SOL     OW15379   4.694   4.103   7.751  0.4576  0.1957 -0.2102
 1248SOL    HW115380   4.715   4.026   7.698  0.5507  0.1892 -0.1647
 1248SOL    HW215381   4.606   4.088   7.785  0.9398 -3.0278 -0.3266
 1249SOL     OW15382   2.838   1.585   2.081 -0.0785 -0.7171  0.0863
 1249SOL    HW115383   2.909   1.609   2.140 -0.4647  0.0242  0.2480
 1249SOL    HW215384   2.863   1.632   2.002 -0.2918 -2.0741 -0.8005
 1250SOL     OW15385   0.466   3.100   8.039  0.5431  0.0863  0.8040
 1250SOL    HW115386   0.557   3.091   8.010  0.2375  5.0136 -1.6094
 1250SOL    HW215387   0.433   3.010   8.038  1.9514 -0.4017 -3.7176
 1251SOL     OW15388   1.737   3.943   4.889  0.5104  0.3285 -0.4606
 1251SOL    HW115389   1.692   3.883   4.830 -0.2348  0.0390  0.4056
 1251SOL    HW215390   1.689   3.931   4.971  0.7924  0.5372 -0.2633
 1252SOL     OW15391   3.320   0.556  14.375  0.3978  0.7082 -0.1414
 1252SOL    HW115392   3.413   0.536  14.371  0.3109  0.0129  1.3918
 1252SOL    HW215393   3.306   0.567  14.281 -1.7781 -0.2768  0.0622
 1253SOL     OW15394   4.174   3.876   6.473  0.4094  0.3294  0.7947
 1253SOL    HW115395   4.183   3.963   6.513 -1.4370  0.6685  0.4674
 1253SOL    HW215396   4.197   3.818   6.545  3.3590 -0.7566 -1.0128
 1254SOL     OW15397   3.393   3.135   0.839  0.4727 -0.1924  0.3605
 1254SOL    HW115398   3.367   3.116   0.929 -0.5070 -0.3103  0.0524
 1254SOL    HW215399   3.319   3.087   0.800  1.2567  0.0539 -1.4185
 1255SOL     OW15400   3.657   4.069   7.580  0.2614  0.3815  0.1222
 1255SOL    HW115401   3.719   4.040   7.647  1.9407 -0.0411 -1.6299
 1255SOL    HW215402   3.620   3.987   7.548 -1.9226  1.4265 -0.0284
 1256SOL     OW15403   3.946   1.982  13.078 -0.5379  0.4190 -0.1193
 1256SOL    HW115404   3.942   2.077  13.067  0.1312  0.3916 -0.6155
 1256SOL    HW215405   3.876   1.954  13.020  0.3109  0.7441 -1.3032
 1257SOL     OW15406   2.196   1.288   0.753 -0.6510  0.1683  0.1139
 1257SOL    HW115407   2.145   1.212   0.727 -1.1867  0.2845  0.8071
 1257SOL    HW215408   2.191   1.277   0.848 -1.9766 -0.5904 -0.0441
 1258SOL     OW15409   3.192   1.021   0.605  0.4509  0.0827  0.0840
 1258SOL    HW115410   3.137   0.957   0.649  2.8039 -2.4940 -0.6782
 1258SOL    HW215411   3.214   0.981   0.520 -0.3609  1.8752 -0.9512
 1259SOL     OW15412   3.776   2.847   5.455 -0.2033 -0.0032  0.1570
 1259SOL    HW115413   3.706   2.909   5.474  1.5532  1.8090  0.6956
 1259SOL    HW215414   3.816   2.829   5.540 -0.0280  2.0659  0.5067
 1260SOL     OW15415   0.895   0.320   8.913 -0.0974  0.0569 -0.5304
 1260SOL    HW115416   0.970   0.380   8.906 -1.4361  1.5282 -2.1339
 1260SOL    HW215417   0.930   0.247   8.862  0.9878  1.0668 -1.2507
 1261SOL     OW15418   1.601   1.341  14.015 -0.4843  0.6917  0.7111
 1261SOL    HW115419   1.564   1.284  14.083 -0.4014 -1.7592 -1.2934
 1261SOL    HW215420   1.655   1.397  14.072 -0.3169  1.9952 -0.7459
 1262SOL     OW15421   1.845   4.219   6.392  0.3395  0.4625 -0.9875
 1262SOL    HW115422   1.840   4.124   6.399 -1.0414  0.7348  1.8371
 1262SOL    HW215423   1.851   4.231   6.297  1.8986  0.8922 -0.8226
 1263SOL     OW15424   0.273   4.385  15.045 -0.5132  0.8200 -0.4656
 1263SOL    HW115425   0.279   4.454  14.980 -2.8108  0.6517 -0.8765
 1263SOL    HW215426   0.284   4.440  15.123 -5.1991 -0.5553  1.1673
 1264SOL     OW15427   0.604   0.451  12.104  0.5486  0.5261 -0.0521
 1264SOL    HW115428   0.643   0.364  12.099 -0.8699 -0.0897 -0.5968
 1264SOL    HW215429   0.676   0.492  12.150 -0.2212  1.8918 -0.0709
 1265SOL     OW15430   1.938   0.321   2.326  0.0907 -0.0265 -0.3273
 1265SOL    HW115431   1.983   0.309   2.410 -1.6147  0.2329  0.6184
 1265SOL    HW215432   2.004   0.277   2.272  0.3379  2.2637 -1.8977
 1266SOL     OW15433   0.664   1.012   5.953  0.4632  0.6455 -0.1430
 1266SOL    HW115434   0.622   1.094   5.981  0.7871  1.4716 -2.0720
 1266SOL    HW215435   0.619   0.991   5.871  0.8962 -2.1838  0.3420
 1267SOL     OW15436   2.664   2.737   1.506  0.2469  0.1215  0.1715
 1267SOL    HW115437   2.668   2.801   1.577  0.1809  2.2840 -1.8130
 1267SOL    HW215438   2.706   2.780   1.432 -0.2530  0.1778 -0.0758
 1268SOL     OW15439   3.359   3.645   8.601 -0.3059  0.5372 -0.1667
 1268SOL    HW115440   3.318   3.689   8.676 -2.4574 -0.6006 -0.6706
 1268SOL    HW215441   3.368   3.556   8.634  1.9174  0.3986 -1.1395
 1269SOL     OW15442   4.049   3.319   9.322  0.2746 -0.0213 -0.2764
 1269SOL    HW115443   4.077   3.276   9.403  4.3196  2.5139 -0.3039
 1269SOL    HW215444   3.958   3.327   9.350  0.7245  2.3911  0.4791
 1270SOL     OW15445   1.602   3.913   4.225 -0.0031 -0.6428 -0.1170
 1270SOL    HW115446   1.665   3.844   4.204  0.9760  0.5493 -1.1109
 1270SOL    HW215447   1.630   3.950   4.309  1.2999 -0.8298 -0.4572
 1271SOL     OW15448   3.844   0.944   7.483 -0.1180  0.0415  0.7211
 1271SOL    HW115449   3.916   0.883   7.494 -0.0523 -0.1662 -0.8439
 1271SOL    HW215450   3.878   1.030   7.508 -1.1149  0.2327  1.4436
 1272SOL     OW15451   1.030   0.945   4.655  0.3447  0.3595 -0.2722
 1272SOL    HW115452   0.972   0.919   4.726  1.2746 -0.5453  0.1445
 1272SOL    HW215453   1.116   0.923   4.689  0.1362 -0.5243 -0.3353
 1273SOL     OW15454   1.193   0.344   4.208  0.5159  0.0632  0.0979
 1273SOL    HW115455   1.214   0.393   4.287  0.3453  0.7756 -0.3006
 1273SOL    HW215456   1.146   0.270   4.247  0.5735  0.9053  1.7339
 1274SOL     OW15457   0.676   0.364   8.139  0.0949 -0.5659 -0.0276
 1274SOL    HW115458   0.721   0.317   8.069  2.6262  1.2963  0.3493
 1274SOL    HW215459   0.704   0.450   8.109  2.8988 -0.7056  2.1881
 1275SOL     OW15460   3.705   3.866  10.967  0.6086  0.1888 -0.1197
 1275SOL    HW115461   3.688   3.820  10.884  1.0385 -0.0067 -0.1041
 1275SOL    HW215462   3.774   3.810  11.003 -0.4619 -0.8887  0.2510
 1276SOL     OW15463   4.061   4.226   6.212 -0.5441 -0.0265 -0.7043
 1276SOL    HW115464   4.042   4.140   6.175 -4.5899 -0.4188  2.3306
 1276SOL    HW215465   4.028   4.286   6.144  2.7664  1.8827 -0.6118
 1277SOL     OW15466   3.493   1.995   9.061 -0.0297  0.3120  0.3679
 1277SOL    HW115467   3.435   2.054   9.109  0.8073  1.5640 -0.1775
 1277SOL    HW215468   3.567   2.052   9.041 -0.5909  0.5400 -1.0390
 1278SOL     OW15469   3.236   2.644  15.445  0.3243 -0.1915 -0.0112
 1278SOL    HW115470   3.263   2.697  15.520  1.1084 -0.2730 -0.2323
 1278SOL    HW215471   3.152   2.602  15.464  0.7500 -0.1015  2.0314
 1279SOL     OW15472   3.600   0.827   1.730  0.8889  0.4848 -0.1910
 1279SOL    HW115473   3.686   0.785   1.728  0.0770 -1.2318  1.2297
 1279SOL    HW215474   3.556   0.754   1.772 -0.0091  0.2431 -1.5727
 1280SOL     OW15475   2.308   3.524   5.001 -0.2140  0.3965 -0.5316
 1280SOL    HW115476   2.291   3.446   4.948 -1.4817 -1.0529  1.9583
 1280SOL    HW215477   2.219   3.559   5.006  0.7830  2.7734  0.5594
 1281SOL     OW15478   0.910   2.912   5.756 -0.5131 -0.1372  0.1108
 1281SOL    HW115479   0.941   2.823   5.739 -1.1928 -0.9402  2.9481
 1281SOL    HW215480   0.847   2.931   5.687  1.6517  2.0023 -1.2494
 1282SOL     OW15481   4.468   0.143   9.808  0.6414  0.3516 -0.5067
 1282SOL    HW115482   4.467   0.159   9.713  1.3346 -0.4422 -0.6484
 1282SOL    HW215483   4.392   0.194   9.837 -0.2527 -2.7425  2.6052
 1283SOL     OW15484   3.129   3.204   9.408  0.0437  0.5759  0.0446
 1283SOL    HW115485   3.124   3.295   9.439 -0.8556  0.2294  0.9309
 1283SOL    HW215486   3.047   3.198   9.359 -0.5644  2.7168  0.8000
 1284SOL     OW15487   1.609   3.858   9.084  0.0080  0.5000 -0.2997
 1284SOL    HW115488   1.607   3.770   9.123 -1.5295  0.3917 -0.6153
 1284SOL    HW215489   1.562   3.903   9.153  0.9140 -1.2514  1.4544
 1285SOL     OW15490   2.432   0.255  15.003  0.5558  0.0665 -0.2928
 1285SOL    HW115491   2.500   0.291  14.945  0.9521  0.2994  0.3128
 1285SOL    HW215492   2.361   0.317  14.990  0.1870 -1.0306 -3.4626
 1286SOL     OW15493   2.330   1.680   1.375  0.2303  0.1101 -0.2273
 1286SOL    HW115494   2.308   1.770   1.396 -0.2762 -0.2272  0.7203
 1286SOL    HW215495   2.257   1.661   1.316 -0.8845 -1.6021  1.6743
 1287SOL     OW15496   2.132   1.407   7.088  0.2449 -0.1801  0.4115
 1287SOL    HW115497   2.093   1.322   7.066  0.9595  0.1565 -2.1659
 1287SOL    HW215498   2.195   1.378   7.154  0.8179 -0.3858 -0.2361
 1288SOL     OW15499   4.150   1.926  15.810 -0.4571 -0.0919 -0.6885
 1288SOL    HW115500   4.115   1.912  15.722  1.2956 -2.0373 -1.0710
 1288SOL    HW215501   4.236   1.962  15.789  0.5902 -1.4653  1.2428
 1289SOL     OW15502   1.793   1.009   3.221 -0.1582  0.0918 -0.0964
 1289SOL    HW115503   1.769   0.917   3.209  1.3281 -0.4391  0.8992
 1289SOL    HW215504   1.799   1.035   3.129  0.4512 -0.3885 -0.1936
 1290SOL     OW15505   2.622   2.652   7.203  0.3933  0.0269  0.0595
 1290SOL    HW115506   2.566   2.583   7.239 -0.1497  0.5734  0.2434
 1290SOL    HW215507   2.578   2.727   7.241  1.5361 -0.7357  2.9049
 1291SOL     OW15508   2.328   0.186   9.482  0.7314 -0.3529 -0.2361
 1291SOL    HW115509   2.307   0.244   9.555  1.9002 -2.2740  1.6305
 1291SOL    HW215510   2.240   0.194   9.444  0.6973 -1.8454 -0.4487
 1292SOL     OW15511   0.140   1.506   5.598  0.4740 -0.3672 -0.0085
 1292SOL    HW115512   0.193   1.428   5.618  0.9844 -0.4808 -1.8528
 1292SOL    HW215513   0.092   1.515   5.681  1.1934 -1.2514  0.5056
 1293SOL     OW15514   2.937   4.022   5.195 -0.7264 -0.4788  0.0075
 1293SOL    HW115515   2.871   4.076   5.239 -1.1283 -0.0917 -1.0607
 1293SOL    HW215516   2.894   4.000   5.113 -0.4333  0.2861 -0.3486
 1294SOL     OW15517   3.965   1.887   3.227 -0.4780  0.6372  0.0440
 1294SOL    HW115518   3.912   1.963   3.253 -0.7921  0.8578 -1.1959
 1294SOL    HW215519   4.043   1.901   3.280 -0.1916 -0.2484 -0.1462
 1295SOL     OW15520   3.903   3.870   4.662  0.3090  0.1655  0.3484
 1295SOL    HW115521   3.986   3.901   4.626 -0.4214  0.8555 -0.7377
 1295SOL    HW215522   3.872   3.959   4.678  0.1222  0.3301 -0.8904
 1296SOL     OW15523   1.253   0.922   8.693 -0.1838 -0.2659 -0.3116
 1296SOL    HW115524   1.336   0.879   8.674  1.1830  1.7095  1.1400
 1296SOL    HW215525   1.273   1.000   8.745 -1.0064 -0.1742 -0.1229
 1297SOL     OW15526   2.388   3.589   4.038  0.4039 -0.2241  0.1618
 1297SOL    HW115527   2.451   3.556   3.974 -0.0749  2.8434 -1.8397
 1297SOL    HW215528   2.430   3.573   4.123 -0.2972  0.7172  0.6791
 1298SOL     OW15529   4.271   2.057   6.470  0.1359  0.1800  0.3594
 1298SOL    HW115530   4.314   1.980   6.434  0.6588  1.0461 -0.8724
 1298SOL    HW215531   4.335   2.087   6.535  0.6271 -0.4607  0.1697
 1299SOL     OW15532   3.176   3.245  14.898  0.0109 -0.0516 -0.1224
 1299SOL    HW115533   3.209   3.256  14.809 -0.0964 -0.6338 -0.2320
 1299SOL    HW215534   3.248   3.285  14.947 -0.9028  0.8840  0.4555
 1300SOL     OW15535   3.474   1.737   7.435  0.2526 -0.0484  0.4713
 1300SOL    HW115536   3.565   1.763   7.419  0.2484  0.3440  1.0824
 1300SOL    HW215537   3.487   1.707   7.525  0.0690  0.0187  0.5199
 1301SOL     OW15538   4.090   2.461  14.754  0.4303  0.1737 -0.1652
 1301SOL    HW115539   4.145   2.517  14.698  0.2406  0.2477 -0.2773
 1301SOL    HW215540   4.149   2.386  14.764 -0.2590 -0.3052  0.2179
 1302SOL     OW15541   2.573   0.106   3.425  0.2433 -0.1246  0.2139
 1302SOL    HW115542   2.580   0.093   3.520 -0.7725  3.0448  0.7252
 1302SOL    HW215543   2.662   0.074   3.409  0.8087  1.2200  0.6836
 1303SOL     OW15544   0.007   0.071   8.482  0.3261  0.3455  0.1518
 1303SOL    HW115545   4.688   0.091   8.555 -0.4973  0.8476 -0.6347
 1303SOL    HW215546   0.025   0.162   8.460  0.1599 -0.2699 -2.5490
 1304SOL     OW15547   2.604   1.324   6.650  0.0861  0.2058  0.0877
 1304SOL    HW115548   2.686   1.304   6.697  0.6408  0.4285 -0.7878
 1304SOL    HW215549   2.548   1.268   6.704 -2.0886  3.1349  0.8197
 1305SOL     OW15550   3.245   2.052  10.167 -0.1389 -0.1037  0.3861
 1305SOL    HW115551   3.223   1.963  10.193  0.7579 -0.0006  1.5042
 1305SOL    HW215552   3.316   2.071  10.229  2.3728  1.9092 -3.0671
 1306SOL     OW15553   0.017   3.542   2.962 -0.4026  0.0194  0.0604
 1306SOL    HW115554   4.693   3.490   3.012 -2.1623  1.7479 -0.3531
 1306SOL    HW215555   4.705   3.540   2.880 -0.2488 -1.6700 -0.0023
 1307SOL     OW15556   2.670   3.221   7.675 -0.2267 -0.2485  0.1217
 1307SOL    HW115557   2.700   3.222   7.585 -1.6440 -0.3790 -0.3547
 1307SOL    HW215558   2.715   3.146   7.714 -2.6243 -2.8637 -2.1410
 1308SOL     OW15559   1.280   2.688  11.592  0.3019  0.6069 -0.3262
 1308SOL    HW115560   1.191   2.667  11.620  0.3702 -1.1191 -1.3911
 1308SOL    HW215561   1.273   2.731  11.507 -0.4293  2.0750  0.4810
 1309SOL     OW15562   1.716   3.170   2.715 -0.2949  0.5327  0.4716
 1309SOL    HW115563   1.784   3.103   2.709 -1.1650 -0.3094 -0.0436
 1309SOL    HW215564   1.766   3.240   2.673  1.0719 -1.2207 -0.8291
 1310SOL     OW15565   2.900   1.274   1.902 -0.4684 -0.3804  0.4006
 1310SOL    HW115566   2.821   1.313   1.863 -0.2498 -1.1131 -0.7351
 1310SOL    HW215567   2.972   1.279   1.840  0.1517  0.0031  1.1499
 1311SOL     OW15568   0.651   1.909   4.751 -0.0421  0.2044  0.0804
 1311SOL    HW115569   0.715   1.851   4.792 -0.9474 -1.5113 -0.9338
 1311SOL    HW215570   0.635   1.972   4.821  0.8445 -0.4965  0.9111
 1312SOL     OW15571   2.385   3.859   3.940 -0.1931  0.3839  0.1991
 1312SOL    HW115572   2.403   3.951   3.960  1.0244 -0.3791  2.7124
 1312SOL    HW215573   2.412   3.821   4.024 -0.2482 -1.9146 -0.8573
 1313SOL     OW15574   1.279   1.214   3.652  0.0179  0.1670  0.2049
 1313SOL    HW115575   1.185   1.207   3.666  0.1917 -2.2973  0.2255
 1313SOL    HW215576   1.315   1.256   3.730  1.8501  2.4384 -1.8603
 1314SOL     OW15577   2.389   4.150  16.442 -0.6137  0.1493  0.4191
 1314SOL    HW115578   2.346   4.235  16.452 -2.7370 -1.0416  1.4550
 1314SOL    HW215579   2.423   4.155  16.353 -0.8455  1.2459  0.3903
 1315SOL     OW15580   3.418   3.181   6.580  0.0807  0.2883 -0.1078
 1315SOL    HW115581   3.339   3.138   6.549  1.3333 -1.5704 -0.7709
 1315SOL    HW215582   3.427   3.131   6.662 -0.7871 -0.6601 -0.5970
 1316SOL     OW15583   1.450   3.151   7.377  0.6445 -0.1740 -0.4372
 1316SOL    HW115584   1.401   3.164   7.296 -0.4774  1.0453  0.4488
 1316SOL    HW215585   1.386   3.189   7.438  2.7695  1.3004  0.8792
 1317SOL     OW15586   0.150   1.242   8.541 -0.0621 -0.1555  0.4533
 1317SOL    HW115587   0.205   1.320   8.550 -0.6716  0.2694  0.5116
 1317SOL    HW215588   0.189   1.190   8.611  2.4150  1.7757  0.5294
 1318SOL     OW15589   3.141   4.546   9.411 -0.1097 -0.4190  0.3915
 1318SOL    HW115590   3.137   4.640   9.427 -0.0537 -0.5860  1.3591
 1318SOL    HW215591   3.087   4.548   9.332  1.3932  2.8083 -0.5502
 1319SOL     OW15592   3.776   1.222   9.608  0.0898  0.7999 -0.0020
 1319SOL    HW115593   3.716   1.287   9.573  0.8888  1.9404  0.7596
 1319SOL    HW215594   3.718   1.147   9.619 -0.1841  1.0081 -0.0191
 1320SOL     OW15595   2.582   4.699   0.503  0.1482 -0.2781  0.3541
 1320SOL    HW115596   2.615   0.030   0.559 -1.4756  0.3310  0.5570
 1320SOL    HW215597   2.535   0.002   0.430 -2.4863 -0.2911  2.0300
 1321SOL     OW15598   2.943   0.177   3.138  0.5711  0.6668  0.3877
 1321SOL    HW115599   2.903   0.234   3.071  1.3203  0.8651  0.1103
 1321SOL    HW215600   2.868   0.124   3.166  0.8919 -0.2070 -0.4305
 1322SOL     OW15601   4.615   2.002  10.384 -0.6233 -0.1611  0.9585
 1322SOL    HW115602   4.589   2.068  10.449  0.3523  0.9362  0.2425
 1322SOL    HW215603   4.556   2.033  10.315 -1.9410  1.0610  2.6335
 1323SOL     OW15604   3.361   3.742   3.756  0.3495 -0.1043  0.0698
 1323SOL    HW115605   3.439   3.789   3.727 -0.3165  0.2302 -1.1537
 1323SOL    HW215606   3.383   3.649   3.752  1.5852  0.1572  0.7198
 1324SOL     OW15607   3.301   2.638  15.181  0.3324 -0.3956 -0.7165
 1324SOL    HW115608   3.263   2.628  15.268  1.3840  0.3682 -0.1564
 1324SOL    HW215609   3.242   2.701  15.140  0.6940 -1.0939 -2.2975
 1325SOL     OW15610   1.566   4.211   7.066 -0.5015 -0.4997  0.0746
 1325SOL    HW115611   1.532   4.176   7.149  1.4971 -3.8243 -0.4931
 1325SOL    HW215612   1.515   4.165   7.000 -1.8950 -0.4560  1.1191
 1326SOL     OW15613   3.939   0.910   6.312 -0.0165 -0.2087 -0.2399
 1326SOL    HW115614   3.933   0.922   6.218 -0.2486  0.2401 -0.1699
 1326SOL    HW215615   3.849   0.907   6.346  0.2391 -1.9534  0.2679
 1327SOL     OW15616   0.479   4.291   1.382 -0.3193 -0.4137 -0.0480
 1327SOL    HW115617   0.467   4.371   1.331  0.4219 -1.1613 -1.3826
 1327SOL    HW215618   0.535   4.240   1.324 -0.2888 -0.5092  0.0653
 1328SOL     OW15619   3.265   1.252   8.793 -0.5913  0.2482 -0.0684
 1328SOL    HW115620   3.238   1.168   8.757 -0.2957 -0.3694  1.1570
 1328SOL    HW215621   3.183   1.297   8.771 -1.7277 -1.3433  0.9621
 1329SOL     OW15622   0.882   1.020  16.028  0.5469  0.2233 -0.3777
 1329SOL    HW115623   0.857   0.991  16.116 -1.0506  1.7620 -0.3043
 1329SOL    HW215624   0.924   0.942  15.991 -0.7553  1.2286 -3.9670
 1330SOL     OW15625   4.378   0.939  10.675  0.1027 -0.6210 -0.2064
 1330SOL    HW115626   4.440   1.007  10.649  0.1835 -0.8188 -0.5319
 1330SOL    HW215627   4.428   0.912  10.752  0.8182 -0.7429 -0.7140
 1331SOL     OW15628   2.624   0.788   6.501  0.4586  0.8159 -0.3529
 1331SOL    HW115629   2.581   0.750   6.424  1.0101  1.4719 -0.9964
 1331SOL    HW215630   2.623   0.725   6.573 -0.3830  0.4446 -0.6909
 1332SOL     OW15631   4.387   4.705   7.708 -0.1368  0.0726  0.4596
 1332SOL    HW115632   4.452   0.004   7.768  2.4443 -0.7502 -1.8027
 1332SOL    HW215633   4.300   4.719   7.744 -0.3820 -0.6595  0.1409
 1333SOL     OW15634   4.001   3.610   4.727 -0.5028 -0.3787  0.2277
 1333SOL    HW115635   3.965   3.686   4.680  0.8632  0.2163  0.1344
 1333SOL    HW215636   3.920   3.564   4.747  0.4563 -1.1693  2.2008
 1334SOL     OW15637   3.115   2.898  14.081  0.1142 -0.2939 -0.3597
 1334SOL    HW115638   3.113   2.835  14.152  1.1887  0.4827  0.3727
 1334SOL    HW215639   3.048   2.957  14.115 -0.2161 -0.2750 -1.0357
 1335SOL     OW15640   4.676   1.575  13.772  0.0769  0.2402 -0.0200
 1335SOL    HW115641   4.632   1.618  13.845  0.2982 -0.6505  0.6454
 1335SOL    HW215642   4.659   1.636  13.701 -0.3809  1.0493  0.7816
 1336SOL     OW15643   3.680   3.629   7.664  0.0130  0.0982  0.2638
 1336SOL    HW115644   3.604   3.671   7.622  0.3377 -0.5655 -0.9829
 1336SOL    HW215645   3.701   3.689   7.735  1.8200  1.2693 -1.2800
 1337SOL     OW15646   0.404   1.683   9.387 -0.4793  0.5966  0.2497
 1337SOL    HW115647   0.345   1.731   9.328  0.7480  0.9783 -0.6620
 1337SOL    HW215648   0.401   1.745   9.460 -4.2172  1.5357 -0.6860
 1338SOL     OW15649   4.146   1.894   8.309 -0.0076 -0.0773 -0.2452
 1338SOL    HW115650   4.209   1.849   8.366  0.7679 -0.4361 -1.3986
 1338SOL    HW215651   4.065   1.844   8.305 -1.0773  1.7070 -0.7353
 1339SOL     OW15652   0.179   0.579   5.466 -0.1506 -0.7804 -0.1465
 1339SOL    HW115653   0.262   0.545   5.435  1.2572  2.9718 -0.5039
 1339SOL    HW215654   0.124   0.501   5.471 -0.2239 -0.7524 -0.5435
 1340SOL     OW15655   3.887   3.962   9.620 -0.1553  0.7920 -0.4624
 1340SOL    HW115656   3.811   3.924   9.576  0.3726  1.1070 -1.6476
 1340SOL    HW215657   3.871   4.055   9.603 -1.8173  0.3537 -1.3581
 1341SOL     OW15658   2.593   3.675   6.720  0.4705  1.0539 -0.0558
 1341SOL    HW115659   2.507   3.632   6.714  0.2432  1.6102 -0.8360
 1341SOL    HW215660   2.633   3.667   6.634 -2.5339  0.7077 -1.4103
 1342SOL     OW15661   3.872   1.885   4.024 -0.3016 -0.7164  0.0718
 1342SOL    HW115662   3.778   1.901   4.030 -0.1005 -0.7511  3.3626
 1342SOL    HW215663   3.881   1.807   4.078 -2.0567 -1.7500 -1.1429
 1343SOL     OW15664   3.662   0.011   1.965 -0.1781  0.6143  0.1175
 1343SOL    HW115665   3.718   4.705   2.027 -0.4364 -1.5192 -1.1815
 1343SOL    HW215666   3.688   4.718   1.878 -0.0397 -0.3018  0.4966
 1344SOL     OW15667   3.440   3.745  14.828  0.6054 -0.2879 -0.6050
 1344SOL    HW115668   3.505   3.755  14.758  0.0198  0.0027 -1.1089
 1344SOL    HW215669   3.359   3.741  14.777  0.1494 -4.0213  0.4042
 1345SOL     OW15670   3.473   3.810   6.265  0.9020 -0.3348  0.1899
 1345SOL    HW115671   3.498   3.893   6.305  0.2235  1.9227 -4.1916
 1345SOL    HW215672   3.387   3.801   6.308  1.2130 -1.5690  0.5674
 1346SOL     OW15673   4.585   2.055   8.396 -0.7646 -0.1336  0.5650
 1346SOL    HW115674   4.498   2.027   8.366 -0.8667 -0.0314  0.7637
 1346SOL    HW215675   4.569   2.149   8.400 -1.2770 -0.2267  0.6558
 1347SOL     OW15676   0.335   3.264   9.727  0.9348 -0.2857  1.0280
 1347SOL    HW115677   0.284   3.317   9.787 -0.2995  0.4920 -0.6970
 1347SOL    HW215678   0.382   3.203   9.783  0.7417 -0.7946  0.6355
 1348SOL     OW15679   1.972   3.523   8.259  0.2957 -0.4448  0.4417
 1348SOL    HW115680   1.893   3.566   8.291  0.4678  1.2224 -1.3512
 1348SOL    HW215681   2.018   3.594   8.215  1.4116 -1.0826  0.5797
 1349SOL     OW15682   3.357   0.134   3.562  0.5541  0.3841 -0.4515
 1349SOL    HW115683   3.398   0.195   3.623  0.6752  1.1118 -1.2521
 1349SOL    HW215684   3.290   0.194   3.529 -0.7732 -0.7645  0.1795
 1350SOL     OW15685   1.337   1.651   5.923  0.0140  0.1504  0.2244
 1350SOL    HW115686   1.399   1.649   5.995 -1.0465 -0.1179  1.1285
 1350SOL    HW215687   1.261   1.686   5.969  1.1909 -0.2105  2.4195
 1351SOL     OW15688   0.645   2.076   4.970  0.2734 -0.1355 -0.2127
 1351SOL    HW115689   0.630   2.051   5.061 -1.3420  0.7537 -0.2401
 1351SOL    HW215690   0.738   2.100   4.978 -0.2931  1.7795  0.6434
 1352SOL     OW15691   2.065   2.553   3.539 -0.4453  0.7608 -0.1992
 1352SOL    HW115692   2.015   2.600   3.472 -2.0894 -0.9562 -0.1910
 1352SOL    HW215693   2.138   2.513   3.492 -1.2458 -1.8178  0.7406
 1353SOL     OW15694   2.914   4.059   8.332  0.0411  0.0266 -0.1716
 1353SOL    HW115695   2.914   4.153   8.353  1.0079 -0.1996  0.8715
 1353SOL    HW215696   2.984   4.054   8.267 -1.0416 -0.1479 -1.3088
 1354SOL     OW15697   0.084   2.587   4.494 -0.1945  0.7922 -0.2179
 1354SOL    HW115698   0.152   2.547   4.549 -0.7854  0.0880  0.0013
 1354SOL    HW215699   0.052   2.512   4.444 -2.3946  1.1644  0.6127
 1355SOL     OW15700   3.770   2.123   7.250  0.7345  0.6698  0.3776
 1355SOL    HW115701   3.804   2.212   7.260  0.2605  0.9587 -0.6691
 1355SOL    HW215702   3.799   2.096   7.163 -0.1292 -1.9684  0.9142
 1356SOL     OW15703   3.973   2.866   7.977  0.1615 -0.0952 -0.6794
 1356SOL    HW115704   4.011   2.946   8.012 -0.0865  0.1302 -0.9146
 1356SOL    HW215705   3.976   2.807   8.052  0.7859  0.4028 -0.3190
 1357SOL     OW15706   1.658   4.122   7.499  0.0678  0.1096 -0.4524
 1357SOL    HW115707   1.674   4.030   7.476  1.5381  0.1742  0.3248
 1357SOL    HW215708   1.739   4.151   7.541  0.0526 -3.2248  1.8872
 1358SOL     OW15709   2.954   0.219   7.293  0.3260 -0.3556 -0.1300
 1358SOL    HW115710   2.940   0.185   7.381 -1.4488  3.0834  0.9464
 1358SOL    HW215711   2.898   0.162   7.240  0.5430 -1.2960  0.6600
 1359SOL     OW15712   2.544   2.447  13.379 -0.9682 -0.5345 -0.1046
 1359SOL    HW115713   2.470   2.485  13.331 -1.3460  0.5930  1.3566
 1359SOL    HW215714   2.622   2.478  13.333 -0.1697 -2.7448 -0.2358
 1360SOL     OW15715   2.849   1.573  17.515  0.5089 -0.1168 -0.4401
 1360SOL    HW115716   2.919   1.540  17.571  0.4863 -0.9509 -0.9032
 1360SOL    HW215717   2.874   1.658  17.481 -1.2582  0.3386 -0.6310
 1361SOL     OW15718   1.561   4.436   3.563 -0.3971 -0.5705  0.4261
 1361SOL    HW115719   1.656   4.448   3.570 -0.1963 -1.8494 -0.0487
 1361SOL    HW215720   1.544   4.461   3.472  1.5238 -0.7966  0.0082
 1362SOL     OW15721   1.092   1.587   5.301  0.1269 -0.4205  0.0321
 1362SOL    HW115722   1.076   1.496   5.276  2.4947 -0.7248 -0.4186
 1362SOL    HW215723   1.015   1.608   5.354 -1.9974 -0.5998 -3.0008
 1363SOL     OW15724   2.389   1.145  10.889  0.5595  0.0079 -0.0916
 1363SOL    HW115725   2.438   1.208  10.836  2.7939 -1.8343 -0.2493
 1363SOL    HW215726   2.420   1.161  10.978  1.6450  0.1314 -0.4878
 1364SOL     OW15727   3.509   3.402   6.699  0.5797  0.0610 -0.4704
 1364SOL    HW115728   3.471   3.321   6.665  0.4056 -0.1431  0.2247
 1364SOL    HW215729   3.454   3.430   6.771  1.1195  0.7812 -0.3415
 1365SOL     OW15730   2.355   0.095  14.817 -0.2177  0.0552 -0.7105
 1365SOL    HW115731   2.373   0.156  14.889  0.6391 -1.5716  0.4490
 1365SOL    HW215732   2.407   0.020  14.847  0.4999  1.1013  0.6557
 1366SOL     OW15733   2.305   2.740   8.141  0.5231  0.1110 -0.3384
 1366SOL    HW115734   2.309   2.693   8.224  1.6828 -0.5853 -0.7916
 1366SOL    HW215735   2.375   2.804   8.154 -3.9610  4.5860  1.5655
 1367SOL     OW15736   4.313   3.119   8.891  0.4907 -0.0325 -0.0340
 1367SOL    HW115737   4.384   3.054   8.886  0.6126  0.0082  1.2559
 1367SOL    HW215738   4.367   3.195   8.871 -0.5546  1.3524  2.4200
 1368SOL     OW15739   4.074   0.004  12.462  0.3264 -0.0225  1.1911
 1368SOL    HW115740   4.105   4.719  12.374 -3.0107 -1.2103  0.3470
 1368SOL    HW215741   4.053   0.097  12.452  1.9746  0.1265 -0.9597
 1369SOL     OW15742   1.639   1.977  15.390 -0.5258 -0.1634  0.5285
 1369SOL    HW115743   1.553   1.939  15.369  0.2770 -2.7626  1.9409
 1369SOL    HW215744   1.697   1.902  15.379 -0.9030 -0.4350  0.3991
 1370SOL     OW15745   2.822   2.950  11.427  0.6654 -0.1149  0.1004
 1370SOL    HW115746   2.805   2.865  11.387  1.3472 -0.0909 -0.2366
 1370SOL    HW215747   2.884   2.990  11.367 -0.4925  3.3086  1.1674
 1371SOL     OW15748   3.343   0.787  12.434 -0.0812 -0.3236 -0.0417
 1371SOL    HW115749   3.388   0.703  12.440 -1.2692 -0.8680  1.2616
 1371SOL    HW215750   3.261   0.767  12.389  1.1199 -0.6736 -2.0886
 1372SOL     OW15751   4.022   1.444   2.407 -0.0183  0.7566  0.1545
 1372SOL    HW115752   3.998   1.457   2.315  1.1003  0.2821 -0.2029
 1372SOL    HW215753   4.103   1.393   2.403 -1.1265 -0.9581 -0.6067
 1373SOL     OW15754   4.109   4.563  14.856 -0.2033 -0.7227  0.6773
 1373SOL    HW115755   4.107   4.658  14.863  2.9038 -0.4806 -1.7937
 1373SOL    HW215756   4.019   4.534  14.873 -0.9106  0.2690 -1.4569
 1374SOL     OW15757   3.038   3.668   4.423 -0.2406  0.4570  0.2392
 1374SOL    HW115758   2.971   3.627   4.369 -1.0290  2.3076 -0.1519
 1374SOL    HW215759   3.057   3.591   4.477 -1.7415  0.5516  0.9051
 1375SOL     OW15760   2.462   2.930   0.307 -0.1212 -0.7325 -0.6508
 1375SOL    HW115761   2.447   2.948   0.400  0.6012  2.5986 -1.1828
 1375SOL    HW215762   2.535   2.869   0.316  0.1872 -0.2851 -0.1904
 1376SOL     OW15763   2.040   3.102  12.775  0.1637 -0.2921  0.3146
 1376SOL    HW115764   2.001   3.182  12.742 -0.7867 -0.7659  0.2968
 1376SOL    HW215765   2.090   3.071  12.699  1.0265 -0.3534  0.8985
 1377SOL     OW15766   3.698   0.669   4.406 -0.7289  0.2023  0.5127
 1377SOL    HW115767   3.739   0.679   4.320 -1.8868  0.0290 -0.0570
 1377SOL    HW215768   3.716   0.754   4.446  0.8107  0.4194 -0.6044
 1378SOL     OW15769   4.098   0.732   8.247  0.3498 -0.6070  0.6270
 1378SOL    HW115770   4.011   0.770   8.263  1.2200  1.0335  1.5402
 1378SOL    HW215771   4.126   0.765   8.162 -4.1619 -1.1943 -1.1022
 1379SOL     OW15772   4.390   0.170   5.034  0.3101 -0.1625 -0.5068
 1379SOL    HW115773   4.319   0.113   5.007 -0.9280  1.4197 -0.5613
 1379SOL    HW215774   4.367   0.257   5.002 -0.4520  0.1850  0.9916
 1380SOL     OW15775   3.141   2.919   7.661  0.2315 -0.3326  0.2536
 1380SOL    HW115776   3.170   3.003   7.697  1.6025 -1.1853  1.1268
 1380SOL    HW215777   3.140   2.935   7.566  0.6996  0.4402  0.3790
 1381SOL     OW15778   4.255   0.569   6.394 -0.2424  0.6194 -0.3016
 1381SOL    HW115779   4.214   0.485   6.414  2.5783  0.1645  3.6680
 1381SOL    HW215780   4.220   0.583   6.306 -1.0238 -1.3277 -0.3059
 1382SOL     OW15781   1.059   2.577   1.898  0.0405 -0.2635 -0.1075
 1382SOL    HW115782   1.036   2.486   1.877  1.1992 -0.7879  0.9003
 1382SOL    HW215783   1.115   2.603   1.825  2.0285 -1.0784  1.1302
 1383SOL     OW15784   0.061   4.737   0.339 -0.1663  0.1399  0.3626
 1383SOL    HW115785   0.129   0.055   0.302 -1.5629  1.3559 -0.3656
 1383SOL    HW215786   4.730   0.058   0.366 -0.6647  0.1532 -0.9319
 1384SOL     OW15787   1.162   2.909   3.321 -0.2394  0.1767  0.0216
 1384SOL    HW115788   1.214   2.897   3.400  0.8510  1.2665 -0.5092
 1384SOL    HW215789   1.087   2.851   3.333  0.2043 -0.3576  0.1956
 1385SOL     OW15790   1.543   3.698   3.765 -0.0651 -0.3357 -0.5596
 1385SOL    HW115791   1.466   3.753   3.751 -0.6412 -0.8579  0.5349
 1385SOL    HW215792   1.579   3.688   3.677  0.4381  1.2800 -0.5325
 1386SOL     OW15793   4.657   1.480   2.060  0.0005 -0.4267  0.2768
 1386SOL    HW115794   4.581   1.478   2.118  0.6280  0.4640  1.1255
 1386SOL    HW215795   4.677   1.573   2.050 -0.2535 -0.5962 -1.8005
 1387SOL     OW15796   3.113   2.558   1.890 -0.0752  0.0539  0.4785
 1387SOL    HW115797   3.104   2.520   1.802  3.2198  1.1026 -0.3002
 1387SOL    HW215798   3.022   2.547   1.917 -0.4321 -0.6438 -0.9889
 1388SOL     OW15799   3.344   4.673   8.178  0.4836 -0.3782 -0.4544
 1388SOL    HW115800   3.423   4.621   8.165  0.9728  0.3128 -0.2486
 1388SOL    HW215801   3.322   4.646   8.267 -2.8457  2.6027 -0.3906
 1389SOL     OW15802   4.416   4.168  14.183 -0.1475 -0.4470  0.1391
 1389SOL    HW115803   4.415   4.077  14.155  0.0268 -0.2908 -0.3847
 1389SOL    HW215804   4.349   4.214  14.132 -0.6021 -1.2728 -0.0028
 1390SOL     OW15805   3.380   1.242   8.324 -0.2437 -0.2661 -0.1033
 1390SOL    HW115806   3.351   1.154   8.297  0.8229 -0.3478 -0.9855
 1390SOL    HW215807   3.459   1.218   8.373  0.1771  0.4735 -0.4271
 1391SOL     OW15808   0.540   0.480   7.829 -0.5800 -0.1065 -0.7179
 1391SOL    HW115809   0.516   0.543   7.897  0.6311 -0.3259 -0.0715
 1391SOL    HW215810   0.456   0.451   7.794 -0.4187 -2.7660  1.0552
 1392SOL     OW15811   1.809   0.133   8.737 -0.3076  0.1832 -0.5953
 1392SOL    HW115812   1.840   0.206   8.682 -0.8122  1.3767  0.6953
 1392SOL    HW215813   1.785   0.182   8.815 -1.5060 -2.3755  0.6219
 1393SOL     OW15814   4.544   4.355  17.104  1.0097  0.2966  0.1035
 1393SOL    HW115815   4.480   4.287  17.083  1.7471 -0.4071  0.1085
 1393SOL    HW215816   4.529   4.373  17.197  0.4770  2.0446 -0.3243
 1394SOL     OW15817   3.858   2.942  12.833 -0.7285 -0.4174 -0.2142
 1394SOL    HW115818   3.918   2.990  12.891 -0.9054  0.4761 -0.7726
 1394SOL    HW215819   3.823   3.000  12.765  1.5031  0.9118 -0.2261
 1395SOL     OW15820   2.533   3.500  10.164 -0.4920  0.0530 -0.4572
 1395SOL    HW115821   2.460   3.561  10.156 -2.3241 -2.0848 -0.1524
 1395SOL    HW215822   2.568   3.531  10.247 -2.9768  0.9567  0.2513
 1396SOL     OW15823   3.965   0.781  14.702 -0.3814  0.1080  0.7192
 1396SOL    HW115824   3.964   0.703  14.647 -0.2948 -1.2149  2.5912
 1396SOL    HW215825   3.889   0.828  14.665 -0.1876  0.9144  1.3363
 1397SOL     OW15826   2.197   0.218   3.486 -0.2276 -0.0956  0.3179
 1397SOL    HW115827   2.257   0.207   3.560  0.2010  2.2262  0.3057
 1397SOL    HW215828   2.158   0.131   3.489  0.7435 -0.5187  0.9086
 1398SOL     OW15829   3.923   1.462   2.131  0.0001  0.3252  0.3326
 1398SOL    HW115830   3.867   1.387   2.114  3.5208 -2.1029 -0.4780
 1398SOL    HW215831   3.955   1.485   2.043 -1.0971  0.7025  0.0322
 1399SOL     OW15832   4.212   1.396  13.099 -0.0288  0.1948  0.1905
 1399SOL    HW115833   4.251   1.392  13.187 -0.0950 -0.6104  0.1814
 1399SOL    HW215834   4.130   1.355  13.124  0.6231 -0.7821  0.7492
 1400SOL     OW15835   4.236   2.269   7.165  0.5688  0.1348 -0.2686
 1400SOL    HW115836   4.232   2.329   7.090 -1.3000  2.4306  1.6993
 1400SOL    HW215837   4.225   2.177   7.138 -1.1615 -0.0222  1.0328
 1401SOL     OW15838   2.385   0.454   6.454 -0.5354 -0.3851  0.2614
 1401SOL    HW115839   2.396   0.474   6.361  1.3534 -2.7525 -0.0605
 1401SOL    HW215840   2.322   0.384   6.440  0.7429 -1.3926 -0.4970
 1402SOL     OW15841   1.738   3.237   8.800 -0.4060 -0.6573  0.6515
 1402SOL    HW115842   1.785   3.246   8.718 -0.8864 -0.4455  0.3975
 1402SOL    HW215843   1.689   3.155   8.785 -0.2851 -0.3972 -1.1171
 1403SOL     OW15844   1.452   3.347   5.377 -0.1185 -0.0806 -0.4987
 1403SOL    HW115845   1.479   3.266   5.333  1.4594  1.5897 -2.6243
 1403SOL    HW215846   1.378   3.359   5.318  0.4415 -1.1132 -1.4269
 1404SOL     OW15847   2.798   0.077   7.156 -0.1742 -0.3681  0.0108
 1404SOL    HW115848   2.770   0.019   7.227  1.0243 -0.2272  0.6164
 1404SOL    HW215849   2.714   0.099   7.117 -0.2751  0.3125  0.6156
 1405SOL     OW15850   2.292   2.348   3.822  0.6031 -0.0507 -1.0027
 1405SOL    HW115851   2.205   2.389   3.817  0.7398  0.1191 -1.8809
 1405SOL    HW215852   2.279   2.304   3.906  2.7188 -0.0362 -0.6898
 1406SOL     OW15853   2.315   3.984   5.249  0.5620 -0.1480  1.5004
 1406SOL    HW115854   2.343   3.965   5.159 -0.9861 -0.9378  1.1825
 1406SOL    HW215855   2.239   4.041   5.240 -0.0756 -1.4479 -1.5987
 1407SOL     OW15856   3.665   4.603   7.403  0.3306 -0.3658  0.0053
 1407SOL    HW115857   3.676   4.687   7.448  0.9893 -2.1872  3.1967
 1407SOL    HW215858   3.602   4.625   7.333 -2.0144 -0.7726  1.9875
 1408SOL     OW15859   1.566   2.346   7.784  0.0570  0.0887  0.4348
 1408SOL    HW115860   1.574   2.429   7.737  0.5124  0.0568  0.4546
 1408SOL    HW215861   1.657   2.317   7.785  0.9618  2.9456  1.7150
 1409SOL     OW15862   0.428   3.129  17.298 -0.4492  0.0904 -0.2417
 1409SOL    HW115863   0.414   3.061  17.363 -0.9552  1.9865  1.6345
 1409SOL    HW215864   0.344   3.167  17.274 -0.7848  0.4313  1.4709
 1410SOL     OW15865   0.164   1.245  13.114  0.3737 -0.7686  0.4804
 1410SOL    HW115866   0.226   1.172  13.122  0.0334 -1.3275 -1.9513
 1410SOL    HW215867   0.130   1.207  13.033  0.2789 -0.3415  0.3180
 1411SOL     OW15868   1.469   2.857   9.534  0.6384  0.6053 -0.0435
 1411SOL    HW115869   1.384   2.853   9.577  0.7053 -2.6413 -0.2098
 1411SOL    HW215870   1.512   2.880   9.617  2.6549 -2.2901 -0.2538
 1412SOL     OW15871   3.210   4.425   3.586 -0.4853 -0.5508  0.4418
 1412SOL    HW115872   3.269   4.351   3.600 -0.9004 -0.6488  1.7158
 1412SOL    HW215873   3.262   4.493   3.627 -2.8946  0.0034  2.6069
 1413SOL     OW15874   4.655   4.713   3.600 -0.0602 -0.5864 -0.0150
 1413SOL    HW115875   4.580   4.715   3.540  0.0357 -0.2522 -0.1222
 1413SOL    HW215876   4.623   4.664   3.676  2.2190 -0.8489  0.7659
 1414SOL     OW15877   4.319   2.793   4.744 -0.4306 -0.3102 -0.0760
 1414SOL    HW115878   4.376   2.848   4.689  0.6933 -0.1907  1.2031
 1414SOL    HW215879   4.231   2.802   4.707 -0.4590  1.1207  0.3507
 1415SOL     OW15880   0.102   3.588   3.457 -0.1445  0.2000  0.0295
 1415SOL    HW115881   0.175   3.610   3.399 -0.7389 -0.1906 -0.8612
 1415SOL    HW215882   0.035   3.630   3.404 -0.6634 -0.7967 -0.1077
 1416SOL     OW15883   4.348   1.653  17.354 -0.0270 -0.0092 -0.2403
 1416SOL    HW115884   4.345   1.596  17.278  1.4971 -1.3092  0.6833
 1416SOL    HW215885   4.437   1.630  17.382 -0.5121 -0.5653  0.8571
 1417SOL     OW15886   0.247   3.349   2.936  0.4965 -0.3237  0.3840
 1417SOL    HW115887   0.184   3.334   2.865  0.1399 -0.7414  0.7844
 1417SOL    HW215888   0.188   3.369   3.009 -1.4639 -0.2309 -1.2227
 1418SOL     OW15889   0.153   4.441   1.284 -0.2364  0.2329 -0.3988
 1418SOL    HW115890   0.167   4.449   1.189  1.6275 -1.4205 -0.2704
 1418SOL    HW215891   0.157   4.345   1.291  3.3717  0.0903 -4.4250
 1419SOL     OW15892   2.987   3.929  16.466 -0.3052  0.4875 -0.0176
 1419SOL    HW115893   2.956   3.932  16.557 -0.3195  0.8816 -0.0337
 1419SOL    HW215894   2.902   3.919  16.424 -0.0333  0.5883 -0.5886
 1420SOL     OW15895   2.846   3.294   5.681  0.1054 -0.1917  0.1618
 1420SOL    HW115896   2.913   3.312   5.615  0.2723  3.6092  1.3316
 1420SOL    HW215897   2.781   3.243   5.634  0.1309  2.3339 -2.6552
 1421SOL     OW15898   0.149   4.614   6.862  0.4703  0.4465 -0.1241
 1421SOL    HW115899   0.178   4.672   6.792  0.0801 -0.4983 -1.0513
 1421SOL    HW215900   0.211   4.639   6.931 -2.2530  1.7752  1.8429
 1422SOL     OW15901   4.628   1.561  17.337  0.4010 -0.0834 -0.2179
 1422SOL    HW115902   4.611   1.468  17.319 -1.4260  0.4485 -1.2238
 1422SOL    HW215903   4.719   1.562  17.368  0.1720 -1.2169  0.5048
 1423SOL     OW15904   0.257   0.856  12.916 -0.2570 -0.6223  0.0918
 1423SOL    HW115905   0.283   0.811  12.996  2.4692  0.0438 -0.4155
 1423SOL    HW215906   0.332   0.914  12.908 -0.9072  0.5164  2.2809
 1424SOL     OW15907   0.284   1.770   0.692  0.0431  1.2190 -0.6121
 1424SOL    HW115908   0.286   1.676   0.677  0.9515  0.7847  2.1747
 1424SOL    HW215909   0.287   1.802   0.602  0.5511 -2.3150 -1.8354
 1425SOL     OW15910   0.955   4.184   5.023 -0.3515 -0.3621  0.0712
 1425SOL    HW115911   1.049   4.180   5.008  0.1834  1.2909  2.9347
 1425SOL    HW215912   0.916   4.138   4.948  0.9515 -1.1847 -0.0963
 1426SOL     OW15913   3.446   4.183  11.267 -0.4032 -0.2534 -0.1057
 1426SOL    HW115914   3.353   4.163  11.271 -0.2154 -0.9320  1.0638
 1426SOL    HW215915   3.483   4.111  11.319  2.8028  0.7084 -1.0798
 1427SOL     OW15916   1.393   4.666  15.618  0.2242  0.1184 -0.1419
 1427SOL    HW115917   1.364   4.585  15.661 -0.1634  0.4122  0.1532
 1427SOL    HW215918   1.308   4.706  15.600  0.2920 -0.5733 -1.9660
 1428SOL     OW15919   2.766   3.031   3.326 -0.1180 -0.1299 -0.1753
 1428SOL    HW115920   2.705   3.058   3.394  0.5163  1.6711 -0.3358
 1428SOL    HW215921   2.709   2.973   3.276  1.1417  0.8312 -2.6999
 1429SOL     OW15922   1.415   1.263   7.621 -0.2622 -0.0814  0.7220
 1429SOL    HW115923   1.402   1.344   7.572  0.5092  0.0705  0.7708
 1429SOL    HW215924   1.328   1.255   7.659 -0.4573  1.8760  0.6906
 1430SOL     OW15925   1.091   0.253   1.843  0.1811 -0.4078 -0.3319
 1430SOL    HW115926   1.178   0.214   1.852 -0.5243 -1.6350  1.0580
 1430SOL    HW215927   1.040   0.183   1.803 -0.0997 -1.0469  1.1713
 1431SOL     OW15928   2.207   1.907   1.450 -0.2552  0.3434 -0.4334
 1431SOL    HW115929   2.149   1.875   1.382  0.6682 -0.7555 -0.6996
 1431SOL    HW215930   2.147   1.974   1.484  0.4382  0.0888  1.3195
 1432SOL     OW15931   1.323   4.463   2.631  0.5583  0.3099  0.1118
 1432SOL    HW115932   1.394   4.490   2.690  1.3476 -0.1308 -0.6422
 1432SOL    HW215933   1.245   4.437   2.680  0.9695  3.1046  2.2473
 1433SOL     OW15934   0.171   1.401   8.272 -0.1936  0.0436 -0.6314
 1433SOL    HW115935   0.177   1.328   8.333  1.3587  1.8504  1.4025
 1433SOL    HW215936   0.120   1.362   8.201  1.6504  0.0151 -1.9225
 1434SOL     OW15937   4.185   3.843  13.780 -0.8598  0.3938  0.1813
 1434SOL    HW115938   4.254   3.819  13.841 -0.8255  0.3220  0.1148
 1434SOL    HW215939   4.234   3.861  13.700 -0.0319  0.2662  0.6570
 1435SOL     OW15940   4.204   4.010   8.568  0.1037 -0.0740  0.0755
 1435SOL    HW115941   4.120   3.982   8.604 -0.6391  0.2562 -1.4212
 1435SOL    HW215942   4.202   3.978   8.478  0.4620  1.6500 -0.5459
 1436SOL     OW15943   2.164   2.488  16.082  0.0760 -0.1024 -0.2126
 1436SOL    HW115944   2.123   2.502  15.997  0.5736 -1.1555 -0.6199
 1436SOL    HW215945   2.119   2.558  16.130  2.5434  0.6026  1.0450
 1437SOL     OW15946   0.420   2.937  17.479 -0.2698  0.0758 -0.4117
 1437SOL    HW115947   0.387   2.949  17.568 -0.9561 -0.0066 -0.6561
 1437SOL    HW215948   0.406   2.845  17.461 -0.7905  0.5677 -2.5603
 1438SOL     OW15949   4.140   1.426   6.405  0.0076  0.0146 -0.3465
 1438SOL    HW115950   4.087   1.377   6.342  1.3987 -0.5814 -1.0604
 1438SOL    HW215951   4.229   1.396   6.384  0.6564  2.2284 -0.8451
 1439SOL     OW15952   1.476   1.615   1.318  0.0082 -0.5137 -0.0449
 1439SOL    HW115953   1.445   1.618   1.408  0.6429 -0.1733  0.1592
 1439SOL    HW215954   1.535   1.539   1.313  0.8474  0.2047 -1.1992
 1440SOL     OW15955   3.626   3.509  17.331 -0.8786 -0.7375  0.1320
 1440SOL    HW115956   3.662   3.440  17.275 -2.6208 -0.6765 -1.0851
 1440SOL    HW215957   3.626   3.477  17.422  2.0295 -0.6230  0.1721
 1441SOL     OW15958   0.600   4.533   1.501  0.2137 -0.4862  0.1878
 1441SOL    HW115959   0.544   4.560   1.574  3.7683  1.9018  2.0759
 1441SOL    HW215960   0.564   4.451   1.469 -0.0975 -0.5490  0.6970
 1442SOL     OW15961   3.888   0.305  14.329 -0.0091 -0.1482 -0.5465
 1442SOL    HW115962   3.874   0.264  14.414  0.0714  2.0871  0.5264
 1442SOL    HW215963   3.931   0.226  14.295  2.1466  0.6675  0.3721
 1443SOL     OW15964   3.077   4.260   5.374  0.0750 -0.2814  0.1024
 1443SOL    HW115965   3.054   4.353   5.362  0.9226 -0.0390  0.3989
 1443SOL    HW215966   3.157   4.260   5.321 -0.2019  0.0511 -0.3234
 1444SOL     OW15967   2.636   3.606   5.320  0.0525 -0.0927 -0.2339
 1444SOL    HW115968   2.686   3.560   5.253 -0.4624  0.4946 -1.0194
 1444SOL    HW215969   2.550   3.564   5.319  0.3228 -0.6448 -0.3753
 1445SOL     OW15970   2.406   2.981   9.492 -0.0821  0.0554  0.0712
 1445SOL    HW115971   2.314   3.004   9.485  0.2349  1.0764 -0.5934
 1445SOL    HW215972   2.434   2.954   9.405 -0.1076 -0.3685  0.1923
 1446SOL     OW15973   4.676   4.408   5.595 -0.7818 -0.4289 -0.1693
 1446SOL    HW115974   4.726   4.346   5.648  0.8872  1.2865  0.2808
 1446SOL    HW215975   4.601   4.420   5.654 -0.1863 -2.0206  0.9133
 1447SOL     OW15976   0.697   0.094   9.189  0.5552 -0.0872  0.4913
 1447SOL    HW115977   0.648   0.038   9.250 -1.2107  0.9543  0.0313
 1447SOL    HW215978   0.735   0.037   9.123 -0.0671  1.2501 -1.0110
 1448SOL     OW15979   2.792   0.235   8.552  0.3159  0.1979  0.2247
 1448SOL    HW115980   2.780   0.329   8.559 -1.3266  0.1553 -2.2577
 1448SOL    HW215981   2.836   0.234   8.467 -0.9250  0.7746 -0.4173
 1449SOL     OW15982   3.248   1.688   8.059  0.2755  0.1952 -0.3601
 1449SOL    HW115983   3.186   1.652   8.122  1.4689  1.1546  1.3541
 1449SOL    HW215984   3.287   1.759   8.110  0.0958  0.9275 -1.2251
 1450SOL     OW15985   4.696   3.531  14.023  0.2716  0.1551 -0.0170
 1450SOL    HW115986   4.609   3.556  14.055 -0.6942  1.3505 -3.5575
 1450SOL    HW215987   4.687   3.438  14.004 -2.2932  0.6223 -1.2186
 1451SOL     OW15988   3.426   1.995   3.787 -0.3850 -0.0068 -0.3974
 1451SOL    HW115989   3.438   1.932   3.717  1.1993 -0.4593  0.2924
 1451SOL    HW215990   3.492   1.967   3.851  0.9846  0.7010 -1.5292
 1452SOL     OW15991   1.075   1.502   2.951  0.1776 -0.1932 -0.3547
 1452SOL    HW115992   1.091   1.567   2.883  0.6638 -0.1758 -0.2256
 1452SOL    HW215993   1.019   1.447   2.896 -1.0263  0.4626  0.2201
 1453SOL     OW15994   3.254   0.130   7.391  0.2919 -0.2992 -0.7580
 1453SOL    HW115995   3.276   0.213   7.348  0.5980  0.1030  0.1768
 1453SOL    HW215996   3.304   0.142   7.472 -0.2404 -0.1790 -0.4502
 1454SOL     OW15997   1.958   2.470  17.443  0.3054  0.8882  0.1218
 1454SOL    HW115998   1.912   2.398  17.487  0.8967  0.9568  0.8419
 1454SOL    HW215999   1.959   2.526  17.520  0.3380  0.9073  0.1072
 1455SOL     OW16000   1.928   1.784  10.024  0.3082 -0.2384 -0.2177
 1455SOL    HW116001   2.006   1.838  10.034 -0.4517  0.9147 -0.6204
 1455SOL    HW216002   1.910   1.747  10.111  0.2615 -0.0337 -0.1408
 1456SOL     OW16003   2.807   2.568  14.800  0.0995 -0.5544  0.0836
 1456SOL    HW116004   2.815   2.490  14.855  0.5334  0.8052  1.9600
 1456SOL    HW216005   2.730   2.542  14.750  0.2652  0.4436 -0.7013
 1457SOL     OW16006   3.993   0.308  15.443 -0.7614  0.1043  0.0476
 1457SOL    HW116007   4.056   0.380  15.444  0.5961 -1.0822  0.7746
 1457SOL    HW216008   3.986   0.303  15.347 -2.7457  1.4239  0.1164
 1458SOL     OW16009   4.445   1.331   3.682  0.5736  0.3338 -0.0779
 1458SOL    HW116010   4.515   1.351   3.744 -0.6300  0.1184  1.3201
 1458SOL    HW216011   4.375   1.319   3.746  0.5777 -1.3874 -0.4110
 1459SOL     OW16012   1.721   0.405  15.693 -0.4121  0.1359  0.2397
 1459SOL    HW116013   1.682   0.328  15.653  0.3232 -0.7586  1.2674
 1459SOL    HW216014   1.706   0.474  15.628  0.1552 -0.3474 -0.4061
 1460SOL     OW16015   4.159   3.379   4.861  0.2859 -0.1160 -0.2952
 1460SOL    HW116016   4.064   3.370   4.863  0.3327 -0.7435 -0.9403
 1460SOL    HW216017   4.177   3.344   4.948 -2.7853 -0.7344  0.0930
 1461SOL     OW16018   3.040   3.308   2.428  0.3480 -0.2023  0.0359
 1461SOL    HW116019   3.124   3.286   2.470  0.1430 -0.7305  0.1597
 1461SOL    HW216020   2.973   3.253   2.467  0.0716 -0.2532 -0.5175
 1462SOL     OW16021   3.314   1.474   1.446 -0.0334  0.1846 -0.3781
 1462SOL    HW116022   3.373   1.480   1.520 -0.1713 -0.9390 -0.1696
 1462SOL    HW216023   3.370   1.504   1.374 -1.2582  1.3139 -0.8598
 1463SOL     OW16024   4.117   2.228   4.423  0.7338 -0.4657  0.5225
 1463SOL    HW116025   4.159   2.193   4.344 -0.0914  1.0253 -0.5918
 1463SOL    HW216026   4.030   2.190   4.416 -0.2120  1.6588  0.4830
 1464SOL     OW16027   0.942   3.808   8.758 -0.0349 -0.0943 -0.4417
 1464SOL    HW116028   0.912   3.814   8.849 -1.5076 -1.8250 -0.8322
 1464SOL    HW216029   0.862   3.831   8.710  0.1444 -0.1165 -0.7515
 1465SOL     OW16030   2.999   3.887   4.584  0.2003  0.6794  0.5289
 1465SOL    HW116031   3.073   3.892   4.644  0.3021  1.6569  0.3271
 1465SOL    HW216032   3.016   3.813   4.526  0.7654  2.1060 -1.1239
 1466SOL     OW16033   3.959   1.840  17.022  0.0100 -0.2007  0.2895
 1466SOL    HW116034   4.028   1.906  17.017  0.9198 -1.4612 -3.7405
 1466SOL    HW216035   3.995   1.789  17.094  0.1622 -1.2777 -0.5412
 1467SOL     OW16036   2.913   2.200   7.394 -0.7340 -0.2862  0.5790
 1467SOL    HW116037   2.871   2.285   7.391 -1.6344 -0.6804  1.7163
 1467SOL    HW216038   2.848   2.150   7.345 -1.5684  1.5330 -0.1498
 1468SOL     OW16039   2.688   1.896   3.369  0.0373  0.1843 -0.3120
 1468SOL    HW116040   2.645   1.827   3.420 -0.0186 -1.4157 -2.5087
 1468SOL    HW216041   2.620   1.928   3.310 -0.3262  1.9040  1.0591
 1469SOL     OW16042   3.313   0.483   4.275  0.1256  0.2854  0.0653
 1469SOL    HW116043   3.320   0.511   4.366  1.5794  3.2736 -0.9432
 1469SOL    HW216044   3.275   0.556   4.225  0.0380 -0.9288 -1.6578
 1470SOL     OW16045   4.730   2.894   6.483 -0.3162 -0.2457  0.2550
 1470SOL    HW116046   0.003   2.799   6.486  1.1461 -0.0055  1.4366
 1470SOL    HW216047   0.009   2.920   6.573 -1.5315 -1.8364  0.9622
 1471SOL     OW16048   3.917   2.481  11.579 -0.0445 -0.2642 -0.3750
 1471SOL    HW116049   3.966   2.421  11.635 -0.2383  0.6968  0.8150
 1471SOL    HW216050   3.849   2.424  11.542 -3.1778  3.1503  0.1214
 1472SOL     OW16051   0.645   1.141   8.677  0.0229  0.2236 -0.2972
 1472SOL    HW116052   0.698   1.170   8.752  0.2142 -0.1524 -0.2911
 1472SOL    HW216053   0.619   1.054   8.706 -0.6024  0.4094 -0.3121
 1473SOL     OW16054   0.868   0.795  17.599 -0.2955 -0.1161  0.0806
 1473SOL    HW116055   0.915   0.878  17.594 -1.5149  0.5010 -1.1497
 1473SOL    HW216056   0.939   0.731  17.594  0.7609  0.7977  3.1447
 1474SOL     OW16057   2.759   0.786   1.084 -0.4193 -0.1990  0.4991
 1474SOL    HW116058   2.768   0.740   1.167 -0.5682 -0.3107  0.4531
 1474SOL    HW216059   2.831   0.848   1.078 -1.1423  0.7799  1.9827
 1475SOL     OW16060   4.203   3.780   1.848 -0.8193 -0.5037  0.7098
 1475SOL    HW116061   4.181   3.715   1.781  0.7196  1.5096 -1.7003
 1475SOL    HW216062   4.232   3.720   1.917  1.9327  2.7240  2.3643
 1476SOL     OW16063   2.390   1.993  17.286  0.0754 -0.0679 -0.4281
 1476SOL    HW116064   2.312   1.984  17.232 -1.0343 -1.9468  1.4588
 1476SOL    HW216065   2.358   2.058  17.349  1.2832 -0.5601  0.6784
 1477SOL     OW16066   4.319   2.204   5.872 -0.3737  0.3892  0.1675
 1477SOL    HW116067   4.322   2.229   5.965 -0.9978 -0.9011  0.5329
 1477SOL    HW216068   4.227   2.228   5.858 -0.7692 -0.7512  0.7930
 1478SOL     OW16069   1.256   2.416  17.291  0.0841 -0.2458 -0.2807
 1478SOL    HW116070   1.177   2.449  17.334  1.0624  0.0467  1.2949
 1478SOL    HW216071   1.259   2.322  17.310 -1.3098 -0.8135 -2.8688
 1479SOL     OW16072   0.211   4.670   3.614 -0.0950  0.1408 -0.0433
 1479SOL    HW116073   0.130   4.684   3.566  0.1080  0.1202 -0.3903
 1479SOL    HW216074   0.255   0.016   3.604 -1.8451  1.0914  0.3042
 1480SOL     OW16075   2.673   4.253   6.613 -0.1345  0.5548  0.7922
 1480SOL    HW116076   2.705   4.290   6.695  1.2781  2.1526 -0.4593
 1480SOL    HW216077   2.661   4.163   6.643  0.8772 -0.0737 -0.6852
 1481SOL     OW16078   0.286   2.702   6.215 -0.1824 -0.0547 -0.1469
 1481SOL    HW116079   0.377   2.731   6.214 -0.0443 -0.5328 -1.1845
 1481SOL    HW216080   0.293   2.607   6.207  0.2931  0.2931 -3.8907
 1482SOL     OW16081   3.376   0.232   8.206 -0.1749  0.5698  0.0501
 1482SOL    HW116082   3.369   0.137   8.212  3.0041  0.3365  0.1622
 1482SOL    HW216083   3.308   0.262   8.267  0.0306  0.6575  0.2334
 1483SOL     OW16084   4.522   2.397   2.542  0.3416 -0.0873  0.1096
 1483SOL    HW116085   4.521   2.486   2.579  0.7518 -0.1520  0.2695
 1483SOL    HW216086   4.554   2.431   2.458 -0.6699  0.9331  0.1360
 1484SOL     OW16087   2.349   0.876  11.573  0.2719  0.4488  0.9395
 1484SOL    HW116088   2.271   0.839  11.616  0.1278 -1.0808 -0.6151
 1484SOL    HW216089   2.317   0.944  11.514 -0.7922 -0.5595  0.3427
 1485SOL     OW16090   4.656   1.676   3.634  0.4165 -0.3461 -0.2786
 1485SOL    HW116091   4.708   1.690   3.714 -0.1289 -3.7713  0.6983
 1485SOL    HW216092   4.727   1.660   3.573 -0.2721  1.1222 -1.4494
 1486SOL     OW16093   1.215   3.037   4.218 -0.3564  0.4442  0.2822
 1486SOL    HW116094   1.162   3.030   4.138  0.4782  0.4950 -0.2738
 1486SOL    HW216095   1.293   2.993   4.184 -0.6936 -0.0677  0.1789
 1487SOL     OW16096   0.077   0.913  13.744 -0.4356 -0.4481  0.0495
 1487SOL    HW116097   0.008   0.866  13.698 -0.0137 -0.2567 -0.7844
 1487SOL    HW216098   0.064   1.004  13.717  0.7291  0.1590  1.4920
 1488SOL     OW16099   4.421   0.651  17.612 -0.0393 -0.4853  0.2433
 1488SOL    HW116100   4.378   0.583  17.561 -0.6301  0.5746 -0.6694
 1488SOL    HW216101   4.378   0.727  17.572 -0.1322 -0.5786  0.1670
 1489SOL     OW16102   4.276   4.074   3.323  0.0770  0.3032  0.4520
 1489SOL    HW116103   4.275   4.153   3.376 -1.6219 -2.1565  4.1123
 1489SOL    HW216104   4.286   4.006   3.390 -1.1137 -0.3996 -0.0792
 1490SOL     OW16105   2.934   1.745   0.170 -0.5819  0.4864  0.0351
 1490SOL    HW116106   3.011   1.699   0.203 -1.6412 -0.1878  1.5699
 1490SOL    HW216107   2.876   1.758   0.245 -2.2298  0.6536 -1.2625
 1491SOL     OW16108   3.290   0.972   7.078 -0.4361 -0.0668  0.7254
 1491SOL    HW116109   3.226   0.984   7.008 -0.2451 -0.6656  0.4481
 1491SOL    HW216110   3.342   1.051   7.062  0.3592 -0.3967  1.6947
 1492SOL     OW16111   2.762   0.954   2.665 -0.0791  0.3741 -0.1404
 1492SOL    HW116112   2.669   0.965   2.649  0.0032  0.1518 -0.7645
 1492SOL    HW216113   2.794   1.038   2.697  4.0622 -0.8051 -1.0747
 1493SOL     OW16114   1.658   1.969  12.081  0.3952 -0.0146  0.0676
 1493SOL    HW116115   1.616   2.027  12.144  2.5885  2.8459 -1.1147
 1493SOL    HW216116   1.681   2.029  12.010  3.8382 -1.2355  0.1304
 1494SOL     OW16117   2.642   0.209  15.616 -0.9089 -0.5020 -0.3342
 1494SOL    HW116118   2.588   0.288  15.629  0.3367  0.1622  0.7354
 1494SOL    HW216119   2.657   0.204  15.522  2.5576  1.0707  0.1431
 1495SOL     OW16120   4.647   0.545   7.220 -0.2681  0.4164  0.0118
 1495SOL    HW116121   4.728   0.558   7.170 -1.6745  0.5882 -2.1934
 1495SOL    HW216122   4.637   0.634   7.254  2.3961  0.0851  1.7535
 1496SOL     OW16123   0.320   3.980   4.641  0.4927  0.3330  0.0268
 1496SOL    HW116124   0.273   3.941   4.714 -0.1651 -0.4105 -0.7985
 1496SOL    HW216125   0.299   3.911   4.579  0.4320 -2.6678  3.4071
 1497SOL     OW16126   0.333   2.610  13.555 -0.0978  0.1017  0.2079
 1497SOL    HW116127   0.356   2.625  13.463  1.6072 -2.0369  0.2964
 1497SOL    HW216128   0.239   2.594  13.540  0.1102 -1.6703  0.8452
 1498SOL     OW16129   0.648   3.153  13.878  0.1962 -0.1473  0.2472
 1498SOL    HW116130   0.652   3.228  13.938 -0.0933 -0.3226  0.4850
 1498SOL    HW216131   0.671   3.089  13.945 -1.1573  1.9176  2.7153
 1499SOL     OW16132   0.882   4.421   5.418 -0.3233 -0.5925  1.0232
 1499SOL    HW116133   0.947   4.425   5.348 -1.3126 -2.5975  0.0099
 1499SOL    HW216134   0.807   4.380   5.376 -0.5123 -0.5133  1.2830
 1500SOL     OW16135   1.737   2.828   3.183  0.1453  0.1206  0.6654
 1500SOL    HW116136   1.646   2.845   3.207 -0.0976 -0.1667 -0.0442
 1500SOL    HW216137   1.771   2.910   3.217  0.6530  0.4645 -0.6602
 1501SOL     OW16138   0.322   0.656   4.279  0.6937 -0.1984 -0.1434
 1501SOL    HW116139   0.295   0.593   4.212 -1.6693  1.4056 -0.7187
 1501SOL    HW216140   0.380   0.608   4.338  0.3434 -3.4255 -2.4227
 1502SOL     OW16141   0.488   1.400   9.851  0.4514  0.3652  0.0662
 1502SOL    HW116142   0.457   1.319   9.810 -0.2779  0.8508 -0.3526
 1502SOL    HW216143   0.550   1.372   9.918 -1.8298 -0.0481  2.0003
 1503SOL     OW16144   3.403   0.516  12.134  0.0256 -0.4572  0.2438
 1503SOL    HW116145   3.319   0.556  12.113  0.3822  0.9137  1.4325
 1503SOL    HW216146   3.418   0.470  12.051 -1.7078 -0.1116 -0.2544
 1504SOL     OW16147   2.496   0.328   1.447 -0.3456  0.1926  0.2791
 1504SOL    HW116148   2.590   0.345   1.450  0.1789 -2.7043  0.5148
 1504SOL    HW216149   2.476   0.291   1.534  0.1718  1.5035  0.9518
 1505SOL     OW16150   0.152   2.514   3.929 -0.0749  0.0920 -0.3422
 1505SOL    HW116151   0.079   2.575   3.941 -1.4134 -1.5058 -0.3156
 1505SOL    HW216152   0.177   2.523   4.021  1.6098  0.8836 -0.8771
 1506SOL     OW16153   1.230   1.275   3.245 -0.3115  0.2621  0.0473
 1506SOL    HW116154   1.304   1.278   3.306  0.7971  0.3898 -1.2841
 1506SOL    HW216155   1.233   1.360   3.201  0.3932  0.8515  1.2396
 1507SOL     OW16156   1.434   1.965   5.081 -0.0847 -0.3829 -0.1764
 1507SOL    HW116157   1.486   2.003   5.011 -0.4464  0.3442 -0.0500
 1507SOL    HW216158   1.452   2.023   5.155  0.4582 -0.3923 -0.3024
 1508SOL     OW16159   4.063   3.243   2.358  0.3483  0.5149 -0.0880
 1508SOL    HW116160   4.029   3.325   2.394 -1.0582  0.6303 -1.6877
 1508SOL    HW216161   4.087   3.268   2.269 -0.2229 -1.1546 -0.7073
 1509SOL     OW16162   0.684   2.166  12.496 -0.3145  0.1416 -0.4629
 1509SOL    HW116163   0.699   2.194  12.587 -2.2015  0.9846 -0.4114
 1509SOL    HW216164   0.653   2.077  12.507 -0.6480  0.2086 -0.9078
 1510SOL     OW16165   3.442   0.835   7.566 -0.3560  0.3614  0.3805
 1510SOL    HW116166   3.529   0.804   7.592 -0.1149 -1.5140 -2.6714
 1510SOL    HW216167   3.452   0.820   7.472 -0.2019 -1.8173  0.7381
 1511SOL     OW16168   2.843   3.996   0.376 -0.7866  0.3153 -0.3051
 1511SOL    HW116169   2.798   4.081   0.378 -2.3397 -0.4523 -3.0658
 1511SOL    HW216170   2.922   4.011   0.323  1.1978  0.0594  2.5565
 1512SOL     OW16171   2.627   0.366   7.906  0.5837  0.6366  0.3826
 1512SOL    HW116172   2.642   0.325   7.821  0.7884 -1.1132  1.2527
 1512SOL    HW216173   2.715   0.382   7.940  0.5487 -0.2645  0.9048
 1513SOL     OW16174   0.140   2.976  10.210  0.3037  0.1200  0.3315
 1513SOL    HW116175   0.151   2.918  10.285  0.1259  0.2632  0.4691
 1513SOL    HW216176   0.069   3.034  10.240 -2.5809 -2.6314 -1.2392
 1514SOL     OW16177   0.483   4.701   1.705  0.5296 -0.0422  0.5524
 1514SOL    HW116178   0.522   0.045   1.729  0.3091  0.0563  0.5712
 1514SOL    HW216179   0.395   4.709   1.741  0.6397  0.0331  0.8044
 1515SOL     OW16180   1.427   3.025  12.389 -0.0473  0.0607 -0.5148
 1515SOL    HW116181   1.413   3.115  12.360 -1.4382 -0.2837 -0.8666
 1515SOL    HW216182   1.343   2.989  12.362  0.5349  1.0102 -3.6047
 1516SOL     OW16183   3.222   4.629   2.169 -0.1342 -0.3920 -0.5781
 1516SOL    HW116184   3.237   4.541   2.135  1.2179  0.9655 -3.4515
 1516SOL    HW216185   3.291   4.638   2.236 -0.1812 -0.1341 -0.5631
 1517SOL     OW16186   0.708   2.030   7.687 -0.0462  0.0852  0.1523
 1517SOL    HW116187   0.798   2.040   7.719  0.5459  2.9104 -2.2918
 1517SOL    HW216188   0.668   2.115   7.708  1.8924  1.3941 -1.3701
 1518SOL     OW16189   2.417   3.250   4.524  0.3157 -0.2879  0.5246
 1518SOL    HW116190   2.463   3.329   4.553  1.2063 -1.1947  1.5483
 1518SOL    HW216191   2.330   3.284   4.501 -0.0507 -1.6701 -0.0991
 1519SOL     OW16192   3.212   3.818   4.700 -0.1692  0.2789  0.3811
 1519SOL    HW116193   3.176   3.823   4.789 -0.5709 -0.2278  0.2518
 1519SOL    HW216194   3.252   3.732   4.712  1.5523  0.7911 -1.8392
 1520SOL     OW16195   1.129   3.100   9.492  0.5339  0.2882  0.5875
 1520SOL    HW116196   1.043   3.063   9.511  0.0184  0.7152 -0.9098
 1520SOL    HW216197   1.180   3.019   9.491 -1.5207 -1.0195  2.5928
 1521SOL     OW16198   2.569   0.107   6.860 -0.6030  0.1281 -0.3184
 1521SOL    HW116199   2.552   0.167   6.932 -0.2844 -1.1878  0.8469
 1521SOL    HW216200   2.535   0.154   6.784  2.4190  1.5439 -0.8080
 1522SOL     OW16201   1.807   0.157   5.425 -0.0835  0.2734  0.9030
 1522SOL    HW116202   1.897   0.159   5.457  0.0459  1.7990  0.4280
 1522SOL    HW216203   1.768   0.210   5.494  2.6107  1.1346  1.7464
 1523SOL     OW16204   4.728   1.676   1.422 -0.3672 -0.6442 -0.1386
 1523SOL    HW116205   0.024   1.765   1.430 -1.4488 -0.0204 -2.2823
 1523SOL    HW216206   0.018   1.630   1.501 -3.2024  1.1052  1.8735
 1524SOL     OW16207   2.540   1.917   0.520  0.5134  0.4115 -0.7604
 1524SOL    HW116208   2.514   2.002   0.555 -2.3502 -0.1779 -1.4550
 1524SOL    HW216209   2.576   1.874   0.598  1.2847  1.9841 -0.2458
 1525SOL     OW16210   3.926   0.194  17.576 -0.2085 -0.4705 -0.0168
 1525SOL    HW116211   3.998   0.155  17.526  2.5057  2.2597  1.7280
 1525SOL    HW216212   3.862   0.127  17.598  1.3964 -1.7942  0.6133
 1526SOL     OW16213   3.638   3.230   5.957 -0.1678  0.7365  0.3187
 1526SOL    HW116214   3.628   3.325   5.962 -1.4730  0.6621 -0.6874
 1526SOL    HW216215   3.663   3.212   5.866 -3.3376  3.7931 -1.1757
 1527SOL     OW16216   1.357   0.436   3.547 -0.5545 -0.1774  0.0570
 1527SOL    HW116217   1.291   0.502   3.526  0.5225  1.2449  1.1945
 1527SOL    HW216218   1.301   0.362   3.569 -0.5921  0.0979  0.8971
 1528SOL     OW16219   3.152   3.103   4.291 -0.1757  0.0507 -0.2113
 1528SOL    HW116220   3.111   3.130   4.209 -0.7064  0.8911  0.3394
 1528SOL    HW216221   3.162   3.009   4.275 -0.1877  0.1014 -0.5212
 1529SOL     OW16222   3.719   0.398   3.388  0.0484  0.6979  0.1772
 1529SOL    HW116223   3.754   0.465   3.329 -0.2624 -0.6563 -1.5539
 1529SOL    HW216224   3.683   0.460   3.451 -0.0578  0.7151  0.1003
 1530SOL     OW16225   2.364   0.467  16.555 -0.6639 -0.2633  0.2068
 1530SOL    HW116226   2.338   0.559  16.549 -0.4208  0.0514  3.5924
 1530SOL    HW216227   2.282   0.420  16.544  0.0450 -0.8976 -2.2610
 1531SOL     OW16228   3.968   0.006  15.408  0.1436  0.0855 -0.3666
 1531SOL    HW116229   3.953   4.682  15.479  0.2176 -0.3662 -0.7489
 1531SOL    HW216230   3.923   0.083  15.442  0.3098 -0.6311  1.4809
 1532SOL     OW16231   4.321   1.833  12.072 -0.2844 -0.0887  0.0255
 1532SOL    HW116232   4.411   1.838  12.040 -0.3888  1.2903 -0.0504
 1532SOL    HW216233   4.278   1.912  12.040  1.4551  1.1599  0.7939
 1533SOL     OW16234   0.354   2.533   6.507  0.1378 -0.3560 -0.2631
 1533SOL    HW116235   0.390   2.453   6.468  0.8132 -0.2585  0.1669
 1533SOL    HW216236   0.378   2.605   6.449  2.5411 -0.6375  0.3874
 1534SOL     OW16237   1.138   3.800   1.895 -0.1408  0.1433 -0.1170
 1534SOL    HW116238   1.075   3.855   1.848 -0.6702 -2.3420 -2.3209
 1534SOL    HW216239   1.078   3.734   1.929 -0.2401 -0.2943 -1.1293
 1535SOL     OW16240   1.498   2.915   3.262 -0.0156  0.7557  0.3416
 1535SOL    HW116241   1.486   3.010   3.266 -1.5314  0.5864 -0.2025
 1535SOL    HW216242   1.422   2.893   3.209  0.9467 -3.0535  0.5812
 1536SOL     OW16243   4.088   3.871  13.270  0.6526 -0.0014 -0.3654
 1536SOL    HW116244   4.023   3.828  13.325  2.0670 -1.4792  0.1423
 1536SOL    HW216245   4.093   3.960  13.304 -1.2794 -0.3318  0.7806
 1537SOL     OW16246   4.248   4.495   6.525  0.7161  0.0900 -0.0054
 1537SOL    HW116247   4.170   4.468   6.477  1.1361  0.7231 -1.0388
 1537SOL    HW216248   4.247   4.588   6.505 -0.2588 -0.0339 -0.4964
 1538SOL     OW16249   2.131   3.763   3.399 -0.3094 -0.5119 -0.4500
 1538SOL    HW116250   2.044   3.773   3.360  0.4592  2.1771 -1.4527
 1538SOL    HW216251   2.123   3.811   3.482  1.6471  1.8226 -1.6354
 1539SOL     OW16252   1.658   1.045   5.606 -0.4190  0.1919 -0.5553
 1539SOL    HW116253   1.566   1.051   5.580 -0.0094 -0.9915 -2.2720
 1539SOL    HW216254   1.687   1.135   5.591 -0.7041  0.5639  1.1592
 1540SOL     OW16255   0.058   2.191  17.063  0.3654  0.2895 -0.4328
 1540SOL    HW116256   0.011   2.109  17.080  0.6098  0.1496 -0.4283
 1540SOL    HW216257   0.144   2.172  17.101 -0.6927 -0.0722  1.7948
 1541SOL     OW16258   4.510   1.540  10.911  0.0591 -0.0268  0.4298
 1541SOL    HW116259   4.579   1.494  10.958 -0.3664  2.3617  3.3813
 1541SOL    HW216260   4.455   1.467  10.883  1.6673 -0.3599 -1.9534
 1542SOL     OW16261   1.664   2.194   3.015  0.1713  0.0871 -0.1003
 1542SOL    HW116262   1.679   2.233   3.101  0.7190 -0.0561 -0.1354
 1542SOL    HW216263   1.754   2.168   3.000 -0.4934 -1.0956 -1.9104
 1543SOL     OW16264   1.698   0.985  14.318 -0.6760 -0.0751 -0.1938
 1543SOL    HW116265   1.699   0.890  14.327  0.0661 -0.1079 -0.6175
 1543SOL    HW216266   1.618   0.998  14.267 -1.8547 -0.0814  1.6652
 1544SOL     OW16267   3.391   0.383   4.716 -0.9034  0.2894  0.2724
 1544SOL    HW116268   3.418   0.443   4.646 -0.0724 -0.6800 -0.2419
 1544SOL    HW216269   3.472   0.334   4.728 -2.2500 -1.8646  0.5970
 1545SOL     OW16270   0.080   1.584   6.791  0.0290 -0.6651  0.3339
 1545SOL    HW116271   4.724   1.592   6.781  0.3263  0.9562 -1.2394
 1545SOL    HW216272   0.103   1.636   6.868 -0.9439  2.4678 -1.4912
 1546SOL     OW16273   3.263   2.424   7.610 -0.5428 -0.4145 -0.3103
 1546SOL    HW116274   3.320   2.472   7.551 -1.4015  0.8502 -0.1180
 1546SOL    HW216275   3.199   2.496   7.609 -0.8830 -0.7227 -0.6804
 1547SOL     OW16276   3.955   2.914  17.139  0.1512 -0.2212  0.5775
 1547SOL    HW116277   3.947   2.987  17.078  1.6840 -1.2801 -0.8933
 1547SOL    HW216278   3.952   2.848  17.070 -1.5439  1.5555 -1.0440
 1548SOL     OW16279   0.721   1.965   3.634 -0.0173  0.3773 -0.5178
 1548SOL    HW116280   0.784   1.979   3.564 -0.2223  1.1673 -0.5497
 1548SOL    HW216281   0.677   1.890   3.593  0.9526 -0.2884 -0.3314
 1549SOL     OW16282   4.521   1.669  12.661 -0.3790 -0.4763 -0.8935
 1549SOL    HW116283   4.569   1.682  12.580  1.6350  1.2991  0.5767
 1549SOL    HW216284   4.471   1.589  12.646  1.6886 -1.8395 -0.4933
 1550SOL     OW16285   0.080   2.152  16.653 -0.2564 -0.1918  0.3131
 1550SOL    HW116286   0.152   2.095  16.680 -0.2735  0.8385  2.5014
 1550SOL    HW216287   0.089   2.228  16.710 -1.4037  2.4325 -2.9628
 1551SOL     OW16288   0.371   1.478   6.176  0.4057  0.3526  0.0073
 1551SOL    HW116289   0.437   1.544   6.196  0.8390  0.0847 -0.5455
 1551SOL    HW216290   0.424   1.415   6.223 -0.8988  1.0123  2.3457
 1552SOL     OW16291   2.833   4.457   8.911  0.0490 -0.6018  0.4687
 1552SOL    HW116292   2.919   4.440   8.872  0.9320  1.6380  1.4361
 1552SOL    HW216293   2.856   4.516   8.983 -0.2067  1.2968 -1.0060
 1553SOL     OW16294   0.135   2.942   5.770 -0.0151 -0.3409 -0.0602
 1553SOL    HW116295   0.062   3.002   5.756  1.8295  2.2049  1.3481
 1553SOL    HW216296   0.084   2.871   5.808 -2.1949  0.6681 -1.0890
 1554SOL     OW16297   1.866   2.846   7.306 -0.0943  0.4362 -0.0153
 1554SOL    HW116298   1.780   2.859   7.265  0.6813 -0.7274 -1.9885
 1554SOL    HW216299   1.839   2.808   7.390  0.0251 -2.1686 -1.1504
 1555SOL     OW16300   0.061   2.497   9.834 -0.0426 -0.1209 -0.0125
 1555SOL    HW116301   0.121   2.422   9.826  2.9793  1.9077  3.6324
 1555SOL    HW216302   4.719   2.456   9.805  0.2059 -0.1714 -0.6298
 1556SOL     OW16303   0.029   2.259  15.737 -0.4496  0.1518  0.2960
 1556SOL    HW116304   0.010   2.326  15.672 -1.1248 -1.1404 -0.8422
 1556SOL    HW216305   4.729   2.293  15.817  0.0699  1.7374 -0.1185
 1557SOL     OW16306   4.215   0.625   9.227 -0.6403 -0.3770  0.0537
 1557SOL    HW116307   4.304   0.610   9.196 -1.0147 -0.6770 -0.8538
 1557SOL    HW216308   4.221   0.714   9.261  1.0364 -0.4763  0.0594
 1558SOL     OW16309   3.514   0.043   6.755 -0.0088 -0.0756  0.0328
 1558SOL    HW116310   3.607   0.058   6.740  0.0315  0.3679  0.6818
 1558SOL    HW216311   3.528   4.703   6.808 -0.2396 -0.2219 -0.1273
 1559SOL     OW16312   0.947   4.412   5.719 -0.1917 -0.1711 -0.7525
 1559SOL    HW116313   0.905   4.327   5.732  1.1695 -0.5958  0.9037
 1559SOL    HW216314   0.907   4.443   5.638  1.5851 -0.0121 -1.5655
 1560SOL     OW16315   2.302   3.472  16.514 -0.2205  0.3097 -0.2102
 1560SOL    HW116316   2.358   3.420  16.457  1.2655  0.0119  1.5054
 1560SOL    HW216317   2.224   3.468  16.459 -2.1177 -0.9132  2.5647
 1561SOL     OW16318   1.142   4.411   1.857  0.2101  0.0919 -0.0610
 1561SOL    HW116319   1.220   4.359   1.837 -0.4193 -1.0656  0.4667
 1561SOL    HW216320   1.160   4.447   1.944  0.1236  1.0991 -0.4585
 1562SOL     OW16321   4.288   1.630   6.808 -0.3069 -0.0082  0.0493
 1562SOL    HW116322   4.221   1.589   6.753 -0.1360 -2.3099  1.5709
 1562SOL    HW216323   4.272   1.589   6.893  1.4167  1.8333  1.2341
 1563SOL     OW16324   0.298   4.336   1.708  0.3443  0.4874  0.1970
 1563SOL    HW116325   0.251   4.319   1.790 -0.4317  1.6198 -0.0039
 1563SOL    HW216326   0.370   4.387   1.745  1.5032 -1.6756  0.9344
 1564SOL     OW16327   4.366   0.417   5.566  0.4678  0.0798 -0.0956
 1564SOL    HW116328   4.290   0.403   5.509  0.8031 -0.5120 -0.3975
 1564SOL    HW216329   4.402   0.503   5.542  2.0052 -1.5123 -3.4258
 1565SOL     OW16330   0.664   1.295  10.050 -0.0845  0.4486  0.5537
 1565SOL    HW116331   0.754   1.303  10.019  0.5067  0.2097  2.2162
 1565SOL    HW216332   0.661   1.334  10.137  0.7137 -0.8888  1.1819
 1566SOL     OW16333   2.207   4.701   0.947 -0.1248  0.2518  0.8607
 1566SOL    HW116334   2.271   4.671   1.011  0.7958 -1.6317 -0.9514
 1566SOL    HW216335   2.245   0.043   0.913  0.9794 -1.5587 -2.1537
 1567SOL     OW16336   3.191   4.309  16.428 -0.2879  0.6158 -0.5965
 1567SOL    HW116337   3.225   4.275  16.511 -2.8140 -1.0925 -0.2680
 1567SOL    HW216338   3.199   4.404  16.430  2.5951  0.3352  0.8278
 1568SOL     OW16339   3.414   2.332   9.068  0.8379  0.2633 -0.6842
 1568SOL    HW116340   3.499   2.295   9.043  0.8346 -0.5077  0.4328
 1568SOL    HW216341   3.391   2.346   8.976 -0.4329 -0.0745 -0.4083
 1569SOL     OW16342   4.323   0.074   8.417 -1.0324  0.0314  0.0496
 1569SOL    HW116343   4.252   0.097   8.476  0.0404 -0.0596  1.3929
 1569SOL    HW216344   4.343   0.154   8.368 -2.1756  0.1497 -0.2078
 1570SOL     OW16345   3.835   3.631  10.719  0.1972  0.0751  0.0037
 1570SOL    HW116346   3.765   3.665  10.662 -0.1716 -1.1664 -0.2983
 1570SOL    HW216347   3.868   3.560  10.664  3.1052  1.0403  0.5451
 1571SOL     OW16348   2.858   1.803   1.691  0.5994  0.1650  0.0144
 1571SOL    HW116349   2.801   1.809   1.614 -0.1478  1.4115  0.6545
 1571SOL    HW216350   2.942   1.783   1.649  0.7535 -0.1284  0.4677
 1572SOL     OW16351   1.887   0.753   9.263  1.2013 -0.1978  0.1274
 1572SOL    HW116352   1.906   0.836   9.220  0.2044 -0.5432 -0.9812
 1572SOL    HW216353   1.800   0.775   9.296  0.6094  0.3512 -1.7739
 1573SOL     OW16354   2.185   3.977  17.317  0.0356 -0.2211 -0.3037
 1573SOL    HW116355   2.142   3.977  17.403 -0.5264  0.2422 -0.5833
 1573SOL    HW216356   2.260   4.036  17.322  0.1963 -0.4644  0.2089
 1574SOL     OW16357   0.871   4.719   3.508 -0.5349 -0.6250  0.0959
 1574SOL    HW116358   0.867   4.678   3.421 -0.6231 -0.6990  0.1348
 1574SOL    HW216359   0.965   4.734   3.511 -0.3861 -1.2039 -1.4217
 1575SOL     OW16360   1.531   3.087  11.227  0.4715 -0.2619  0.2259
 1575SOL    HW116361   1.552   3.052  11.140  0.3435 -1.1869  0.5687
 1575SOL    HW216362   1.495   3.174  11.209 -0.7970 -1.0337 -0.9602
 1576SOL     OW16363   3.523   4.728   5.482 -0.0414 -0.3173 -0.4561
 1576SOL    HW116364   3.580   0.048   5.432 -1.6868  0.5313 -1.3383
 1576SOL    HW216365   3.579   4.650   5.483  1.0029  0.4209 -0.9169
 1577SOL     OW16366   2.526   4.155   0.404  0.1844 -0.0688  0.0924
 1577SOL    HW116367   2.591   4.217   0.371  2.8528 -1.3609  3.0265
 1577SOL    HW216368   2.452   4.181   0.349 -0.7919 -2.6382  0.2022
 1578SOL     OW16369   1.602   3.073   6.616  0.1540 -0.4318 -0.1881
 1578SOL    HW116370   1.609   3.014   6.540  2.4073 -0.3172 -0.0735
 1578SOL    HW216371   1.527   3.125   6.588  1.6087  1.1329 -1.1954
 1579SOL     OW16372   1.319   3.270  15.130  0.3624  0.4404 -0.1534
 1579SOL    HW116373   1.336   3.365  15.133  2.0492  0.0959  0.9863
 1579SOL    HW216374   1.309   3.253  15.037  2.7178 -2.1339  0.0745
 1580SOL     OW16375   1.525   2.790  12.164 -0.2025  0.4993  0.1393
 1580SOL    HW116376   1.554   2.809  12.253  1.0565  0.2846 -0.2246
 1580SOL    HW216377   1.478   2.869  12.140  0.2842  1.0744  1.0993
 1581SOL     OW16378   4.304   3.736   8.224 -0.2503  0.1655 -0.3484
 1581SOL    HW116379   4.344   3.810   8.269  1.0570 -0.2823 -0.7735
 1581SOL    HW216380   4.378   3.677   8.212  0.6856  1.4018 -0.7022
 1582SOL     OW16381   1.756   2.386   5.903  0.7100  0.0826 -0.6104
 1582SOL    HW116382   1.794   2.312   5.951 -0.0068 -1.2545 -2.1144
 1582SOL    HW216383   1.833   2.442   5.908  1.6127 -0.9226 -3.8864
 1583SOL     OW16384   2.094   4.363   6.200  0.0966 -0.0025 -0.4954
 1583SOL    HW116385   2.117   4.394   6.288  0.0132  0.5247 -0.6581
 1583SOL    HW216386   2.179   4.379   6.160 -0.7019 -1.1948 -2.6244
 1584SOL     OW16387   4.495   1.759   9.804 -0.1850  0.2711 -0.4569
 1584SOL    HW116388   4.438   1.683   9.794 -1.1216  0.3649  4.0822
 1584SOL    HW216389   4.427   1.825   9.790  0.2487  0.9353  0.6204
 1585SOL     OW16390   0.114   1.236  11.686  0.3255  0.3335  0.2775
 1585SOL    HW116391   0.036   1.258  11.737  0.3091  2.0277 -0.4711
 1585SOL    HW216392   0.133   1.315  11.636 -0.9010  0.1450 -0.4988
 1586SOL     OW16393   3.870   1.804  12.314  0.3117  0.2443  0.3222
 1586SOL    HW116394   3.802   1.872  12.310  1.5398  1.4611 -0.0396
 1586SOL    HW216395   3.823   1.724  12.335  0.8659  0.1200  1.0858
 1587SOL     OW16396   3.490   2.707   5.469  0.1449 -0.3351  0.1058
 1587SOL    HW116397   3.500   2.758   5.389 -1.3320 -0.3481 -0.0931
 1587SOL    HW216398   3.574   2.666   5.491  0.6809  0.5083 -0.3993
 1588SOL     OW16399   3.253   4.312   6.718 -0.2162 -0.5437 -0.0341
 1588SOL    HW116400   3.324   4.322   6.782  0.1216  0.5998 -0.5894
 1588SOL    HW216401   3.298   4.307   6.634 -2.8839 -1.3059 -1.3847
 1589SOL     OW16402   0.475   0.349  14.700  0.4796  0.1717 -0.3575
 1589SOL    HW116403   0.543   0.361  14.634  0.2708 -0.7378 -0.7288
 1589SOL    HW216404   0.498   0.410  14.771  3.8632 -1.9158  0.3474
 1590SOL     OW16405   2.239   1.743   7.065  0.6518 -0.1452 -0.0647
 1590SOL    HW116406   2.243   1.704   7.152 -1.6575 -1.0431 -0.3488
 1590SOL    HW216407   2.157   1.717   7.023 -0.0688 -1.9810  2.4595
 1591SOL     OW16408   4.133   1.293  16.745  0.3939 -0.5966  0.6152
 1591SOL    HW116409   4.093   1.321  16.663  2.9083  0.3550 -0.2890
 1591SOL    HW216410   4.155   1.374  16.790 -1.8485 -1.2150  2.8144
 1592SOL     OW16411   4.079   0.077  14.910 -0.3987  0.3985  0.1808
 1592SOL    HW116412   4.129   0.051  14.988  1.6665  3.6715 -0.0297
 1592SOL    HW216413   4.100   0.170  14.901  2.6990 -0.3201 -0.1560
 1593SOL     OW16414   3.982   0.075  15.737  0.3971 -0.9130 -0.1369
 1593SOL    HW116415   4.072   0.048  15.717  0.1145 -0.9237 -1.4017
 1593SOL    HW216416   3.994   0.170  15.738  0.3536 -0.9167  0.9520
 1594SOL     OW16417   2.795   1.962   1.949 -0.0886 -0.2261  0.3020
 1594SOL    HW116418   2.704   1.954   1.923  0.4269  0.6741 -1.8127
 1594SOL    HW216419   2.844   1.949   1.868 -0.8085  0.3631 -0.2278
 1595SOL     OW16420   4.440   3.150   6.549  0.6652  0.2649  0.3762
 1595SOL    HW116421   4.363   3.184   6.594  1.9608  0.8628  2.1225
 1595SOL    HW216422   4.503   3.147   6.621  2.8441  0.2475 -1.5273
 1596SOL     OW16423   3.950   4.269  16.449  0.4953  0.6639  0.2924
 1596SOL    HW116424   4.044   4.254  16.442  0.6203  2.0507 -1.0964
 1596SOL    HW216425   3.967   4.327  16.524  1.8766 -0.0310  0.4948
 1597SOL     OW16426   4.615   0.366   8.206  0.1542  0.1179  0.4005
 1597SOL    HW116427   4.590   0.354   8.297 -1.0808  0.7870  0.1470
 1597SOL    HW216428   4.647   0.456   8.203 -1.6911  0.8199  2.5377
 1598SOL     OW16429   1.474   3.315   2.774 -0.3931  0.2791  0.1178
 1598SOL    HW116430   1.439   3.264   2.701 -1.9525  0.5044  0.7060
 1598SOL    HW216431   1.566   3.291   2.776 -0.1314  1.2928  0.6371
 1599SOL     OW16432   0.913   1.572   7.026  0.5446 -0.5322 -0.2182
 1599SOL    HW116433   0.930   1.527   7.109 -0.3179 -0.5106 -0.0358
 1599SOL    HW216434   0.820   1.594   7.033  0.9927  1.7627 -1.4483
 1600SOL     OW16435   1.914   1.470   4.637 -0.6123  0.8412  0.6273
 1600SOL    HW116436   1.821   1.459   4.657 -1.0394  2.8157 -0.2870
 1600SOL    HW216437   1.949   1.455   4.725  1.8478 -0.6567 -0.5969
 1601SOL     OW16438   3.520   4.480   8.370 -0.0573  0.1882  0.5269
 1601SOL    HW116439   3.469   4.401   8.386  0.5258  0.1088  1.9286
 1601SOL    HW216440   3.557   4.457   8.285  0.7286  0.6216  0.7534
 1602SOL     OW16441   1.619   1.371   7.298  0.0573  0.0889 -0.0905
 1602SOL    HW116442   1.563   1.430   7.348  1.5030 -0.1409  1.8275
 1602SOL    HW216443   1.622   1.426   7.220 -1.3633  0.0831 -0.1418
 1603SOL     OW16444   4.406   2.510   4.671  0.0654 -0.0173  0.1521
 1603SOL    HW116445   4.344   2.495   4.599  0.7336 -2.9102  0.2031
 1603SOL    HW216446   4.430   2.599   4.645 -0.5321  0.6803  2.0020
 1604SOL     OW16447   1.792   3.144   6.770 -0.1273  0.1390 -0.7660
 1604SOL    HW116448   1.777   3.235   6.797  2.9877  0.8167 -1.3383
 1604SOL    HW216449   1.715   3.126   6.716 -0.3780  0.8565 -0.6508
 1605SOL     OW16450   1.971   0.729   1.620  0.0016 -0.4731 -0.0874
 1605SOL    HW116451   1.978   0.805   1.679  0.5405 -2.1460  1.9796
 1605SOL    HW216452   1.903   0.673   1.657 -0.5886 -0.1462 -0.6847
 1606SOL     OW16453   2.049   3.080   7.181  0.0224 -0.3934 -1.2148
 1606SOL    HW116454   2.009   3.011   7.234 -0.0377 -0.1092 -0.8901
 1606SOL    HW216455   2.049   3.043   7.093  0.2603 -1.3059 -0.8330
 1607SOL     OW16456   4.385   1.922  12.407  0.1399 -1.0482  0.1183
 1607SOL    HW116457   4.310   1.944  12.352  0.6450 -2.7569 -1.2972
 1607SOL    HW216458   4.356   1.838  12.443  1.0755 -0.9018  1.2094
 1608SOL     OW16459   3.626   1.255  14.820  0.1409 -0.0201 -0.7541
 1608SOL    HW116460   3.579   1.184  14.776 -0.3539  0.5289 -1.1079
 1608SOL    HW216461   3.657   1.216  14.901 -1.9909 -0.0472  0.0455
 1609SOL     OW16462   3.428   4.269   3.523  0.0456 -0.4924 -0.2404
 1609SOL    HW116463   3.370   4.251   3.449  1.1498  1.3610 -1.5402
 1609SOL    HW216464   3.492   4.329   3.484  1.7460 -0.9249  1.8872
 1610SOL     OW16465   3.334   4.309   9.207 -0.1213  0.3228 -0.9593
 1610SOL    HW116466   3.338   4.379   9.273  1.9037 -1.8098  1.1775
 1610SOL    HW216467   3.391   4.342   9.138  2.0314 -2.1318 -0.3826
 1611SOL     OW16468   1.294   1.799   1.208 -0.2216  0.0317 -0.2954
 1611SOL    HW116469   1.351   1.729   1.238 -0.9577 -0.4405 -0.0132
 1611SOL    HW216470   1.267   1.779   1.118 -1.1910  1.0639 -0.2322
 1612SOL     OW16471   3.837   4.147  16.215 -0.6312 -0.0976 -0.6673
 1612SOL    HW116472   3.879   4.172  16.297 -0.5361 -1.8230 -0.1777
 1612SOL    HW216473   3.748   4.173  16.240 -0.1357 -1.1119  2.2504
 1613SOL     OW16474   1.550   1.974  17.018 -0.3143  0.2876 -0.4869
 1613SOL    HW116475   1.637   1.986  16.980  0.5832 -1.8561  0.9207
 1613SOL    HW216476   1.545   2.058  17.065  0.3936 -1.1678  2.1578
 1614SOL     OW16477   1.497   3.128   9.024  0.1577 -0.0349 -0.4931
 1614SOL    HW116478   1.428   3.099   8.964 -0.1094 -0.6724  0.1228
 1614SOL    HW216479   1.467   3.213   9.055  0.8200 -0.0706  0.2324
 1615SOL     OW16480   2.351   2.333   6.659  0.2804  0.1106 -0.2538
 1615SOL    HW116481   2.354   2.248   6.617 -0.5195 -0.1543  0.2090
 1615SOL    HW216482   2.348   2.395   6.586 -0.9959  0.3122 -0.0480
 1616SOL     OW16483   4.466   0.090   3.949 -0.6340  0.7798 -0.2605
 1616SOL    HW116484   4.416   0.158   3.995 -1.2594 -0.0385  0.2826
 1616SOL    HW216485   4.403   0.018   3.959 -2.1370  1.7047 -3.0638
 1617SOL     OW16486   0.312   4.125   5.685  0.1010  0.0932  0.2288
 1617SOL    HW116487   0.295   4.219   5.689 -0.0442  0.0677  0.2173
 1617SOL    HW216488   0.364   4.115   5.764  2.1857 -1.1420 -1.2814
 1618SOL     OW16489   1.306   2.547   6.829  0.0628  0.3114 -0.3370
 1618SOL    HW116490   1.254   2.605   6.773  0.0937 -1.7618 -2.4925
 1618SOL    HW216491   1.364   2.499   6.770  0.2718  0.3582 -0.1689
 1619SOL     OW16492   3.546   2.492   8.184 -0.1299 -0.2692  0.1053
 1619SOL    HW116493   3.455   2.465   8.175 -1.5309  4.2498  0.9289
 1619SOL    HW216494   3.557   2.485   8.279 -0.2674 -0.0616  0.1367
 1620SOL     OW16495   1.635   0.243   5.233 -0.0003 -0.3508  0.2913
 1620SOL    HW116496   1.710   0.252   5.175 -1.1680 -0.5410 -1.2489
 1620SOL    HW216497   1.678   0.233   5.318  0.6944 -0.4354 -0.0739
 1621SOL     OW16498   3.060   4.098  14.384  0.3053  0.2819 -0.3758
 1621SOL    HW116499   3.109   4.179  14.367  1.0284 -0.4006 -1.5490
 1621SOL    HW216500   2.989   4.129  14.440  0.7836 -1.7898  1.3876
 1622SOL     OW16501   4.331   1.996  16.595  0.3017 -0.0921  0.2021
 1622SOL    HW116502   4.308   1.962  16.509  0.3730  1.4774 -0.4219
 1622SOL    HW216503   4.284   1.935  16.653  0.5572 -0.3540  0.1359
 1623SOL     OW16504   4.628   0.321  16.258  0.2348  0.0657 -0.6182
 1623SOL    HW116505   4.556   0.332  16.196 -2.0045  0.9154  2.1253
 1623SOL    HW216506   4.611   0.399  16.310  1.1068  0.5343 -1.0443
 1624SOL     OW16507   3.953   4.087   0.584  0.4271 -0.0242 -0.2220
 1624SOL    HW116508   3.927   4.178   0.592  0.7314  0.1903 -1.6675
 1624SOL    HW216509   4.036   4.092   0.632 -0.6106 -0.7284  1.6530
 1625SOL     OW16510   2.540   1.794   7.343 -0.3559 -0.1068  0.0500
 1625SOL    HW116511   2.485   1.871   7.360  2.7802  1.6970  2.0025
 1625SOL    HW216512   2.588   1.829   7.268  0.9183 -2.6263 -0.3006
 1626SOL     OW16513   2.818   4.350   2.496  0.2151 -0.0698 -0.2139
 1626SOL    HW116514   2.841   4.362   2.588 -1.0956  2.8886 -0.2657
 1626SOL    HW216515   2.761   4.274   2.493  1.5901 -1.0721 -1.0417
 1627SOL     OW16516   2.591   3.081   5.606 -0.0890  0.0719 -0.2963
 1627SOL    HW116517   2.678   3.041   5.596  1.2396  2.5221  1.3377
 1627SOL    HW216518   2.545   3.044   5.531 -1.7788  1.5457  0.0251
 1628SOL     OW16519   3.565   3.763  16.097 -0.0146  0.1866  0.2794
 1628SOL    HW116520   3.499   3.827  16.125 -1.8293 -0.8522 -1.6606
 1628SOL    HW216521   3.518   3.702  16.042 -1.7768  1.2214  0.6457
 1629SOL     OW16522   4.570   4.558   9.268 -0.1813  0.2673  0.7787
 1629SOL    HW116523   4.625   4.610   9.209 -2.0252  1.4029  0.0633
 1629SOL    HW216524   4.488   4.562   9.218  1.9721 -0.1274 -2.8124
 1630SOL     OW16525   1.097   0.700  10.848  0.5624 -0.3386  0.3068
 1630SOL    HW116526   1.002   0.703  10.849  0.5932  0.7380 -1.3944
 1630SOL    HW216527   1.120   0.658  10.765 -0.9044  0.4338 -0.4793
 1631SOL     OW16528   2.454   0.872  14.735 -0.2033  0.2309  0.1811
 1631SOL    HW116529   2.470   0.872  14.640 -0.8507 -1.5882  0.0862
 1631SOL    HW216530   2.547   0.883  14.753  0.0674  0.2745 -1.1849
 1632SOL     OW16531   1.729   4.629  15.001  0.2512 -0.4269 -0.0854
 1632SOL    HW116532   1.769   4.592  14.922  2.0430 -2.3475  1.7104
 1632SOL    HW216533   1.642   4.661  14.978  0.7116 -0.2095 -1.5250
 1633SOL     OW16534   1.923   0.973   4.561  0.3183  0.8836 -0.6550
 1633SOL    HW116535   1.836   0.938   4.539  0.4306  1.1597 -1.5210
 1633SOL    HW216536   1.904   1.051   4.612 -0.0045 -1.2538  2.4926
 1634SOL     OW16537   1.730   3.019  15.741  0.4872  0.7282  0.5922
 1634SOL    HW116538   1.711   3.017  15.647  0.4848 -1.1995  0.6279
 1634SOL    HW216539   1.637   3.014  15.765  0.1064 -0.4056 -1.0578
 1635SOL     OW16540   4.195   0.805  12.472  0.3180  0.1583  0.2648
 1635SOL    HW116541   4.275   0.762  12.502 -0.0552  1.8192  3.6847
 1635SOL    HW216542   4.224   0.896  12.480 -2.2142  0.8854  1.2498
 1636SOL     OW16543   1.550   4.475   6.966 -0.6636  0.9256  0.1586
 1636SOL    HW116544   1.634   4.489   6.922  0.1163  0.7891  1.6045
 1636SOL    HW216545   1.548   4.383   6.994  2.4102  1.1997  1.2026
 1637SOL     OW16546   4.058   1.178  16.975  0.4017 -0.2894  0.2826
 1637SOL    HW116547   4.087   1.231  16.901 -0.8146  1.5477  1.1406
 1637SOL    HW216548   4.132   1.119  16.989 -1.2214 -2.2037  0.7777
 1638SOL     OW16549   4.351   2.816   7.091  0.1137 -0.1821  0.0478
 1638SOL    HW116550   4.397   2.833   7.172 -0.7052 -1.5436  0.8011
 1638SOL    HW216551   4.409   2.745   7.062  0.0916 -0.1207 -0.1517
 1639SOL     OW16552   0.563   0.359   3.973  0.3015 -0.1854 -0.1212
 1639SOL    HW116553   0.614   0.304   3.913 -0.6447  1.6065 -2.5714
 1639SOL    HW216554   0.493   0.310   4.016  1.0254 -3.1009 -2.2595
 1640SOL     OW16555   3.398   2.147   5.612  0.5890 -0.0606  0.3656
 1640SOL    HW116556   3.321   2.100   5.582 -0.5986  0.5202  2.4863
 1640SOL    HW216557   3.360   2.232   5.635  1.1465  0.3633 -0.2787
 1641SOL     OW16558   4.715   0.240   3.682 -0.1254  0.3572  0.2622
 1641SOL    HW116559   4.692   0.147   3.676 -1.2151  0.8570 -3.1383
 1641SOL    HW216560   4.736   0.261   3.591 -0.4251  1.3821  0.4334
 1642SOL     OW16561   2.011   0.676   4.202  0.1969 -0.8337 -0.3525
 1642SOL    HW116562   1.974   0.683   4.290 -0.7936 -3.2321 -0.5962
 1642SOL    HW216563   1.936   0.655   4.147 -0.3357  0.8234 -0.2710
 1643SOL     OW16564   0.292   1.114   9.003 -0.4477  0.2079  0.4557
 1643SOL    HW116565   0.205   1.088   8.973 -1.2282  1.5219  1.5527
 1643SOL    HW216566   0.282   1.107   9.098 -0.1210  1.3888  0.5850
 1644SOL     OW16567   0.325   3.603   9.650 -0.5656 -0.7979 -0.0053
 1644SOL    HW116568   0.294   3.518   9.617 -2.4639 -0.3247  0.5570
 1644SOL    HW216569   0.274   3.666   9.599 -0.8473 -0.1290  1.1068
 1645SOL     OW16570   0.946   2.892   6.289 -0.4232  0.3334 -0.5899
 1645SOL    HW116571   0.998   2.817   6.263  1.3555  1.3929 -0.1251
 1645SOL    HW216572   0.876   2.886   6.224 -1.7245  2.1294  0.6098
 1646SOL     OW16573   2.070   0.486   3.431  0.3510  0.2767  0.4203
 1646SOL    HW116574   2.118   0.403   3.422 -3.2616 -1.7950  0.3219
 1646SOL    HW216575   2.008   0.472   3.502 -1.9410  2.8042 -1.1130
 1647SOL     OW16576   1.644   4.712   3.633 -0.2385  1.0282 -0.0596
 1647SOL    HW116577   1.627   4.624   3.666 -0.3660  1.8872  2.1481
 1647SOL    HW216578   1.567   0.017   3.669  0.9844  2.4314  0.8131
 1648SOL     OW16579   0.274   1.899   6.315 -0.0691 -0.5434 -0.5451
 1648SOL    HW116580   0.184   1.926   6.330 -0.1089 -1.5499  1.1162
 1648SOL    HW216581   0.278   1.825   6.255 -0.3370 -0.6247 -0.4595
 1649SOL     OW16582   1.756   2.997   4.745  0.1369  0.6413  0.4502
 1649SOL    HW116583   1.704   3.046   4.682 -1.6391 -0.7886  0.8215
 1649SOL    HW216584   1.692   2.962   4.806 -1.0604 -0.7016 -1.5571
 1650SOL     OW16585   4.365   4.234   7.210  0.0028  0.3824  0.3344
 1650SOL    HW116586   4.447   4.219   7.257  1.5506 -0.2876 -2.5877
 1650SOL    HW216587   4.325   4.147   7.216 -0.4365  0.5471 -0.2724
 1651SOL     OW16588   0.859   4.006   7.861  0.4612  0.4194  0.1707
 1651SOL    HW116589   0.882   3.941   7.794 -1.5363  0.4670 -0.5821
 1651SOL    HW216590   0.815   4.074   7.810 -1.8323 -1.1436  0.0606
 1652SOL     OW16591   4.290   1.297  15.863 -0.0120  0.1311 -0.1839
 1652SOL    HW116592   4.209   1.259  15.898  0.1416 -1.2576 -1.3441
 1652SOL    HW216593   4.275   1.284  15.770 -2.0040 -1.7178  0.3775
 1653SOL     OW16594   2.970   2.515  15.432 -0.0491 -0.0976 -0.2119
 1653SOL    HW116595   2.926   2.533  15.349  0.6673  0.4564 -0.4701
 1653SOL    HW216596   2.895   2.512  15.490 -1.1483 -2.5562 -1.7273
 1654SOL     OW16597   3.089   2.635   7.631 -0.1960 -0.5679 -0.4949
 1654SOL    HW116598   3.000   2.642   7.595 -0.4193 -3.4051 -0.4712
 1654SOL    HW216599   3.119   2.726   7.640 -3.9816  0.5427  1.0665
 1655SOL     OW16600   0.848   4.487   7.193 -0.2339 -0.5303  0.3671
 1655SOL    HW116601   0.870   4.551   7.261 -0.6759  2.8754 -2.6849
 1655SOL    HW216602   0.865   4.398   7.224 -1.2132  0.1154  2.7470
 1656SOL     OW16603   0.787   2.214  13.194 -0.3716 -0.4366 -0.6078
 1656SOL    HW116604   0.784   2.265  13.113  0.5661  2.4222  1.1455
 1656SOL    HW216605   0.882   2.218  13.202 -0.5457  4.4246 -0.8739
 1657SOL     OW16606   1.727   0.355   8.567 -0.4090 -0.9678 -0.1120
 1657SOL    HW116607   1.698   0.283   8.510 -1.4261  1.2490 -2.4111
 1657SOL    HW216608   1.808   0.380   8.522 -1.7483 -0.9627 -2.5468
 1658SOL     OW16609   1.323   1.951  13.534  0.1607 -0.3991 -0.2271
 1658SOL    HW116610   1.243   1.952  13.587  0.8498  0.4765  0.8053
 1658SOL    HW216611   1.343   1.858  13.532  0.6168 -0.3353  1.2531
 1659SOL     OW16612   1.548   1.855   0.962 -0.2221 -0.1097 -0.0389
 1659SOL    HW116613   1.459   1.835   0.931  0.2773 -1.6695 -0.4615
 1659SOL    HW216614   1.598   1.862   0.881  0.1332 -1.1440  0.0929
 1660SOL     OW16615   3.985   0.213   4.076  0.0985 -0.1281  0.5273
 1660SOL    HW116616   3.909   0.241   4.026  2.8038  2.8941 -1.8345
 1660SOL    HW216617   3.949   0.130   4.110  0.7529 -1.8073 -2.9010
 1661SOL     OW16618   2.527   1.521  11.702 -0.1290  0.0080  0.5889
 1661SOL    HW116619   2.593   1.536  11.635 -0.0612 -3.1217 -0.0430
 1661SOL    HW216620   2.471   1.457  11.659 -1.3366 -0.1017  2.3112
 1662SOL     OW16621   0.047   2.149   6.581 -0.0246 -0.2598 -0.1597
 1662SOL    HW116622   0.042   2.083   6.650  0.2493 -0.3588 -0.2356
 1662SOL    HW216623   0.100   2.213   6.629 -0.8514  1.1710 -1.1640
 1663SOL     OW16624   2.206   1.059   5.175 -0.1431  0.5911 -0.1807
 1663SOL    HW116625   2.133   1.100   5.128 -2.0805 -1.6841  0.8156
 1663SOL    HW216626   2.201   1.104   5.260 -0.1943  1.1621 -0.4877
 1664SOL     OW16627   2.135   0.522   1.025 -0.8849 -0.6091  0.2042
 1664SOL    HW116628   2.182   0.584   1.081 -0.3129 -1.7745  1.0151
 1664SOL    HW216629   2.154   0.554   0.937 -0.2620 -0.4107  0.4142
 1665SOL     OW16630   1.763   2.356  17.037  0.5956 -0.2060 -0.3431
 1665SOL    HW116631   1.827   2.409  17.085  1.2566 -0.5545 -0.8430
 1665SOL    HW216632   1.803   2.345  16.951 -0.0153  2.2099 -0.9170
 1666SOL     OW16633   4.026   3.777   9.483 -0.0480 -0.5885 -0.2852
 1666SOL    HW116634   3.957   3.832   9.521 -1.4937 -0.9778 -2.3797
 1666SOL    HW216635   4.036   3.710   9.551  0.7082  0.2825  0.4629
 1667SOL     OW16636   4.639   1.753  13.582  1.1013  0.4529  0.3628
 1667SOL    HW116637   4.558   1.760  13.532  1.1544  1.3655  0.4005
 1667SOL    HW216638   4.692   1.732  13.505  0.0101  0.6444 -0.4415
 1668SOL     OW16639   3.580   4.720   5.827  0.6031 -0.1495  0.0862
 1668SOL    HW116640   3.574   4.665   5.749 -1.6620  0.5157 -0.1998
 1668SOL    HW216641   3.496   0.027   5.826 -0.2478 -1.6935  2.8944
 1669SOL     OW16642   0.725   3.641   3.726  0.1499  0.4215 -0.7424
 1669SOL    HW116643   0.648   3.597   3.691 -1.4820  0.1770  3.0805
 1669SOL    HW216644   0.780   3.657   3.650  3.2948  0.0536  1.4774
 1670SOL     OW16645   0.826   0.107   9.436  0.5932  0.1730  0.1537
 1670SOL    HW116646   0.754   0.128   9.376 -0.2247 -0.9669  0.7619
 1670SOL    HW216647   0.892   0.114   9.367 -0.0613 -1.8454 -0.6552
 1671SOL     OW16648   2.484   3.269   6.818  0.3072 -0.4335  0.2093
 1671SOL    HW116649   2.470   3.280   6.724  0.6713 -0.7951  0.1140
 1671SOL    HW216650   2.570   3.310   6.834  0.5930 -1.0500  0.2319
 1672SOL     OW16651   2.867   0.773   4.299 -1.1936  0.2503  0.1685
 1672SOL    HW116652   2.846   0.719   4.222  0.3764  0.0565 -0.1177
 1672SOL    HW216653   2.824   0.858   4.287 -0.1406  0.6072 -1.0617
 1673SOL     OW16654   4.528   2.638   5.724  0.1214  0.5394  0.3463
 1673SOL    HW116655   4.598   2.602   5.668  0.2819  1.6030 -0.1272
 1673SOL    HW216656   4.574   2.714   5.759 -0.0497  0.3805  0.9218
 1674SOL     OW16657   1.311   4.012   4.550 -0.0488  0.0556 -0.3516
 1674SOL    HW116658   1.242   4.050   4.495  1.4219 -0.7328 -2.7642
 1674SOL    HW216659   1.276   3.925   4.565 -0.8935  0.5557  0.5452
 1675SOL     OW16660   1.984   0.297   2.945 -0.0451  0.5264  0.0576
 1675SOL    HW116661   2.061   0.323   2.895  0.3623 -0.6487  0.0792
 1675SOL    HW216662   1.992   0.348   3.025 -0.0465 -1.2959  1.2180
 1676SOL     OW16663   2.412   0.577   7.040  0.1437 -0.1306  0.1582
 1676SOL    HW116664   2.448   0.655   6.998  0.6326  0.0775  0.9573
 1676SOL    HW216665   2.490   0.546   7.086 -1.8406 -1.8822  2.3336
 1677SOL     OW16666   1.550   4.682   5.706 -0.2109  0.1244  0.2712
 1677SOL    HW116667   1.610   4.610   5.683 -1.0650 -0.3981 -0.3197
 1677SOL    HW216668   1.551   4.711   5.615 -1.5577 -0.5377  0.0438
 1678SOL     OW16669   1.394   0.753   3.519  0.0899 -0.4443  0.5296
 1678SOL    HW116670   1.372   0.807   3.595 -1.2293 -1.3273  0.7644
 1678SOL    HW216671   1.466   0.807   3.488  0.6163 -0.8646  1.0144
 1679SOL     OW16672   0.490   0.150   7.249  0.1394  0.0255  0.5443
 1679SOL    HW116673   0.488   0.054   7.245  0.2888  0.1299 -2.3931
 1679SOL    HW216674   0.496   0.159   7.344  2.0390  1.3567  0.3052
 1680SOL     OW16675   0.964   4.535  16.789 -0.0909  0.2481 -0.3708
 1680SOL    HW116676   0.897   4.467  16.773  0.6401 -0.1922 -1.6139
 1680SOL    HW216677   0.969   4.573  16.701 -0.5620  2.0289  0.3817
 1681SOL     OW16678   0.982   2.325   6.662  0.4684  0.4663  0.3745
 1681SOL    HW116679   0.950   2.276   6.586 -0.5505 -0.2252  1.2392
 1681SOL    HW216680   0.942   2.412   6.653  0.8105  0.2965 -2.8335
 1682SOL     OW16681   2.146   2.822   4.267 -0.2145  0.3164 -0.3743
 1682SOL    HW116682   2.170   2.863   4.183  0.4162  0.2562 -0.2232
 1682SOL    HW216683   2.176   2.882   4.335 -0.2576 -1.7056  1.3993
 1683SOL     OW16684   0.493   2.042   3.440  0.0764  0.3327  0.0332
 1683SOL    HW116685   0.500   2.086   3.525 -1.4873  0.0797  0.2951
 1683SOL    HW216686   0.518   2.108   3.375  0.2190  0.1274 -0.1210
 1684SOL     OW16687   0.776   1.456   9.202  0.1677 -0.1842 -0.3423
 1684SOL    HW116688   0.746   1.519   9.267  3.5419  0.1576  0.8641
 1684SOL    HW216689   0.745   1.382   9.255 -0.1576 -0.3289 -0.7293
 1685SOL     OW16690   4.734   1.278   8.115  0.1901  0.7733 -0.4649
 1685SOL    HW116691   0.022   1.198   8.160 -0.0591  1.3725  0.7234
 1685SOL    HW216692   4.653   1.242   8.081  0.6668  0.7237 -1.5683
 1686SOL     OW16693   1.932   3.693   2.312  0.1007 -0.1567 -0.1129
 1686SOL    HW116694   1.894   3.632   2.376  0.7275  0.4126  0.8043
 1686SOL    HW216695   1.996   3.636   2.270  0.5900  1.5758 -1.6869
 1687SOL     OW16696   2.830   4.666   4.017  0.0517 -0.3920 -0.2188
 1687SOL    HW116697   2.926   4.671   4.019 -0.0692  1.7278 -0.5151
 1687SOL    HW216698   2.824   4.571   4.029 -2.7328  0.0064  1.3970
 1688SOL     OW16699   2.761   3.725   7.023 -0.6631  0.1627  0.3900
 1688SOL    HW116700   2.694   3.775   6.976  0.7708  2.5266  0.8732
 1688SOL    HW216701   2.809   3.800   7.058 -1.6956  1.3130 -0.6328
 1689SOL     OW16702   4.349   3.679   2.602  0.4023 -0.2330 -0.0349
 1689SOL    HW116703   4.391   3.748   2.552 -1.0706  0.8806  0.2519
 1689SOL    HW216704   4.396   3.692   2.685 -1.1998  1.4018  0.6149
 1690SOL     OW16705   1.911   0.398  12.997  0.0600 -0.3332  0.0455
 1690SOL    HW116706   1.857   0.324  12.969  0.3379 -0.8112  0.7943
 1690SOL    HW216707   1.858   0.418  13.074  3.0806 -1.1458  2.3359
 1691SOL     OW16708   0.961   1.007   5.652 -0.4788 -0.3894 -0.7881
 1691SOL    HW116709   0.919   1.093   5.654  0.8013  0.2259 -0.1563
 1691SOL    HW216710   0.888   0.945   5.658 -1.6116  1.1636  1.4447
 1692SOL     OW16711   2.865   1.885  11.378  0.1121 -0.5691 -0.0536
 1692SOL    HW116712   2.813   1.815  11.338 -1.2229  0.2212  0.3076
 1692SOL    HW216713   2.950   1.860  11.341 -0.3669 -0.5334 -1.2046
 1693SOL     OW16714   2.819   0.109  13.381  0.0383 -0.2650  0.3579
 1693SOL    HW116715   2.911   0.083  13.386  0.2089 -0.0038 -1.5061
 1693SOL    HW216716   2.812   0.167  13.305 -1.5473 -2.1272 -0.9344
 1694SOL     OW16717   3.615   0.533  14.370  0.5464  0.1712 -0.1354
 1694SOL    HW116718   3.688   0.552  14.430  0.9280 -1.2170 -0.1508
 1694SOL    HW216719   3.645   0.584  14.295  0.4167  1.5071  0.7144
 1695SOL     OW16720   1.273   1.333   4.179 -0.0219 -0.1231  0.2276
 1695SOL    HW116721   1.327   1.275   4.233 -0.9174 -0.0749  1.1679
 1695SOL    HW216722   1.190   1.334   4.228 -0.6134 -1.2438 -0.7361
 1696SOL     OW16723   4.338   1.908  11.296  0.2476 -0.1277 -0.4789
 1696SOL    HW116724   4.354   1.814  11.306 -3.4240 -0.4689  2.1748
 1696SOL    HW216725   4.309   1.916  11.204  0.7396  0.5004 -0.5759
 1697SOL     OW16726   1.516   3.174   6.967 -0.6982  0.2103 -0.5890
 1697SOL    HW116727   1.586   3.239   6.979  0.1451 -0.5621 -1.3398
 1697SOL    HW216728   1.472   3.190   6.884  0.7720  2.1914 -0.9860
 1698SOL     OW16729   1.025   0.458  12.778  0.6147  0.2238  0.1881
 1698SOL    HW116730   1.016   0.405  12.699  2.6172  1.1466 -0.6742
 1698SOL    HW216731   0.933   0.482  12.788 -0.1718 -2.5476 -0.3845
 1699SOL     OW16732   4.524   2.142   4.463 -0.1789  0.2239 -0.1196
 1699SOL    HW116733   4.470   2.109   4.534 -0.5904  0.3858 -0.3567
 1699SOL    HW216734   4.514   2.076   4.395  0.1207  1.1973 -1.1074
 1700SOL     OW16735   0.997   0.456   3.598  0.2396 -0.1368  0.0403
 1700SOL    HW116736   0.930   0.519   3.624  1.4740  0.6979  1.1424
 1700SOL    HW216737   1.060   0.517   3.561  0.9082  0.4242  2.1481
 1701SOL     OW16738   2.038   0.269  10.571 -0.2655  0.1852 -0.0636
 1701SOL    HW116739   1.951   0.247  10.604  0.2370  0.2065  1.2706
 1701SOL    HW216740   2.093   0.242  10.645 -1.4585 -0.1907  0.6869
 1702SOL     OW16741   1.883   3.535   6.792  0.0191  0.3972 -0.4420
 1702SOL    HW116742   1.840   3.495   6.717 -0.3985  2.3280 -1.2464
 1702SOL    HW216743   1.957   3.581   6.753  2.9110 -3.1966  0.7974
 1703SOL     OW16744   1.258   0.315  11.173 -0.1895 -0.0121  0.0252
 1703SOL    HW116745   1.259   0.399  11.128  0.6265  0.2839  0.5853
 1703SOL    HW216746   1.188   0.324  11.238 -1.4773 -0.0117 -1.3735
 1704SOL     OW16747   4.517   2.292   1.391 -0.4840  0.4314  0.3183
 1704SOL    HW116748   4.536   2.370   1.444 -0.1395 -0.0610  0.9107
 1704SOL    HW216749   4.598   2.248   1.417 -0.3893 -0.1750 -1.0127
 1705SOL     OW16750   0.526   2.547   1.971 -0.2059  0.1030 -0.5112
 1705SOL    HW116751   0.515   2.634   1.931  1.9135 -0.0155 -1.3429
 1705SOL    HW216752   0.496   2.559   2.061 -2.3361 -1.0735 -1.0741
 1706SOL     OW16753   4.337   1.024   4.197 -0.0301  0.4598 -0.0814
 1706SOL    HW116754   4.330   0.950   4.136 -1.8284  0.3687  0.2165
 1706SOL    HW216755   4.427   1.011   4.228 -0.1851 -1.3570 -0.3700
 1707SOL     OW16756   0.845   3.840   3.519  0.0410  0.2689 -0.5108
 1707SOL    HW116757   0.753   3.864   3.521 -0.0364 -0.1416  1.0441
 1707SOL    HW216758   0.865   3.904   3.451 -2.1617 -1.1199 -2.4435
 1708SOL     OW16759   2.179   3.245   4.380  0.4899  0.6749  0.1204
 1708SOL    HW116760   2.209   3.165   4.423 -1.8246  0.8052  1.9403
 1708SOL    HW216761   2.155   3.217   4.292  1.0485  0.5611  0.0004
 1709SOL     OW16762   2.561   1.447   0.986  0.4957 -0.1307 -0.1039
 1709SOL    HW116763   2.488   1.454   1.047  0.2524  1.4234 -0.5606
 1709SOL    HW216764   2.572   1.353   0.977  0.8042 -0.1902  0.9423
 1710SOL     OW16765   0.236   3.774   2.976 -0.0823  0.3517  0.8129
 1710SOL    HW116766   0.184   3.854   2.963  1.0186  1.3404  2.4486
 1710SOL    HW216767   0.166   3.709   2.975  0.7654 -0.5185 -1.7828
 1711SOL     OW16768   1.535   1.609  12.889  0.2180  0.2500 -0.0364
 1711SOL    HW116769   1.453   1.559  12.891 -0.2440  0.9544 -1.1882
 1711SOL    HW216770   1.574   1.566  12.813 -0.7105 -1.9926  0.7608
 1712SOL     OW16771   1.031   3.513   1.562  0.2410  0.1512 -0.2267
 1712SOL    HW116772   1.074   3.465   1.491  2.0032 -0.8082  1.4997
 1712SOL    HW216773   1.098   3.580   1.577  0.7603 -0.2250 -0.8453
 1713SOL     OW16774   3.012   3.702   7.578  0.7143  0.0222 -0.4719
 1713SOL    HW116775   2.980   3.635   7.518 -0.7300 -1.4740  1.9642
 1713SOL    HW216776   2.952   3.698   7.653  2.1557  0.4427  0.7132
 1714SOL     OW16777   0.745   1.421   6.222  0.1936 -0.1007  0.1807
 1714SOL    HW116778   0.761   1.509   6.257  0.7146 -0.6199  1.2418
 1714SOL    HW216779   0.816   1.425   6.158  1.0460  1.5312  1.2379
 1715SOL     OW16780   2.876   1.173  12.417  0.5484 -0.6790  0.1830
 1715SOL    HW116781   2.785   1.180  12.388  0.0671  0.2055  1.9284
 1715SOL    HW216782   2.875   1.091  12.466  0.7631  0.2331  1.7216
 1716SOL     OW16783   3.261   0.545   1.992  0.0495 -0.3642  0.0086
 1716SOL    HW116784   3.307   0.611   1.941  0.6325 -0.3345  0.5748
 1716SOL    HW216785   3.290   0.464   1.949 -1.9392 -1.0314 -0.0937
 1717SOL     OW16786   2.154   1.296   1.524  0.2921 -0.2269 -0.0162
 1717SOL    HW116787   2.113   1.225   1.572 -1.6884  0.4405 -0.7299
 1717SOL    HW216788   2.230   1.249   1.488 -0.4732 -1.1780 -0.3936
 1718SOL     OW16789   2.551   3.670   3.203 -0.1935 -0.1193 -0.1579
 1718SOL    HW116790   2.487   3.741   3.199  1.8255  1.5953 -2.0518
 1718SOL    HW216791   2.630   3.701   3.159 -1.6066  0.9097 -1.9539
 1719SOL     OW16792   2.987   3.862   7.341 -0.0407 -0.3637  0.1113
 1719SOL    HW116793   3.000   3.781   7.291  0.5341 -0.4610  0.4266
 1719SOL    HW216794   3.035   3.835   7.419  1.9699 -1.3486 -1.4752
 1720SOL     OW16795   1.419   2.048   0.088 -0.9452 -0.2982  0.0057
 1720SOL    HW116796   1.473   2.099   0.028  0.4411 -2.1334 -0.2982
 1720SOL    HW216797   1.341   2.025   0.036 -0.7598 -0.9291  0.0078
 1721SOL     OW16798   4.273   0.415   6.128 -0.1231 -0.2879 -0.1552
 1721SOL    HW116799   4.322   0.369   6.059 -0.7136  0.4444 -1.0521
 1721SOL    HW216800   4.272   0.348   6.197  0.2447  0.4011  0.5085
 1722SOL     OW16801   4.523   3.953   3.796  0.1030  0.2945  0.3207
 1722SOL    HW116802   4.616   3.968   3.806  0.1854 -0.6006  0.8609
 1722SOL    HW216803   4.512   3.870   3.748 -1.7186 -0.7040  2.4698
 1723SOL     OW16804   0.079   1.624   5.047 -0.6676  0.4351 -0.1031
 1723SOL    HW116805   0.125   1.541   5.064  0.0822  0.9052  0.1800
 1723SOL    HW216806   0.005   1.614   5.106 -1.9425 -1.3044 -1.9656
 1724SOL     OW16807   2.130   4.727   1.909  0.7448  0.5213  0.0631
 1724SOL    HW116808   2.126   4.647   1.963 -2.2335  1.2169  0.8712
 1724SOL    HW216809   2.045   4.732   1.865  0.9718 -1.9419 -0.6589
 1725SOL     OW16810   2.869   4.646  16.379 -0.3453  0.6248  0.5802
 1725SOL    HW116811   2.940   4.701  16.346  0.0177 -0.5544 -0.6074
 1725SOL    HW216812   2.788   4.690  16.351 -0.9114 -0.4233  0.5406
 1726SOL     OW16813   4.129   2.659   9.384 -0.2132  0.1188  0.8015
 1726SOL    HW116814   4.096   2.745   9.410  0.0248  0.4086  0.1546
 1726SOL    HW216815   4.219   2.679   9.357  0.0282 -1.3392  0.4937
 1727SOL     OW16816   2.068   2.290  16.992 -0.0364  0.0586  0.4861
 1727SOL    HW116817   2.015   2.330  17.062 -2.7350 -0.1127 -1.4430
 1727SOL    HW216818   2.037   2.200  16.982  1.7016 -0.5937  1.0642
 1728SOL     OW16819   1.954   2.484  17.177 -0.1180 -0.0552  0.4705
 1728SOL    HW116820   1.937   2.578  17.181  0.3885 -0.0000  1.4001
 1728SOL    HW216821   1.977   2.466  17.268  1.7791 -3.4163 -0.6784
 1729SOL     OW16822   2.499   2.792   8.957 -0.1070 -0.0388  0.0750
 1729SOL    HW116823   2.584   2.786   8.913  0.8652  0.0621  1.9397
 1729SOL    HW216824   2.449   2.762   8.881 -0.4613  0.0862  0.2586
 1730SOL     OW16825   4.422   0.977   3.118  0.4209  0.0963 -0.0082
 1730SOL    HW116826   4.516   0.971   3.133  0.3215  0.1302  0.6207
 1730SOL    HW216827   4.391   1.034   3.188 -0.6238  1.6063 -1.6973
 1731SOL     OW16828   4.070   0.529  13.564 -0.3787  0.0216  0.1912
 1731SOL    HW116829   4.097   0.530  13.472 -1.6217 -0.2612 -0.1784
 1731SOL    HW216830   4.064   0.434  13.573 -2.8393 -0.0258 -1.9038
 1732SOL     OW16831   3.690   3.929   8.212 -0.2897  0.1404  0.7264
 1732SOL    HW116832   3.596   3.935   8.229 -0.1362  2.0258  0.8713
 1732SOL    HW216833   3.710   3.861   8.276 -0.4552  0.5686  1.2331
 1733SOL     OW16834   2.223   0.279   2.810  0.3404  0.1112  0.0639
 1733SOL    HW116835   2.303   0.254   2.763  0.1632 -0.2444 -0.0472
 1733SOL    HW216836   2.233   0.230   2.892 -0.6506  1.4819  1.0017
 1734SOL     OW16837   1.521   4.643   4.728 -0.0408 -0.0854 -0.0812
 1734SOL    HW116838   1.467   4.680   4.659  1.8923 -0.5624 -1.8534
 1734SOL    HW216839   1.580   4.581   4.684  0.7697  0.7409 -0.1514
 1735SOL     OW16840   2.563   4.400   2.979  0.1595  0.4059 -0.0552
 1735SOL    HW116841   2.556   4.354   3.063 -1.9751 -2.3354 -1.7118
 1735SOL    HW216842   2.622   4.341   2.931  0.2802  1.0043 -0.6414
 1736SOL     OW16843   0.816   3.072  16.749  0.5186  0.0803  0.0656
 1736SOL    HW116844   0.748   3.017  16.788 -1.0038  1.1146 -1.1209
 1736SOL    HW216845   0.773   3.152  16.778 -1.1137 -0.6349 -0.3745
 1737SOL     OW16846   1.739   4.624   6.357 -0.3806 -0.1063  0.2319
 1737SOL    HW116847   1.826   4.601   6.388 -0.3433  2.9720  2.5518
 1737SOL    HW216848   1.680   4.561   6.399 -1.7274  0.2131 -1.1778
 1738SOL     OW16849   3.426   4.041   8.325 -0.0380 -0.3172  0.2183
 1738SOL    HW116850   3.391   3.952   8.322  1.5627 -0.8823 -1.4032
 1738SOL    HW216851   3.395   4.078   8.242 -0.3112  0.7643  0.8010
 1739SOL     OW16852   2.656   1.082   1.600  0.0616 -0.3023  0.1243
 1739SOL    HW116853   2.709   1.154   1.632  1.0778 -0.4655 -1.1654
 1739SOL    HW216854   2.724   1.030   1.557 -0.7721  0.5194 -2.1889
 1740SOL     OW16855   2.107   0.524   3.933 -0.2438 -0.2047  0.1977
 1740SOL    HW116856   2.087   0.435   3.962  0.8720 -0.4734  0.1386
 1740SOL    HW216857   2.017   0.547   3.912 -0.4613  0.8391  2.2873
 1741SOL     OW16858   4.531   3.835   8.030  0.2055  0.5203 -0.8166
 1741SOL    HW116859   4.574   3.843   8.115 -0.2549 -1.0068 -0.4423
 1741SOL    HW216860   4.531   3.923   7.992  0.7510  1.2151  0.7925
 1742SOL     OW16861   3.739   3.306   8.209  0.5169  0.2306 -0.1186
 1742SOL    HW116862   3.649   3.276   8.201  0.9455 -0.9160 -0.6080
 1742SOL    HW216863   3.760   3.328   8.118  3.5135  1.2724  0.8029
 1743SOL     OW16864   2.510   1.768   3.103  0.2939  0.2907  0.1291
 1743SOL    HW116865   2.427   1.747   3.062  0.3062  1.7141 -0.6206
 1743SOL    HW216866   2.496   1.856   3.139  1.0817  0.4458  0.0691
 1744SOL     OW16867   1.969   0.744   3.081  0.3810 -0.0655 -0.3385
 1744SOL    HW116868   1.920   0.777   3.156  0.0855  0.4348 -0.7575
 1744SOL    HW216869   1.946   0.812   3.017 -3.6494  0.3525  1.5383
 1745SOL     OW16870   1.579   0.234   2.069  0.4931  0.2053 -0.4489
 1745SOL    HW116871   1.578   0.150   2.115  1.1645 -1.0719 -2.7623
 1745SOL    HW216872   1.493   0.226   2.028  0.4275  0.6629 -0.3989
 1746SOL     OW16873   3.365   0.903  16.277  0.2164 -0.1136  0.3640
 1746SOL    HW116874   3.356   0.983  16.225 -0.4724  0.0156  0.6692
 1746SOL    HW216875   3.388   0.837  16.212  0.8551  0.3219  0.1447
 1747SOL     OW16876   2.695   0.419   0.751  0.2806 -0.3851  1.1082
 1747SOL    HW116877   2.697   0.512   0.775  0.4658  0.1577 -1.0095
 1747SOL    HW216878   2.784   0.416   0.715 -0.5926 -0.8084 -1.0125
 1748SOL     OW16879   0.291   2.942   7.114  0.4388 -0.2266  0.4476
 1748SOL    HW116880   0.366   2.884   7.125 -0.4283 -1.4427 -0.0491
 1748SOL    HW216881   0.232   2.882   7.068 -0.1958  1.1112 -0.4708
 1749SOL     OW16882   1.820   4.451   6.866 -0.7653  0.7126 -0.5918
 1749SOL    HW116883   1.806   4.410   6.781 -1.9394 -2.2116  1.0312
 1749SOL    HW216884   1.849   4.384   6.928 -0.7836 -0.0080 -1.3603
 1750SOL     OW16885   1.011   3.337   2.026  0.2931  0.6454  0.1281
 1750SOL    HW116886   1.105   3.340   2.007 -0.4100  1.6941 -3.2754
 1750SOL    HW216887   0.973   3.324   1.939  0.6952 -2.4505  0.4133
 1751SOL     OW16888   2.323   0.655   7.596 -0.2005  0.2412  0.3280
 1751SOL    HW116889   2.373   0.638   7.675 -0.0793 -3.7056 -0.5955
 1751SOL    HW216890   2.237   0.655   7.637  0.7053 -1.6156  2.2303
 1752SOL     OW16891   3.052   2.130   2.101 -0.1982 -0.2927 -0.1472
 1752SOL    HW116892   3.108   2.206   2.081  0.5270 -0.6772  0.4333
 1752SOL    HW216893   3.035   2.089   2.016 -2.2918  2.3483 -1.0172
 1753SOL     OW16894   4.169   4.546   5.794 -0.2941 -0.2388  0.1920
 1753SOL    HW116895   4.102   4.480   5.809  1.7259 -1.8499  2.1033
 1753SOL    HW216896   4.116   4.616   5.756  1.2076 -1.1997 -3.6984
 1754SOL     OW16897   1.387   1.282   1.430 -0.4228 -0.6344 -0.1495
 1754SOL    HW116898   1.305   1.238   1.454  0.3290 -0.8631  1.9869
 1754SOL    HW216899   1.451   1.222   1.470  0.3605  0.6104  0.4419
 1755SOL     OW16900   4.442   1.421  12.414  0.0013 -0.2807  0.2846
 1755SOL    HW116901   4.414   1.487  12.352  2.8754 -0.7735 -1.5569
 1755SOL    HW216902   4.384   1.433  12.489  1.9507 -1.1876  1.9681
 1756SOL     OW16903   2.997   1.139   7.851  0.4253 -0.4082  0.2059
 1756SOL    HW116904   3.072   1.108   7.799 -0.0283  3.0992 -2.5387
 1756SOL    HW216905   3.041   1.148   7.936 -0.7349 -2.6551  1.0294
 1757SOL     OW16906   3.213   1.914   6.737 -0.8901 -0.3742  0.0959
 1757SOL    HW116907   3.283   1.951   6.790 -0.0454  0.2292 -1.4611
 1757SOL    HW216908   3.189   1.835   6.787 -0.3733 -1.2688 -1.0694
 1758SOL     OW16909   2.801   0.726   5.041 -0.5710  0.5599 -0.1378
 1758SOL    HW116910   2.776   0.676   5.119  0.9970  0.2720  0.1680
 1758SOL    HW216911   2.806   0.812   5.082  2.9380  0.3137 -0.0672
 1759SOL     OW16912   0.107   3.341   9.889 -0.0828 -0.0749 -0.1573
 1759SOL    HW116913   0.179   3.316   9.947  0.8975  1.3581 -0.7650
 1759SOL    HW216914   0.069   3.406   9.948 -2.3886 -0.8692 -0.7466
 1760SOL     OW16915   3.800   1.155   3.100 -0.0265 -0.1861  0.0611
 1760SOL    HW116916   3.816   1.136   3.007  0.8253 -0.6084  0.2967
 1760SOL    HW216917   3.720   1.207   3.093  0.7220  1.0586  0.7648
 1761SOL     OW16918   1.039   1.289   8.952 -0.0748  0.3220  0.8458
 1761SOL    HW116919   1.124   1.284   8.996  0.3688 -0.2465 -0.0579
 1761SOL    HW216920   1.050   1.343   8.873  0.3056  2.4081  2.3444
 1762SOL     OW16921   3.170   2.688  14.306 -0.3686 -0.1871 -0.0430
 1762SOL    HW116922   3.170   2.594  14.287  0.7590  0.0327 -1.1137
 1762SOL    HW216923   3.236   2.689  14.375 -1.1489 -1.1779  0.7169
 1763SOL     OW16924   3.063   2.799   4.963 -0.1647  0.6352 -0.1214
 1763SOL    HW116925   3.068   2.865   5.033  1.4484 -1.0871  1.3808
 1763SOL    HW216926   3.142   2.754   4.991 -0.7712  0.8744  1.9772
 1764SOL     OW16927   2.299   0.396  14.461 -0.1475 -0.2326 -0.8149
 1764SOL    HW116928   2.218   0.441  14.483 -0.8510 -1.5528 -0.7118
 1764SOL    HW216929   2.273   0.349  14.382 -0.0531 -3.1630  0.8963
 1765SOL     OW16930   2.857   1.176   8.519 -0.0085 -0.2626 -0.2233
 1765SOL    HW116931   2.767   1.191   8.492  0.8733  0.9712 -2.4448
 1765SOL    HW216932   2.844   1.093   8.566  1.1867 -0.4185 -0.1754
 1766SOL     OW16933   1.131   2.200   8.807 -0.4633  0.4510  0.0834
 1766SOL    HW116934   1.082   2.121   8.789  0.7648 -0.7444  2.0051
 1766SOL    HW216935   1.222   2.175   8.791 -0.1748  2.8366 -2.0370
 1767SOL     OW16936   1.517   0.121  12.491  0.2753  0.4120 -0.1137
 1767SOL    HW116937   1.556   0.111  12.404 -1.6791  0.6686 -1.0095
 1767SOL    HW216938   1.599   0.125  12.540  0.5279 -0.1811 -0.4929
 1768SOL     OW16939   0.190   3.802   9.142 -0.6545 -0.0999 -0.0838
 1768SOL    HW116940   0.189   3.718   9.189  0.2189 -0.2431 -0.3183
 1768SOL    HW216941   0.129   3.774   9.073  1.3305 -0.1398 -1.8331
 1769SOL     OW16942   0.653   3.486   5.308 -1.0182 -0.2204 -0.0352
 1769SOL    HW116943   0.585   3.463   5.244  0.0261 -2.9013 -0.1705
 1769SOL    HW216944   0.711   3.527   5.245 -1.9671  1.5408  0.2398
 1770SOL     OW16945   1.432   1.074  16.369 -0.2124 -0.4617 -0.0232
 1770SOL    HW116946   1.408   1.158  16.329 -3.1522 -1.1856  0.2277
 1770SOL    HW216947   1.373   1.070  16.444 -1.5914 -1.1392 -1.1523
 1771SOL     OW16948   2.910   3.742   7.923  0.1747  0.4150  0.2384
 1771SOL    HW116949   2.856   3.674   7.964  0.8490 -0.2633  0.0085
 1771SOL    HW216950   2.850   3.794   7.869 -0.5685 -0.2160  0.4425
 1772SOL     OW16951   4.018   1.090   3.967  0.3183 -0.2335 -0.5538
 1772SOL    HW116952   4.079   1.093   3.894 -1.1341 -0.6526 -1.7833
 1772SOL    HW216953   4.010   0.994   3.974 -2.9288  0.0435 -0.3724
 1773SOL     OW16954   3.433   0.501   7.659 -0.1307  0.0825 -0.5519
 1773SOL    HW116955   3.457   0.578   7.609 -1.4834 -0.0106 -1.3388
 1773SOL    HW216956   3.385   0.546   7.728  1.8445  1.2421  0.0659
 1774SOL     OW16957   2.839   2.112   4.648  0.1238  0.0321 -0.5555
 1774SOL    HW116958   2.913   2.171   4.634  0.7181 -0.8030 -0.9832
 1774SOL    HW216959   2.769   2.169   4.617 -0.6441 -0.7568 -0.2732
 1775SOL     OW16960   0.713   0.578  16.492  0.1107 -0.0985  0.3088
 1775SOL    HW116961   0.681   0.523  16.563  0.5584  0.4971  0.9707
 1775SOL    HW216962   0.807   0.565  16.498 -0.1352 -1.7119  0.6795
 1776SOL     OW16963   0.408   2.658  16.520 -0.2274  0.3191  0.3031
 1776SOL    HW116964   0.455   2.583  16.485  0.7434  1.3799 -0.6910
 1776SOL    HW216965   0.319   2.628  16.539 -0.3343 -0.8142 -2.1096
 1777SOL     OW16966   4.063   0.774   1.024  0.4506 -0.4573 -0.2832
 1777SOL    HW116967   4.016   0.844   1.069  0.8418 -1.3399  1.4842
 1777SOL    HW216968   4.030   0.783   0.934 -0.2423  1.7811  0.2075
 1778SOL     OW16969   2.242   3.857  12.462 -0.3837  0.1051  0.0727
 1778SOL    HW116970   2.297   3.780  12.475 -1.3008 -0.7214 -0.9040
 1778SOL    HW216971   2.157   3.821  12.485  1.3023 -2.4142  2.2581
 1779SOL     OW16972   0.926   3.708  12.778  0.2445 -0.2377 -0.0294
 1779SOL    HW116973   0.986   3.744  12.843 -0.3968  1.5574 -0.4320
 1779SOL    HW216974   0.963   3.744  12.697  0.4846  0.1498  0.2537
 1780SOL     OW16975   0.266   2.881   2.819  0.4668 -0.0750  0.0396
 1780SOL    HW116976   0.287   2.921   2.903 -0.7861  1.7477 -0.5258
 1780SOL    HW216977   0.339   2.911   2.764  0.2388 -0.5135 -0.5037
 1781SOL     OW16978   3.060   1.851  14.095 -0.4291  0.1395  0.1412
 1781SOL    HW116979   3.075   1.792  14.020 -0.3770 -1.1272  1.1504
 1781SOL    HW216980   3.112   1.799  14.156 -0.6641  0.6724  0.7818
 1782SOL     OW16981   3.019   1.191   8.293 -0.3394 -0.4804 -0.1524
 1782SOL    HW116982   3.057   1.274   8.321 -1.1369 -0.0711 -0.2906
 1782SOL    HW216983   2.967   1.180   8.372 -3.0454  0.2141 -1.8272
 1783SOL     OW16984   3.506   2.546  16.996 -0.3302  0.1893  0.0594
 1783SOL    HW116985   3.456   2.594  16.930 -3.3458 -1.0584  1.4386
 1783SOL    HW216986   3.596   2.553  16.964 -0.3379  1.1023  0.2362
 1784SOL     OW16987   3.703   0.133   7.465 -0.0945  0.4123  0.3209
 1784SOL    HW116988   3.769   0.165   7.403 -0.4123  1.7040  0.6437
 1784SOL    HW216989   3.634   0.194   7.441 -0.3112  0.0604  0.0493
 1785SOL     OW16990   2.470   4.525   0.682  0.1141  0.4333 -0.7983
 1785SOL    HW116991   2.381   4.521   0.646 -0.8259  1.2861  1.4184
 1785SOL    HW216992   2.503   4.600   0.632 -0.9325  2.7745  2.0378
 1786SOL     OW16993   3.839   0.639  14.892  0.1251  0.0941  0.1183
 1786SOL    HW116994   3.872   0.673  14.975 -0.8645 -1.3910  1.1098
 1786SOL    HW216995   3.893   0.689  14.830 -0.5656  1.2438  0.4381
 1787SOL     OW16996   3.868   1.420   7.626 -0.3513  0.0843 -0.2102
 1787SOL    HW116997   3.850   1.436   7.718  0.1287 -0.9782  0.0674
 1787SOL    HW216998   3.838   1.498   7.579 -1.5790 -0.7500 -0.8135
 1788SOL     OW16999   3.262   3.976  11.670 -0.0113  0.2823  0.6701
 1788SOL    HW117000   3.315   3.915  11.722  2.1208  1.3713 -0.2376
 1788SOL    HW217001   3.329   4.043  11.654 -0.8033  0.4827 -1.7260
 1789SOL     OW17002   3.551   3.753   5.689 -0.3179 -0.3253  0.0839
 1789SOL    HW117003   3.587   3.713   5.768  0.2704  0.7349  0.3622
 1789SOL    HW217004   3.462   3.779   5.712 -0.1544 -2.2452  2.8490
 1790SOL     OW17005   4.565   0.415   1.725 -0.1501 -0.2994 -0.1943
 1790SOL    HW117006   4.606   0.368   1.652 -1.0585 -0.2867 -0.7099
 1790SOL    HW217007   4.524   0.485   1.674  1.9147  0.6356 -0.5775
 1791SOL     OW17008   1.105   3.340  16.735 -0.0917 -0.0649  0.0631
 1791SOL    HW117009   1.019   3.298  16.725 -0.5522  1.0197 -0.3990
 1791SOL    HW217010   1.081   3.431  16.750 -2.9639 -1.1394  1.9398
 1792SOL     OW17011   3.516   4.254   7.721  0.0059  0.2332  0.0588
 1792SOL    HW117012   3.578   4.325   7.705  0.2376 -0.2537 -1.1451
 1792SOL    HW217013   3.570   4.186   7.681  0.8691  2.0337 -1.8341
 1793SOL     OW17014   1.791   0.983  12.675 -0.7564 -0.0388 -0.3270
 1793SOL    HW117015   1.833   1.069  12.679  0.7363 -0.7596 -0.4855
 1793SOL    HW217016   1.864   0.923  12.661 -1.1254 -0.4094 -0.6357
 1794SOL     OW17017   4.354   1.816   8.965 -0.6460  0.0462  0.0413
 1794SOL    HW117018   4.328   1.755   8.896  2.5940 -1.1965 -0.0881
 1794SOL    HW217019   4.283   1.879   8.967 -2.8047 -2.3947  1.2793
 1795SOL     OW17020   2.597   1.890  17.182 -0.0600  0.2868  0.0952
 1795SOL    HW117021   2.519   1.932  17.219  0.4108  1.4329 -0.2308
 1795SOL    HW217022   2.647   1.963  17.148  0.1983  0.8950  1.7705
 1796SOL     OW17023   2.781   2.089  15.460  0.1690  0.3368  0.0375
 1796SOL    HW117024   2.827   2.105  15.377 -0.1820  0.2317 -0.1809
 1796SOL    HW217025   2.730   2.170  15.459 -0.5330 -0.0923  1.0615
 1797SOL     OW17026   3.233   3.462   6.419  0.1778 -0.6576 -0.0309
 1797SOL    HW117027   3.151   3.441   6.465  0.4710  0.7976  1.1461
 1797SOL    HW217028   3.294   3.399   6.456  0.9646  0.9076  1.3250
 1798SOL     OW17029   1.731   1.996   4.484 -0.6214 -0.0389 -0.4333
 1798SOL    HW117030   1.755   1.928   4.421 -2.7410 -0.4819 -0.7653
 1798SOL    HW217031   1.639   2.012   4.462 -0.7702 -0.4484 -0.1096
 1799SOL     OW17032   3.379   2.600   6.968 -0.1204 -0.1533  0.1392
 1799SOL    HW117033   3.434   2.663   7.013  2.4749 -3.0812  1.0659
 1799SOL    HW217034   3.425   2.517   6.984 -0.1648  0.0328  1.2235
 1800SOL     OW17035   4.104   3.875  11.149  0.3403 -0.0451  0.5654
 1800SOL    HW117036   4.045   3.928  11.096 -0.0046  0.1666  1.1707
 1800SOL    HW217037   4.176   3.936  11.137  1.0071 -0.4778  2.4564
 1801SOL     OW17038   1.184   3.074  17.687  0.1267  0.6253  0.3333
 1801SOL    HW117039   1.142   3.009  17.744  1.8683 -0.5155  0.3105
 1801SOL    HW217040   1.209   3.031  17.606  3.3700  1.5904  0.8020
 1802SOL     OW17041   3.921   1.771  12.704  0.2494  0.3194 -0.0092
 1802SOL    HW117042   3.883   1.775  12.617  0.8453  0.2080 -0.2779
 1802SOL    HW217043   3.866   1.832  12.753  0.4712 -0.7806  1.6251
 1803SOL     OW17044   0.617   2.269   5.723 -0.5731 -0.8182 -0.1283
 1803SOL    HW117045   0.612   2.312   5.809 -1.3953 -0.6919 -0.2429
 1803SOL    HW217046   0.602   2.344   5.666  1.7099  0.5187  0.9958
 1804SOL     OW17047   2.717   0.692  17.509 -0.0254 -0.2330  0.1701
 1804SOL    HW117048   2.798   0.721  17.466  0.6121 -0.8474  0.9605
 1804SOL    HW217049   2.653   0.716  17.442 -1.1975  1.7606  2.0326
 1805SOL     OW17050   0.523   0.396  12.579 -0.2471 -0.3541 -0.7973
 1805SOL    HW117051   0.497   0.456  12.509  0.1700 -1.0902 -1.5939
 1805SOL    HW217052   0.434   0.378  12.609 -0.0900 -0.1234 -0.2110
 1806SOL     OW17053   0.322   0.965   2.366  0.3314  0.2199 -0.6158
 1806SOL    HW117054   0.334   1.050   2.408  0.9613  0.7066 -1.7993
 1806SOL    HW217055   0.228   0.953   2.356  0.2454  0.3009  0.0690
 1807SOL     OW17056   1.329   2.047  11.323 -0.5024 -0.1553 -0.6228
 1807SOL    HW117057   1.371   2.132  11.332 -2.3546  0.8014 -1.0712
 1807SOL    HW217058   1.272   2.060  11.247 -2.8492 -0.6871  1.0374
 1808SOL     OW17059   0.908   0.806   1.050 -0.3117  0.1357  0.5028
 1808SOL    HW117060   0.907   0.800   1.145  0.2271  0.0415  0.5016
 1808SOL    HW217061   0.820   0.841   1.035 -1.1554 -2.6748 -1.2820
 1809SOL     OW17062   3.817   3.901   7.712 -0.0264  0.1094  0.3215
 1809SOL    HW117063   3.810   3.868   7.802  0.5837 -0.3809  0.1925
 1809SOL    HW217064   3.910   3.887   7.692  0.4182  1.6123  1.3174
 1810SOL     OW17065   2.088   1.820   7.404  0.3598 -0.6238 -0.1557
 1810SOL    HW117066   2.102   1.915   7.395  1.2657 -0.8235 -0.8442
 1810SOL    HW217067   2.168   1.775   7.377  0.7185  0.5316 -1.0397
 1811SOL     OW17068   0.776   2.321   2.087  0.1795  0.0257  0.0292
 1811SOL    HW117069   0.736   2.395   2.132  1.0070 -1.6272  3.4695
 1811SOL    HW217070   0.696   2.296   2.041  0.6186  0.3087 -0.8840
 1812SOL     OW17071   0.551   0.787   6.560  0.2454 -0.1837  0.4857
 1812SOL    HW117072   0.625   0.840   6.591 -0.7779  0.9670  0.9603
 1812SOL    HW217073   0.600   0.704   6.554 -0.2635 -0.3166 -1.6789
 1813SOL     OW17074   3.094   0.690   5.456 -0.0323  0.2381  0.0989
 1813SOL    HW117075   3.017   0.633   5.454  2.0530 -2.5347 -1.5249
 1813SOL    HW217076   3.151   0.640   5.514  0.6469  0.9725  0.0670
 1814SOL     OW17077   3.194   2.777   8.391  0.2164 -0.3463  1.0915
 1814SOL    HW117078   3.149   2.695   8.373  1.3240 -0.5634 -0.6986
 1814SOL    HW217079   3.133   2.805   8.459 -1.8315  0.8477 -1.2193
 1815SOL     OW17080   1.130   0.122   9.539 -0.1825  0.0927  0.0858
 1815SOL    HW117081   1.119   0.110   9.445  0.0350 -2.3347  0.3618
 1815SOL    HW217082   1.127   0.214   9.565 -1.2809  0.8418 -2.7635
 1816SOL     OW17083   1.966   1.975   9.251  0.1311 -0.4184 -0.8256
 1816SOL    HW117084   1.906   1.926   9.307 -1.4625  2.6421  0.1706
 1816SOL    HW217085   1.915   1.981   9.170 -1.4125 -1.6698  0.0579
 1817SOL     OW17086   2.267   2.015   7.996 -0.0680  0.2094  0.3374
 1817SOL    HW117087   2.324   2.078   7.952  1.3957 -2.3516 -1.3862
 1817SOL    HW217088   2.338   1.979   8.050  1.2473  0.4600 -1.2502
 1818SOL     OW17089   4.335   4.217   5.521  0.1925  0.3684 -0.0397
 1818SOL    HW117090   4.409   4.156   5.523 -1.7533 -2.0875 -1.3062
 1818SOL    HW217091   4.338   4.259   5.606 -0.9069 -1.0789  0.7168
 1819SOL     OW17092   1.575   3.624  12.596  0.2415 -0.3630 -0.0136
 1819SOL    HW117093   1.650   3.667  12.636 -1.2977  0.4666  2.0044
 1819SOL    HW217094   1.521   3.692  12.556  1.2678  0.4073 -0.0765
 1820SOL     OW17095   3.663   2.408   1.231  0.1689  0.1970 -0.1162
 1820SOL    HW117096   3.742   2.354   1.225 -0.5678 -0.6578 -2.3328
 1820SOL    HW217097   3.603   2.349   1.186 -0.9041 -0.0168  1.6319
 1821SOL     OW17098   3.080   1.538   8.212 -0.8115 -0.2970 -0.4891
 1821SOL    HW117099   2.999   1.585   8.233 -0.1437  0.7020 -0.1596
 1821SOL    HW217100   3.111   1.529   8.302 -0.3437 -1.6494 -0.7720
 1822SOL     OW17101   4.442   0.115   0.392 -0.7521  0.0009 -0.8741
 1822SOL    HW117102   4.460   0.084   0.304 -1.1736 -0.6484 -0.7309
 1822SOL    HW217103   4.350   0.088   0.396 -0.6141 -0.3804 -0.2466
 1823SOL     OW17104   2.313   2.388   5.593 -0.1447  0.1001 -0.2295
 1823SOL    HW117105   2.391   2.343   5.560  0.2278  0.6309 -0.0854
 1823SOL    HW217106   2.331   2.376   5.686 -2.7533 -3.0981 -0.1495
 1824SOL     OW17107   0.425   4.031   4.024  0.1305  0.2242 -0.0210
 1824SOL    HW117108   0.444   3.960   3.963 -1.0903  0.1292 -0.2867
 1824SOL    HW217109   0.487   4.011   4.094  0.7793 -0.1634 -0.7120
 1825SOL     OW17110   4.430   0.659  12.553 -0.3347  0.3782 -0.7892
 1825SOL    HW117111   4.509   0.696  12.593  0.4164 -2.6968  0.6629
 1825SOL    HW217112   4.422   0.577  12.602 -0.4204 -0.6591 -2.5573
 1826SOL     OW17113   1.546   0.978   9.665 -0.1826  0.1653  0.0006
 1826SOL    HW117114   1.512   1.022   9.742 -0.0293 -0.9764  0.7193
 1826SOL    HW217115   1.581   1.050   9.612 -2.2097 -0.3411 -2.0365
 1827SOL     OW17116   1.232   0.080   5.522  0.6742  0.1520  0.2798
 1827SOL    HW117117   1.286   0.134   5.464  1.6083  2.2506  3.0802
 1827SOL    HW217118   1.185   0.159   5.548  0.2063  0.0057 -0.1224
 1828SOL     OW17119   4.723   2.638   3.145  0.3391 -0.6142  0.2020
 1828SOL    HW117120   0.007   2.717   3.193 -0.9825  1.0374 -1.8862
 1828SOL    HW217121   4.650   2.607   3.199 -0.4502  2.1301  0.6929
 1829SOL     OW17122   0.636   3.099   6.513 -0.1844 -0.5632 -0.0340
 1829SOL    HW117123   0.632   3.070   6.421  0.4875  0.9658 -0.5507
 1829SOL    HW217124   0.672   3.187   6.499  1.8161 -1.7675 -2.6590
 1830SOL     OW17125   3.307   1.390   5.729  1.1722  0.4927  0.4798
 1830SOL    HW117126   3.350   1.440   5.658  0.0440 -1.9793 -1.9364
 1830SOL    HW217127   3.298   1.306   5.685 -2.1432  0.6102  0.9874
 1831SOL     OW17128   4.298   3.010   6.360  0.2960  0.2378  0.1182
 1831SOL    HW117129   4.229   3.062   6.402  1.2039 -0.0211  1.9315
 1831SOL    HW217130   4.382   3.037   6.397  0.1125 -0.3471  0.9548
 1832SOL     OW17131   0.953   2.888   8.695 -0.2307  0.7578  0.2775
 1832SOL    HW117132   0.910   2.910   8.613  0.8551  0.2181 -0.4372
 1832SOL    HW217133   1.026   2.950   8.684  0.2797  0.1939  0.4497
 1833SOL     OW17134   4.562   4.729  15.805 -0.2404 -0.5462 -0.6208
 1833SOL    HW117135   4.477   4.714  15.848 -0.5365  0.0406 -1.0017
 1833SOL    HW217136   4.543   0.084  15.805 -1.0836 -0.7186  0.3635
 1834SOL     OW17137   4.265   2.669  14.656 -0.4127 -0.5971  0.0119
 1834SOL    HW117138   4.246   2.757  14.626  3.4031 -0.3913 -1.8387
 1834SOL    HW217139   4.357   2.662  14.628 -0.5406 -0.4521 -0.4398
 1835SOL     OW17140   1.357   2.386   2.437 -0.1516  0.4061  0.1394
 1835SOL    HW117141   1.353   2.292   2.420 -1.2388  0.1792  1.6083
 1835SOL    HW217142   1.328   2.389   2.528 -2.1385  0.5623 -0.4931
 1836SOL     OW17143   4.474   2.126  10.166 -0.8976  0.2862  0.4860
 1836SOL    HW117144   4.545   2.190  10.167  0.3316 -1.0371 -1.1083
 1836SOL    HW217145   4.396   2.179  10.181 -2.9146 -2.1641 -1.1783
 1837SOL     OW17146   4.573   2.531  11.399  0.0256  0.3028 -0.6884
 1837SOL    HW117147   4.639   2.462  11.402 -1.6554 -1.2647 -0.0862
 1837SOL    HW217148   4.500   2.480  11.365 -0.0629  0.2091 -0.3601
 1838SOL     OW17149   4.380   2.268   5.226  0.0074  0.1835  0.0061
 1838SOL    HW117150   4.326   2.190   5.236 -0.0903  0.3874  1.0669
 1838SOL    HW217151   4.355   2.298   5.138 -0.3615  0.0794  0.0772
 1839SOL     OW17152   2.724   3.665   9.772  0.7231  0.3028 -0.2625
 1839SOL    HW117153   2.816   3.664   9.743  1.4386 -0.6972  2.0466
 1839SOL    HW217154   2.722   3.610   9.850 -2.1358  1.3076  0.3541
 1840SOL     OW17155   4.118   2.733   3.497 -0.2424 -0.1144  0.0983
 1840SOL    HW117156   4.203   2.756   3.534 -0.2216 -0.0613  0.0182
 1840SOL    HW217157   4.083   2.694   3.577  0.3232 -5.0416 -2.0871
 1841SOL     OW17158   1.650   1.254   5.030 -0.4586  0.1127 -0.3042
 1841SOL    HW117159   1.614   1.290   5.111 -0.7187  1.6733 -1.1041
 1841SOL    HW217160   1.578   1.205   4.992  0.0829 -0.2345 -0.8787
 1842SOL     OW17161   2.983   0.199  13.748  0.4172 -0.3965  0.0650
 1842SOL    HW117162   2.997   0.104  13.742 -0.1727 -0.4442 -0.5455
 1842SOL    HW217163   3.073   0.228  13.736  0.7166 -1.4080 -0.1415
 1843SOL     OW17164   0.218   3.208   6.598  0.5247 -0.3598  0.5196
 1843SOL    HW117165   0.127   3.238   6.603  0.6753  0.4309 -1.7382
 1843SOL    HW217166   0.213   3.118   6.631 -1.6320  0.6229  2.9146
 1844SOL     OW17167   3.922   0.794  12.454  0.1762  0.1212 -0.7640
 1844SOL    HW117168   3.907   0.699  12.451 -0.1155  0.2580 -3.0066
 1844SOL    HW217169   4.017   0.799  12.454  0.3049 -2.1419  0.7843
 1845SOL     OW17170   3.626   0.487   8.704 -0.0078  0.1922  0.9287
 1845SOL    HW117171   3.678   0.522   8.632 -0.0526  1.5242  1.5434
 1845SOL    HW217172   3.696   0.474   8.769  0.7404 -0.2333  0.0357
 1846SOL     OW17173   3.242   4.140  10.623  0.0765  0.6254 -0.0975
 1846SOL    HW117174   3.163   4.194  10.627 -0.5112 -0.2613  0.1646
 1846SOL    HW217175   3.214   4.067  10.569  1.4120 -0.4536  0.6530
 1847SOL     OW17176   0.518   0.725   5.357 -0.1929 -0.0801 -0.3215
 1847SOL    HW117177   0.570   0.645   5.349  1.8486  1.3922 -1.7620
 1847SOL    HW217178   0.546   0.785   5.288  0.7461 -0.9410 -0.6725
 1848SOL     OW17179   3.797   0.137   2.375 -0.1656  0.2078 -0.0646
 1848SOL    HW117180   3.876   0.167   2.421 -0.1764  0.9168 -0.5205
 1848SOL    HW217181   3.830   0.063   2.324  0.3889 -0.0054  0.6011
 1849SOL     OW17182   3.363   2.935   3.512 -0.3877  0.1754 -1.0837
 1849SOL    HW117183   3.342   2.935   3.418  0.3976 -1.4580 -1.2636
 1849SOL    HW217184   3.458   2.947   3.514 -0.3447 -0.3822 -0.0486
 1850SOL     OW17185   3.797   4.100  10.635  0.3521 -0.0529 -0.2765
 1850SOL    HW117186   3.888   4.089  10.662  0.6023  0.1361 -1.0404
 1850SOL    HW217187   3.816   4.146  10.553 -2.0649  1.6471  0.1125
 1851SOL     OW17188   4.088   1.584  11.934 -0.3392  0.1273  0.2176
 1851SOL    HW117189   4.055   1.534  11.859  0.0744 -0.3539  0.3565
 1851SOL    HW217190   4.099   1.674  11.900 -0.8060  0.2871  0.4963
 1852SOL     OW17191   0.273   2.536  14.295  0.4729 -0.0368  0.0013
 1852SOL    HW117192   0.241   2.476  14.362  1.2101  0.0534  0.4288
 1852SOL    HW217193   0.363   2.557  14.321  0.3914  0.8344 -0.4065
 1853SOL     OW17194   1.759   3.920  17.470 -0.1794 -0.0055  0.6089
 1853SOL    HW117195   1.739   3.955  17.383  0.9283 -0.3019  0.2255
 1853SOL    HW217196   1.761   3.828  17.444  0.1984 -0.1621  1.1740
 1854SOL     OW17197   2.285   1.924   1.944 -0.5108 -0.2624  0.3790
 1854SOL    HW117198   2.263   1.995   1.883 -0.2777  0.4531  1.1295
 1854SOL    HW217199   2.280   1.851   1.883  1.3942 -0.3913  0.3936
 1855SOL     OW17200   0.456   4.652   8.480 -0.2392  0.4297  0.4305
 1855SOL    HW117201   0.368   4.627   8.452 -0.0315 -0.2085  0.3529
 1855SOL    HW217202   0.460   4.625   8.572 -3.0259 -0.3301  0.3241
 1856SOL     OW17203   2.719   4.079  16.589  0.4810 -0.6230  0.1066
 1856SOL    HW117204   2.627   4.067  16.612  0.0717  0.8574 -0.7468
 1856SOL    HW217205   2.770   4.105  16.666  0.7651  0.1134 -0.3296
 1857SOL     OW17206   0.052   1.999  13.185 -0.1682 -0.0119  0.6123
 1857SOL    HW117207   4.714   2.013  13.240 -0.2239 -0.7825  0.7254
 1857SOL    HW217208   0.033   1.918  13.138  0.3949 -1.0693  2.1991
 1858SOL     OW17209   3.740   4.176   8.035  0.5919 -0.5683 -0.6522
 1858SOL    HW117210   3.752   4.155   7.942 -1.7450  1.3676 -1.3906
 1858SOL    HW217211   3.778   4.102   8.081 -1.0624  0.1323  1.8332
 1859SOL     OW17212   2.268   3.066   4.908 -0.3759 -0.0689  0.0265
 1859SOL    HW117213   2.289   2.993   4.966  1.3643  0.9860  0.7455
 1859SOL    HW217214   2.186   3.029   4.876 -0.2162 -1.3808  1.1471
 1860SOL     OW17215   3.536   4.529   7.863  0.1795  0.8755 -0.2808
 1860SOL    HW117216   3.457   4.557   7.816 -1.9658 -1.4021  1.9553
 1860SOL    HW217217   3.600   4.525   7.792  0.6524  1.2353  0.1243
 1861SOL     OW17218   4.365   4.005  13.360 -0.2881 -0.0989  0.4597
 1861SOL    HW117219   4.369   3.931  13.421  1.8158 -0.5523 -0.2358
 1861SOL    HW217220   4.457   4.030  13.363 -0.3385  0.0567  0.7121
 1862SOL     OW17221   4.660   3.984   5.753  0.6586  0.0114  0.5211
 1862SOL    HW117222   4.659   4.022   5.665  1.2264  0.5849  0.7618
 1862SOL    HW217223   4.701   4.059   5.797  0.6444  0.9922 -1.1078
 1863SOL     OW17224   1.251   0.019   3.927 -0.6488  0.0908  0.0000
 1863SOL    HW117225   1.274   0.108   3.951 -1.7334  0.3603  0.0591
 1863SOL    HW217226   1.156   0.027   3.913 -0.8920  0.0034  1.6253
 1864SOL     OW17227   0.533   2.113  10.406 -0.4326  0.1235  0.1557
 1864SOL    HW117228   0.476   2.043  10.375  0.7140 -0.4124 -0.7283
 1864SOL    HW217229   0.581   2.063  10.471  1.0943 -1.6503 -2.3702
 1865SOL     OW17230   4.643   2.572   8.348 -0.2940  0.0452 -0.4794
 1865SOL    HW117231   4.610   2.645   8.400  2.5165  0.6571  0.4407
 1865SOL    HW217232   4.737   2.576   8.366 -0.9527 -2.7850  3.6965
 1866SOL     OW17233   1.275   0.560   9.104  0.7759 -0.1146  0.1093
 1866SOL    HW117234   1.214   0.608   9.048  1.5558  0.0645 -0.6018
 1866SOL    HW217235   1.348   0.550   9.043  0.3933 -0.5375 -0.2836
 1867SOL     OW17236   4.202   4.213  14.041  0.5468  0.6857 -0.5684
 1867SOL    HW117237   4.225   4.305  14.031  2.6020  0.5850  3.2139
 1867SOL    HW217238   4.115   4.201  14.004 -0.0233 -0.3573  1.1031
 1868SOL     OW17239   1.111   2.269  12.847  0.5458 -0.2227  0.1484
 1868SOL    HW117240   1.141   2.188  12.805  0.0131 -0.8692  1.0372
 1868SOL    HW217241   1.156   2.268  12.931 -3.1133  1.5379  2.1306
 1869SOL     OW17242   3.566   1.700   4.643  0.6804 -0.4158 -0.2588
 1869SOL    HW117243   3.502   1.651   4.592 -0.0754  1.2204 -0.8750
 1869SOL    HW217244   3.558   1.653   4.727  0.9722  0.4673  0.2616
 1870SOL     OW17245   3.960   4.590   2.454  0.2110  0.3696 -0.0366
 1870SOL    HW117246   3.882   4.620   2.500 -0.0906  1.5234 -1.3081
 1870SOL    HW217247   3.921   4.519   2.404  1.1219 -1.0086  1.2201
 1871SOL     OW17248   3.024   3.372  17.138  0.5292  0.0756 -0.3544
 1871SOL    HW117249   2.991   3.405  17.055 -0.7374  0.5478  0.3337
 1871SOL    HW217250   3.075   3.448  17.167 -0.4029  0.9533 -1.0250
 1872SOL     OW17251   1.194   2.741   4.568  0.3083 -0.0699  0.1939
 1872SOL    HW117252   1.195   2.726   4.473 -0.1312  0.4120  0.1133
 1872SOL    HW217253   1.107   2.715   4.596  0.9565  1.3545  3.4624
 1873SOL     OW17254   1.749   4.673  12.899 -0.6257 -0.8746 -0.2770
 1873SOL    HW117255   1.793   4.662  12.984  0.6948 -0.5142 -0.9030
 1873SOL    HW217256   1.828   4.659  12.847 -0.8270 -0.1126 -0.7845
 1874SOL     OW17257   4.157   0.152   5.721  0.2667 -0.1083  0.2673
 1874SOL    HW117258   4.088   0.087   5.728  0.6050 -0.5473 -0.5347
 1874SOL    HW217259   4.135   0.209   5.795  1.5195  0.1629  0.4389
 1875SOL     OW17260   0.207   2.410  12.014  0.2724  0.1554 -0.2507
 1875SOL    HW117261   0.288   2.460  12.009  0.1730  0.5010  1.4558
 1875SOL    HW217262   0.224   2.342  11.949 -1.5180  0.9444 -1.5379
 1876SOL     OW17263   4.539   1.651   0.758  0.6732 -0.9983  0.1196
 1876SOL    HW117264   4.466   1.705   0.790  0.9622  0.2312 -1.3213
 1876SOL    HW217265   4.601   1.722   0.745  0.0417 -0.4103  0.3155
 1877SOL     OW17266   2.855   0.270   1.088 -0.4678  0.0339 -0.0353
 1877SOL    HW117267   2.809   0.197   1.047 -0.0410 -0.0479 -0.3787
 1877SOL    HW217268   2.926   0.286   1.025 -0.8928  3.6402  0.4190
 1878SOL     OW17269   4.618   3.264  13.885 -0.2715 -0.1565 -0.2141
 1878SOL    HW117270   4.535   3.308  13.871 -0.4105 -0.1277  0.6928
 1878SOL    HW217271   4.627   3.210  13.806 -0.3589 -2.1707  1.1382
 1879SOL     OW17272   1.809   3.404   6.575 -0.3796 -0.0729 -0.5647
 1879SOL    HW117273   1.849   3.451   6.501 -0.4461  0.8103 -0.0414
 1879SOL    HW217274   1.838   3.315   6.553  0.7961  0.2378 -0.2999
 1880SOL     OW17275   0.165   3.517   8.394  0.7290  0.2278 -0.8653
 1880SOL    HW117276   0.220   3.455   8.346  0.5374 -0.1092 -0.6416
 1880SOL    HW217277   0.096   3.459   8.424  0.3824  1.0814 -0.0149
 1881SOL     OW17278   2.011   2.903   6.599 -0.1830  0.4569  0.1962
 1881SOL    HW117279   1.983   2.826   6.649 -2.0116  0.7352 -0.4038
 1881SOL    HW217280   2.011   2.976   6.661  2.4014  1.5486 -1.1052
 1882SOL     OW17281   3.006   2.260   7.028 -0.6818 -0.0658  0.0866
 1882SOL    HW117282   2.968   2.180   7.062  2.2685 -2.0441 -1.2455
 1882SOL    HW217283   2.938   2.326   7.043 -0.6975 -0.3941  1.4146
 1883SOL     OW17284   2.821   1.984   5.968 -0.4661 -0.5573 -0.1759
 1883SOL    HW117285   2.754   1.952   6.028  0.0291 -2.7654 -0.7749
 1883SOL    HW217286   2.893   1.922   5.982  0.8596  0.8922 -0.6166
 1884SOL     OW17287   2.232   0.696  10.438 -0.6978 -0.6694  0.0396
 1884SOL    HW117288   2.218   0.742  10.521  2.0468  0.6551 -0.2075
 1884SOL    HW217289   2.252   0.611  10.477  4.6205  0.0965 -0.9032
 1885SOL     OW17290   2.272   0.666  11.297 -0.0477  0.0753  0.0520
 1885SOL    HW117291   2.188   0.641  11.260 -0.3545  0.5932  0.4032
 1885SOL    HW217292   2.250   0.756  11.320  2.4250  0.7089 -0.0690
 1886SOL     OW17293   2.309   1.265  15.127  0.2618 -0.6587  0.3748
 1886SOL    HW117294   2.340   1.315  15.051  0.9161  0.1411  1.1694
 1886SOL    HW217295   2.312   1.182  15.080  0.7110 -1.4723  1.8649
 1887SOL     OW17296   2.339   4.263   9.403 -0.1472  0.1541  0.0169
 1887SOL    HW117297   2.390   4.327   9.453 -2.0063  1.0816  0.7679
 1887SOL    HW217298   2.308   4.323   9.335  0.2489 -0.7936 -0.9944
 1888SOL     OW17299   4.466   2.811   6.521  0.6806  0.2378 -0.5032
 1888SOL    HW117300   4.540   2.868   6.501  1.6805 -1.5283 -1.7315
 1888SOL    HW217301   4.425   2.865   6.589  0.5639  0.3562 -0.6675
 1889SOL     OW17302   4.471   3.386   4.911  0.2617 -0.2273 -0.3610
 1889SOL    HW117303   4.388   3.356   4.949 -0.0896 -0.1195 -1.0534
 1889SOL    HW217304   4.523   3.307   4.927  0.7116  0.3096  0.8662
 1890SOL     OW17305   2.801   1.076  13.768  0.3581  0.0029 -0.3654
 1890SOL    HW117306   2.712   1.110  13.768 -0.2051 -1.4788 -1.8631
 1890SOL    HW217307   2.837   1.125  13.841  1.4685  0.1637 -1.0055
 1891SOL     OW17308   3.058   0.861  13.193  0.5542 -0.3932 -0.2774
 1891SOL    HW117309   3.067   0.902  13.279 -2.2720 -0.7602  0.1947
 1891SOL    HW217310   3.143   0.876  13.151 -1.4734 -0.2549 -4.3457
 1892SOL     OW17311   1.915   3.158   9.242 -0.1883  0.1020 -0.5083
 1892SOL    HW117312   1.923   3.124   9.153  1.0662  2.6092 -1.3786
 1892SOL    HW217313   1.853   3.100   9.285 -0.7662  1.6602  0.7576
 1893SOL     OW17314   3.961   0.347   5.077  0.0587  0.2698  0.3680
 1893SOL    HW117315   3.956   0.346   4.981  0.2569 -0.5340  0.3674
 1893SOL    HW217316   3.924   0.262   5.100 -1.5894  0.3863 -1.7960
 1894SOL     OW17317   4.170   4.424   0.025 -0.1241 -0.3880 -0.0136
 1894SOL    HW117318   4.144   4.443  17.688 -1.9411 -0.9608  0.3817
 1894SOL    HW217319   4.100   4.369   0.059  1.0330 -2.1589 -0.4810
 1895SOL     OW17320   2.929   3.493   4.896 -0.1673  0.5505 -0.0719
 1895SOL    HW117321   2.930   3.408   4.852  0.1048  0.0399  0.9047
 1895SOL    HW217322   2.875   3.545   4.837 -0.0537 -2.3224 -2.7239
 1896SOL     OW17323   0.376   3.561  12.309 -0.6846 -0.2706 -0.4528
 1896SOL    HW117324   0.299   3.555  12.253 -0.2818 -1.3347 -0.9089
 1896SOL    HW217325   0.389   3.472  12.342 -1.5647  0.6217  2.2440
 1897SOL     OW17326   2.968   3.090  11.255  0.1572 -0.6380 -0.6913
 1897SOL    HW117327   3.024   3.059  11.184  0.8432 -0.9382 -0.0112
 1897SOL    HW217328   2.952   3.178  11.220 -1.5787 -0.7311 -0.1510
 1898SOL     OW17329   0.726   0.873   5.678 -0.1273  0.6911 -0.0155
 1898SOL    HW117330   0.727   0.779   5.694  3.0821  0.5638 -1.1071
 1898SOL    HW217331   0.632   0.893   5.684 -0.2917 -0.6380  1.8536
 1899SOL     OW17332   3.995   4.299   5.762  0.1125  0.1851  0.1734
 1899SOL    HW117333   3.984   4.318   5.855 -1.8436  0.2473 -0.0808
 1899SOL    HW217334   4.029   4.209   5.767 -2.1225 -0.4862  3.6907
 1900SOL     OW17335   0.608   0.436   4.249 -0.0292  0.2245  0.2139
 1900SOL    HW117336   0.591   0.348   4.217  0.7888  0.6368 -1.3351
 1900SOL    HW217337   0.680   0.459   4.191  1.2277 -1.0059  1.2643
 1901SOL     OW17338   3.126   0.585  15.529  0.2019  0.2822  0.0644
 1901SOL    HW117339   3.073   0.506  15.540 -2.0550  1.9306  1.0669
 1901SOL    HW217340   3.204   0.554  15.575 -0.9522  1.0821  2.5875
 1902SOL     OW17341   2.351   0.559   5.525 -0.0656  0.2065 -0.6423
 1902SOL    HW117342   2.289   0.596   5.587  2.4894 -0.2236  2.1834
 1902SOL    HW217343   2.432   0.558   5.577 -0.3390  1.2883 -0.1994
 1903SOL     OW17344   1.729   0.487   8.957 -0.3578  0.2684  0.5907
 1903SOL    HW117345   1.741   0.400   8.996 -1.4887  1.0350  2.5981
 1903SOL    HW217346   1.634   0.499   8.953 -0.2655  0.5982 -0.5764
 1904SOL     OW17347   0.030   2.657   7.633  0.3636  0.4759 -0.2818
 1904SOL    HW117348   0.106   2.692   7.587 -0.2660  1.2762 -0.7133
 1904SOL    HW217349   0.022   2.713   7.710  1.4865 -0.8908  0.8444
 1905SOL     OW17350   0.973   0.524   6.833  0.3072  0.1932  0.6591
 1905SOL    HW117351   1.002   0.460   6.767 -1.0224 -0.1944  0.4451
 1905SOL    HW217352   1.049   0.538   6.889  1.7461 -1.9941 -0.7275
 1906SOL     OW17353   0.487   2.663   7.826 -0.2756  0.4512 -0.3038
 1906SOL    HW117354   0.536   2.591   7.865  1.4755  0.8836 -1.7266
 1906SOL    HW217355   0.449   2.615   7.752 -1.8342 -0.4078  1.0609
 1907SOL     OW17356   1.275   1.746   6.265 -0.6694  0.2930  0.4007
 1907SOL    HW117357   1.368   1.744   6.283 -0.6877  0.4683  0.5140
 1907SOL    HW217358   1.255   1.829   6.309 -1.9223  1.0712 -1.6129
 1908SOL     OW17359   1.451   0.672   7.689 -0.5425  0.5723 -0.7124
 1908SOL    HW117360   1.428   0.685   7.781 -2.1588 -0.4402 -0.9848
 1908SOL    HW217361   1.407   0.749   7.653  0.1253  0.5300 -1.6339
 1909SOL     OW17362   1.004   1.284   1.603 -0.3725 -0.4006  0.0002
 1909SOL    HW117363   0.932   1.307   1.544 -0.8759 -0.0423  0.7543
 1909SOL    HW217364   0.960   1.242   1.677 -0.4114 -1.2529 -0.5098
 1910SOL     OW17365   0.371   3.032   5.103  0.5513 -0.2197 -0.2568
 1910SOL    HW117366   0.323   2.989   5.033 -3.0209  2.2782  0.6908
 1910SOL    HW217367   0.434   2.967   5.135  2.1736  0.8474 -1.3069
 1911SOL     OW17368   0.037   2.649  17.476  0.1582  0.1656  0.4344
 1911SOL    HW117369   0.035   2.556  17.498  1.9374 -0.3234 -1.5320
 1911SOL    HW217370   4.709   2.679  17.537  0.1628  0.4046  0.3202
 1912SOL     OW17371   0.121   3.109   4.858  0.2174 -0.1177  0.1833
 1912SOL    HW117372   0.130   3.022   4.896 -0.0929  0.5169  1.7048
 1912SOL    HW217373   0.039   3.137   4.898  1.4974  1.5297  1.6728
 1913SOL     OW17374   1.595   0.829   4.121 -0.4579 -0.4161  0.1878
 1913SOL    HW117375   1.602   0.761   4.054  1.6927  0.7610 -0.7999
 1913SOL    HW217376   1.598   0.773   4.198 -1.2603  0.3157  0.7450
 1914SOL     OW17377   1.452   3.825  12.193 -0.3716  0.4778 -0.0010
 1914SOL    HW117378   1.534   3.851  12.235  1.2628 -1.6026 -1.8837
 1914SOL    HW217379   1.482   3.767  12.122  1.2583  0.3247  0.8097
 1915SOL     OW17380   1.721   2.559   5.517  0.4120 -0.1515 -0.6161
 1915SOL    HW117381   1.664   2.489   5.547  0.8384 -0.4417 -0.4965
 1915SOL    HW217382   1.788   2.512   5.468  0.5005  1.4551 -2.0537
 1916SOL     OW17383   2.591   2.673   6.008  0.3829  0.0578 -0.1394
 1916SOL    HW117384   2.626   2.753   5.970  5.4068 -1.9504  0.2948
 1916SOL    HW217385   2.669   2.638   6.052 -2.0867 -1.4380  3.1230
 1917SOL     OW17386   1.048   3.818  17.359  0.1221 -0.2281 -0.2136
 1917SOL    HW117387   0.982   3.809  17.428 -1.7550  0.9422 -1.8836
 1917SOL    HW217388   1.044   3.726  17.331 -1.4253  0.5047 -2.3784
 1918SOL     OW17389   3.324   0.913  13.164 -0.1465  0.2603 -0.5151
 1918SOL    HW117390   3.345   0.977  13.232  0.6763  0.2859 -0.7828
 1918SOL    HW217391   3.309   0.969  13.087  2.1974  1.4042 -0.1636
 1919SOL     OW17392   3.371   1.382   4.313 -0.1504  0.0646 -0.0472
 1919SOL    HW117393   3.279   1.376   4.337 -0.1051 -0.2576  0.0531
 1919SOL    HW217394   3.379   1.474   4.340 -0.6610  0.6598 -1.9230
 1920SOL     OW17395   2.893   0.932   5.701 -0.1660  0.0801 -0.8365
 1920SOL    HW117396   2.923   0.842   5.717 -0.8849 -0.0672 -0.3202
 1920SOL    HW217397   2.812   0.936   5.752  1.1623  1.1603  1.1823
 1921SOL     OW17398   3.088   4.672  16.180  0.1880 -0.4747 -0.1994
 1921SOL    HW117399   3.063   0.012  16.132 -0.2910 -0.6700 -0.2659
 1921SOL    HW217400   3.152   4.625  16.125  0.1268 -0.2893 -0.4310
 1922SOL     OW17401   4.175   1.571   5.149  0.2724 -0.1439  0.1454
 1922SOL    HW117402   4.265   1.560   5.180  0.0656 -0.3538  0.6766
 1922SOL    HW217403   4.150   1.484   5.119  0.9171 -0.6312  0.9929
 1923SOL     OW17404   1.297   0.020  16.593  0.0107 -0.4902 -0.1746
 1923SOL    HW117405   1.210   0.055  16.611 -0.7146 -2.3192 -0.0412
 1923SOL    HW217406   1.305   4.682  16.651 -3.0993  0.9067  2.1152
 1924SOL     OW17407   3.827   3.946   3.525 -0.3396  0.3800  0.4044
 1924SOL    HW117408   3.876   3.987   3.453  0.3913 -0.4154  0.4441
 1924SOL    HW217409   3.897   3.955   3.590  2.5095 -1.8700 -2.3496
 1925SOL     OW17410   3.712   4.122   6.211 -1.1352 -0.0322  0.2375
 1925SOL    HW117411   3.729   4.213   6.188 -2.2389 -0.7580 -3.5347
 1925SOL    HW217412   3.616   4.122   6.205 -1.0013 -0.3694 -1.7515
 1926SOL     OW17413   4.101   2.056   9.281 -0.2192 -0.0526 -0.1820
 1926SOL    HW117414   4.192   2.081   9.262 -1.3106  2.2554 -2.3320
 1926SOL    HW217415   4.088   1.982   9.221  2.3276 -0.3014 -0.4602
 1927SOL     OW17416   3.814   4.685   8.187  0.8037  0.6065 -0.2176
 1927SOL    HW117417   3.824   4.680   8.282 -2.8561 -3.4252 -0.0548
 1927SOL    HW217418   3.757   4.610   8.172  1.8489 -0.2908  0.3457
 1928SOL     OW17419   0.183   2.524  16.251 -0.1979 -0.1977  0.2625
 1928SOL    HW117420   0.175   2.437  16.291 -0.0227  0.1252  0.9910
 1928SOL    HW217421   0.231   2.495  16.174 -0.3223 -1.2841  0.5971
 1929SOL     OW17422   0.173   4.097   4.081 -0.0629 -0.1860 -0.2523
 1929SOL    HW117423   0.137   4.087   3.993  0.4722  2.2737 -0.7473
 1929SOL    HW217424   0.265   4.072   4.075  0.2195  1.3673 -2.3197
 1930SOL     OW17425   2.768   4.457   4.731  0.2290 -0.0515  0.1757
 1930SOL    HW117426   2.806   4.540   4.701  0.7015 -0.9680 -1.7309
 1930SOL    HW217427   2.701   4.497   4.788 -0.3281 -1.9197  0.8191
 1931SOL     OW17428   2.772   1.789   4.001 -0.0505  0.0336  0.0402
 1931SOL    HW117429   2.763   1.880   4.031  0.5507 -1.0375  3.4983
 1931SOL    HW217430   2.776   1.815   3.909 -0.7794  0.0170  0.0046
 1932SOL     OW17431   4.246   3.793   2.982  0.0094 -0.3183  0.1520
 1932SOL    HW117432   4.163   3.817   3.025  0.1643 -0.0251  0.2859
 1932SOL    HW217433   4.219   3.802   2.891 -1.1957 -2.7783  0.2716
 1933SOL     OW17434   2.224   4.482  17.686  0.6615  0.2016  0.4519
 1933SOL    HW117435   2.178   4.409  17.645  1.7957 -0.1629 -0.1724
 1933SOL    HW217436   2.316   4.474  17.661  1.2459  0.9437  2.4174
 1934SOL     OW17437   4.529   4.374  17.430 -0.1615  0.0977  0.2021
 1934SOL    HW117438   4.453   4.320  17.451  0.6849 -0.7133  1.1661
 1934SOL    HW217439   4.556   4.398  17.518 -0.3753 -1.6021  0.7430
 1935SOL     OW17440   1.597   0.575   3.453  0.2619 -0.4311 -1.2018
 1935SOL    HW117441   1.539   0.503   3.477  0.2903 -0.5442 -1.4734
 1935SOL    HW217442   1.523   0.636   3.459  1.6880  1.1382  0.3116
 1936SOL     OW17443   3.108   3.631  15.660  0.6565  0.0062 -0.5980
 1936SOL    HW117444   3.087   3.660  15.749 -0.1609  1.8886 -1.4182
 1936SOL    HW217445   3.113   3.717  15.618 -2.8550  0.7255  0.5343
 1937SOL     OW17446   4.500   1.262   9.607  0.1800 -0.4178 -0.2389
 1937SOL    HW117447   4.561   1.232   9.674 -0.3584 -1.0973 -0.0599
 1937SOL    HW217448   4.447   1.325   9.655 -0.0411 -0.4369 -0.4563
 1938SOL     OW17449   2.198   1.429   6.703 -0.3129 -0.6091 -0.2408
 1938SOL    HW117450   2.140   1.470   6.767 -0.0890 -0.7226  0.0354
 1938SOL    HW217451   2.279   1.440   6.752 -0.3015  0.9914 -0.6195
 1939SOL     OW17452   2.734   0.076   5.062 -0.5024  0.0066  0.0179
 1939SOL    HW117453   2.685   0.064   5.144  0.8903  1.0709  1.0046
 1939SOL    HW217454   2.735   0.171   5.055  0.2608 -0.0486 -0.6099
 1940SOL     OW17455   2.414   4.689   1.150  0.2534 -0.2042 -0.2191
 1940SOL    HW117456   2.471   4.694   1.226 -1.7198  0.6712  1.1869
 1940SOL    HW217457   2.465   4.636   1.088  0.8527  2.8249 -2.3377
 1941SOL     OW17458   0.682   2.552   9.352  0.5169 -0.4106 -0.5543
 1941SOL    HW117459   0.720   2.464   9.356 -2.0973 -1.5525 -0.9697
 1941SOL    HW217460   0.764   2.597   9.331  2.0307 -2.6677  0.4608
 1942SOL     OW17461   1.910   1.357   1.875 -0.2629 -0.4570  0.2882
 1942SOL    HW117462   1.956   1.434   1.841 -1.2507  0.5974  1.3215
 1942SOL    HW217463   1.981   1.312   1.920 -0.2068 -2.0073 -1.3507
 1943SOL     OW17464   4.159   3.962   4.480 -0.3184  0.6510  0.5765
 1943SOL    HW117465   4.233   3.980   4.539  0.8247 -2.0640 -0.0222
 1943SOL    HW217466   4.130   4.052   4.466 -0.7556  0.2593 -0.9879
 1944SOL     OW17467   2.469   4.522   8.976 -0.1674  0.1061 -0.6037
 1944SOL    HW117468   2.417   4.562   9.045 -1.6315 -0.0989 -1.5783
 1944SOL    HW217469   2.404   4.462   8.939 -1.1477  1.1666 -0.5901
 1945SOL     OW17470   2.483   2.528   8.444 -0.3780  0.2533 -0.2629
 1945SOL    HW117471   2.507   2.491   8.529  1.2837 -3.7192 -2.4732
 1945SOL    HW217472   2.425   2.458   8.415  1.3580 -1.7260  1.1350
 1946SOL     OW17473   0.043   1.435   0.165  0.7633 -0.1461  0.5517
 1946SOL    HW117474   0.051   1.411   0.257 -0.6078  0.2374  0.7588
 1946SOL    HW217475   0.058   1.529   0.167  0.2414 -0.0352 -0.5168
 1947SOL     OW17476   4.565   4.402   2.623  0.2860  0.3355 -0.5710
 1947SOL    HW117477   4.651   4.393   2.582  0.6017  1.7096 -0.2067
 1947SOL    HW217478   4.582   4.391   2.717  1.2184  0.4978 -0.7274
 1948SOL     OW17479   2.124   4.359   3.582  0.6254 -0.1217  0.4083
 1948SOL    HW117480   2.142   4.314   3.499 -1.5811  0.9393 -0.6119
 1948SOL    HW217481   2.175   4.438   3.564  1.8683 -1.3386 -1.4002
 1949SOL     OW17482   3.489   2.592  10.519 -0.6470  0.6573  0.8222
 1949SOL    HW117483   3.523   2.573  10.432  1.9564  2.6982  1.4053
 1949SOL    HW217484   3.552   2.538  10.567 -0.9875  1.4848  2.1874
 1950SOL     OW17485   2.454   3.594   7.494  0.6517 -0.3763 -0.2187
 1950SOL    HW117486   2.361   3.601   7.473  0.6530 -2.2839 -0.8601
 1950SOL    HW217487   2.482   3.521   7.439 -1.5136 -2.0365  0.9047
 1951SOL     OW17488   4.498   2.309   8.485 -0.3098 -0.1521  0.3563
 1951SOL    HW117489   4.416   2.339   8.445  0.2350 -0.7492 -1.1589
 1951SOL    HW217490   4.550   2.386   8.461 -1.6267  0.0709 -1.7758
 1952SOL     OW17491   1.957   1.929   2.638 -0.3482  0.7392 -0.3896
 1952SOL    HW117492   2.019   1.875   2.686  1.8552  1.8011 -2.0567
 1952SOL    HW217493   1.996   2.014   2.657  1.9149 -0.4718  0.3808
 1953SOL     OW17494   2.661   3.131   6.075  0.6935  0.4925 -0.1755
 1953SOL    HW117495   2.680   3.135   6.168 -1.4234  3.8185  0.0962
 1953SOL    HW217496   2.743   3.129   6.026  1.1793 -0.3405  0.6720
 1954SOL     OW17497   4.174   4.712   4.205  0.0785  0.0894 -0.0214
 1954SOL    HW117498   4.196   4.671   4.288  1.8801 -1.0818 -1.0977
 1954SOL    HW217499   4.080   4.731   4.213  0.2200  0.2608  1.2464
 1955SOL     OW17500   2.357   1.672   4.260 -0.3246 -0.0733  0.0672
 1955SOL    HW117501   2.386   1.642   4.174 -1.1919 -0.7169 -0.0010
 1955SOL    HW217502   2.359   1.590   4.308 -0.5241 -0.4636 -0.5952
 1956SOL     OW17503   4.190   2.303   6.552  0.3801 -0.0214  0.1146
 1956SOL    HW117504   4.227   2.289   6.464  0.1643  0.7957 -0.1094
 1956SOL    HW217505   4.205   2.217   6.590 -1.4319  0.1727  1.2517
 1957SOL     OW17506   2.890   1.560   1.804 -0.7616 -0.5146  0.1326
 1957SOL    HW117507   2.969   1.547   1.752  0.0271  0.4611  1.0868
 1957SOL    HW217508   2.868   1.650   1.779 -1.4933 -0.7796 -0.1952
 1958SOL     OW17509   1.595   2.744  16.528  0.0002  0.3601 -0.4245
 1958SOL    HW117510   1.658   2.743  16.600 -0.8971 -0.3001  0.3542
 1958SOL    HW217511   1.639   2.750  16.443 -0.0380  0.3140 -0.4482
 1959SOL     OW17512   1.001   1.190   3.619 -0.1680 -0.5138 -0.3580
 1959SOL    HW117513   0.930   1.241   3.657  0.9624  0.7735  0.0475
 1959SOL    HW217514   0.986   1.105   3.662  1.7825 -0.1796  1.0022
 1960SOL     OW17515   0.595   3.956   2.367 -0.7980 -0.0118  0.0195
 1960SOL    HW117516   0.642   4.028   2.325  1.9193 -2.4494 -1.1368
 1960SOL    HW217517   0.512   3.954   2.320 -2.0064  1.9538  2.1035
 1961SOL     OW17518   4.094   0.339   9.137 -0.3038 -0.2159 -0.2391
 1961SOL    HW117519   4.095   0.361   9.044 -1.7556 -1.1421 -0.4813
 1961SOL    HW217520   4.103   0.429   9.170  1.2567 -0.4755  0.0322
 1962SOL     OW17521   4.435   4.531   7.496 -0.1536 -0.0914 -0.4824
 1962SOL    HW117522   4.385   4.591   7.441  0.2272  1.1480  0.5391
 1962SOL    HW217523   4.442   4.582   7.576  2.6482 -2.7695  0.9945
 1963SOL     OW17524   1.123   3.375   9.419 -0.5721  0.2577 -0.1561
 1963SOL    HW117525   1.117   3.286   9.452 -0.1359 -0.2058 -1.3349
 1963SOL    HW217526   1.037   3.382   9.377  0.2874 -0.6924 -2.0672
 1964SOL     OW17527   3.784   3.101   5.747 -0.0822  0.6523  0.1836
 1964SOL    HW117528   3.707   3.049   5.723  0.3871 -0.2379  0.5974
 1964SOL    HW217529   3.849   3.034   5.729  0.8548  1.9444 -1.3042
 1965SOL     OW17530   0.811   3.751   4.843  0.2401  0.1469 -0.1985
 1965SOL    HW117531   0.832   3.658   4.832  1.1355  0.1725  1.3924
 1965SOL    HW217532   0.894   3.784   4.809 -0.4440 -0.2139 -2.2254
 1966SOL     OW17533   2.924   2.181   1.114  0.4394 -0.6111 -0.1176
 1966SOL    HW117534   2.917   2.253   1.177  2.4242  1.6648 -2.4599
 1966SOL    HW217535   2.835   2.162   1.088 -0.0877  1.0359  0.4420
 1967SOL     OW17536   4.107   0.584   7.739 -0.1243 -0.4581 -0.1707
 1967SOL    HW117537   4.177   0.637   7.702 -0.2205 -2.4402 -3.1995
 1967SOL    HW217538   4.154   0.502   7.734 -1.9497 -1.4492 -1.1838
 1968SOL     OW17539   2.958   4.650   5.061  0.0427  0.4584 -0.8823
 1968SOL    HW117540   2.996   4.730   5.096 -1.1170  2.0921 -3.3433
 1968SOL    HW217541   2.875   4.691   5.034 -1.8321 -0.9280  2.7721
 1969SOL     OW17542   0.561   4.149   5.877 -0.0330  0.3299 -0.3699
 1969SOL    HW117543   0.594   4.217   5.937  1.4878 -2.5303  2.0166
 1969SOL    HW217544   0.642   4.111   5.844 -0.0225 -0.4011  0.5082
 1970SOL     OW17545   2.333   3.587  11.739  0.2042  0.9066 -0.0472
 1970SOL    HW117546   2.416   3.634  11.748  1.2209 -1.1759  1.4120
 1970SOL    HW217547   2.310   3.627  11.655 -0.2971  0.6623 -0.0237
 1971SOL     OW17548   3.529   2.484   8.452 -0.3768 -0.4834 -0.0954
 1971SOL    HW117549   3.523   2.579   8.442  0.8745 -0.1299  2.6138
 1971SOL    HW217550   3.588   2.475   8.527 -0.7308  0.6676  0.3221
 1972SOL     OW17551   1.902   2.522   7.383 -0.5359 -0.1426  0.5521
 1972SOL    HW117552   1.859   2.460   7.325  1.9824 -0.4187 -1.0138
 1972SOL    HW217553   1.959   2.541   7.308 -1.6222  0.0322 -0.2207
 1973SOL     OW17554   0.493   3.391   6.244  0.5202 -0.8904 -0.0424
 1973SOL    HW117555   0.426   3.337   6.285  0.5819 -0.4489  0.6342
 1973SOL    HW217556   0.459   3.386   6.154  0.6939 -0.2171 -0.1445
 1974SOL     OW17557   1.603   0.355  12.188  0.4271  0.1110 -0.2843
 1974SOL    HW117558   1.585   0.424  12.252 -0.3323  1.1451 -1.6352
 1974SOL    HW217559   1.699   0.356  12.195  0.4711  0.7522 -1.1395
 1975SOL     OW17560   4.709   1.177   3.485 -0.3415  0.2449 -0.4782
 1975SOL    HW117561   4.735   1.177   3.577  0.5752  1.7047 -0.7312
 1975SOL    HW217562   0.018   1.105   3.445  2.6564  2.7493 -1.4035
 1976SOL     OW17563   4.630   1.607   7.996 -0.5621  0.4974 -0.1105
 1976SOL    HW117564   4.594   1.580   8.081 -0.1343 -0.4618 -0.2272
 1976SOL    HW217565   4.600   1.534   7.941  0.0083  1.0441 -1.1416
 1977SOL     OW17566   3.408   4.716   6.362 -0.3031  0.3631 -0.1949
 1977SOL    HW117567   3.335   0.040   6.368 -1.3872 -0.8142 -1.0969
 1977SOL    HW217568   3.385   4.686   6.274 -1.6760  1.8643 -0.3638
 1978SOL     OW17569   2.524   1.687   3.979 -0.4153  0.1786 -0.2362
 1978SOL    HW117570   2.548   1.595   3.993  0.4929  0.3023 -1.0441
 1978SOL    HW217571   2.611   1.723   3.962 -0.3053 -0.4562 -0.9890
 1979SOL     OW17572   3.822   4.008   1.764 -0.0882 -0.2398 -0.4585
 1979SOL    HW117573   3.820   3.930   1.819  0.2299  1.3699  1.8619
 1979SOL    HW217574   3.913   4.034   1.781 -1.0609  3.0353 -0.1779
 1980SOL     OW17575   4.168   4.256  11.822  0.2623 -0.0662  0.3579
 1980SOL    HW117576   4.202   4.346  11.820 -0.1475  0.0564 -1.4237
 1980SOL    HW217577   4.185   4.211  11.740  0.3917  0.3077  0.1775
 1981SOL     OW17578   3.774   3.892  10.358 -0.6252 -0.1666  0.2511
 1981SOL    HW117579   3.833   3.906  10.432 -1.8454  3.0381  0.6364
 1981SOL    HW217580   3.767   3.797  10.358 -0.4492 -0.1797 -1.4201
 1982SOL     OW17581   1.507   1.796  11.921  0.1084  0.1291 -0.3158
 1982SOL    HW117582   1.551   1.863  11.973  0.0389  0.9880 -1.3622
 1982SOL    HW217583   1.428   1.775  11.972 -0.7358  1.9611 -0.8499
 1983SOL     OW17584   2.527   3.208   7.910 -0.6129  0.1077  0.2375
 1983SOL    HW117585   2.435   3.184   7.902 -0.2027 -1.1334 -0.7796
 1983SOL    HW217586   2.552   3.206   7.817 -1.2387  2.4314  0.0302
 1984SOL     OW17587   0.887   0.877   3.311  0.1825 -0.3294  0.0387
 1984SOL    HW117588   0.824   0.889   3.239  1.4223  0.4534 -0.9167
 1984SOL    HW217589   0.831   0.844   3.381  0.9794  0.9331  1.2684
 1985SOL     OW17590   2.282   3.821   9.035 -0.0113 -0.3674 -0.1930
 1985SOL    HW117591   2.257   3.754   9.099 -0.2771 -1.9612 -1.9738
 1985SOL    HW217592   2.207   3.880   9.033  1.6351  1.8564  2.1529
 1986SOL     OW17593   3.338   0.189  16.688 -0.1118 -0.0009  0.1479
 1986SOL    HW117594   3.319   0.180  16.595  2.0538  3.2888 -0.5952
 1986SOL    HW217595   3.347   0.097  16.714 -0.9279 -0.8897 -2.7802
 1987SOL     OW17596   4.129   4.698  15.187  0.0322 -0.0688 -0.0818
 1987SOL    HW117597   4.053   4.708  15.245 -0.4335 -1.9893 -0.3620
 1987SOL    HW217598   4.177   4.642  15.248  1.2052  0.4059 -0.5825
 1988SOL     OW17599   1.512   1.475   9.383 -0.1347 -0.0579  0.0604
 1988SOL    HW117600   1.460   1.519   9.450  1.1256  3.5055 -1.2500
 1988SOL    HW217601   1.459   1.488   9.304  0.4823 -1.3388 -0.5741
 1989SOL     OW17602   2.921   2.453   2.425 -0.4889 -0.2422  0.3469
 1989SOL    HW117603   2.945   2.535   2.383 -0.8075 -0.0933  0.4553
 1989SOL    HW217604   2.834   2.431   2.390 -1.7096  1.7778  2.1224
 1990SOL     OW17605   0.438   0.938   3.930 -0.2784  0.4863  0.1327
 1990SOL    HW117606   0.419   0.990   4.008  0.3910 -0.0015  0.6261
 1990SOL    HW217607   0.367   0.876   3.946 -0.6353  0.9303  0.2870
 1991SOL     OW17608   2.115   1.953  10.089 -0.2071  0.6148 -0.0863
 1991SOL    HW117609   2.170   1.919  10.160  0.8378  0.8692 -0.7725
 1991SOL    HW217610   2.149   2.041  10.073 -0.2970  0.5523 -0.6070
 1992SOL     OW17611   2.922   0.249   6.988  0.0202  0.1643  0.7018
 1992SOL    HW117612   2.862   0.318   7.015 -0.1801  0.4432 -0.4651
 1992SOL    HW217613   2.872   0.173   7.017 -0.6358  0.5429  0.5669
 1993SOL     OW17614   0.923   2.471   2.810 -0.2015 -0.2920 -0.0360
 1993SOL    HW117615   0.983   2.419   2.757  1.9669  1.3454  0.8100
 1993SOL    HW217616   0.851   2.411   2.830 -1.7286  1.3487 -0.6629
 1994SOL     OW17617   1.247   1.893   7.196  0.0388  0.6114  0.1033
 1994SOL    HW117618   1.327   1.841   7.209  0.6455  1.6423  0.5515
 1994SOL    HW217619   1.297   1.975   7.196  1.4054 -0.2180  0.2034
 1995SOL     OW17620   4.508   0.999  12.686 -0.3054 -0.3223 -0.1109
 1995SOL    HW117621   4.592   0.962  12.713  0.6686  4.7190  3.8217
 1995SOL    HW217622   4.522   1.021  12.594  2.0668 -2.3671 -0.2343
 1996SOL     OW17623   1.945   1.120   5.584 -0.3773  0.6397 -0.2445
 1996SOL    HW117624   2.027   1.132   5.536 -0.5289  0.0361 -0.6491
 1996SOL    HW217625   1.965   1.066   5.660 -1.4968 -2.0921 -1.8885
 1997SOL     OW17626   3.611   0.999   2.364 -0.1522 -0.2915  0.2071
 1997SOL    HW117627   3.589   1.050   2.441  2.4487  1.5320 -0.2802
 1997SOL    HW217628   3.629   0.913   2.403 -0.1168 -0.0085  0.8139
 1998SOL     OW17629   3.081   4.215   2.979 -0.4443  0.3643 -0.0405
 1998SOL    HW117630   3.101   4.307   2.996 -2.8674  0.8158  0.4895
 1998SOL    HW217631   3.151   4.209   2.915 -0.1066 -0.2895  0.3858
 1999SOL     OW17632   4.529   4.505   6.470 -0.3440 -0.0449 -0.2074
 1999SOL    HW117633   4.559   4.543   6.553  1.3437  0.1619 -0.9088
 1999SOL    HW217634   4.434   4.500   6.478 -0.3456 -2.2799 -1.6910
 2000SOL     OW17635   0.938   4.232   7.282 -0.6075  0.0020 -0.0803
 2000SOL    HW117636   0.945   4.147   7.239  1.3026  0.5452 -0.8367
 2000SOL    HW217637   1.032   4.249   7.273 -0.1790 -2.7764 -1.0628
 2001SOL     OW17638   0.448   1.911  10.786 -0.2809 -0.7350 -0.0660
 2001SOL    HW117639   0.356   1.889  10.799 -0.5303  0.3436 -0.0166
 2001SOL    HW217640   0.443   2.006  10.797  2.6994 -0.2901 -2.4486
 2002SOL     OW17641   1.421   3.575   8.273  0.3619 -0.1626 -0.5928
 2002SOL    HW117642   1.409   3.617   8.358  0.5064 -1.0207 -0.1552
 2002SOL    HW217643   1.337   3.598   8.235  0.4961  0.6664 -0.4031
 2003SOL     OW17644   1.989   3.798   7.057  0.5220 -0.4682 -0.0363
 2003SOL    HW117645   1.931   3.873   7.043 -0.4855 -1.5674 -1.8271
 2003SOL    HW217646   1.927   3.735   7.095 -0.4774  0.6616  0.2079
 2004SOL     OW17647   0.342   1.849   8.045  0.1042  0.1804 -0.5127
 2004SOL    HW117648   0.302   1.922   7.999  1.8325 -0.0440 -2.3472
 2004SOL    HW217649   0.263   1.801   8.071  0.1159  0.4175 -0.0473
 2005SOL     OW17650   1.838   0.720   0.175 -0.1566 -0.1495  0.2508
 2005SOL    HW117651   1.896   0.718   0.252 -1.6139  4.1073  1.4489
 2005SOL    HW217652   1.876   0.647   0.125  1.4017  0.2034  0.8990
 2006SOL     OW17653   2.189   4.506   6.465  0.3230  0.2064 -0.1174
 2006SOL    HW117654   2.160   4.553   6.543 -0.0019  0.8353 -0.6108
 2006SOL    HW217655   2.192   4.580   6.404  1.6196 -0.2634 -0.6206
 2007SOL     OW17656   2.340   1.864   2.505 -0.2819 -0.4442 -0.1764
 2007SOL    HW117657   2.377   1.876   2.592  1.0094  0.4676 -0.8584
 2007SOL    HW217658   2.410   1.897   2.450  0.3572 -0.0867  0.8537
 2008SOL     OW17659   3.276   4.728   8.794 -0.3620 -0.0259  0.1620
 2008SOL    HW117660   3.278   0.001   8.699 -3.1619 -0.2114  0.0822
 2008SOL    HW217661   3.369   4.718   8.817 -0.5432 -3.0404 -0.3554
 2009SOL     OW17662   1.995   2.783   5.428  0.1873  0.1914 -0.3810
 2009SOL    HW117663   1.914   2.773   5.378 -0.1126  0.2278  0.0991
 2009SOL    HW217664   2.039   2.698   5.419  0.4055  0.2289  0.3064
 2010SOL     OW17665   2.316   1.338   3.549  0.0511 -0.4187 -0.2314
 2010SOL    HW117666   2.328   1.260   3.495  0.0268  0.8355 -2.0176
 2010SOL    HW217667   2.402   1.380   3.551  0.2509 -0.7682 -1.5600
 2011SOL     OW17668   3.933   4.097   4.862  0.2359 -0.1506 -0.3814
 2011SOL    HW117669   4.005   4.155   4.839 -1.0102  1.5659  0.0021
 2011SOL    HW217670   3.873   4.138   4.799 -1.3390 -0.3933  0.9640
 2012SOL     OW17671   3.588   1.150   8.493  0.2614 -0.3553  0.1012
 2012SOL    HW117672   3.672   1.121   8.457  0.6075  0.4966  0.2317
 2012SOL    HW217673   3.610   1.168   8.584  0.5164  0.4715 -0.1305
 2013SOL     OW17674   0.609   1.022  15.013  0.3046  0.3513  0.4911
 2013SOL    HW117675   0.610   1.040  15.107 -2.0773 -0.4962  0.6958
 2013SOL    HW217676   0.540   0.956  15.007  0.6516  0.1589 -1.6020
 2014SOL     OW17677   1.685   4.078   4.500 -0.0758  0.2004  0.0110
 2014SOL    HW117678   1.684   4.136   4.576 -0.2998  2.0296 -1.3697
 2014SOL    HW217679   1.761   4.027   4.527  0.1734  0.9699  0.7663
 2015SOL     OW17680   3.927   4.396  15.158 -0.8446  0.4904 -0.5057
 2015SOL    HW117681   3.989   4.325  15.147 -0.8340  0.2562  0.9591
 2015SOL    HW217682   3.898   4.409  15.068 -1.0492 -2.2458 -0.8193
 2016SOL     OW17683   0.065   4.606   9.524 -0.0077  0.1755 -0.0667
 2016SOL    HW117684   0.043   4.543   9.592  3.4418  0.4235  1.2730
 2016SOL    HW217685   0.018   4.574   9.446  1.9910 -3.7041  0.3433
 2017SOL     OW17686   0.308   3.211   6.348  0.3887  0.5021  0.1640
 2017SOL    HW117687   0.224   3.195   6.305  1.2384 -1.7488 -0.6605
 2017SOL    HW217688   0.277   3.195   6.438  1.4117  0.2527  0.4728
 2018SOL     OW17689   4.139   1.381  11.744  0.7452  0.1610 -0.3934
 2018SOL    HW117690   4.214   1.379  11.803 -0.9248  0.2550  1.7211
 2018SOL    HW217691   4.073   1.325  11.785 -0.3242  2.0818  0.4979
 2019SOL     OW17692   2.848   0.868   8.337 -0.4077  1.0467 -0.0443
 2019SOL    HW117693   2.810   0.955   8.325 -1.5165  0.5119 -0.3793
 2019SOL    HW217694   2.872   0.882   8.429 -0.7138  1.1954  0.0107
 2020SOL     OW17695   3.712   1.833   4.893 -0.1352  0.5704  0.1831
 2020SOL    HW117696   3.645   1.765   4.906  1.2071 -1.1096 -1.6376
 2020SOL    HW217697   3.668   1.892   4.832  0.6073  0.0149 -0.8853
 2021SOL     OW17698   2.501   2.104   0.175  0.5426  0.5512  0.3552
 2021SOL    HW117699   2.585   2.060   0.189  1.0237  1.7079  1.0917
 2021SOL    HW217700   2.483   2.074   0.086  1.5776  1.9721 -0.3221
 2022SOL     OW17701   2.800   4.665  13.155 -0.4510 -0.0159  0.5514
 2022SOL    HW117702   2.775   0.017  13.171 -1.4070 -0.4922  1.7604
 2022SOL    HW217703   2.820   4.632  13.243  0.8572  0.6548  0.5114
 2023SOL     OW17704   3.952   0.040   2.926  0.0912  0.5748  0.1456
 2023SOL    HW117705   3.954   4.702   2.983  0.3191  1.3270  1.1624
 2023SOL    HW217706   4.017   0.015   2.861  0.1085 -0.7057  0.6718
 2024SOL     OW17707   0.133   0.117   4.447  0.0243 -1.0024 -0.1167
 2024SOL    HW117708   0.123   0.033   4.492 -0.9163 -1.1652 -0.6103
 2024SOL    HW217709   0.081   0.100   4.368 -1.6104  0.2824  0.7057
 2025SOL     OW17710   0.381   1.484  16.507  0.0065 -0.0105 -0.0700
 2025SOL    HW117711   0.444   1.511  16.574  0.3784 -2.7266  0.6987
 2025SOL    HW217712   0.430   1.505  16.427  1.7027  2.1788  1.5557
 2026SOL     OW17713   1.033   1.231   1.959  0.2027 -0.1397 -0.5711
 2026SOL    HW117714   1.108   1.290   1.966 -0.7139  0.9903 -0.2905
 2026SOL    HW217715   1.082   1.150   1.978  0.0850 -1.0462 -4.1083
 2027SOL     OW17716   2.135   2.528   5.373  0.1788 -0.1848  0.2560
 2027SOL    HW117717   2.142   2.509   5.279  2.1005  1.5817  0.0457
 2027SOL    HW217718   2.220   2.501   5.409 -0.6218  0.7267  2.8230
 2028SOL     OW17719   3.326   4.027  10.847 -0.5153  0.2619 -0.2115
 2028SOL    HW117720   3.268   3.955  10.822  0.5970 -1.2721  1.6807
 2028SOL    HW217721   3.329   4.071  10.762 -0.8634  2.6604  1.0306
 2029SOL     OW17722   1.986   1.653   1.724 -0.3011  0.3099 -0.2453
 2029SOL    HW117723   1.918   1.690   1.781 -0.2724  1.3598 -0.9063
 2029SOL    HW217724   2.035   1.722   1.680 -0.7260 -0.0659 -1.3088
 2030SOL     OW17725   4.222   1.298  13.632 -0.0025  0.3148  0.4840
 2030SOL    HW117726   4.165   1.350  13.688 -0.8635  1.1870 -1.1894
 2030SOL    HW217727   4.264   1.245  13.699  1.7010  0.3739 -0.5129
 2031SOL     OW17728   4.114   2.418   4.676  0.7632  0.2178 -0.1872
 2031SOL    HW117729   4.114   2.491   4.615 -1.2898  1.5443  1.3840
 2031SOL    HW217730   4.124   2.459   4.762 -2.7015 -0.8090  0.7265
 2032SOL     OW17731   4.536   2.596   2.135  0.5096 -0.1444  0.3961
 2032SOL    HW117732   4.544   2.665   2.201  0.0088 -0.0028  0.3070
 2032SOL    HW217733   4.513   2.653   2.061  2.2055 -0.9275 -0.7489
 2033SOL     OW17734   1.260   2.232  11.803  0.2312 -0.3472 -0.5194
 2033SOL    HW117735   1.303   2.297  11.746 -1.1001  1.0846  0.1103
 2033SOL    HW217736   1.171   2.268  11.807 -0.2393 -1.6072  0.3599
 2034SOL     OW17737   1.777   2.314   3.973 -0.0418 -0.2381 -0.5758
 2034SOL    HW117738   1.772   2.281   4.062  0.7771  0.3762 -0.2939
 2034SOL    HW217739   1.733   2.399   3.981 -0.9225 -0.7230 -0.3277
 2035SOL     OW17740   1.929   1.831   8.484 -0.6715  0.6634  0.1580
 2035SOL    HW117741   1.921   1.852   8.391  0.0730  3.5147  0.7372
 2035SOL    HW217742   2.012   1.784   8.479 -1.3241 -0.5016  0.5035
 2036SOL     OW17743   0.776   1.521   2.501  0.0352 -0.2153 -0.3328
 2036SOL    HW117744   0.757   1.583   2.431 -0.5098  1.6076  1.4336
 2036SOL    HW217745   0.760   1.581   2.574  1.8423 -0.3940  0.2211
 2037SOL     OW17746   0.201   4.477  13.673  0.2975 -0.1695 -0.2185
 2037SOL    HW117747   0.246   4.545  13.623 -0.6644  0.7885  0.2111
 2037SOL    HW217748   0.244   4.488  13.758  0.0071 -0.0670 -0.0841
 2038SOL     OW17749   2.251   4.538  12.708  0.1769  0.5085 -0.0827
 2038SOL    HW117750   2.161   4.556  12.737  0.2692 -0.9466  1.1518
 2038SOL    HW217751   2.300   4.579  12.778 -1.9171 -0.4407  1.9586
 2039SOL     OW17752   0.196   1.209   2.252  0.2892  0.0132  0.1478
 2039SOL    HW117753   0.275   1.259   2.232 -0.0071 -0.6535 -2.7854
 2039SOL    HW217754   0.213   1.124   2.210  0.5710 -0.6203  1.5409
 2040SOL     OW17755   4.569   0.687   7.955  0.0341 -0.3409  0.7304
 2040SOL    HW117756   4.515   0.747   7.904 -0.0586 -1.0546 -0.0170
 2040SOL    HW217757   4.637   0.684   7.888 -0.0956  0.7484  0.5510
 2041SOL     OW17758   0.739   1.592   2.227  0.4003 -0.2798  0.4356
 2041SOL    HW117759   0.796   1.523   2.193  2.6010  0.8208  1.9560
 2041SOL    HW217760   0.809   1.655   2.241  1.1619 -0.5725 -2.0220
 2042SOL     OW17761   3.396   3.168  10.775 -0.3348  0.2818 -0.2098
 2042SOL    HW117762   3.310   3.166  10.816  0.6695  3.8435  2.1152
 2042SOL    HW217763   3.390   3.222  10.696  0.8214  1.3858  0.4503
 2043SOL     OW17764   3.316   2.562  14.807 -0.2176 -0.5351 -0.3438
 2043SOL    HW117765   3.344   2.479  14.768  0.1808 -0.7377  0.3622
 2043SOL    HW217766   3.277   2.532  14.889  0.4757 -0.2989  0.0714
 2044SOL     OW17767   0.393   4.589   5.847  0.3503 -0.0688 -0.2240
 2044SOL    HW117768   0.462   4.612   5.785  0.5162 -1.5129 -0.5627
 2044SOL    HW217769   0.443   4.607   5.927 -0.2548 -2.6472  0.7163
 2045SOL     OW17770   2.318   1.530   6.196  0.5504 -0.2288 -0.2924
 2045SOL    HW117771   2.230   1.555   6.170 -0.2344 -4.3223 -1.6473
 2045SOL    HW217772   2.294   1.513   6.288 -2.6234 -0.0232 -1.0767
 2046SOL     OW17773   3.561   4.604   9.131 -0.0425  0.3674  0.1508
 2046SOL    HW117774   3.564   4.519   9.087 -0.9542 -0.4929  1.7522
 2046SOL    HW217775   3.480   4.644   9.099 -0.3469 -1.7350 -1.6747
 2047SOL     OW17776   3.307   3.153  10.216 -0.2417  0.0931 -0.1521
 2047SOL    HW117777   3.354   3.220  10.167  0.7805 -0.1043  0.5544
 2047SOL    HW217778   3.214   3.158  10.194 -0.2339  2.8501  0.5858
 2048SOL     OW17779   1.424   0.206   5.407 -0.1068 -0.1877 -0.3099
 2048SOL    HW117780   1.480   0.238   5.337 -0.7402  0.6078 -0.4497
 2048SOL    HW217781   1.433   0.276   5.472  1.8898 -0.1082 -0.6772
 2049SOL     OW17782   2.947   4.715   4.536 -0.1355 -0.0466 -0.4083
 2049SOL    HW117783   2.974   0.056   4.490  1.9185 -1.3776 -1.5128
 2049SOL    HW217784   2.861   0.007   4.565  0.4675  0.8917  0.3741
 2050SOL     OW17785   0.230   1.618   4.479 -0.3516  0.1197  0.2002
 2050SOL    HW117786   0.162   1.658   4.424  0.7527 -0.3472 -1.5041
 2050SOL    HW217787   0.184   1.605   4.562  0.2727  0.6626  0.6306
 2051SOL     OW17788   0.800   2.642   3.776  0.5460  0.2646  0.2298
 2051SOL    HW117789   0.826   2.583   3.705  2.5228 -0.0094  1.1818
 2051SOL    HW217790   0.747   2.589   3.835 -0.5319  1.5766  0.4478
 2052SOL     OW17791   1.741   4.215   9.386 -0.1153  0.5502 -0.3743
 2052SOL    HW117792   1.833   4.236   9.377 -0.2529  0.6851 -1.4449
 2052SOL    HW217793   1.733   4.120   9.396  0.9194  0.4742 -0.3442
 2053SOL     OW17794   3.953   4.063   3.306 -0.3998  0.1241  0.0700
 2053SOL    HW117795   3.889   4.047   3.236  0.9561 -0.3800 -1.0568
 2053SOL    HW217796   4.029   4.099   3.261 -0.1951 -0.5744 -0.1321
 2054SOL     OW17797   1.916   4.047   7.256 -0.2217  0.0652 -0.1102
 2054SOL    HW117798   1.994   4.003   7.290 -1.2773 -0.4443  1.6727
 2054SOL    HW217799   1.850   3.986   7.290 -0.0843 -0.1299 -0.1939
 2055SOL     OW17800   3.644   3.506   5.982  0.5627 -0.1447 -0.6043
 2055SOL    HW117801   3.730   3.534   5.952  0.5732 -1.9883 -2.3182
 2055SOL    HW217802   3.649   3.549   6.067 -1.0943 -2.4359  0.6457
 2056SOL     OW17803   3.085   2.719   3.678  0.1476  0.0990  0.3999
 2056SOL    HW117804   3.047   2.783   3.618 -0.0461  0.9589  1.4339
 2056SOL    HW217805   3.087   2.640   3.623 -0.4668  1.0148 -0.9221
 2057SOL     OW17806   4.038   1.842  11.840  0.8185 -0.0139 -0.0015
 2057SOL    HW117807   4.110   1.899  11.813  0.1952  0.9974  0.4268
 2057SOL    HW217808   3.972   1.888  11.788  1.3553 -1.3925 -1.8495
 2058SOL     OW17809   1.445   0.796  16.323 -0.3687  0.2698 -0.7415
 2058SOL    HW117810   1.453   0.891  16.324  0.7258  0.1773 -0.7997
 2058SOL    HW217811   1.455   0.773  16.415 -0.0043  1.7766 -0.4094
 2059SOL     OW17812   4.703   2.349   5.480  0.1944 -0.4357 -0.0183
 2059SOL    HW117813   4.607   2.349   5.474  0.2103  0.9684 -0.2704
 2059SOL    HW217814   4.708   2.254   5.467 -2.7234 -0.7179  0.8723
 2060SOL     OW17815   2.185   3.716   6.000  0.2844  0.4988 -0.0147
 2060SOL    HW117816   2.208   3.655   6.070 -0.4615 -1.3177 -1.3491
 2060SOL    HW217817   2.092   3.698   5.981 -0.1012  0.4934  1.8926
 2061SOL     OW17818   1.723   0.221   8.984 -0.1148 -0.0645  0.0014
 2061SOL    HW117819   1.675   0.151   8.940  0.8846 -0.3161 -0.6894
 2061SOL    HW217820   1.702   0.191   9.073  2.0164  0.6910  0.7592
 2062SOL     OW17821   3.436   0.218   9.654  0.7205 -0.4270 -0.0753
 2062SOL    HW117822   3.378   0.239   9.727 -0.1542 -1.1305 -0.5706
 2062SOL    HW217823   3.488   0.154   9.703  0.6210 -1.1822 -0.9654
 2063SOL     OW17824   0.183   2.597   7.967  0.5393  0.3809 -0.1292
 2063SOL    HW117825   0.128   2.670   7.939  1.1066  1.0317  0.4434
 2063SOL    HW217826   0.117   2.540   8.004  1.5510  0.9230  2.5167
 2064SOL     OW17827   2.893   2.878   6.493  0.2862  0.5068  0.0650
 2064SOL    HW117828   2.966   2.816   6.490 -1.0022 -0.9575 -0.7164
 2064SOL    HW217829   2.827   2.812   6.512  0.3080  0.0040 -1.6374
 2065SOL     OW17830   4.201   0.430   4.656 -0.4049  0.0826 -0.0845
 2065SOL    HW117831   4.173   0.366   4.591 -0.9029 -0.4072  0.6234
 2065SOL    HW217832   4.295   0.428   4.640 -0.1964 -0.2585  1.2274
 2066SOL     OW17833   3.494   2.659   4.330 -0.2157  0.3551 -0.7020
 2066SOL    HW117834   3.501   2.748   4.295  0.5646  0.2392 -0.8224
 2066SOL    HW217835   3.404   2.636   4.304  0.0575 -0.4529 -0.9323
 2067SOL     OW17836   3.855   0.862   8.241  0.0142 -0.0769 -0.2383
 2067SOL    HW117837   3.784   0.810   8.278  0.7417 -1.0233 -0.1889
 2067SOL    HW217838   3.807   0.921   8.184 -2.5384  0.1471  2.1425
 2068SOL     OW17839   4.134   0.600   4.825 -0.0389  0.2677  0.0620
 2068SOL    HW117840   4.144   0.529   4.762 -1.8567  1.9276 -2.1138
 2068SOL    HW217841   4.058   0.649   4.793  0.6078  2.2359  1.5222
 2069SOL     OW17842   4.348   3.918   7.651  0.5196  0.2963  0.1376
 2069SOL    HW117843   4.384   4.004   7.629  1.9026 -0.6785 -1.3683
 2069SOL    HW217844   4.385   3.866   7.580 -0.2136  0.2031 -0.1704
 2070SOL     OW17845   0.577   1.374  15.739  0.4582 -0.0776  0.1444
 2070SOL    HW117846   0.602   1.466  15.725  0.5066  0.1808  1.8676
 2070SOL    HW217847   0.657   1.339  15.779  0.3440  0.8101  1.1652
 2071SOL     OW17848   1.721   2.673   1.021  0.2203 -0.1194 -0.3201
 2071SOL    HW117849   1.631   2.641   1.021  0.4938 -0.8747  0.4677
 2071SOL    HW217850   1.698   2.765   1.033 -1.8361 -0.7061  0.2299
 2072SOL     OW17851   1.697   4.660   2.511 -0.4675  0.2018 -0.3215
 2072SOL    HW117852   1.758   4.709   2.566  0.2776 -1.3980  0.2898
 2072SOL    HW217853   1.638   4.729   2.482  1.1202  1.9100  0.5626
 2073SOL     OW17854   4.558   1.826   7.853  0.0432 -0.0182  0.0284
 2073SOL    HW117855   4.593   1.758   7.911 -0.2679  1.2263  1.6870
 2073SOL    HW217856   4.469   1.819   7.889 -0.5474  0.2173 -1.4185
 2074SOL     OW17857   4.208   4.318   2.212  0.5788 -0.3758  0.2921
 2074SOL    HW117858   4.217   4.389   2.276 -1.9398  1.6922 -1.6598
 2074SOL    HW217859   4.114   4.309   2.227  0.5874 -2.3284 -0.7903
 2075SOL     OW17860   0.971   1.860   8.204 -0.8925  0.1133  0.0159
 2075SOL    HW117861   1.054   1.862   8.157 -0.0156  1.5609  1.6507
 2075SOL    HW217862   0.920   1.934   8.172 -2.1988 -0.9741 -0.4423
 2076SOL     OW17863   0.715   3.695   6.866 -0.3058  0.2167 -0.3226
 2076SOL    HW117864   0.670   3.690   6.782 -0.6132 -0.1539 -0.1377
 2076SOL    HW217865   0.648   3.669   6.929  1.2119  0.6723  1.5189
 2077SOL     OW17866   3.708   1.195   6.282 -0.3158  0.0421  0.0719
 2077SOL    HW117867   3.629   1.235   6.317  0.0124  0.6752  0.0863
 2077SOL    HW217868   3.709   1.105   6.316  2.9834 -0.5034 -1.4297
 2078SOL     OW17869   0.819   0.687  12.007 -0.0992  0.2807  0.2992
 2078SOL    HW117870   0.883   0.749  12.043 -1.9291  2.1566  0.3060
 2078SOL    HW217871   0.847   0.602  12.041 -2.6137  0.5074  2.8994
 2079SOL     OW17872   3.403   3.515   1.969  0.0524 -0.0968 -0.0876
 2079SOL    HW117873   3.385   3.527   1.876  0.2708  0.2523 -0.0832
 2079SOL    HW217874   3.483   3.463   1.969 -0.1004 -0.3316 -0.1638
 2080SOL     OW17875   2.389   0.822  15.102  0.1102 -0.3132 -0.2240
 2080SOL    HW117876   2.455   0.890  15.090 -0.0060  0.0554  1.1894
 2080SOL    HW217877   2.315   0.872  15.137  1.6424 -0.7750  3.6976
 2081SOL     OW17878   3.134   1.341   1.627 -0.3110  0.2993 -0.4709
 2081SOL    HW117879   3.145   1.385   1.711  0.5263 -0.0571 -0.4036
 2081SOL    HW217880   3.181   1.405   1.573  1.3160  0.0401  0.6576
 2082SOL     OW17881   2.959   1.996   9.413  0.1749  0.0198 -0.2192
 2082SOL    HW117882   2.994   2.080   9.443 -2.2902  1.1475 -0.5346
 2082SOL    HW217883   2.916   1.953   9.488 -1.0078  0.7598 -0.4863
 2083SOL     OW17884   4.370   0.286   7.818 -0.3052 -0.1717  0.4678
 2083SOL    HW117885   4.382   0.353   7.886  1.7276  0.0402 -0.1104
 2083SOL    HW217886   4.289   0.246   7.847 -0.1446 -0.1517  0.9487
 2084SOL     OW17887   0.594   1.562  13.527 -0.0081  0.4376 -0.0269
 2084SOL    HW117888   0.683   1.581  13.557  0.7031 -1.5879 -0.8571
 2084SOL    HW217889   0.540   1.622  13.579 -1.5155 -0.3994 -0.6295
 2085SOL     OW17890   1.921   0.386   3.635  0.4100 -0.7229 -0.1645
 2085SOL    HW117891   1.952   0.299   3.659 -0.5701 -0.7134  1.0741
 2085SOL    HW217892   1.891   0.415   3.721 -1.9397 -0.9730 -0.9185
 2086SOL     OW17893   0.545   3.013  16.895 -0.4868 -0.3288  0.2861
 2086SOL    HW117894   0.572   3.105  16.900  1.2151 -0.7130 -1.6615
 2086SOL    HW217895   0.502   3.016  16.810  2.3328  4.2334 -1.0001
 2087SOL     OW17896   4.179   3.918  15.504  0.3915 -0.0528  0.1434
 2087SOL    HW117897   4.107   3.856  15.512 -0.6986  0.7181 -3.4989
 2087SOL    HW217898   4.238   3.869  15.447  0.4469  0.7817 -0.5126
 2088SOL     OW17899   2.182   4.731  10.707 -0.1008  0.0457  0.4205
 2088SOL    HW117900   2.170   4.637  10.717  1.5560 -0.1439  0.5935
 2088SOL    HW217901   2.198   0.015  10.799  2.0047 -2.4266  0.6426
 2089SOL     OW17902   0.188   1.104   1.340 -0.7494 -0.1733 -0.0274
 2089SOL    HW117903   0.128   1.030   1.346 -0.2475 -0.4095  2.3733
 2089SOL    HW217904   0.263   1.071   1.391 -1.0693 -0.5638  0.1853
 2090SOL     OW17905   0.548   3.700   6.612 -0.4150 -0.5129  0.0987
 2090SOL    HW117906   0.480   3.758   6.577 -0.3642  0.6859  1.9705
 2090SOL    HW217907   0.493   3.622   6.609 -1.1024  0.1024 -3.5342
 2091SOL     OW17908   4.459   0.340   2.776  0.2793 -0.4032  0.2076
 2091SOL    HW117909   4.463   0.378   2.864  1.8152  1.3489 -0.6139
 2091SOL    HW217910   4.519   0.266   2.786  1.0561  0.2632  0.4495
 2092SOL     OW17911   2.585   2.149  13.933 -0.4036 -0.0207 -0.0503
 2092SOL    HW117912   2.621   2.235  13.953 -1.0457  0.1442  0.4020
 2092SOL    HW217913   2.663   2.096  13.916 -1.4582 -0.7466 -2.6248
 2093SOL     OW17914   0.425   1.428   1.309 -0.1100  0.1979  0.1528
 2093SOL    HW117915   0.478   1.348   1.317  0.5527  0.5670 -0.5539
 2093SOL    HW217916   0.362   1.420   1.380  0.4002  0.5495  0.6397
 2094SOL     OW17917   1.574   2.896   1.062  0.2242 -0.5959 -0.6084
 2094SOL    HW117918   1.515   2.914   0.989 -2.0501  1.3238  1.7278
 2094SOL    HW217919   1.642   2.962   1.047 -0.0365 -0.2797 -0.3620
 2095SOL     OW17920   1.270   2.374  10.298 -0.1292  0.4263  0.1855
 2095SOL    HW117921   1.354   2.388  10.254  0.6252 -0.1928  1.4095
 2095SOL    HW217922   1.251   2.280  10.300 -0.3796  0.4557 -1.0987
 2096SOL     OW17923   0.529   0.921   8.743 -0.1762  0.7260 -0.7086
 2096SOL    HW117924   0.538   0.866   8.821 -1.2515  0.7512 -0.5661
 2096SOL    HW217925   0.523   0.855   8.674 -1.2774 -0.7014  0.7378
 2097SOL     OW17926   4.652   4.136   1.696  0.0034  0.8189  0.2817
 2097SOL    HW117927   4.596   4.137   1.773  0.3705 -0.0509  0.5514
 2097SOL    HW217928   4.598   4.199   1.647  0.4833 -0.3646 -1.7732
 2098SOL     OW17929   1.297   1.130  11.626 -0.5980  0.1471  0.5246
 2098SOL    HW117930   1.207   1.132  11.659 -0.3914  0.4327  1.0572
 2098SOL    HW217931   1.324   1.214  11.661 -0.7253 -0.4529  2.0637
 2099SOL     OW17932   2.087   3.661   5.147 -0.3507  0.3647 -0.3120
 2099SOL    HW117933   2.121   3.749   5.130 -0.1897 -0.1723 -2.8836
 2099SOL    HW217934   2.000   3.673   5.108  0.0234  2.2345 -0.5756
 2100SOL     OW17935   4.311   2.974   6.836 -0.0571 -0.3890 -0.3670
 2100SOL    HW117936   4.302   2.936   6.923  0.9134  2.4535  1.0043
 2100SOL    HW217937   4.222   2.994   6.808  0.0408 -1.9168 -1.7550
 2101SOL     OW17938   4.399   1.923   2.515 -0.2132 -0.1520 -0.0540
 2101SOL    HW117939   4.453   1.911   2.593  1.6277  3.6096 -0.7651
 2101SOL    HW217940   4.312   1.943   2.551  0.1032  0.5011  0.3461
 2102SOL     OW17941   4.559   1.970   7.591 -0.2130 -0.0468  0.2655
 2102SOL    HW117942   4.543   2.064   7.604 -0.1030 -0.2483  1.8014
 2102SOL    HW217943   4.592   1.944   7.677  0.5885 -1.8536 -0.6018
 2103SOL     OW17944   3.950   2.730   8.219  0.0204  0.6148 -0.1599
 2103SOL    HW117945   4.021   2.760   8.276  0.0893 -0.6125  0.3887
 2103SOL    HW217946   3.889   2.692   8.282 -1.5632  1.7202 -1.0219
 2104SOL     OW17947   1.958   1.994  17.408  0.4378  0.2376 -0.5592
 2104SOL    HW117948   1.880   1.938  17.406  1.3517 -1.1345  2.2812
 2104SOL    HW217949   2.013   1.946  17.470  0.0754 -1.5330 -1.5996
 2105SOL     OW17950   0.963   1.364   6.069  0.2444  0.1628  0.8854
 2105SOL    HW117951   1.042   1.342   6.118 -0.0354 -1.2711  0.6832
 2105SOL    HW217952   1.010   1.406   5.997  0.6502 -1.2424  0.3246
 2106SOL     OW17953   0.816   1.681   6.303  0.1524  0.1808  0.2604
 2106SOL    HW117954   0.908   1.662   6.284  0.3708 -1.6834  3.0284
 2106SOL    HW217955   0.827   1.666   6.397  3.4013  0.4309 -0.0597
 2107SOL     OW17956   0.591   4.712   9.405  0.0310  0.1264  0.2705
 2107SOL    HW117957   0.626   4.654   9.472 -1.5390 -1.6984 -0.4913
 2107SOL    HW217958   0.562   0.048   9.458 -0.1861  0.9101 -0.9396
 2108SOL     OW17959   3.821   4.059   6.896  0.1968  0.2933  0.2832
 2108SOL    HW117960   3.734   4.018   6.887  0.3794 -0.2604  1.0952
 2108SOL    HW217961   3.809   4.134   6.837  0.4649 -0.1014 -0.2707
 2109SOL     OW17962   0.480   3.890   1.380  0.7481 -0.3228  0.3612
 2109SOL    HW117963   0.523   3.812   1.413  2.7516  0.6983  0.1447
 2109SOL    HW217964   0.529   3.962   1.420 -2.7021  1.9618  0.5446
 2110SOL     OW17965   0.518   0.389   2.036  0.0751  0.3617  0.0890
 2110SOL    HW117966   0.471   0.459   1.991 -0.7698 -0.1943  0.1070
 2110SOL    HW217967   0.452   0.347   2.092 -0.2731 -0.4984 -0.9556
 2111SOL     OW17968   1.024   2.241   4.865 -0.0502  0.7337 -0.0648
 2111SOL    HW117969   1.114   2.247   4.898  0.1718 -3.7823  0.2177
 2111SOL    HW217970   0.967   2.224   4.940 -0.2739 -1.7396 -0.7760
 2112SOL     OW17971   4.410   2.496   8.747 -0.1829  0.2956  0.3138
 2112SOL    HW117972   4.352   2.570   8.764 -0.7736  0.1305 -0.9664
 2112SOL    HW217973   4.420   2.464   8.837 -0.4648 -2.6431 -0.6829
 2113SOL     OW17974   2.322   3.519  15.313 -0.0834 -0.2260  0.4546
 2113SOL    HW117975   2.333   3.432  15.352  0.7537 -0.1330  0.4241
 2113SOL    HW217976   2.405   3.519  15.265 -0.7783 -1.1949 -0.7512
 2114SOL     OW17977   4.172   1.962  12.617 -0.4044 -0.2189  0.0267
 2114SOL    HW117978   4.161   1.880  12.567  1.5596 -2.3724  3.1293
 2114SOL    HW217979   4.099   2.008  12.576 -1.5380 -2.8503 -0.9099
 2115SOL     OW17980   0.211   3.644  11.535 -0.2450 -0.3617  0.4475
 2115SOL    HW117981   0.161   3.715  11.574 -1.2674 -1.1903  0.6332
 2115SOL    HW217982   0.151   3.571  11.545  0.4158 -1.2039 -1.6164
 2116SOL     OW17983   1.259   1.800   3.781 -0.8613  0.5215  0.0428
 2116SOL    HW117984   1.290   1.780   3.693 -0.0199  3.8721 -0.4327
 2116SOL    HW217985   1.183   1.743   3.768  0.9820 -1.6612 -1.0760
 2117SOL     OW17986   4.315   0.157   9.501 -0.3149 -0.1402  0.0586
 2117SOL    HW117987   4.359   0.237   9.473 -0.4169  0.4690  1.6604
 2117SOL    HW217988   4.264   0.132   9.424 -1.8346 -1.7373  1.6065
 2118SOL     OW17989   2.857   3.791   5.473  0.3952  0.5064  0.1498
 2118SOL    HW117990   2.856   3.825   5.384 -1.4903  1.1581  0.4253
 2118SOL    HW217991   2.928   3.727   5.479  2.1450  2.3916 -0.5182
 2119SOL     OW17992   3.252   0.522   8.864 -0.2333  0.0627 -0.3717
 2119SOL    HW117993   3.309   0.447   8.879  0.4492  0.8037  0.8049
 2119SOL    HW217994   3.227   0.533   8.956  1.9345  0.7382  0.1552
 2120SOL     OW17995   3.544   2.439   6.322 -0.2220 -0.1652  0.5576
 2120SOL    HW117996   3.497   2.504   6.374  0.7584  1.5258 -0.7053
 2120SOL    HW217997   3.478   2.370   6.336  1.2601 -1.6108  0.4244
 2121SOL     OW17998   1.744   2.298   2.506 -0.1264 -0.2328 -0.3356
 2121SOL    HW117999   1.730   2.215   2.461 -0.7336 -0.3830  0.1229
 2121SOL    HW218000   1.679   2.351   2.460 -1.7457 -0.2295  1.9137
 2122SOL     OW18001   2.233   2.847   2.442 -0.1923  0.4709  0.4577
 2122SOL    HW118002   2.252   2.755   2.457 -0.6403  0.1832 -0.7370
 2122SOL    HW218003   2.287   2.886   2.511  0.8070 -1.5556  0.8105
 2123SOL     OW18004   0.765   1.974   7.042  0.4863 -0.2727  0.0698
 2123SOL    HW118005   0.850   1.956   7.000  0.0141  1.6856 -1.7356
 2123SOL    HW218006   0.777   1.949   7.133 -0.2617  0.4644  0.3640
 2124SOL     OW18007   2.802   2.114   7.653  0.7038  0.4771 -0.5428
 2124SOL    HW118008   2.846   2.127   7.568 -0.0308  1.0677 -0.8345
 2124SOL    HW218009   2.786   2.207   7.670 -1.5073 -0.0360  0.1153
 2125SOL     OW18010   0.059   0.838   5.358  0.6207  0.0056  0.2597
 2125SOL    HW118011   4.714   0.795   5.376 -1.1643  2.4894 -2.0722
 2125SOL    HW218012   0.123   0.768   5.367 -1.1527 -1.8389 -1.3728
 2126SOL     OW18013   3.174   1.312   2.366 -0.0600  0.1030  0.0475
 2126SOL    HW118014   3.142   1.336   2.279 -0.9827  0.3456  0.4586
 2126SOL    HW218015   3.159   1.392   2.417 -0.5837 -0.2465  0.4390
 2127SOL     OW18016   3.677   0.033   9.375 -0.1012  0.0781 -0.0052
 2127SOL    HW118017   3.588   0.053   9.347  0.4139  0.5003 -1.3629
 2127SOL    HW218018   3.665   4.695   9.430 -0.7888  0.0871 -0.1475
 2128SOL     OW18019   4.219   1.449   4.343  0.0360 -0.2163 -0.5439
 2128SOL    HW118020   4.298   1.435   4.396 -0.8250 -1.0107  0.5517
 2128SOL    HW218021   4.199   1.360   4.313  2.2129 -0.4527 -1.3035
 2129SOL     OW18022   2.122   3.104   4.062 -0.0643 -0.2338  0.3060
 2129SOL    HW118023   2.033   3.073   4.049 -0.1746  0.6703 -1.0311
 2129SOL    HW218024   2.114   3.195   4.036  1.2428  0.0113  0.7422
 2130SOL     OW18025   2.322   3.816   0.793  0.1886  0.0777 -0.2081
 2130SOL    HW118026   2.413   3.812   0.766  0.7844 -1.5581  2.0577
 2130SOL    HW218027   2.305   3.908   0.774 -0.0054  1.0033  4.4210
 2131SOL     OW18028   2.554   1.971   2.378  0.0858  0.9239 -0.2636
 2131SOL    HW118029   2.525   2.025   2.305 -3.9113 -1.0935 -0.1891
 2131SOL    HW218030   2.609   2.039   2.416 -1.3906  1.4910  0.8423
 2132SOL     OW18031   0.702   2.933   7.314  0.2268  0.2445  1.1939
 2132SOL    HW118032   0.744   2.858   7.356  1.9686 -0.0561 -1.1229
 2132SOL    HW218033   0.629   2.889   7.271  1.3339 -1.0679  0.6711
 2133SOL     OW18034   2.401   0.653  16.859 -0.0914 -0.1885 -0.3146
 2133SOL    HW118035   2.485   0.685  16.826 -1.1319  1.3748 -1.4444
 2133SOL    HW218036   2.349   0.649  16.779 -1.8621  3.2472  0.6627
 2134SOL     OW18037   0.600   3.802   9.629 -0.4786  0.2162 -0.0477
 2134SOL    HW118038   0.629   3.876   9.683  2.5706 -0.4689 -0.7616
 2134SOL    HW218039   0.523   3.847   9.593 -0.7998 -0.3331 -0.0568
 2135SOL     OW18040   4.005   1.148   5.683 -0.7433 -0.3612 -0.4257
 2135SOL    HW118041   4.071   1.144   5.613 -0.1014  3.0223 -0.0010
 2135SOL    HW218042   3.923   1.165   5.637 -1.5282  0.5072  1.3142
 2136SOL     OW18043   0.422   1.855   2.906  0.0449 -0.2157 -0.0161
 2136SOL    HW118044   0.342   1.878   2.859  0.9428  2.6227 -0.1723
 2136SOL    HW218045   0.492   1.859   2.840 -0.5505  1.7504 -0.5557
 2137SOL     OW18046   4.104   1.523   5.535 -0.6547  0.0838  0.3820
 2137SOL    HW118047   4.063   1.488   5.456  0.6260 -0.1098 -0.2025
 2137SOL    HW218048   4.048   1.600   5.548  0.9431  1.3973 -0.4780
 2138SOL     OW18049   1.626   0.648   8.371  0.0377  0.1500 -0.2444
 2138SOL    HW118050   1.705   0.678   8.417 -0.3246  0.0886  0.4256
 2138SOL    HW218051   1.599   0.727   8.326  2.8875  0.5885 -1.1929
 2139SOL     OW18052   1.854   1.171   7.334 -0.1307  0.6385 -0.2594
 2139SOL    HW118053   1.792   1.232   7.293  0.2179  1.5193  0.5348
 2139SOL    HW218054   1.798   1.093   7.330 -0.4480  0.8099  0.9857
 2140SOL     OW18055   0.111   1.757   8.130 -0.6828  0.5244 -0.6135
 2140SOL    HW118056   0.107   1.690   8.198  0.9413  0.5714 -0.4734
 2140SOL    HW218057   0.031   1.744   8.080  0.2686 -0.9304 -1.7722
 2141SOL     OW18058   0.867   2.556   6.636 -0.2858 -0.3900 -0.1859
 2141SOL    HW118059   0.861   2.641   6.593 -2.0877  0.3419  1.5211
 2141SOL    HW218060   0.790   2.561   6.693 -0.3699  0.8595 -0.4172
 2142SOL     OW18061   0.968   1.228   6.867  0.2199  0.0550 -0.3544
 2142SOL    HW118062   1.038   1.289   6.893 -0.5163  0.1011  1.4874
 2142SOL    HW218063   0.894   1.272   6.909 -1.2490 -1.4282 -1.3954
 2143SOL     OW18064   0.541   0.095   2.601  0.7169  0.1273 -0.4132
 2143SOL    HW118065   0.618   0.146   2.577  0.1526  1.4896  0.6714
 2143SOL    HW218066   0.518   0.139   2.683  0.0676 -0.7159 -0.1441
 2144SOL     OW18067   1.584   4.093   8.709 -0.5791 -0.1220 -0.1909
 2144SOL    HW118068   1.574   4.002   8.681 -0.7438 -1.0444  2.8643
 2144SOL    HW218069   1.503   4.097   8.761  0.3329  0.2963  1.1907
 2145SOL     OW18070   2.330   0.080  10.502  0.3044  0.3775  0.0530
 2145SOL    HW118071   2.269   0.039  10.564  1.6872  0.4509  1.4698
 2145SOL    HW218072   2.416   0.078  10.545  0.0024  0.6515  0.6717
 2146SOL     OW18073   3.974   3.438   4.497  0.4278  0.0023  0.5243
 2146SOL    HW118074   3.920   3.364   4.525 -0.6464  0.5654 -0.0260
 2146SOL    HW218075   4.010   3.466   4.581  0.8520  0.0279  0.3314
 2147SOL     OW18076   0.560   0.504   2.911 -0.3932 -0.3557  0.1026
 2147SOL    HW118077   0.543   0.548   2.995 -2.6950  1.0014 -1.0615
 2147SOL    HW218078   0.472   0.494   2.874 -0.6148  2.1547 -0.0496
 2148SOL     OW18079   3.712   0.817   2.116  0.1306  0.7679 -0.1282
 2148SOL    HW118080   3.652   0.745   2.131  0.2704  1.1733  2.4039
 2148SOL    HW218081   3.654   0.893   2.105  0.5892  1.0828 -0.3955
 2149SOL     OW18082   3.097   3.706  15.306 -0.3502  0.5640 -0.2135
 2149SOL    HW118083   3.189   3.681  15.296 -0.4156 -0.1607  1.0203
 2149SOL    HW218084   3.066   3.666  15.224 -0.4689 -0.1760  0.1854
 2150SOL     OW18085   3.956   4.710   6.569 -0.0616 -0.2361 -0.7454
 2150SOL    HW118086   3.890   0.039   6.586 -1.8377 -2.3176  0.6098
 2150SOL    HW218087   3.998   0.003   6.489 -0.3699  0.7377 -0.5190
 2151SOL     OW18088   1.053   4.481   4.330 -0.7945 -0.0680  0.0594
 2151SOL    HW118089   0.991   4.458   4.262 -1.0705 -0.8811  0.5846
 2151SOL    HW218090   1.085   4.563   4.292  0.9034 -0.3452  0.8590
 2152SOL     OW18091   0.896   0.019   2.571 -0.4985  0.2598  0.5053
 2152SOL    HW118092   0.868   0.100   2.613  0.6467  1.2473 -0.6048
 2152SOL    HW218093   0.917   0.053   2.484  2.4909  2.3999  2.0526
 2153SOL     OW18094   3.280   3.304   4.441  0.7681 -0.4734 -0.0612
 2153SOL    HW118095   3.195   3.302   4.398  0.5751 -2.5202  0.4484
 2153SOL    HW218096   3.298   3.214   4.466 -1.0929 -0.2047  2.2415
 2154SOL     OW18097   2.574   2.837  11.805  0.0079 -0.1968 -0.1417
 2154SOL    HW118098   2.663   2.872  11.810 -0.7506  1.8563 -0.8344
 2154SOL    HW218099   2.534   2.893  11.738 -1.2440  0.2681  0.9992
 2155SOL     OW18100   0.074   1.973   4.231 -0.0378  0.0718  0.1721
 2155SOL    HW118101   4.733   2.024   4.216  1.2215  2.0077  0.0020
 2155SOL    HW218102   0.097   1.993   4.321  0.5947 -2.4033  0.5774
 2156SOL     OW18103   0.340   3.619  12.651 -0.2057  0.1439  0.1052
 2156SOL    HW118104   0.360   3.537  12.696  1.9742 -0.1174 -1.3008
 2156SOL    HW218105   0.360   3.681  12.721 -1.6497  2.0408 -1.1809
 2157SOL     OW18106   3.704   4.676   2.596  0.1879 -0.2807 -0.0677
 2157SOL    HW118107   3.720   0.024   2.560 -1.3061  1.0678  2.4959
 2157SOL    HW218108   3.689   4.704   2.687 -1.3190  3.9628 -1.6260
 2158SOL     OW18109   4.659   3.122   2.423 -0.5468  0.7462 -0.3770
 2158SOL    HW118110   4.623   3.181   2.489  0.1691  1.1539 -0.3569
 2158SOL    HW218111   4.595   3.126   2.352  0.9380 -1.9592 -1.8715
 2159SOL     OW18112   0.818   4.655  14.266 -0.1397 -0.1183  0.3957
 2159SOL    HW118113   0.890   4.613  14.313  0.3931  0.5515  0.1697
 2159SOL    HW218114   0.749   4.646  14.332 -0.7069 -0.0136 -0.1766
 2160SOL     OW18115   2.827   4.413   7.117 -0.0161  0.2017  0.0160
 2160SOL    HW118116   2.744   4.455   7.137 -0.3416 -0.4927  0.1012
 2160SOL    HW218117   2.845   4.474   7.046 -0.8296 -0.5465 -0.8317
 2161SOL     OW18118   2.127   2.170   1.465  0.2205 -0.1960  0.0572
 2161SOL    HW118119   2.053   2.206   1.513 -1.1050 -1.4443 -1.0600
 2161SOL    HW218120   2.148   2.230   1.394 -0.8315 -0.0259 -0.1070
 2162SOL     OW18121   1.095   4.577   4.891 -0.0234  0.4844 -0.1152
 2162SOL    HW118122   1.159   4.648   4.891  0.5455 -0.0190  0.4281
 2162SOL    HW218123   1.079   4.562   4.985 -0.7864 -0.2538 -0.3693
 2163SOL     OW18124   4.628   2.187   1.635 -0.2426  0.5473 -0.1036
 2163SOL    HW118125   4.654   2.097   1.654  1.3622  1.0945  0.3024
 2163SOL    HW218126   4.572   2.210   1.709  0.1109  2.9855 -0.5896
 2164SOL     OW18127   0.518   4.450   1.799 -0.3231 -0.0438  0.0958
 2164SOL    HW118128   0.536   4.535   1.759  1.8511  0.5993  2.4324
 2164SOL    HW218129   0.509   4.481   1.889 -0.4893 -1.8863  0.7292
 2165SOL     OW18130   0.905   2.504  14.932  0.2605  0.6463  0.1908
 2165SOL    HW118131   0.949   2.428  14.894 -1.4145 -0.7830  1.0982
 2165SOL    HW218132   0.865   2.541  14.853 -0.3665  0.8932  0.6237
 2166SOL     OW18133   1.656   1.218  16.093  0.5502 -0.2335  0.1112
 2166SOL    HW118134   1.728   1.207  16.156 -0.2002 -0.4144  0.9451
 2166SOL    HW218135   1.634   1.127  16.072 -1.4873  0.3529 -0.2375
 2167SOL     OW18136   4.000   1.442   7.315  0.1186 -0.2033  0.1527
 2167SOL    HW118137   4.071   1.379   7.300  0.4319  0.0704  0.5029
 2167SOL    HW218138   4.047   1.520   7.345  1.7977 -0.7918 -0.9157
 2168SOL     OW18139   1.553   3.770   4.745 -0.6727 -0.0533  0.1565
 2168SOL    HW118140   1.472   3.811   4.776  0.9705  1.9249  1.8527
 2168SOL    HW218141   1.522   3.683   4.719 -0.2752  0.0223 -0.5746
 2169SOL     OW18142   1.430   2.921   4.081  0.0145  1.1548  0.7740
 2169SOL    HW118143   1.477   3.004   4.070  2.4276 -0.3659 -0.2027
 2169SOL    HW218144   1.496   2.853   4.093 -0.9645 -0.2302 -1.6596
 2170SOL     OW18145   3.171   2.982  10.478 -0.1844 -0.2884 -0.0401
 2170SOL    HW118146   3.121   3.024  10.548  1.8273  0.6941  0.8158
 2170SOL    HW218147   3.173   3.053  10.413 -1.6777  0.2271  0.4657
 2171SOL     OW18148   4.212   2.281   2.527  0.0355  0.0048 -0.1347
 2171SOL    HW118149   4.285   2.310   2.472  0.7196  0.3729  0.9640
 2171SOL    HW218150   4.166   2.363   2.545 -1.3110 -0.5909 -0.8569
 2172SOL     OW18151   1.726   1.567  12.133  0.1969  0.3405 -1.0901
 2172SOL    HW118152   1.777   1.507  12.188  0.8358  1.1921 -0.7600
 2172SOL    HW218153   1.798   1.620  12.100  1.0152 -0.2988 -0.3189
 2173SOL     OW18154   1.474   1.161   4.328  0.2497  0.1156  0.0547
 2173SOL    HW118155   1.551   1.206   4.291  0.3373 -0.5219 -0.5468
 2173SOL    HW218156   1.491   1.172   4.421 -1.0240 -1.3035  0.4569
 2174SOL     OW18157   0.926   0.366   2.309  0.8607 -0.4643  0.0073
 2174SOL    HW118158   0.916   0.275   2.280 -2.7589 -0.3517  0.8656
 2174SOL    HW218159   0.874   0.415   2.245  1.9729 -0.5023 -0.9343
 2175SOL     OW18160   1.053   1.595   6.228 -0.2101 -0.0653 -0.6853
 2175SOL    HW118161   1.121   1.654   6.259 -1.8444  1.0703  0.7760
 2175SOL    HW218162   1.096   1.510   6.222 -0.8655 -0.5146  0.8435
 2176SOL     OW18163   1.060   0.637   7.481  0.0500 -0.0740  0.0502
 2176SOL    HW118164   1.059   0.693   7.559  0.8556 -0.1151  0.0871
 2176SOL    HW218165   1.120   0.566   7.504  0.5214 -0.0178 -1.0058
 2177SOL     OW18166   2.631   1.348   3.797  0.2154  0.4277  0.1750
 2177SOL    HW118167   2.627   1.373   3.705  0.1181  1.4179  0.4515
 2177SOL    HW218168   2.542   1.332   3.829  0.3223 -0.8428 -0.1503
 2178SOL     OW18169   2.817   3.180   5.184  0.0675  0.2042  0.0658
 2178SOL    HW118170   2.907   3.184   5.151 -0.2155  0.9711 -0.6137
 2178SOL    HW218171   2.818   3.130   5.265  1.5415 -2.3646 -1.5366
 2179SOL     OW18172   4.291   3.857   6.220 -0.4947 -0.3731 -0.2100
 2179SOL    HW118173   4.205   3.886   6.189  0.0010 -0.6857 -1.8771
 2179SOL    HW218174   4.265   3.860   6.312  1.1298 -0.1741  0.2336
 2180SOL     OW18175   0.144   3.949  16.281 -0.4578  0.3992 -0.2013
 2180SOL    HW118176   0.082   3.896  16.231 -1.9555  0.7500  1.2789
 2180SOL    HW218177   0.210   3.883  16.302 -1.9302 -0.8058  0.6520
 2181SOL     OW18178   0.376   0.886   8.269 -0.4086  0.2154 -0.1630
 2181SOL    HW118179   0.456   0.937   8.272  0.1987 -0.7364 -0.2872
 2181SOL    HW218180   0.352   0.849   8.354  0.0500  1.4708  0.5129
 2182SOL     OW18181   0.812   3.080   1.816 -0.0526 -0.0783 -0.0667
 2182SOL    HW118182   0.846   3.165   1.790 -2.5278  1.0657  0.4796
 2182SOL    HW218183   0.722   3.106   1.836  0.6197  1.9390  0.3495
 2183SOL     OW18184   1.489   2.110   4.376 -0.0758 -0.1631 -0.0925
 2183SOL    HW118185   1.403   2.112   4.418 -0.1023 -1.8453 -0.0811
 2183SOL    HW218186   1.467   2.121   4.283 -1.2810 -0.3713  0.1692
 2184SOL     OW18187   0.727   1.122  12.789 -0.4561  0.0978  0.2505
 2184SOL    HW118188   0.687   1.046  12.748  0.0489  0.2598 -0.5434
 2184SOL    HW218189   0.650   1.163  12.828  0.4943  0.6953  1.4936
 2185SOL     OW18190   0.948   4.414   4.076 -0.1863  0.3720 -0.4754
 2185SOL    HW118191   0.981   4.329   4.046 -0.0891  0.5270 -0.8201
 2185SOL    HW218192   0.902   4.448   3.999 -1.5887 -0.2518  0.0955
 2186SOL     OW18193   2.779   1.592   6.410 -0.6021  0.5824  0.1814
 2186SOL    HW118194   2.708   1.559   6.355 -0.1192  0.6399 -0.4878
 2186SOL    HW218195   2.776   1.684   6.381  0.5820  0.3489 -0.6873
 2187SOL     OW18196   0.491   1.849   9.072 -0.2853  0.3235  1.1115
 2187SOL    HW118197   0.512   1.756   9.060 -0.6226  0.4434 -0.3979
 2187SOL    HW218198   0.423   1.872   9.010 -0.1616 -0.3216  0.7307
 2188SOL     OW18199   0.799   1.213   4.749  0.0890 -0.2024  0.2952
 2188SOL    HW118200   0.871   1.249   4.697  0.2281 -0.6281  0.1964
 2188SOL    HW218201   0.757   1.156   4.684 -3.1960  0.9648  1.3987
 2189SOL     OW18202   2.316   0.118   4.797  0.0278 -0.0677  0.0540
 2189SOL    HW118203   2.262   0.062   4.853  2.2148 -3.0501 -0.7862
 2189SOL    HW218204   2.337   0.061   4.722  0.9834 -1.1877  1.1645
 2190SOL     OW18205   4.211   0.195   4.484  0.6745  0.8598  0.2614
 2190SOL    HW118206   4.246   0.253   4.416 -0.7649  0.6965 -0.6079
 2190SOL    HW218207   4.284   0.134   4.500 -0.2309  0.1826  1.7820
 2191SOL     OW18208   1.141   3.268  15.357  0.1571 -0.0014  0.0324
 2191SOL    HW118209   1.056   3.284  15.315  0.6347  1.0016 -0.5831
 2191SOL    HW218210   1.192   3.260  15.276  0.0803 -2.5541  0.2611
 2192SOL     OW18211   3.342   1.091   3.750 -0.0749  0.0287  0.0500
 2192SOL    HW118212   3.296   1.014   3.719  1.3340 -0.3958 -1.0126
 2192SOL    HW218213   3.420   1.057   3.793  0.4204 -0.3107 -1.1184
 2193SOL     OW18214   2.220   2.968   2.169 -0.5806 -0.2162  0.0643
 2193SOL    HW118215   2.132   3.002   2.150 -0.9204  0.5898  3.0833
 2193SOL    HW218216   2.215   2.935   2.259  0.1606 -0.3847  0.0433
 2194SOL     OW18217   1.697   3.537   2.712 -1.0212  0.6380  0.0865
 2194SOL    HW118218   1.607   3.570   2.706 -0.6404  2.0355  2.1871
 2194SOL    HW218219   1.702   3.503   2.801  0.1185  1.7058  0.4203
 2195SOL     OW18220   1.121   0.207   8.472  0.0230  0.4602  0.6009
 2195SOL    HW118221   1.048   0.146   8.483  1.3769 -1.0193  1.3640
 2195SOL    HW218222   1.082   0.293   8.455 -0.3029  0.4522  1.3210
 2196SOL     OW18223   1.193   0.348   0.854  0.1828  0.5043 -0.1118
 2196SOL    HW118224   1.149   0.325   0.773  0.6835  2.2978 -0.8960
 2196SOL    HW218225   1.231   0.269   0.893 -1.3870  0.0453  0.5176
 2197SOL     OW18226   1.361   0.349   2.550 -0.2141 -0.1816 -0.3069
 2197SOL    HW118227   1.370   0.365   2.456  0.5300 -1.0834 -0.3928
 2197SOL    HW218228   1.284   0.400   2.573  1.5265  2.2036  0.2332
 2198SOL     OW18229   2.161   2.148   8.274  0.8241  0.5458  0.8488
 2198SOL    HW118230   2.133   2.076   8.218  1.9310 -0.0294  1.0291
 2198SOL    HW218231   2.130   2.223   8.223 -2.7240 -1.8144 -0.4304
 2199SOL     OW18232   0.820   3.310   3.772 -0.0552  0.4423  0.4259
 2199SOL    HW118233   0.796   3.399   3.747 -1.8747  0.4511  2.1723
 2199SOL    HW218234   0.735   3.268   3.759  0.3943 -0.7604  1.2902
 2200SOL     OW18235   0.726   4.182   7.039  0.4191 -0.0898 -0.4051
 2200SOL    HW118236   0.647   4.159   7.087  0.7009  0.8781  0.5203
 2200SOL    HW218237   0.796   4.142   7.091 -0.2861 -0.3428  0.3498
 2201SOL     OW18238   1.643   0.946   7.889  0.3418  0.2762  0.0564
 2201SOL    HW118239   1.694   0.893   7.950 -0.4439 -0.8350 -0.2612
 2201SOL    HW218240   1.637   1.028   7.939 -0.3872  0.4458 -0.3164
 2202SOL     OW18241   3.091   3.799   3.183  0.1019  0.4451 -0.2637
 2202SOL    HW118242   3.095   3.725   3.243  0.7363  0.1197 -0.7023
 2202SOL    HW218243   3.182   3.823   3.167  0.2068  0.5492  0.4838
 2203SOL     OW18244   1.066   1.050  11.752 -0.2858  0.0837 -0.3111
 2203SOL    HW118245   0.989   1.055  11.694  0.8888  0.4950 -1.8341
 2203SOL    HW218246   1.045   0.974  11.805  0.5033 -1.4950 -2.2574
 2204SOL     OW18247   1.208   0.834   5.618  0.1631  0.4527 -0.5670
 2204SOL    HW118248   1.220   0.862   5.709  0.4375 -0.5157 -0.3054
 2204SOL    HW218249   1.125   0.877   5.598 -0.6055 -0.7558 -0.0126
 2205SOL     OW18250   1.960   3.342   1.491  0.3576  0.0677  0.0742
 2205SOL    HW118251   1.940   3.432   1.518 -0.1040  0.0401 -0.1756
 2205SOL    HW218252   1.916   3.292   1.560  0.3591  0.8128  0.6250
 2206SOL     OW18253   1.408   2.494  10.589 -0.8349 -0.0746 -0.2658
 2206SOL    HW118254   1.313   2.486  10.594 -0.6689 -0.3498  2.1959
 2206SOL    HW218255   1.430   2.481  10.496 -1.4448  2.4727 -0.7742
 2207SOL     OW18256   4.493   3.207   2.701 -0.1081  0.3096  0.0935
 2207SOL    HW118257   4.410   3.244   2.671 -0.3634  0.1183  0.5697
 2207SOL    HW218258   4.473   3.206   2.794  0.4704  0.8081  0.2178
 2208SOL     OW18259   0.070   0.921   4.760 -0.2593  0.1102 -0.2377
 2208SOL    HW118260   0.019   0.842   4.779 -0.5039  0.4063  0.3258
 2208SOL    HW218261   0.135   0.899   4.826 -0.2139  0.0727 -0.2943
 2209SOL     OW18262   2.860   2.481  15.188 -0.0422 -0.0950  0.4475
 2209SOL    HW118263   2.826   2.560  15.146 -0.0412 -0.1692  0.3097
 2209SOL    HW218264   2.860   2.416  15.118  1.3813  0.2044  0.1680
 2210SOL     OW18265   0.945   0.021   0.661 -0.1872 -0.8680 -0.3922
 2210SOL    HW118266   0.979   0.103   0.626 -0.6138 -0.3165  0.4966
 2210SOL    HW218267   0.852   0.041   0.668  0.2176  0.0352  2.0718
 2211SOL     OW18268   0.596   3.328  14.075  0.1256  0.2519 -0.0409
 2211SOL    HW118269   0.584   3.409  14.025 -1.7965  1.5184  2.4784
 2211SOL    HW218270   0.594   3.355  14.167 -0.9495 -0.3339  0.1055
 2212SOL     OW18271   1.096   1.592   3.531  0.1061  0.1513 -0.5900
 2212SOL    HW118272   1.099   1.564   3.439  0.2380  0.9281 -0.8186
 2212SOL    HW218273   1.016   1.545   3.557  0.3939 -0.1836 -0.3176
 2213SOL     OW18274   1.195   1.531   1.657 -0.0915 -0.3703 -0.6203
 2213SOL    HW118275   1.145   1.450   1.658  1.4128 -1.2827  1.6883
 2213SOL    HW218276   1.255   1.520   1.583  0.5149  2.1795 -0.5159
 2214SOL     OW18277   0.389   3.410   6.975 -0.7489  0.2659  0.1658
 2214SOL    HW118278   0.431   3.382   6.894 -1.6036 -0.8532  0.1076
 2214SOL    HW218279   0.314   3.458   6.938  0.8159  3.2298  0.9011
 2215SOL     OW18280   3.672   3.852   7.951 -0.2908  0.8334  0.5164
 2215SOL    HW118281   3.578   3.835   7.950 -0.4991  2.1479 -1.0644
 2215SOL    HW218282   3.676   3.874   8.044  1.0268  1.1238  0.3926
 2216SOL     OW18283   0.265   4.274   3.706  0.0779  0.1924 -0.2566
 2216SOL    HW118284   0.200   4.345   3.714  1.3915  1.2919  0.7954
 2216SOL    HW218285   0.219   4.209   3.760 -0.0186 -0.3123 -0.9588
 2217SOL     OW18286   3.736   0.754   3.882 -0.2983  0.2676 -0.1699
 2217SOL    HW118287   3.659   0.807   3.860 -0.9216  0.2642  1.9973
 2217SOL    HW218288   3.788   0.798   3.816 -0.4970  0.7516 -0.0014
 2218SOL     OW18289   4.515   3.677   2.850 -0.3576 -0.1690 -0.2347
 2218SOL    HW118290   4.504   3.734   2.926  1.9351 -1.5173  1.1237
 2218SOL    HW218291   4.462   3.604   2.882 -1.1868 -0.1259 -1.4844
 2219SOL     OW18292   1.521   2.698   9.261  0.7270  0.4554 -0.3681
 2219SOL    HW118293   1.527   2.689   9.356 -1.8083 -1.4366 -0.4035
 2219SOL    HW218294   1.610   2.675   9.233  0.8198  2.9343 -2.1502
 2220SOL     OW18295   2.578   0.667  17.230  0.1425 -0.0663  0.2764
 2220SOL    HW118296   2.647   0.657  17.165 -0.2327 -2.2096  0.2087
 2220SOL    HW218297   2.579   0.758  17.258  0.3609  0.2967 -0.9282
 2221SOL     OW18298   3.178   4.267  15.947  0.3849  0.4029 -0.2400
 2221SOL    HW118299   3.156   4.252  16.039  2.2615 -0.7703  0.0277
 2221SOL    HW218300   3.165   4.361  15.949  0.7765  0.4564 -0.1297
 2222SOL     OW18301   3.203   2.036   5.899  0.1447 -0.2306  0.0214
 2222SOL    HW118302   3.255   2.060   5.976  0.7784  1.1959 -0.8496
 2222SOL    HW218303   3.152   2.114   5.878  1.2207  1.2006  2.6767
 2223SOL     OW18304   0.083   4.462  10.527  0.0619  0.4189  0.0686
 2223SOL    HW118305   0.043   4.450  10.440  0.3849  1.5122 -0.2241
 2223SOL    HW218306   0.156   4.402  10.517  0.4121  0.4320  2.5863
 2224SOL     OW18307   3.877   0.289   6.877 -0.7084  0.2259 -0.7398
 2224SOL    HW118308   3.936   0.236   6.930  0.0477 -0.0653 -1.8697
 2224SOL    HW218309   3.801   0.300   6.933  0.1716 -2.5282  1.0001
 2225SOL     OW18310   3.740   4.671  14.525  0.1022  0.1303 -0.3962
 2225SOL    HW118311   3.755   4.585  14.486  0.1872  0.7807 -1.7925
 2225SOL    HW218312   3.650   4.668  14.557  0.2692  2.4337  0.2602
 2226SOL     OW18313   0.706   0.690  12.516 -0.1291  0.0588  0.2943
 2226SOL    HW118314   0.635   0.651  12.467  0.7356 -0.9350 -0.1695
 2226SOL    HW218315   0.681   0.782  12.517  1.3398  0.4543  0.7600
 2227SOL     OW18316   4.115   1.185   3.546 -0.3268  0.1648 -0.0517
 2227SOL    HW118317   4.116   1.138   3.463  2.1462 -1.3047  0.8068
 2227SOL    HW218318   4.060   1.260   3.524  1.4349  0.8887 -1.9689
 2228SOL     OW18319   3.910   2.741   8.854 -0.2100 -0.2944  0.2284
 2228SOL    HW118320   3.817   2.761   8.866 -0.1382 -1.1828  2.2350
 2228SOL    HW218321   3.953   2.805   8.911 -0.5503 -0.2862  0.4747
 2229SOL     OW18322   4.123   1.826  16.075  0.0188  0.4873  0.2822
 2229SOL    HW118323   4.153   1.868  15.995 -0.1242  0.7761  0.3799
 2229SOL    HW218324   4.144   1.733  16.066 -0.7421  0.5917 -2.5886
 2230SOL     OW18325   1.792   3.370   2.010  0.8922 -0.1250 -0.2514
 2230SOL    HW118326   1.734   3.416   2.071  0.2784 -1.5104  0.2230
 2230SOL    HW218327   1.877   3.406   2.033  0.0385  0.0051  2.6790
 2231SOL     OW18328   0.277   4.046   2.588  0.6479  0.6397 -0.0504
 2231SOL    HW118329   0.328   4.005   2.658 -1.5631 -3.4351 -0.8449
 2231SOL    HW218330   0.322   4.131   2.585 -0.5750  1.2779 -0.0259
 2232SOL     OW18331   1.076   2.989  14.036 -0.0454  0.2842  0.4202
 2232SOL    HW118332   1.044   2.991  14.126  1.6653  0.7660  1.0035
 2232SOL    HW218333   0.997   2.964  13.988  0.8339 -1.5482 -0.0604
 2233SOL     OW18334   1.559   2.959   4.928  0.5364  0.8703 -0.1576
 2233SOL    HW118335   1.580   3.033   4.985 -0.8346  1.2852 -0.2021
 2233SOL    HW218336   1.468   2.969   4.900  0.3191 -1.5666 -0.3655
 2234SOL     OW18337   1.833   0.987   1.892 -0.2975  0.5779 -0.2458
 2234SOL    HW118338   1.849   0.974   1.986 -0.0202  3.1118  0.0414
 2234SOL    HW218339   1.893   1.061   1.881  2.7149 -1.7222  0.3942
 2235SOL     OW18340   0.307   3.277   7.849  0.3048 -0.2567 -0.1190
 2235SOL    HW118341   0.288   3.284   7.756  1.8795  0.5926 -0.3805
 2235SOL    HW218342   0.402   3.264   7.843  0.2353  0.6552 -2.8615
 2236SOL     OW18343   2.444   3.087   5.896  0.4293 -0.0582 -0.2098
 2236SOL    HW118344   2.461   3.090   5.801  0.5753 -1.1184 -0.2202
 2236SOL    HW218345   2.529   3.100   5.938  0.2749 -1.8205  0.6458
 2237SOL     OW18346   0.824   0.972   6.966 -0.2667 -0.3338 -0.2851
 2237SOL    HW118347   0.825   1.066   6.984  1.0803 -0.3636 -0.2469
 2237SOL    HW218348   0.730   0.954   6.972 -0.5340  0.9333 -0.6176
 2238SOL     OW18349   2.865   0.968   3.960  0.3626 -0.1940  0.0640
 2238SOL    HW118350   2.825   0.969   4.047  1.6366 -1.2992  0.6459
 2238SOL    HW218351   2.796   1.001   3.903 -0.6302 -0.0479  1.3479
 2239SOL     OW18352   1.931   3.558   6.348  0.0169 -0.4594  0.1230
 2239SOL    HW118353   1.874   3.564   6.271 -1.2864  0.8794  1.2030
 2239SOL    HW218354   2.017   3.543   6.309 -1.1551 -1.3401 -2.1418
 2240SOL     OW18355   2.368   3.505   5.249 -0.3891  0.4595 -0.3018
 2240SOL    HW118356   2.369   3.597   5.275  1.1791  0.6339 -0.9803
 2240SOL    HW218357   2.345   3.521   5.158 -0.5061  0.4930 -0.2657
 2241SOL     OW18358   0.862   3.200   6.149 -0.3475  0.0939  0.3680
 2241SOL    HW118359   0.899   3.278   6.192  2.4448  0.0772 -2.0180
 2241SOL    HW218360   0.793   3.252   6.108 -0.6544  0.2965  1.1490
 2242SOL     OW18361   4.709   4.330   9.064 -0.5694 -0.1224 -0.0047
 2242SOL    HW118362   4.654   4.355   8.990 -0.0759  0.5518 -0.1459
 2242SOL    HW218363   4.715   4.405   9.123  1.9485  0.9379 -1.6410
 2243SOL     OW18364   1.011   3.156   5.824  0.6134 -0.9039  0.2103
 2243SOL    HW118365   1.060   3.147   5.742  2.8944 -2.7197  1.7690
 2243SOL    HW218366   0.957   3.077   5.817 -0.5150 -0.1557  0.5231
 2244SOL     OW18367   1.688   0.999   8.475 -0.3951 -0.5409  0.5214
 2244SOL    HW118368   1.629   0.976   8.547 -0.8106 -1.5575 -0.1452
 2244SOL    HW218369   1.660   0.934   8.411 -0.0173 -1.1699  0.9945
 2245SOL     OW18370   2.678   1.605   6.859  0.6098 -0.6740  0.1561
 2245SOL    HW118371   2.600   1.602   6.803  1.0065 -2.1392 -0.3235
 2245SOL    HW218372   2.636   1.579   6.942 -1.3478  0.7551 -0.3711
 2246SOL     OW18373   4.579   2.179   9.434  0.0375 -0.0960 -0.2022
 2246SOL    HW118374   4.618   2.103   9.476  2.5930  0.2360 -1.9402
 2246SOL    HW218375   4.650   2.198   9.372 -0.4872 -1.3742 -1.1956
 2247SOL     OW18376   3.950   2.671   7.529 -0.0371 -0.7745 -0.1158
 2247SOL    HW118377   3.862   2.642   7.508 -0.3224 -0.5888  0.8334
 2247SOL    HW218378   3.939   2.689   7.623  0.8883  0.3399 -0.2137
 2248SOL     OW18379   2.893   2.910   1.838 -0.0784  0.0734 -0.0584
 2248SOL    HW118380   2.885   2.834   1.781  0.5626 -0.2027  0.2301
 2248SOL    HW218381   2.899   2.984   1.777 -0.3635  1.3272  1.4333
 2249SOL     OW18382   0.171   3.591   9.308 -0.1201 -0.1093  0.3232
 2249SOL    HW118383   0.163   3.657   9.377 -0.4268  0.8931 -0.6620
 2249SOL    HW218384   0.211   3.515   9.349  0.9652  1.9361  2.9957
 2250SOL     OW18385   2.259   2.352   8.465  0.5025 -0.2077 -0.0165
 2250SOL    HW118386   2.221   2.277   8.419  0.2774 -0.3121  0.3424
 2250SOL    HW218387   2.184   2.400   8.501 -0.5576 -0.4875 -1.8895
 2251SOL     OW18388   3.575   2.849  17.361  0.3791 -0.2325  0.6309
 2251SOL    HW118389   3.580   2.882  17.271  1.2451 -2.0226  0.0179
 2251SOL    HW218390   3.598   2.758  17.342  1.2636  0.1101  0.0503
 2252SOL     OW18391   2.063   3.772  15.515  0.3323  0.3882  0.0919
 2252SOL    HW118392   2.001   3.701  15.534  2.2874 -1.0103  1.2315
 2252SOL    HW218393   1.994   3.838  15.521 -0.1707 -0.4595  3.5736
 2253SOL     OW18394   2.131   3.070   8.735  0.6752 -0.1273  0.7136
 2253SOL    HW118395   2.047   3.076   8.691  0.9683 -1.3579 -0.0110
 2253SOL    HW218396   2.184   3.029   8.667 -0.9280  0.2248 -0.7494
 2254SOL     OW18397   1.556   2.095  15.655 -0.4209 -0.6836 -0.4385
 2254SOL    HW118398   1.530   2.028  15.718 -3.4304  0.5695 -0.3455
 2254SOL    HW218399   1.596   2.048  15.582  1.2081 -0.7635  0.5041
 2255SOL     OW18400   1.357   1.085  11.037 -0.2301  0.3220  0.0587
 2255SOL    HW118401   1.312   1.057  11.116  1.5858 -1.6834  0.3974
 2255SOL    HW218402   1.309   1.162  11.008  2.4834  1.6542 -0.8662
 2256SOL     OW18403   0.181   0.539   8.888 -0.5868  0.1106 -0.2198
 2256SOL    HW118404   0.269   0.506   8.905 -1.0375 -0.3195  1.2531
 2256SOL    HW218405   0.211   0.628   8.875 -1.4927 -0.0031 -3.2291
 2257SOL     OW18406   4.584   2.480   3.847  0.5056  0.0450  0.7484
 2257SOL    HW118407   4.658   2.478   3.786 -0.6535  1.4692 -0.7059
 2257SOL    HW218408   4.607   2.552   3.905  0.4576  1.2824 -0.7670
 2258SOL     OW18409   2.334   4.643   8.409 -0.0461  0.7339  0.0591
 2258SOL    HW118410   2.311   4.656   8.317  0.4544  1.4388  0.0338
 2258SOL    HW218411   2.422   4.680   8.416  0.4378 -0.1218 -1.4708
 2259SOL     OW18412   2.804   1.645   5.083  0.3709 -0.0876 -0.0150
 2259SOL    HW118413   2.763   1.731   5.076  2.1628  0.7939  0.2893
 2259SOL    HW218414   2.731   1.589   5.109  0.0048  0.8412  0.9727
 2260SOL     OW18415   2.090   3.875   9.500 -0.2874  0.0531 -0.3492
 2260SOL    HW118416   2.104   3.851   9.591 -0.6836 -0.7102 -0.4860
 2260SOL    HW218417   2.123   3.798   9.453  1.1857  0.6029 -0.2252
 2261SOL     OW18418   4.589   3.304   5.512 -0.2776 -0.5543 -0.5162
 2261SOL    HW118419   4.539   3.315   5.593  1.8264  4.6031  0.0798
 2261SOL    HW218420   4.604   3.210   5.520 -1.8685 -0.8719 -1.1958
 2262SOL     OW18421   0.539   3.897  11.350 -0.0633 -0.3992  0.1320
 2262SOL    HW118422   0.512   3.956  11.420  0.2628 -0.5896  0.4130
 2262SOL    HW218423   0.624   3.927  11.318 -1.1804 -0.1107 -2.6247
 2263SOL     OW18424   0.314   2.373   4.844 -0.1218 -0.0855 -0.0439
 2263SOL    HW118425   0.336   2.352   4.934 -0.8935 -1.1405 -0.1008
 2263SOL    HW218426   0.306   2.282   4.814 -2.0947  0.3977 -1.0356
 2264SOL     OW18427   4.570   1.123  10.636  0.0170 -0.0391 -0.5143
 2264SOL    HW118428   4.641   1.114  10.700  0.1099  1.9194 -0.3420
 2264SOL    HW218429   4.508   1.185  10.675  1.3756  0.3617  1.0131
 2265SOL     OW18430   0.385   2.896   5.794  0.1214 -0.4435  0.0914
 2265SOL    HW118431   0.409   2.926   5.882  0.9207  0.5883 -0.4857
 2265SOL    HW218432   0.290   2.899   5.800  0.1084  0.6158 -0.6954
 2266SOL     OW18433   1.990   2.371   5.557 -0.2397 -0.3985 -0.5504
 2266SOL    HW118434   1.982   2.441   5.622 -0.1688 -0.4224 -0.5155
 2266SOL    HW218435   2.061   2.412   5.506 -0.1682  2.3830  1.7670
 2267SOL     OW18436   0.628   0.175   3.132  0.0502 -0.1698  0.2295
 2267SOL    HW118437   0.694   0.244   3.123  1.1048 -1.0727  1.0122
 2267SOL    HW218438   0.562   0.206   3.194  0.0822 -0.1755  0.2661
 2268SOL     OW18439   1.729   3.309   7.654 -0.2603  0.3624  0.1199
 2268SOL    HW118440   1.672   3.386   7.645 -1.0397 -0.1075  1.0554
 2268SOL    HW218441   1.763   3.284   7.568  0.8685  1.5635  0.2194
 2269SOL     OW18442   0.119   1.524   7.151  0.0726  0.1108 -0.1061
 2269SOL    HW118443   0.031   1.560   7.164  0.7865  1.4410  1.0163
 2269SOL    HW218444   0.158   1.610   7.137  1.1358 -0.8945 -3.3126
 2270SOL     OW18445   0.297   4.608   4.197 -0.1552 -0.3977  0.0573
 2270SOL    HW118446   0.322   4.520   4.169  0.3589 -0.0566 -0.5620
 2270SOL    HW218447   0.377   4.631   4.245  1.1639 -1.1771 -1.8109
 2271SOL     OW18448   1.651   3.256   3.626  0.7356 -0.2657 -0.0380
 2271SOL    HW118449   1.713   3.184   3.637  1.8108  1.1670  3.3055
 2271SOL    HW218450   1.567   3.210   3.623 -0.3347  1.7257 -0.5448
 2272SOL     OW18451   3.389   1.449   6.218 -0.3547  0.2743  0.7649
 2272SOL    HW118452   3.417   1.425   6.129  1.4947  1.8822  0.8970
 2272SOL    HW218453   3.428   1.532   6.244  0.4850 -0.1154  0.7461
 2273SOL     OW18454   4.715   1.240   2.419  0.4982 -0.3041 -0.9052
 2273SOL    HW118455   0.043   1.287   2.469 -0.1105 -1.2026  0.7665
 2273SOL    HW218456   0.027   1.211   2.344 -0.2897 -1.8908 -0.8300
 2274SOL     OW18457   4.176   0.014   0.228 -0.0311  0.0320  0.4132
 2274SOL    HW118458   4.198   4.668   0.267 -0.0499  0.8510  2.1899
 2274SOL    HW218459   4.089   0.020   0.268 -0.7330  0.4719 -1.1764
 2275SOL     OW18460   4.173   3.876   2.739 -0.5306  0.6905 -0.2345
 2275SOL    HW118461   4.136   3.847   2.656 -2.0320  0.1397  0.6296
 2275SOL    HW218462   4.253   3.920   2.711 -1.5490  2.3338 -0.5691
 2276SOL     OW18463   2.359   1.045   5.641  0.4424 -1.1539 -0.3543
 2276SOL    HW118464   2.334   0.993   5.716  0.0739 -0.1619  0.2116
 2276SOL    HW218465   2.382   1.127   5.686  0.0711 -1.9133  1.1927
 2277SOL     OW18466   1.306   2.489   6.261  0.2196 -0.2320 -0.0837
 2277SOL    HW118467   1.273   2.552   6.326 -3.2016 -4.1472  1.9949
 2277SOL    HW218468   1.266   2.406   6.289  0.1536 -0.3978 -0.6756
 2278SOL     OW18469   2.377   2.302   9.546 -0.2685 -0.3309  0.4328
 2278SOL    HW118470   2.393   2.393   9.520 -0.0039 -0.3475  0.5352
 2278SOL    HW218471   2.313   2.280   9.479 -0.8632 -0.1322  0.9374
 2279SOL     OW18472   4.469   2.235   6.897 -0.6117 -0.3327 -0.0902
 2279SOL    HW118473   4.390   2.271   6.937  0.6176  0.7560  1.3668
 2279SOL    HW218474   4.510   2.200   6.976  0.1545 -1.2165 -0.8837
 2280SOL     OW18475   2.301   0.610   8.532  0.5282  0.3083  0.0309
 2280SOL    HW118476   2.257   0.612   8.617 -0.5814  3.4485 -0.6188
 2280SOL    HW218477   2.345   0.525   8.524  1.4916  0.8990 -1.0545
 2281SOL     OW18478   3.695   1.923   7.429 -0.1479  0.1906 -0.4539
 2281SOL    HW118479   3.640   1.996   7.458 -3.4216 -2.0215 -1.1229
 2281SOL    HW218480   3.722   1.958   7.344  0.2877  1.3740  0.1658
 2282SOL     OW18481   4.561   3.138   4.904 -0.4856  0.0837 -0.1481
 2282SOL    HW118482   4.539   3.110   4.815  0.1721  0.4899 -0.4424
 2282SOL    HW218483   4.543   3.067   4.965  1.3570 -0.4377 -0.1928
 2283SOL     OW18484   1.835   4.414   2.845  0.3390 -0.5814 -0.9082
 2283SOL    HW118485   1.908   4.377   2.796  0.8976 -1.5831  0.6681
 2283SOL    HW218486   1.846   4.507   2.826  0.7669 -0.1363  1.3990
 2284SOL     OW18487   0.231   3.188  10.062  0.1213  0.2926 -0.3417
 2284SOL    HW118488   0.324   3.209  10.071  0.1076  0.3579 -0.3489
 2284SOL    HW218489   0.226   3.104  10.107 -2.1022 -0.3981 -1.8550
 2285SOL     OW18490   2.390   1.569   5.890  0.6058 -0.0359 -0.3247
 2285SOL    HW118491   2.298   1.593   5.883  0.3264 -1.0805 -0.0971
 2285SOL    HW218492   2.407   1.585   5.983 -1.9980  0.6240  0.0424
 2286SOL     OW18493   0.050   1.092  12.920 -0.2658 -0.4761 -1.1162
 2286SOL    HW118494   4.703   1.132  12.936  1.7054  2.8852  0.9288
 2286SOL    HW218495   0.023   1.000  12.925 -2.5165  0.2734  0.3973
 2287SOL     OW18496   4.449   3.331   8.778 -0.1731 -0.0965 -0.8585
 2287SOL    HW118497   4.403   3.396   8.830  0.7272  0.2264 -0.4711
 2287SOL    HW218498   4.508   3.397   8.741  1.4365 -1.0959 -0.0856
 2288SOL     OW18499   1.809   2.063   9.025  0.0503  0.4473 -0.4805
 2288SOL    HW118500   1.792   1.979   8.982  0.0025 -0.6215  1.5900
 2288SOL    HW218501   1.733   2.107   8.986 -1.9364 -1.4043  1.2491
 2289SOL     OW18502   0.269   4.211   3.052  0.3519 -0.6849 -0.4220
 2289SOL    HW118503   0.274   4.292   3.000  1.8047  0.0507  0.8514
 2289SOL    HW218504   0.347   4.171   3.014  1.3132  3.2769 -2.6206
 2290SOL     OW18505   2.396   0.447   7.998  0.6492  0.2469  0.1993
 2290SOL    HW118506   2.480   0.407   7.977 -0.3429 -1.7656  0.0345
 2290SOL    HW218507   2.395   0.527   7.946 -0.8007  0.0332 -0.0965
 2291SOL     OW18508   0.266   3.879   4.305  0.0254 -0.1091 -0.1379
 2291SOL    HW118509   0.179   3.907   4.276 -0.4363 -0.2628  1.1008
 2291SOL    HW218510   0.268   3.787   4.278 -1.5918 -0.2526  0.2059
 2292SOL     OW18511   0.275   1.477  10.039 -0.2399 -0.2345  0.0394
 2292SOL    HW118512   0.318   1.530  10.106  0.4606 -0.0148 -0.5768
 2292SOL    HW218513   0.343   1.483   9.972 -1.2009  0.0795 -0.9191
 2293SOL     OW18514   2.211   3.032   1.701  0.1306 -0.0662  0.3827
 2293SOL    HW118515   2.254   3.025   1.616 -1.8415  0.2238 -0.6442
 2293SOL    HW218516   2.268   2.974   1.752 -1.9221 -1.6916  0.8584
 2294SOL     OW18517   4.409   1.459  12.919  0.0497  0.1156 -0.4770
 2294SOL    HW118518   4.328   1.457  12.969 -0.0305  0.4005 -0.5991
 2294SOL    HW218519   4.467   1.481  12.992 -1.0500 -2.3429  1.1340
 2295SOL     OW18520   1.929   4.732   2.660 -0.0041  0.1641 -0.5751
 2295SOL    HW118521   2.000   4.703   2.717  0.1464 -0.9238 -1.3083
 2295SOL    HW218522   1.886   0.062   2.711  0.2875 -0.2815  0.2861
 2296SOL     OW18523   2.257   1.324  13.049  0.6566 -0.5341 -0.7191
 2296SOL    HW118524   2.176   1.325  13.099 -0.1265 -0.1096 -1.9927
 2296SOL    HW218525   2.251   1.241  13.002 -2.3923 -0.0823 -1.0889
 2297SOL     OW18526   1.931   1.483   1.503 -0.2078 -0.4126  0.0091
 2297SOL    HW118527   2.013   1.438   1.525  0.9517  1.9665  0.5646
 2297SOL    HW218528   1.907   1.537   1.578  0.0454 -1.9534  1.1936
 2298SOL     OW18529   4.095   1.844   5.757 -0.0351 -0.2101 -0.6174
 2298SOL    HW118530   4.181   1.882   5.739 -1.0858  2.0535 -0.8638
 2298SOL    HW218531   4.038   1.882   5.690  0.9290 -1.4568 -2.1366
 2299SOL     OW18532   1.136   1.839   5.744  0.2731  0.1060  0.0432
 2299SOL    HW118533   1.066   1.902   5.730 -0.8140 -1.1202 -0.0022
 2299SOL    HW218534   1.125   1.837   5.839  0.9495 -0.0872  0.1180
 2300SOL     OW18535   2.771   2.617   7.493 -0.5193 -0.2845  0.0353
 2300SOL    HW118536   2.731   2.698   7.525 -2.0954 -1.3434  0.7526
 2300SOL    HW218537   2.750   2.625   7.400  2.0787  1.3321 -0.3940
 2301SOL     OW18538   1.030   0.690  16.858 -0.0688  0.2547  0.3567
 2301SOL    HW118539   1.087   0.736  16.919 -0.1161  0.9218 -0.1102
 2301SOL    HW218540   1.083   0.623  16.815 -4.3022  0.0389 -4.4954
 2302SOL     OW18541   1.754   4.472   4.180  0.0690 -0.6455  0.2213
 2302SOL    HW118542   1.707   4.487   4.098  0.3133 -1.8513 -0.1347
 2302SOL    HW218543   1.688   4.433   4.237 -1.7017  1.7163 -0.1740
 2303SOL     OW18544   2.637   4.000   1.932 -0.3060  0.0474 -0.1834
 2303SOL    HW118545   2.594   4.042   2.007 -0.2159  1.5744 -0.9967
 2303SOL    HW218546   2.604   4.049   1.857 -1.4172  2.3747  1.8115
 2304SOL     OW18547   1.626   3.452   4.933 -0.4133  0.1518 -0.2673
 2304SOL    HW118548   1.560   3.522   4.932 -1.1882 -0.5830 -0.4172
 2304SOL    HW218549   1.661   3.474   4.846  0.6577 -0.5728 -0.0098
 2305SOL     OW18550   2.204   1.578  13.300 -0.0906  0.2664 -0.0550
 2305SOL    HW118551   2.146   1.508  13.329 -1.0664  0.5911 -1.2579
 2305SOL    HW218552   2.188   1.631  13.379  2.9379 -0.2169  0.8759
 2306SOL     OW18553   4.155   1.462  12.369  0.2381  0.2493  0.0843
 2306SOL    HW118554   4.107   1.393  12.415 -1.3000  0.4481 -1.2355
 2306SOL    HW218555   4.089   1.480  12.302  0.5530  1.7214  0.1621
 2307SOL     OW18556   1.053   0.928   9.423  0.3790 -0.5282 -0.2287
 2307SOL    HW118557   1.124   0.947   9.484  0.1503 -2.6093  0.7007
 2307SOL    HW218558   1.085   0.961   9.339  1.0830  0.1968  0.3280
 2308SOL     OW18559   3.333   1.414   6.840  0.1573  0.6131 -0.1161
 2308SOL    HW118560   3.420   1.437   6.810  0.0466 -0.4572 -1.2679
 2308SOL    HW218561   3.361   1.332   6.881 -1.4033 -0.8496 -1.9305
 2309SOL     OW18562   3.205   2.386   2.107  0.5500  1.0460 -0.2157
 2309SOL    HW118563   3.228   2.451   2.173  2.0354 -1.0992  1.3716
 2309SOL    HW218564   3.203   2.445   2.032  0.0199 -0.4679 -1.4007
 2310SOL     OW18565   1.015   4.173   3.979 -0.1059  0.5148  0.1484
 2310SOL    HW118566   1.060   4.089   3.989  0.1912  0.5738 -0.6923
 2310SOL    HW218567   1.045   4.193   3.890 -0.3322  0.5301  0.0764
 2311SOL     OW18568   0.488   1.273   7.279 -0.4493  0.3805  0.2962
 2311SOL    HW118569   0.499   1.258   7.185 -2.6708  2.0718 -0.2152
 2311SOL    HW218570   0.395   1.287   7.293 -0.7318 -1.8200  0.6581
 2312SOL     OW18571   2.543   2.136   8.264 -0.5787  0.3760 -0.4685
 2312SOL    HW118572   2.455   2.161   8.290 -0.4694 -0.3076  0.5529
 2312SOL    HW218573   2.547   2.043   8.243 -0.7467 -0.0229  1.2444
 2313SOL     OW18574   0.048   2.842   7.295  0.7551  0.4964 -0.3417
 2313SOL    HW118575   0.064   2.838   7.201  2.3731 -0.0034 -0.0429
 2313SOL    HW218576   0.127   2.800   7.329 -0.4868 -2.5567 -1.1363
 2314SOL     OW18577   1.923   2.022   8.687 -0.1670 -0.3142  0.2615
 2314SOL    HW118578   1.903   1.947   8.631  2.7626 -1.4774  0.7581
 2314SOL    HW218579   1.993   1.981   8.738 -0.5669 -2.0851 -0.6094
 2315SOL     OW18580   2.042   0.058   4.905 -0.2097  0.2891  0.4025
 2315SOL    HW118581   2.050   0.021   4.817  0.7859 -0.9892  1.0250
 2315SOL    HW218582   2.027   0.151   4.892 -2.3041  0.2630  2.5836
 2316SOL     OW18583   1.012   4.680   7.084 -0.4424 -0.7012  0.4578
 2316SOL    HW118584   1.039   4.674   6.992 -0.9976  0.0808  0.2424
 2316SOL    HW218585   0.965   4.597   7.093 -1.1929 -0.1466  1.5343
 2317SOL     OW18586   0.899   1.105   6.169 -0.4663 -0.5670  0.7227
 2317SOL    HW118587   0.926   1.100   6.260 -1.2367 -1.2042  0.9187
 2317SOL    HW218588   0.894   1.198   6.145  0.5847 -0.0548  2.5366
 2318SOL     OW18589   0.221   1.089  15.279  0.0653 -0.2034 -0.1850
 2318SOL    HW118590   0.152   1.096  15.345 -0.0340 -0.7955 -0.2286
 2318SOL    HW218591   0.194   1.007  15.239  1.6122  0.6923 -3.0430
 2319SOL     OW18592   2.927   2.318   7.843 -0.7214 -0.1453  0.5329
 2319SOL    HW118593   2.911   2.311   7.937 -0.1976  0.4052  0.6584
 2319SOL    HW218594   2.938   2.411   7.827 -0.8774 -0.0754  0.8310
 2320SOL     OW18595   4.166   4.526   0.505  0.3894 -0.2345  0.4622
 2320SOL    HW118596   4.232   4.486   0.562  1.5555 -1.9204 -2.0583
 2320SOL    HW218597   4.224   4.525   0.429  0.6139  2.6462  0.5856
 2321SOL     OW18598   4.567   1.923   5.965  0.0038 -0.0700 -0.2536
 2321SOL    HW118599   4.583   2.017   5.969  2.2281 -0.4465 -0.0844
 2321SOL    HW218600   4.550   1.902   6.057  0.7126 -0.5078 -0.2250
 2322SOL     OW18601   1.757   3.645   3.901  0.3410 -0.7026 -0.4319
 2322SOL    HW118602   1.815   3.654   3.826 -0.0948 -1.4178 -0.8627
 2322SOL    HW218603   1.675   3.672   3.860 -0.1460 -0.9718  0.3462
 2323SOL     OW18604   4.315   2.077   7.954  0.4670 -0.1262 -0.2255
 2323SOL    HW118605   4.221   2.077   7.935  0.1312  2.4285  1.5256
 2323SOL    HW218606   4.339   1.986   7.933  1.5006 -0.1685  1.0887
 2324SOL     OW18607   1.616   2.652  16.152 -0.4205 -0.0789  0.0200
 2324SOL    HW118608   1.566   2.591  16.207  1.2622 -3.1584 -1.8747
 2324SOL    HW218609   1.620   2.725  16.213  0.1788 -0.3940  0.3695
 2325SOL     OW18610   1.995   2.637  16.255 -0.4649  0.4637 -0.4339
 2325SOL    HW118611   1.980   2.713  16.199  0.4523  1.0115  0.0738
 2325SOL    HW218612   2.083   2.647  16.291 -1.0664  0.5917  1.0276
 2326SOL     OW18613   3.266   0.088   5.522  0.0371 -0.0080 -0.0461
 2326SOL    HW118614   3.360   0.073   5.530  0.2914  1.9148  0.7053
 2326SOL    HW218615   3.249   0.027   5.450  1.2270  0.8554 -1.0506
 2327SOL     OW18616   0.787   0.153   1.127 -0.3024 -0.2541 -0.4998
 2327SOL    HW118617   0.819   0.212   1.196  0.2366 -2.1795  0.8927
 2327SOL    HW218618   0.866   0.130   1.079  0.7521  2.5591 -0.1473
 2328SOL     OW18619   1.893   1.228   9.314 -0.6656 -0.1816 -0.1255
 2328SOL    HW118620   1.882   1.285   9.390 -1.2151 -0.8450  0.2901
 2328SOL    HW218621   1.897   1.291   9.242  1.2627 -1.4831 -1.1634
 2329SOL     OW18622   3.338   1.148  15.026  0.3048 -0.3662 -0.2735
 2329SOL    HW118623   3.422   1.108  15.048  0.2281 -2.0692 -2.9601
 2329SOL    HW218624   3.290   1.115  15.102 -1.9918 -1.1525 -2.0765
 2330SOL     OW18625   3.069   0.249   0.504  0.2860  0.1486  0.3222
 2330SOL    HW118626   3.008   0.184   0.470 -0.0396 -1.6257  4.2201
 2330SOL    HW218627   3.150   0.234   0.455 -0.0537  0.6242 -0.3877
 2331SOL     OW18628   1.894   0.745   5.651 -0.2634 -0.4774  0.0079
 2331SOL    HW118629   1.897   0.798   5.730 -0.4449 -0.8449  0.2654
 2331SOL    HW218630   1.895   0.805   5.577  0.1780  1.5921  1.7058
 2332SOL     OW18631   3.563   2.601   0.683  0.7171 -0.5964 -0.3823
 2332SOL    HW118632   3.501   2.529   0.674  0.2501 -0.2590  0.1383
 2332SOL    HW218633   3.508   2.671   0.648 -0.5649 -0.9644  0.8833
 2333SOL     OW18634   0.502   4.562   3.765  0.6365  0.1930  0.5323
 2333SOL    HW118635   0.409   4.578   3.781  0.3688  0.4948 -1.3400
 2333SOL    HW218636   0.516   4.632   3.701 -0.8033  1.6010  1.7516
 2334SOL     OW18637   4.730   1.441   5.858 -0.2328 -0.2053 -0.0575
 2334SOL    HW118638   0.027   1.359   5.825 -2.8827 -0.5916 -1.9678
 2334SOL    HW218639   4.638   1.426   5.836 -0.2596  0.0424 -0.1201
 2335SOL     OW18640   3.021   3.772   4.971  0.2959  0.1545  0.3337
 2335SOL    HW118641   2.965   3.850   4.968  1.3347  0.9195  0.6304
 2335SOL    HW218642   2.975   3.719   4.906  0.0665  1.3291 -0.4699
 2336SOL     OW18643   1.451   1.270   3.458  0.2845  0.2345  0.6827
 2336SOL    HW118644   1.451   1.365   3.468  2.8927  0.2168  0.9501
 2336SOL    HW218645   1.385   1.243   3.521 -1.2511 -1.5395 -1.6903
 2337SOL     OW18646   0.695   3.435   4.366 -0.0108  0.2050  0.0926
 2337SOL    HW118647   0.627   3.493   4.334 -1.8610 -0.1847  3.3721
 2337SOL    HW218648   0.768   3.426   4.304 -1.3068 -0.1373 -1.3642
 2338SOL     OW18649   1.883   3.354  12.993 -0.9193  0.1153  0.0286
 2338SOL    HW118650   1.801   3.397  12.966 -1.3237 -0.6446  0.0422
 2338SOL    HW218651   1.866   3.262  12.972  0.8544 -0.6561  2.0765
 2339SOL     OW18652   2.988   3.137   9.008 -0.7101 -0.3999  0.3053
 2339SOL    HW118653   2.930   3.142   8.932  3.1499  1.0650 -2.5325
 2339SOL    HW218654   3.066   3.183   8.976 -2.1362  0.7332 -1.5306
 2340SOL     OW18655   0.489   0.467   5.675  0.0239 -1.1056  0.3590
 2340SOL    HW118656   0.477   0.430   5.587 -0.4927  0.2836 -0.1418
 2340SOL    HW218657   0.400   0.466   5.711 -0.8883 -0.6695 -1.9038
 2341SOL     OW18658   3.454   2.618   5.778 -0.2417 -0.0016  0.4438
 2341SOL    HW118659   3.415   2.684   5.836 -0.7009 -0.3909  0.5722
 2341SOL    HW218660   3.546   2.646   5.772  0.1273 -1.5323 -0.7760
 2342SOL     OW18661   0.119   2.636   9.001  1.1257  0.5242 -0.2271
 2342SOL    HW118662   0.171   2.607   9.076 -0.6128  1.2134  1.2228
 2342SOL    HW218663   0.032   2.639   9.041  1.9484  0.1036  1.6252
 2343SOL     OW18664   0.033   1.731   1.998  0.2531  0.2799  0.5943
 2343SOL    HW118665   4.691   1.739   1.948  1.0131  1.4919 -0.4549
 2343SOL    HW218666   0.100   1.782   1.953 -1.0041  0.8431 -0.6069
 2344SOL     OW18667   0.942   1.250   9.983 -0.0957  0.4026 -0.1920
 2344SOL    HW118668   0.978   1.312   9.919  1.5416  0.1783  0.5013
 2344SOL    HW218669   0.981   1.284  10.064  0.3126  0.3844 -0.3800
 2345SOL     OW18670   3.495   2.873   0.586  0.1531 -0.4616  0.3942
 2345SOL    HW118671   3.503   2.850   0.493 -0.3263  0.0326  0.2317
 2345SOL    HW218672   3.576   2.917   0.612 -0.0449  1.4168 -2.2251
 2346SOL     OW18673   4.686   1.188   9.814  0.1519  0.1405 -1.1253
 2346SOL    HW118674   4.734   1.264   9.847 -0.7478  0.6179 -0.9279
 2346SOL    HW218675   4.670   1.147   9.899 -0.9533  0.4074 -1.1988
 2347SOL     OW18676   3.032   4.257  16.202 -0.6775 -0.5444  0.1506
 2347SOL    HW118677   3.101   4.279  16.265 -0.0677  0.1052 -0.7511
 2347SOL    HW218678   2.961   4.229  16.260  0.9046 -1.2460  1.7716
 2348SOL     OW18679   4.536   1.395  17.036 -0.1366  0.5576 -0.1495
 2348SOL    HW118680   4.504   1.396  16.946  0.7037  1.2135 -0.4456
 2348SOL    HW218681   4.485   1.462  17.081  0.5504  1.5162 -0.7943
 2349SOL     OW18682   3.870   0.704   7.233 -0.6110  0.1923  0.2743
 2349SOL    HW118683   3.931   0.671   7.168 -2.4353 -2.6220 -0.0409
 2349SOL    HW218684   3.921   0.726   7.311 -1.6198  2.1415  0.3761
 2350SOL     OW18685   3.082   0.184   3.425  0.3995 -0.4794 -0.4711
 2350SOL    HW118686   3.114   0.095   3.407 -0.2179 -1.0650  1.3469
 2350SOL    HW218687   3.044   0.207   3.340 -1.7012  0.5769  0.7566
 2351SOL     OW18688   2.123   0.319   6.400 -0.2732 -0.4796  0.3568
 2351SOL    HW118689   2.063   0.325   6.474 -0.4882  1.5969 -0.0121
 2351SOL    HW218690   2.055   0.306   6.334 -0.9571 -1.5209  1.2553
 2352SOL     OW18691   2.472   1.508   6.496 -0.0096 -0.0830 -0.0193
 2352SOL    HW118692   2.483   1.589   6.545 -1.6312  1.1093 -1.6103
 2352SOL    HW218693   2.527   1.450   6.549  1.8610 -1.1412 -3.0797
 2353SOL     OW18694   2.505   0.251   7.084  0.3916 -0.0550 -0.1105
 2353SOL    HW118695   2.528   0.339   7.115 -1.7206  0.3915  0.1973
 2353SOL    HW218696   2.410   0.254   7.088  0.3134 -3.1438  0.1520
 2354SOL     OW18697   3.800   4.068  17.467 -0.0998 -0.3760  0.4334
 2354SOL    HW118698   3.748   4.009  17.412  1.2889 -2.0526  0.8806
 2354SOL    HW218699   3.791   4.154  17.427 -1.3302 -0.6539  0.1146
 2355SOL     OW18700   0.983   2.323   3.386 -0.6399 -0.2298  0.0076
 2355SOL    HW118701   0.911   2.291   3.331 -0.8843  0.2884  0.0184
 2355SOL    HW218702   1.047   2.321   3.315 -0.7051 -0.9333 -0.0323
 2356SOL     OW18703   0.185   3.860   1.332 -0.2464  0.4145 -0.1616
 2356SOL    HW118704   0.267   3.901   1.359 -0.8706  2.2429 -1.0198
 2356SOL    HW218705   0.143   3.879   1.416  0.8373 -0.6663  0.6286
 2357SOL     OW18706   3.969   4.302   7.462 -0.5186 -0.3039 -0.0464
 2357SOL    HW118707   4.018   4.233   7.507  0.0265 -0.1566 -0.4073
 2357SOL    HW218708   3.910   4.325   7.534 -1.5867  0.2867 -1.1197
 2358SOL     OW18709   1.717   4.216   5.643  0.4625  0.2244  0.2550
 2358SOL    HW118710   1.666   4.144   5.606  0.5046  0.1024  0.4328
 2358SOL    HW218711   1.693   4.210   5.735 -1.0375 -1.2373 -0.2391
 2359SOL     OW18712   0.299   4.662  12.874  0.0779  0.5652  0.8346
 2359SOL    HW118713   0.231   4.595  12.881  0.5782  0.1005  1.2307
 2359SOL    HW218714   0.276   4.732  12.936  0.8467  2.2007 -0.7376
 2360SOL     OW18715   4.186   1.975  14.173  0.2422 -0.2769 -1.4720
 2360SOL    HW118716   4.115   2.027  14.136  1.6170  0.2928 -3.3262
 2360SOL    HW218717   4.225   1.959  14.087  0.2394  0.3273 -1.5862
 2361SOL     OW18718   0.719   2.925  17.573  0.1886  0.7464  0.6202
 2361SOL    HW118719   0.629   2.940  17.604  0.1832  0.5048  0.7213
 2361SOL    HW218720   0.723   2.986  17.499  0.1690 -0.7902 -0.6493
 2362SOL     OW18721   4.512   2.858   7.317 -0.6651 -0.5612 -0.4303
 2362SOL    HW118722   4.607   2.854   7.323 -0.6246  1.7480  0.5390
 2362SOL    HW218723   4.488   2.919   7.387  1.4869 -1.8447  1.4236
 2363SOL     OW18724   3.972   3.663   5.164 -0.0628  0.6631  0.2838
 2363SOL    HW118725   3.889   3.711   5.166  0.0169  0.8434 -1.7504
 2363SOL    HW218726   4.022   3.693   5.089 -1.4959 -0.4700 -1.1155
 2364SOL     OW18727   3.588   3.870   3.653 -0.0964  0.5942 -0.5960
 2364SOL    HW118728   3.668   3.827   3.681 -0.9251 -1.1010 -0.8304
 2364SOL    HW218729   3.622   3.904   3.570 -0.2283 -0.3262 -1.0188
 2365SOL     OW18730   4.737   4.243   4.228 -0.2137  0.0746 -0.1692
 2365SOL    HW118731   0.071   4.201   4.184 -0.7330 -2.0144  0.9844
 2365SOL    HW218732   4.673   4.171   4.231 -1.3020  1.0311 -0.0863
 2366SOL     OW18733   3.085   4.251  15.157  0.3379  0.1096  0.4046
 2366SOL    HW118734   3.075   4.160  15.182  0.3280 -0.4753 -1.7473
 2366SOL    HW218735   3.160   4.275  15.212  0.5043 -0.5637  0.4712
 2367SOL     OW18736   1.103   1.710   4.017  0.1248  0.3326 -0.4824
 2367SOL    HW118737   1.065   1.628   3.986 -0.2959 -0.4094  2.0287
 2367SOL    HW218738   1.143   1.697   4.103 -0.5301  2.7750  0.2218
 2368SOL     OW18739   3.168   1.426   9.023  0.6482 -0.1630  0.5878
 2368SOL    HW118740   3.223   1.399   8.949 -0.7858  0.5315 -0.7324
 2368SOL    HW218741   3.086   1.445   8.978  0.3108  0.7455  1.5883
 2369SOL     OW18742   1.933   3.167   5.600  0.1539  0.8517 -0.0365
 2369SOL    HW118743   1.861   3.158   5.662  0.3916  0.5775  0.2005
 2369SOL    HW218744   2.006   3.179   5.660  0.9223 -0.0548 -0.7843
 2370SOL     OW18745   3.692   0.112   3.283  0.3115  0.1586  0.9799
 2370SOL    HW118746   3.785   0.107   3.259  0.0951 -2.2432  0.7110
 2370SOL    HW218747   3.691   0.189   3.341 -0.9291 -0.6059  1.9662
 2371SOL     OW18748   3.879   2.204   5.373  0.4458  0.1451  0.6942
 2371SOL    HW118749   3.931   2.214   5.293 -0.0182  0.1517  0.3903
 2371SOL    HW218750   3.791   2.199   5.335  0.1170 -0.6202  1.5553
 2372SOL     OW18751   3.244   1.912   7.334 -0.3448 -0.7244 -0.3965
 2372SOL    HW118752   3.325   1.891   7.381 -0.0693  1.4063  0.0845
 2372SOL    HW218753   3.192   1.953   7.404  0.5305  0.7967 -0.6253
 2373SOL     OW18754   4.057   4.680  16.649  0.2419  0.6679  0.3161
 2373SOL    HW118755   4.020   4.708  16.733  0.2696  0.7182  0.3117
 2373SOL    HW218756   4.152   4.687  16.655  0.0308  0.8491  3.1753
 2374SOL     OW18757   0.238   3.398  16.899  0.6695  0.3169  0.1276
 2374SOL    HW118758   0.201   3.481  16.868 -0.3257  0.3713  1.4500
 2374SOL    HW218759   0.163   3.355  16.941  0.4849 -1.6644 -2.2356
 2375SOL     OW18760   0.902   2.089   2.530 -0.0019 -0.1299  0.0202
 2375SOL    HW118761   0.883   2.147   2.456 -0.6815 -1.2038 -0.6371
 2375SOL    HW218762   0.823   2.082   2.584 -1.1848  1.4232 -1.4883
 2376SOL     OW18763   4.639   4.644  15.543 -0.4384 -0.4625 -0.2715
 2376SOL    HW118764   4.590   4.579  15.592  1.5550  0.8880  3.5195
 2376SOL    HW218765   4.623   4.718  15.602  0.8671  0.8189 -1.5374
 2377SOL     OW18766   4.606   3.493  10.868 -0.0719  0.3484  0.4400
 2377SOL    HW118767   4.565   3.407  10.877  1.1509 -0.3322 -0.5879
 2377SOL    HW218768   4.667   3.479  10.796 -2.9741 -0.4396 -1.8435
 2378SOL     OW18769   4.505   2.222  10.525  0.1899 -0.1329  0.4458
 2378SOL    HW118770   4.460   2.180  10.599 -1.3264  1.9642  0.7292
 2378SOL    HW218771   4.428   2.245  10.474 -1.4140  0.9119  3.3364
 2379SOL     OW18772   3.638   0.408   5.254  0.4524  0.6595  0.2571
 2379SOL    HW118773   3.624   0.352   5.178 -0.0538 -0.3382  1.0853
 2379SOL    HW218774   3.675   0.485   5.211  0.6370  1.5672  2.0515
 2380SOL     OW18775   2.938   3.138   3.139  0.5930 -0.2047 -0.1849
 2380SOL    HW118776   2.983   3.066   3.094  1.6797 -0.2928  1.0370
 2380SOL    HW218777   2.876   3.096   3.199  0.5376 -0.0327 -0.1230
 2381SOL     OW18778   2.169   0.274   0.941  0.1200  0.1972  0.0133
 2381SOL    HW118779   2.118   0.210   0.992 -0.0937 -0.3979 -0.9495
 2381SOL    HW218780   2.150   0.362   0.973  0.7553  0.8665 -1.4419
 2382SOL     OW18781   4.609   3.321  14.923 -0.2186 -0.8383  0.0988
 2382SOL    HW118782   4.636   3.231  14.942  2.0002 -0.4437 -1.1719
 2382SOL    HW218783   4.514   3.322  14.926 -0.1842  0.4841  0.9094
 2383SOL     OW18784   3.864   0.207   5.888 -0.4877  0.1843 -0.8012
 2383SOL    HW118785   3.851   0.163   5.972 -1.5883  5.0016  1.6073
 2383SOL    HW218786   3.941   0.260   5.911 -2.2127  2.0087  0.8409
 2384SOL     OW18787   1.140   0.847   6.365  0.2915 -0.9603  0.5962
 2384SOL    HW118788   1.207   0.860   6.431  0.2333  1.4013  0.1651
 2384SOL    HW218789   1.077   0.784   6.400 -1.8788  0.9887  0.2107
 2385SOL     OW18790   0.193   0.057   2.062  0.1981  0.2751  0.1621
 2385SOL    HW118791   0.105   0.092   2.075  1.2607  3.2303 -0.6882
 2385SOL    HW218792   0.207   4.738   2.137 -0.0226 -1.6943 -1.3124
 2386SOL     OW18793   4.412   2.723   3.426  0.2660  0.3010  0.1641
 2386SOL    HW118794   4.407   2.656   3.494 -1.9635 -0.0301 -0.3074
 2386SOL    HW218795   4.418   2.667   3.349  1.9099  0.7726 -0.0536
 2387SOL     OW18796   1.447   2.662   8.393  0.2921  0.3463  1.4885
 2387SOL    HW118797   1.460   2.756   8.401  3.2312  0.0551  0.0376
 2387SOL    HW218798   1.412   2.653   8.304  2.8307 -0.7363  0.6045
 2388SOL     OW18799   4.092   3.626   8.085 -0.6774 -0.2547  0.1666
 2388SOL    HW118800   4.161   3.651   8.146  0.4569  1.5479 -1.8673
 2388SOL    HW218801   4.132   3.652   8.002  2.6391  1.4883  2.3165
 2389SOL     OW18802   4.178   0.309   7.121  0.1908  0.3130  0.1333
 2389SOL    HW118803   4.274   0.307   7.126  0.1537  0.1276  0.6733
 2389SOL    HW218804   4.164   0.284   7.029  1.2020 -0.7339  0.2585
 2390SOL     OW18805   2.788   3.546   8.430  0.2231 -0.3487  0.2450
 2390SOL    HW118806   2.760   3.623   8.382 -2.3010 -0.1929  1.9930
 2390SOL    HW218807   2.711   3.550   8.487  0.5292 -0.1615  0.6480
 2391SOL     OW18808   1.355   4.475  15.257 -0.6521 -0.0254 -0.0643
 2391SOL    HW118809   1.372   4.426  15.337 -1.1244  0.6835  0.4662
 2391SOL    HW218810   1.440   4.519  15.249 -0.8114  0.3195  0.1157
 2392SOL     OW18811   3.643   1.706   7.984  0.1643 -0.2317  0.2805
 2392SOL    HW118812   3.602   1.769   8.044  1.6626 -0.3457  1.4145
 2392SOL    HW218813   3.584   1.631   7.989  0.1958 -0.1635  1.5594
 2393SOL     OW18814   2.995   2.513  16.192 -0.0203  0.0889 -0.0264
 2393SOL    HW118815   3.014   2.419  16.200  1.7493  0.3192 -1.5698
 2393SOL    HW218816   2.979   2.512  16.098 -0.1654 -3.1150  0.0128
 2394SOL     OW18817   2.559   4.547   5.965  0.6613  0.0987  0.7736
 2394SOL    HW118818   2.514   4.618   5.919  1.7743 -1.2817 -2.4487
 2394SOL    HW218819   2.557   4.484   5.893 -1.3110  1.1905 -0.1296
 2395SOL     OW18820   1.542   0.154   2.495 -0.1611 -0.3353 -0.3599
 2395SOL    HW118821   1.576   0.225   2.441 -0.0069  0.7120  1.1004
 2395SOL    HW218822   1.457   0.190   2.521  0.1015 -0.2580  0.4166
 2396SOL     OW18823   0.294   3.340  11.630  0.5240  0.6495 -0.5101
 2396SOL    HW118824   0.213   3.290  11.640  0.6064  0.6602  0.2432
 2396SOL    HW218825   0.297   3.319  11.537 -0.5552 -0.4042 -0.2925
 2397SOL     OW18826   0.020   3.753   4.345 -0.4199  1.0730  0.2667
 2397SOL    HW118827   0.041   3.789   4.432 -0.1706 -2.4457  1.6564
 2397SOL    HW218828   4.711   3.677   4.378  1.4316 -1.8599 -3.8829
 2398SOL     OW18829   1.902   2.143   3.542 -1.1543  0.4937  0.2720
 2398SOL    HW118830   1.970   2.078   3.529 -0.9753  0.7008  0.1788
 2398SOL    HW218831   1.841   2.096   3.599  0.1777 -1.6049 -0.0387
 2399SOL     OW18832   0.770   1.891   9.254 -0.1063  1.0931  0.0172
 2399SOL    HW118833   0.827   1.955   9.211  1.0200 -0.9020 -1.4613
 2399SOL    HW218834   0.697   1.878   9.193  0.2041  0.0062 -0.1284
 2400SOL     OW18835   4.427   2.473   9.475 -0.1304 -0.0238 -0.2547
 2400SOL    HW118836   4.487   2.547   9.484 -1.0823  0.3368  2.9290
 2400SOL    HW218837   4.470   2.394   9.510  0.0459  0.0493 -0.3050
 2401SOL     OW18838   2.495   0.563  14.126 -0.2287 -0.2524  0.0747
 2401SOL    HW118839   2.551   0.545  14.051 -2.3856 -0.5043 -1.4721
 2401SOL    HW218840   2.503   0.657  14.139  0.8567 -0.7255  2.8480
 2402SOL     OW18841   0.280   0.286   7.885 -0.2925 -0.2102  0.4157
 2402SOL    HW118842   0.323   0.269   7.969  0.8146  0.3539 -0.0400
 2402SOL    HW218843   0.213   0.349   7.914 -1.9090 -1.1402 -1.3208
 2403SOL     OW18844   0.518   2.136   3.017 -0.3070  0.3741 -0.4965
 2403SOL    HW118845   0.575   2.081   3.070  1.7297  2.3606 -0.5824
 2403SOL    HW218846   0.518   2.218   3.067  1.4032 -1.9250  3.2552
 2404SOL     OW18847   1.745   2.414   0.505  0.0567 -0.9262 -0.2636
 2404SOL    HW118848   1.824   2.370   0.536  1.5449  0.6994 -1.7196
 2404SOL    HW218849   1.789   2.486   0.459 -0.7913  0.0763  0.4915
 2405SOL     OW18850   1.484   1.505  12.198 -0.3341 -0.4621 -1.0777
 2405SOL    HW118851   1.566   1.531  12.157 -0.4198 -1.4485 -1.8945
 2405SOL    HW218852   1.507   1.507  12.291 -1.9463 -4.3932 -0.5676
 2406SOL     OW18853   4.012   2.628   3.722  0.5489  0.7484 -0.4293
 2406SOL    HW118854   4.008   2.709   3.772  0.1314 -0.3392  1.2730
 2406SOL    HW218855   3.990   2.565   3.791 -1.7655  0.6852 -1.2177
 2407SOL     OW18856   2.540   2.270  17.604 -0.0048  0.2646  0.1752
 2407SOL    HW118857   2.548   2.276  17.509  2.0056 -0.9565  0.2831
 2407SOL    HW218858   2.446   2.268  17.622 -0.0799 -0.9305 -0.3925
 2408SOL     OW18859   2.018   0.243   8.547 -0.0733  0.2043 -0.0808
 2408SOL    HW118860   2.112   0.237   8.531 -0.0318 -0.3335  0.3855
 2408SOL    HW218861   1.998   0.329   8.510 -0.5642 -0.2159 -0.7867
 2409SOL     OW18862   3.486   1.136  16.714  0.0272  0.8177  0.2365
 2409SOL    HW118863   3.501   1.141  16.620 -1.4444  3.5023  0.1301
 2409SOL    HW218864   3.399   1.176  16.728  0.5524  1.6180  1.2361
 2410SOL     OW18865   1.212   4.098   3.576 -0.1484  0.9383 -0.0626
 2410SOL    HW118866   1.297   4.134   3.600  0.1211  0.2332  0.0408
 2410SOL    HW218867   1.154   4.168   3.607 -0.4887  1.2077 -1.3040
 2411SOL     OW18868   4.214   1.120   3.789  0.4604 -0.6203 -0.1686
 2411SOL    HW118869   4.180   1.146   3.703  0.9495 -3.0848 -1.1144
 2411SOL    HW218870   4.280   1.055   3.766  1.4455 -0.1056  1.1792
 2412SOL     OW18871   2.916   0.095   2.777 -0.0185  0.0105  0.0297
 2412SOL    HW118872   2.850   0.095   2.847  0.7568 -1.9987  0.7824
 2412SOL    HW218873   2.856   0.107   2.704  0.2335 -0.0831 -0.1901
 2413SOL     OW18874   2.961   4.610   6.890  0.4439  0.3860  0.2706
 2413SOL    HW118875   3.003   4.619   6.804 -0.1248 -1.8528 -0.2422
 2413SOL    HW218876   2.869   4.615   6.862  0.4368  0.8102  0.3725
 2414SOL     OW18877   0.198   1.506  13.171  0.6152  0.6090  0.6145
 2414SOL    HW118878   0.193   1.413  13.149  0.0459  0.8739 -0.3813
 2414SOL    HW218879   0.288   1.530  13.154  0.5937  1.5831  1.8956
 2415SOL     OW18880   4.675   1.886   2.959 -0.8041 -0.3692 -0.1942
 2415SOL    HW118881   4.682   1.816   3.024  0.3216 -0.2232 -0.1471
 2415SOL    HW218882   0.009   1.868   2.900 -1.6140  0.9718 -1.5978
 2416SOL     OW18883   3.334   4.342   5.283 -0.4991 -0.3959 -0.2826
 2416SOL    HW118884   3.402   4.372   5.342 -1.7611  0.8800  0.5195
 2416SOL    HW218885   3.369   4.255   5.263  1.0392  0.7214 -2.4794
 2417SOL     OW18886   3.054   1.514  10.589 -0.6398  0.1917  0.3347
 2417SOL    HW118887   3.093   1.438  10.631 -1.3176 -0.6834 -0.6263
 2417SOL    HW218888   2.981   1.538  10.647 -0.6990  0.8689 -0.0135
 2418SOL     OW18889   2.344   3.200  11.818  0.0912  0.3779  0.1817
 2418SOL    HW118890   2.293   3.130  11.859 -0.1565  0.1926 -0.4347
 2418SOL    HW218891   2.385   3.153  11.745  1.5520 -0.9900  1.8825
 2419SOL     OW18892   4.227   1.932  17.146 -0.1666 -0.4091 -0.0622
 2419SOL    HW118893   4.210   1.995  17.076  0.0797 -0.5565 -0.2543
 2419SOL    HW218894   4.316   1.910  17.118 -0.2803 -4.2252  2.5348
 2420SOL     OW18895   0.775   1.545   8.046 -0.0507 -0.2859  0.0063
 2420SOL    HW118896   0.770   1.620   7.987 -0.6897 -0.8169 -0.6102
 2420SOL    HW218897   0.869   1.548   8.061  0.4309 -0.6801 -2.9227
 2421SOL     OW18898   2.452   2.965   6.202 -0.2118  0.0373  0.5295
 2421SOL    HW118899   2.522   3.008   6.152 -0.9390 -1.0653 -1.4508
 2421SOL    HW218900   2.398   3.035   6.239  0.2637  0.9052 -0.4033
 2422SOL     OW18901   1.580   2.837   3.792 -0.8617  0.3055  0.5493
 2422SOL    HW118902   1.503   2.803   3.837 -3.0175  2.5162 -1.4654
 2422SOL    HW218903   1.561   2.823   3.699  1.9038 -1.5534  0.2843
 2423SOL     OW18904   1.225   0.753  17.062  0.8152 -0.2725 -0.1173
 2423SOL    HW118905   1.157   0.775  17.126  0.7408 -2.0102  0.3876
 2423SOL    HW218906   1.226   0.840  17.022 -1.2036  0.2378  0.9258
 2424SOL     OW18907   3.997   0.685  17.369  0.1582  0.0591 -0.0538
 2424SOL    HW118908   3.973   0.606  17.417 -0.2427 -0.8366 -1.7477
 2424SOL    HW218909   3.907   0.717  17.359  0.8034  1.4033 -1.6442
 2425SOL     OW18910   3.492   1.975   6.017 -0.0894 -0.0647  0.0147
 2425SOL    HW118911   3.572   1.982   6.069 -1.0000  2.2953  1.1244
 2425SOL    HW218912   3.534   1.948   5.936 -0.4489  1.2439 -0.6095
 2426SOL     OW18913   0.620   4.295  16.990 -0.1954  0.0322 -0.2973
 2426SOL    HW118914   0.564   4.368  16.964  1.9846  1.7248 -0.2433
 2426SOL    HW218915   0.573   4.266  17.069  2.5222 -3.7237 -0.0267
 2427SOL     OW18916   0.142   1.326  12.389 -0.1608  0.4062  0.2619
 2427SOL    HW118917   0.056   1.349  12.355  0.0734 -0.1418 -0.7031
 2427SOL    HW218918   0.151   1.380  12.467 -0.9950 -0.2388  0.7875
 2428SOL     OW18919   2.894   1.792   4.264 -0.4914  0.2302  0.1633
 2428SOL    HW118920   2.876   1.709   4.309  1.2097 -0.2111  0.0355
 2428SOL    HW218921   2.875   1.764   4.174  1.1086 -1.7822  0.4493
 2429SOL     OW18922   4.419   4.332   9.587 -0.2553  0.3499 -0.1260
 2429SOL    HW118923   4.463   4.316   9.670  0.1285 -3.1564 -1.0087
 2429SOL    HW218924   4.417   4.427   9.587 -1.2962  0.3376 -0.4099
 2430SOL     OW18925   0.660   2.111   9.819 -0.1602 -0.5217  0.3752
 2430SOL    HW118926   0.588   2.102   9.881 -0.3526  2.8404  0.6655
 2430SOL    HW218927   0.648   2.024   9.781  0.2751 -0.4535  0.0852
 2431SOL     OW18928   2.774   1.282  14.866  0.4376 -0.0503 -0.3014
 2431SOL    HW118929   2.728   1.365  14.855 -0.9228 -0.8210 -0.3622
 2431SOL    HW218930   2.776   1.279  14.962 -1.8899  2.6857 -0.1776
 2432SOL     OW18931   4.225   1.248   2.396 -0.2803  0.2247 -0.3027
 2432SOL    HW118932   4.226   1.256   2.301 -0.0017  1.9591 -0.1664
 2432SOL    HW218933   4.306   1.200   2.412 -1.2070 -0.7106  1.5831
 2433SOL     OW18934   2.461   3.409   3.233 -0.0581  0.1115  0.8455
 2433SOL    HW118935   2.397   3.402   3.162 -1.7645 -0.0138  2.3973
 2433SOL    HW218936   2.502   3.495   3.218  0.6429 -0.3710  0.0195
 2434SOL     OW18937   0.555   1.183   1.351  0.1816 -0.4134  0.4084
 2434SOL    HW118938   0.548   1.132   1.432 -0.0070  0.8270  1.1791
 2434SOL    HW218939   0.561   1.110   1.290 -1.4433  0.8693 -1.2895
 2435SOL     OW18940   3.543   1.074   2.121 -0.2680 -0.1922  0.0716
 2435SOL    HW118941   3.472   1.013   2.102  0.0960 -1.2792  2.1894
 2435SOL    HW218942   3.573   1.052   2.209 -0.1372  0.0537  0.0875
 2436SOL     OW18943   2.508   0.673  11.120  0.0895  0.2618  0.2761
 2436SOL    HW118944   2.420   0.657  11.154 -1.8466  3.5240 -3.1928
 2436SOL    HW218945   2.496   0.722  11.038 -1.7079  0.6003  0.7278
 2437SOL     OW18946   1.075   1.113   7.230 -0.3006 -0.3410  0.1515
 2437SOL    HW118947   0.983   1.085   7.230 -0.6744  0.9262 -0.5536
 2437SOL    HW218948   1.067   1.205   7.253 -0.2823 -0.6475  1.3501
 2438SOL     OW18949   1.962   4.720   8.456 -0.2668  0.4797  0.3458
 2438SOL    HW118950   1.932   0.030   8.379  0.7249 -0.9186 -0.9175
 2438SOL    HW218951   1.932   0.052   8.513  1.8656  1.1878  0.5672
 2439SOL     OW18952   2.174   0.048   3.909  0.1643  0.7843  1.0488
 2439SOL    HW118953   2.092   0.022   3.867 -0.1291 -0.8087  2.6273
 2439SOL    HW218954   2.172   0.016   3.999  0.6423 -0.7994  0.4851
 2440SOL     OW18955   2.917   3.151   1.465  0.1652  0.0838 -0.2294
 2440SOL    HW118956   2.870   3.174   1.546  2.1771 -0.2519  1.0368
 2440SOL    HW218957   2.909   3.229   1.410 -0.3398 -1.0217 -1.7213
 2441SOL     OW18958   1.052   0.120   4.286  0.0420  0.2607  0.4246
 2441SOL    HW118959   0.976   0.074   4.249 -0.1112 -0.3938  1.5355
 2441SOL    HW218960   1.023   0.149   4.373  2.4420  0.7104  1.0601
 2442SOL     OW18961   2.817   1.237   8.140 -0.6075 -0.1522 -0.3663
 2442SOL    HW118962   2.747   1.207   8.199  1.7102  2.3044  3.6241
 2442SOL    HW218963   2.900   1.218   8.182  0.8359 -0.8821 -3.5229
 2443SOL     OW18964   4.020   0.498   8.535 -0.2380 -0.0539  0.6218
 2443SOL    HW118965   3.934   0.538   8.520  0.2408  0.1146 -1.7121
 2443SOL    HW218966   3.994   0.406   8.534 -0.3352 -0.0256  0.4228
 2444SOL     OW18967   3.188   1.890  15.913 -0.4536  0.9080  0.0245
 2444SOL    HW118968   3.104   1.876  15.958  0.0666  1.0965  1.0597
 2444SOL    HW218969   3.154   1.862  15.828  0.7651  2.1150 -0.8553
 2445SOL     OW18970   1.426   3.323   8.402  0.3586  0.0544 -0.0427
 2445SOL    HW118971   1.453   3.400   8.351 -0.6808  1.3682  1.4028
 2445SOL    HW218972   1.431   3.365   8.488 -0.0957  0.4409 -0.2014
 2446SOL     OW18973   0.842   0.980   4.301 -0.3835  0.4513  0.6258
 2446SOL    HW118974   0.907   1.034   4.347 -0.4846  2.5993 -1.7236
 2446SOL    HW218975   0.859   0.893   4.336  0.0315  1.4499  2.9197
 2447SOL     OW18976   0.195   1.571  10.383  0.7579 -0.5728  0.7579
 2447SOL    HW118977   0.137   1.542  10.314 -0.1939  0.8626  0.9630
 2447SOL    HW218978   0.137   1.559  10.458  0.5264  1.6239  0.9165
 2448SOL     OW18979   4.251   1.579  16.768  1.1082 -0.6179  0.5818
 2448SOL    HW118980   4.322   1.518  16.751 -0.4974 -2.4031  0.2665
 2448SOL    HW218981   4.221   1.583  16.677 -0.4297 -3.0311  0.9706
 2449SOL     OW18982   3.390   3.849   3.294  0.0721  0.0973 -0.3352
 2449SOL    HW118983   3.482   3.870   3.309 -0.2700  0.8460  0.7221
 2449SOL    HW218984   3.373   3.912   3.224  2.2842 -0.5119 -1.4138
 2450SOL     OW18985   0.443   1.963   8.753 -0.5117  0.3338  0.8130
 2450SOL    HW118986   0.525   2.011   8.760 -0.6564  0.7302 -0.1894
 2450SOL    HW218987   0.394   2.038   8.721  1.2135  1.2796  0.3726
 2451SOL     OW18988   0.521   0.146   7.761  0.4163 -0.4507  0.3115
 2451SOL    HW118989   0.429   0.174   7.762 -0.6696 -4.1437  1.2497
 2451SOL    HW218990   0.559   0.204   7.827 -1.7182 -0.4035  1.4897
 2452SOL     OW18991   2.324   0.180  12.141  0.1582 -0.1961  0.5021
 2452SOL    HW118992   2.319   0.121  12.065  2.3554  0.0512  0.1413
 2452SOL    HW218993   2.359   0.120  12.207 -1.0780 -1.2224  0.2145
 2453SOL     OW18994   2.731   1.403   7.156 -0.1214 -0.0961  0.1296
 2453SOL    HW118995   2.811   1.450   7.133 -0.9835  1.3351  0.0315
 2453SOL    HW218996   2.767   1.377   7.241 -1.2166 -4.2087 -0.6545
 2454SOL     OW18997   4.372   0.396   9.364 -0.0251  0.0126  0.3103
 2454SOL    HW118998   4.460   0.396   9.327 -0.6215 -0.0992 -1.0804
 2454SOL    HW218999   4.321   0.446   9.301  0.6733 -1.1507 -1.1631
 2455SOL     OW19000   1.387   1.502   8.329 -0.2508  0.1709 -0.0759
 2455SOL    HW119001   1.446   1.577   8.329 -1.2176  0.9216 -4.9649
 2455SOL    HW219002   1.352   1.515   8.241 -1.2299 -0.7447  0.1718
 2456SOL     OW19003   1.891   3.812   3.262  0.7751  0.4125 -0.3581
 2456SOL    HW119004   1.881   3.828   3.169 -1.4417 -1.7325 -0.4744
 2456SOL    HW219005   1.804   3.824   3.298  0.2697 -0.6845 -1.2164
 2457SOL     OW19006   1.280   1.167  15.850  0.3718  0.0921 -0.0758
 2457SOL    HW119007   1.366   1.190  15.884 -0.6280  2.5781  0.7171
 2457SOL    HW219008   1.278   1.208  15.764  1.5264 -1.0604 -0.6614
 2458SOL     OW19009   1.367   4.278   1.782 -0.6373  0.3229  0.3570
 2458SOL    HW119010   1.415   4.209   1.829 -2.4109  1.2171  3.4761
 2458SOL    HW219011   1.376   4.238   1.695 -0.2615 -1.0118  1.0037
 2459SOL     OW19012   2.843   3.457  13.900  0.4725 -0.0297  0.4009
 2459SOL    HW119013   2.846   3.508  13.820  1.6209 -1.4738 -0.4829
 2459SOL    HW219014   2.756   3.479  13.934  0.6726  0.6998  0.4379
 2460SOL     OW19015   2.148   2.980   5.331 -0.0976  0.3442  0.1083
 2460SOL    HW119016   2.092   2.908   5.359  1.2211 -0.7722 -0.1358
 2460SOL    HW219017   2.100   3.052   5.373  0.7032 -0.5671  2.5948
 2461SOL     OW19018   2.960   1.813  17.461 -0.1533 -0.7332 -0.5195
 2461SOL    HW119019   2.966   1.858  17.377 -0.9333  1.4278  0.5740
 2461SOL    HW219020   3.047   1.775  17.463  0.8089  1.6141  2.8377
 2462SOL     OW19021   0.063   3.222   6.125 -0.3691  0.0537 -0.3453
 2462SOL    HW119022   0.004   3.293   6.151 -2.0909 -1.8107  0.8896
 2462SOL    HW219023   0.139   3.275   6.104  0.4021 -0.4704  1.1247
 2463SOL     OW19024   3.640   4.128   7.296 -1.2364  0.5581 -0.0517
 2463SOL    HW119025   3.654   4.034   7.282  0.7238  1.2469 -2.8331
 2463SOL    HW219026   3.661   4.136   7.389  0.7447 -0.9933 -0.3720
 2464SOL     OW19027   4.612   0.187  12.666  0.3759 -0.4519 -0.1262
 2464SOL    HW119028   4.585   0.095  12.663 -0.0129 -0.3170 -0.6228
 2464SOL    HW219029   4.670   0.183  12.743  2.1747 -1.2824 -1.5376
 2465SOL     OW19030   3.086   4.531   4.688 -0.0665 -0.4520 -0.1041
 2465SOL    HW119031   3.024   4.488   4.746 -1.1354  1.0722 -0.1255
 2465SOL    HW219032   3.026   4.582   4.634  0.0455 -0.5636 -0.3342
 2466SOL     OW19033   1.968   3.551   8.763 -0.1656  0.3789  0.2977
 2466SOL    HW119034   1.879   3.516   8.761 -0.2976  0.8159 -2.3163
 2466SOL    HW219035   2.014   3.501   8.829 -2.4169 -0.6119  1.1361
 2467SOL     OW19036   3.475   4.116   0.034 -0.1549  0.2628 -0.0557
 2467SOL    HW119037   3.416   4.044   0.013  0.5208 -0.1551 -0.5036
 2467SOL    HW219038   3.556   4.068   0.015  0.4688  0.6395  1.6301
 2468SOL     OW19039   1.955   0.795  10.075 -0.3517  0.0659 -0.1818
 2468SOL    HW119040   1.990   0.723  10.128 -1.6397  0.3802  1.0853
 2468SOL    HW219041   1.884   0.822  10.133  0.3142  0.9283  0.2331
 2469SOL     OW19042   2.575   1.643   1.477  0.6490 -0.1770 -0.2711
 2469SOL    HW119043   2.575   1.719   1.534  0.5047 -0.6368  0.3416
 2469SOL    HW219044   2.491   1.659   1.433  0.5279 -1.4245 -0.4983
 2470SOL     OW19045   1.630   3.576  10.430 -0.3144  0.4728  0.2565
 2470SOL    HW119046   1.722   3.574  10.455 -0.5225 -1.3679  0.9046
 2470SOL    HW219047   1.592   3.496  10.465 -0.3543 -0.7631 -2.5581
 2471SOL     OW19048   3.118   1.851  17.712 -0.0843  0.7311 -0.1862
 2471SOL    HW119049   3.141   1.790  17.642 -4.2510  0.9302 -1.6967
 2471SOL    HW219050   3.032   1.817  17.737  0.8549 -0.5876  1.2750
 2472SOL     OW19051   2.253   2.245  13.870 -0.2238 -0.3465  0.2507
 2472SOL    HW119052   2.316   2.223  13.801 -0.0650  0.5943  0.0983
 2472SOL    HW219053   2.299   2.209  13.947  2.2566 -1.4049 -1.7258
 2473SOL     OW19054   3.437   4.451   1.969  0.1614 -0.1174  0.3556
 2473SOL    HW119055   3.452   4.545   1.979  0.0859 -0.2309  1.5236
 2473SOL    HW219056   3.342   4.444   1.978  0.2927  0.0101  1.7932
 2474SOL     OW19057   0.438   0.274   0.648 -0.2834  0.2058 -0.1969
 2474SOL    HW119058   0.478   0.238   0.568 -0.5587  0.8062 -0.6065
 2474SOL    HW219059   0.486   0.355   0.667 -0.9475  0.6580 -0.4589
 2475SOL     OW19060   2.871   1.775   0.454 -0.1634 -0.6442 -0.5661
 2475SOL    HW119061   2.872   1.868   0.430  1.7340 -0.7504 -0.8814
 2475SOL    HW219062   2.892   1.777   0.548 -1.0043 -0.9199 -0.3693
 2476SOL     OW19063   0.006   1.401   9.959  0.0195 -0.2662  0.0463
 2476SOL    HW119064   0.009   1.478   9.903 -1.2740 -1.6397 -1.8951
 2476SOL    HW219065   0.086   1.427  10.005 -1.1165  3.8116 -0.2720
 2477SOL     OW19066   3.073   3.874  15.545  0.0739  0.0516 -0.2451
 2477SOL    HW119067   3.068   3.827  15.461  0.2997  1.5746 -1.1077
 2477SOL    HW219068   2.990   3.920  15.549 -0.5244 -1.1785  1.1752
 2478SOL     OW19069   3.663   2.083   5.623  0.5562 -0.2008 -0.0607
 2478SOL    HW119070   3.657   2.113   5.532 -2.5826 -0.0080  0.1915
 2478SOL    HW219071   3.569   2.089   5.640  0.2906  0.0848 -1.5604
 2479SOL     OW19072   1.830   0.578   6.759  0.1963  0.0619 -0.1616
 2479SOL    HW119073   1.867   0.656   6.717  1.0811  0.9620  2.2392
 2479SOL    HW219074   1.741   0.580   6.724  0.9088 -0.5552 -2.0058
 2480SOL     OW19075   4.036   1.003   8.657 -0.4721  0.2187  0.2341
 2480SOL    HW119076   4.088   1.037   8.729  1.7883  0.5564 -1.5727
 2480SOL    HW219077   4.098   0.936   8.631 -1.5907  0.2300 -2.4832
 2481SOL     OW19078   1.137   0.206   7.803 -0.7120  0.5012 -0.4129
 2481SOL    HW119079   1.106   0.202   7.712  1.3022 -1.2091 -1.0152
 2481SOL    HW219080   1.232   0.200   7.790 -0.7955 -0.8888 -0.3860
 2482SOL     OW19081   1.135   4.028   9.486 -0.3011 -0.6695  0.9489
 2482SOL    HW119082   1.119   3.944   9.530 -1.5660 -2.0407 -2.0977
 2482SOL    HW219083   1.230   4.034   9.478 -0.3826 -1.6350 -0.7197
 2483SOL     OW19084   1.098   1.032   7.525 -0.2049 -0.0259  0.3629
 2483SOL    HW119085   1.106   1.060   7.433 -0.3020  0.8304  0.6113
 2483SOL    HW219086   1.009   1.000   7.538 -0.9786  1.4199 -1.2849
 2484SOL     OW19087   1.081   1.845  11.212  0.0663  0.0548  0.0853
 2484SOL    HW119088   1.009   1.869  11.269 -0.1973  0.0456 -0.2428
 2484SOL    HW219089   1.123   1.925  11.181  1.3775  0.7391  3.7040
 2485SOL     OW19090   1.011   4.463   5.147  0.5739 -0.0529  0.3531
 2485SOL    HW119091   1.093   4.429   5.183  1.4890  0.9648 -0.7836
 2485SOL    HW219092   0.980   4.402   5.080  2.1565  1.2763 -1.5601
 2486SOL     OW19093   2.614   1.742   7.711  0.5593  0.3824  0.5772
 2486SOL    HW119094   2.661   1.728   7.629  0.1384  1.3463  0.1686
 2486SOL    HW219095   2.578   1.656   7.731 -0.7340  0.3727 -1.8184
 2487SOL     OW19096   2.860   1.504   3.826 -0.1177 -0.4182  0.2725
 2487SOL    HW119097   2.899   1.460   3.902  0.2462 -0.3301  0.1374
 2487SOL    HW219098   2.790   1.443   3.804 -0.7361  0.4133 -0.0792
 2488SOL     OW19099   1.591   0.994  13.937 -0.5640 -0.1802 -0.0689
 2488SOL    HW119100   1.590   0.931  14.008 -1.1779 -0.3875 -0.2569
 2488SOL    HW219101   1.514   1.047  13.960  0.3570  1.2291 -0.2455
 2489SOL     OW19102   1.483   0.304  11.606  0.4263  0.1187  0.2812
 2489SOL    HW119103   1.486   0.298  11.510  0.7170 -0.4518  0.3292
 2489SOL    HW219104   1.576   0.299  11.627  0.3258  1.7449  1.0760
 2490SOL     OW19105   1.019   0.805  15.891 -0.5744 -0.2874  0.0113
 2490SOL    HW119106   1.011   0.714  15.863 -0.4565 -0.1954 -0.3213
 2490SOL    HW219107   1.000   0.859  15.815  1.6976 -3.6284 -2.9560
 2491SOL     OW19108   3.469   1.364   4.833 -0.0348 -0.5205 -0.1418
 2491SOL    HW119109   3.506   1.339   4.749 -0.0004  0.1243 -0.3238
 2491SOL    HW219110   3.390   1.311   4.841 -1.8647  2.2174  0.1651
 2492SOL     OW19111   2.280   0.028   5.084 -0.1901  0.6812  0.4188
 2492SOL    HW119112   2.359   0.082   5.074 -0.3724  0.6540 -1.2461
 2492SOL    HW219113   2.211   0.075   5.038  0.4490 -0.0053 -1.2505
 2493SOL     OW19114   3.146   0.653  15.866 -0.5720  0.1773  0.2441
 2493SOL    HW119115   3.180   0.603  15.791  0.2961 -0.9695  1.4046
 2493SOL    HW219116   3.080   0.714  15.833 -1.6354 -0.4408  1.2067
 2494SOL     OW19117   2.235   2.603   7.303 -0.4957  0.2434  0.5505
 2494SOL    HW119118   2.151   2.634   7.272 -0.2812  1.6140  1.3341
 2494SOL    HW219119   2.260   2.653   7.381 -1.9322  4.7124 -1.9018
 2495SOL     OW19120   2.335   4.215   0.242 -0.6257  0.1488  0.0184
 2495SOL    HW119121   2.283   4.294   0.251 -0.1412  0.1339  3.2954
 2495SOL    HW219122   2.267   4.148   0.254 -0.4775 -0.4258 -2.4391
 2496SOL     OW19123   1.972   1.295   7.917 -0.2440  0.3043 -0.7194
 2496SOL    HW119124   1.993   1.274   8.008  1.4424  1.2296 -0.8970
 2496SOL    HW219125   1.965   1.390   7.910  0.5829  0.3362 -1.0602
 2497SOL     OW19126   2.250   4.205   6.764  0.6231 -0.0723 -0.4701
 2497SOL    HW119127   2.325   4.265   6.768  0.1914  0.2386  2.7937
 2497SOL    HW219128   2.200   4.223   6.843  0.8906 -0.1795 -0.2751
 2498SOL     OW19129   2.766   3.790  11.250 -0.1198 -0.0518 -0.1656
 2498SOL    HW119130   2.734   3.715  11.199 -0.2680 -0.5337  0.6386
 2498SOL    HW219131   2.719   3.774  11.331 -0.3018 -0.6696 -0.3899
 2499SOL     OW19132   0.244   1.368   4.334 -0.3601  0.3942  0.3694
 2499SOL    HW119133   0.212   1.435   4.395 -0.2871 -1.0803  2.0490
 2499SOL    HW219134   0.309   1.331   4.395 -1.8515  0.6731  2.1090
 2500SOL     OW19135   1.276   3.951  15.121  0.0880  0.4087 -0.3455
 2500SOL    HW119136   1.322   4.031  15.146 -0.2086  0.6160 -0.4578
 2500SOL    HW219137   1.198   3.981  15.073 -0.1083  1.2715  0.5027
 2501SOL     OW19138   4.306   3.719  10.710 -0.1681  0.4356  0.1850
 2501SOL    HW119139   4.227   3.761  10.744 -0.2658  2.0380 -2.0121
 2501SOL    HW219140   4.314   3.639  10.763  0.1200  1.1196  1.1773
 2502SOL     OW19141   3.408   4.448   9.493  0.0719 -0.5374 -0.9943
 2502SOL    HW119142   3.407   4.357   9.521  1.6025  0.3014  1.8138
 2502SOL    HW219143   3.317   4.466   9.469 -0.0908 -1.8761 -1.3732
 2503SOL     OW19144   3.565   3.688   6.864  0.1163 -0.2293 -0.4725
 2503SOL    HW119145   3.643   3.656   6.910  0.0416  0.1142 -0.1069
 2503SOL    HW219146   3.496   3.625   6.882  0.7001 -0.6686  0.1950
 2504SOL     OW19147   2.702   3.103   0.103 -0.1645 -0.3875  0.3235
 2504SOL    HW119148   2.662   3.120   0.018 -0.8977 -0.1299  0.7229
 2504SOL    HW219149   2.779   3.049   0.085 -0.3263 -0.0826 -1.2856
 2505SOL     OW19150   4.243   4.273   8.385  0.5348 -0.0940  0.6972
 2505SOL    HW119151   4.269   4.365   8.373  2.0630 -0.4120  1.5605
 2505SOL    HW219152   4.172   4.279   8.449 -1.8699 -1.6754 -1.8371
 2506SOL     OW19153   3.576   3.222   4.654  0.5545  0.2295 -0.0018
 2506SOL    HW119154   3.597   3.235   4.562 -0.4342  0.5618 -0.1811
 2506SOL    HW219155   3.495   3.172   4.643 -0.2864  2.4069 -3.6935
 2507SOL     OW19156   4.269   0.210  10.212 -0.2766  0.4163 -0.3214
 2507SOL    HW119157   4.314   0.134  10.173  2.7695  0.3543  3.2119
 2507SOL    HW219158   4.272   0.195  10.307 -1.6608  2.1880 -0.0158
 2508SOL     OW19159   2.066   2.242   8.883  0.2092 -0.1730 -0.6243
 2508SOL    HW119160   2.096   2.225   8.794  1.3830  1.3835 -0.5106
 2508SOL    HW219161   2.049   2.152   8.913 -0.2328 -0.3038 -1.2546
 2509SOL     OW19162   1.688   0.427   4.053  0.4092  0.3443 -0.6376
 2509SOL    HW119163   1.667   0.336   4.030 -1.3961  0.5507  0.1576
 2509SOL    HW219164   1.720   0.408   4.141  0.4752 -0.4186 -0.8239
 2510SOL     OW19165   4.626   1.014   4.202 -0.0686 -0.3673  0.0798
 2510SOL    HW119166   4.667   0.928   4.195 -0.5886 -0.5248 -0.8871
 2510SOL    HW219167   4.705   1.063   4.226  0.7342 -2.0568  0.8999
 2511SOL     OW19168   2.077   4.094   8.005 -0.3372 -0.1428 -0.5333
 2511SOL    HW119169   2.169   4.101   7.982 -0.2431 -0.7232 -0.3370
 2511SOL    HW219170   2.064   4.180   8.043  0.6473 -0.3530  0.2616
 2512SOL     OW19171   4.228   2.320   3.666  0.6416 -0.3272  0.2782
 2512SOL    HW119172   4.291   2.288   3.602  0.0097 -0.3343 -0.3479
 2512SOL    HW219173   4.255   2.411   3.669 -3.1872  0.8089 -0.0637
 2513SOL     OW19174   4.007   2.654   5.207  0.1033 -0.0542  0.5481
 2513SOL    HW119175   3.981   2.642   5.298 -0.4054 -2.5179  0.0858
 2513SOL    HW219176   3.930   2.655   5.149  1.0722  1.1764 -0.7041
 2514SOL     OW19177   0.456   4.531  13.346  0.1739  0.0037  0.0142
 2514SOL    HW119178   0.441   4.447  13.391 -0.0798 -0.8398 -1.6752
 2514SOL    HW219179   0.374   4.547  13.299  0.6555  0.2795 -0.7216
 2515SOL     OW19180   2.693   2.756   2.273 -0.0271  0.0923  0.2434
 2515SOL    HW119181   2.712   2.759   2.179  0.5152  0.0212  0.3507
 2515SOL    HW219182   2.622   2.692   2.280  0.2374 -0.7929 -4.8823
 2516SOL     OW19183   1.325   0.772   7.319  0.1312 -0.3329 -0.3874
 2516SOL    HW119184   1.231   0.773   7.304  0.1444 -1.8018 -0.5519
 2516SOL    HW219185   1.351   0.829   7.247 -1.3426  0.6510 -0.1470
 2517SOL     OW19186   1.212   1.910   8.918  0.2963 -0.3598  0.7771
 2517SOL    HW119187   1.266   1.947   8.988  1.8473 -1.0111 -0.0748
 2517SOL    HW219188   1.184   1.823   8.943  1.4623 -0.9657 -0.0089
 2518SOL     OW19189   2.872   3.340   1.254 -0.1262  0.2697 -0.0635
 2518SOL    HW119190   2.886   3.394   1.176 -0.3193  1.8562  0.9781
 2518SOL    HW219191   2.794   3.286   1.240  0.4515 -1.2154  2.4092
 2519SOL     OW19192   1.205   1.522   4.436 -0.0966 -0.5849  0.6041
 2519SOL    HW119193   1.130   1.529   4.377  0.8749 -1.2114 -0.6954
 2519SOL    HW219194   1.177   1.593   4.495  0.1867 -1.0672  1.3230
 2520SOL     OW19195   2.183   0.930   4.632 -0.1068  0.6338 -0.1313
 2520SOL    HW119196   2.171   1.019   4.667 -1.9196 -0.1324  1.1956
 2520SOL    HW219197   2.093   0.925   4.600  0.2064  0.5003 -0.9888
 2521SOL     OW19198   3.690   4.103   3.914  0.0582 -0.2402  0.5633
 2521SOL    HW119199   3.621   4.132   3.854  1.4868  2.5638  0.2460
 2521SOL    HW219200   3.688   4.012   3.884 -0.6929  0.4198 -1.4167
 2522SOL     OW19201   0.617   3.368   2.071 -0.2268  0.0391 -0.2033
 2522SOL    HW119202   0.621   3.274   2.054 -0.7319  0.0878 -0.6106
 2522SOL    HW219203   0.683   3.379   2.139  0.5120 -0.8917 -0.7700
 2523SOL     OW19204   1.562   3.171   1.251  0.2009 -0.0254 -0.9533
 2523SOL    HW119205   1.645   3.141   1.214  0.0595 -1.9433  0.3004
 2523SOL    HW219206   1.575   3.265   1.267 -1.2527  0.0897 -0.4722
 2524SOL     OW19207   1.096   4.370  11.517 -0.0120  0.3791 -0.1731
 2524SOL    HW119208   1.152   4.446  11.499 -0.6545  0.8613 -0.1280
 2524SOL    HW219209   1.059   4.386  11.603  0.2793  3.3093 -0.6108
 2525SOL     OW19210   0.192   1.521   3.808 -0.5355  0.5989 -0.8448
 2525SOL    HW119211   0.157   1.595   3.858 -3.0344 -0.5093 -0.9582
 2525SOL    HW219212   0.257   1.483   3.867 -0.2668  0.3384 -1.3145
 2526SOL     OW19213   1.581   3.244   2.277 -0.2424  0.0996 -0.2352
 2526SOL    HW119214   1.619   3.329   2.256  0.7478 -0.1233  0.6202
 2526SOL    HW219215   1.644   3.185   2.236 -0.8892 -0.8291  0.0973
 2527SOL     OW19216   1.662   1.678   4.459  0.4208  0.1345 -0.5761
 2527SOL    HW119217   1.736   1.712   4.408  1.9267  0.4499  1.7964
 2527SOL    HW219218   1.618   1.623   4.394 -2.3631  0.2428  1.2253
 2528SOL     OW19219   0.593   0.826   3.743 -0.1111 -0.2829 -0.6021
 2528SOL    HW119220   0.590   0.760   3.812  0.2252  2.6332  2.2113
 2528SOL    HW219221   0.567   0.904   3.793 -0.0964  0.3652 -1.6021
 2529SOL     OW19222   1.594   1.692   8.276 -0.0825  0.3206  0.3089
 2529SOL    HW119223   1.568   1.783   8.259  0.0986  0.5462  1.2052
 2529SOL    HW219224   1.623   1.655   8.193  0.9690  1.1795  0.2941
 2530SOL     OW19225   4.103   0.876   3.112  0.0919 -0.2631 -0.1293
 2530SOL    HW119226   4.190   0.907   3.086  0.2072  0.8948  1.5883
 2530SOL    HW219227   4.078   0.818   3.040 -0.9309  0.2008 -0.1496
 2531SOL     OW19228   3.545   0.090  14.937  0.7213  0.1493  0.4346
 2531SOL    HW119229   3.640   0.080  14.935  0.6471 -0.8738  1.7332
 2531SOL    HW219230   3.537   0.182  14.961 -1.3982  0.5354 -1.7211
 2532SOL     OW19231   1.931   3.197   5.012 -0.1092 -1.1048 -0.5793
 2532SOL    HW119232   1.987   3.131   4.971  0.2255 -1.1996  0.0135
 2532SOL    HW219233   1.994   3.256   5.056  0.6992 -1.7437 -0.8955
 2533SOL     OW19234   4.460   1.527  15.860 -0.4528 -0.1594  0.2333
 2533SOL    HW119235   4.499   1.576  15.788  0.0308 -2.0832 -0.8250
 2533SOL    HW219236   4.400   1.466  15.816  1.2929 -0.0390 -2.3383
 2534SOL     OW19237   2.518   3.845   4.478 -0.1912  0.0063 -0.5066
 2534SOL    HW119238   2.539   3.875   4.389  0.4171 -1.4992 -0.8590
 2534SOL    HW219239   2.530   3.921   4.535 -1.0116  0.6145 -1.1375
 2535SOL     OW19240   0.521   0.086   3.625 -0.1690 -0.5565 -0.4521
 2535SOL    HW119241   0.609   0.122   3.614 -0.6464 -0.0023 -2.5061
 2535SOL    HW219242   0.485   0.151   3.686  2.4927 -0.6205  1.1774
 2536SOL     OW19243   0.113   1.120  13.401 -0.2431  0.8276 -0.2634
 2536SOL    HW119244   0.027   1.085  13.382 -0.1829  0.2091  0.5891
 2536SOL    HW219245   0.100   1.164  13.486  1.2922  0.9014 -0.0591
 2537SOL     OW19246   3.996   3.423   6.507 -0.0865  0.0012 -0.3985
 2537SOL    HW119247   3.917   3.411   6.559  1.3418 -1.4905  1.4174
 2537SOL    HW219248   4.004   3.515   6.482 -0.4847 -0.0979 -0.8991
 2538SOL     OW19249   1.209   1.110   1.525 -1.1395  0.7674  0.3502
 2538SOL    HW119250   1.161   1.045   1.576 -3.3365  2.7979  0.8567
 2538SOL    HW219251   1.162   1.186   1.558 -1.5654  0.2232  0.9888
 2539SOL     OW19252   4.573   4.482  10.018 -0.4922 -0.7807  0.2703
 2539SOL    HW119253   4.651   4.512  10.065  0.4581  1.1402 -2.5346
 2539SOL    HW219254   4.565   4.557   9.959  0.1060 -0.2721  0.8378
 2540SOL     OW19255   0.062   3.948   6.409 -0.3719  0.4404  0.1059
 2540SOL    HW119256   0.045   4.015   6.342  0.0746  0.8083  0.3551
 2540SOL    HW219257   4.712   3.922   6.432 -1.2945 -0.4815 -4.5836
 2541SOL     OW19258   0.492   2.051   6.287  0.1866  0.0142  0.0968
 2541SOL    HW119259   0.402   2.019   6.290  0.4575 -0.8265 -0.7656
 2541SOL    HW219260   0.513   2.045   6.193 -1.2721 -0.5613 -0.1938
 2542SOL     OW19261   3.682   3.263   3.592 -0.2549  0.2497  0.1356
 2542SOL    HW119262   3.640   3.330   3.646  1.1188  1.3495 -0.1644
 2542SOL    HW219263   3.608   3.248   3.532 -0.4857  1.5351  0.1014
 2543SOL     OW19264   4.665   0.622   8.198  0.2496  0.6025 -0.2177
 2543SOL    HW119265   4.629   0.676   8.127  0.1457 -1.7917 -1.9651
 2543SOL    HW219266   4.639   0.680   8.270 -0.0184  0.8224 -0.4876
 2544SOL     OW19267   2.245   1.398   7.744  0.2034  0.3653 -0.3853
 2544SOL    HW119268   2.191   1.394   7.665  0.4402 -1.0942 -0.4860
 2544SOL    HW219269   2.180   1.411   7.814  1.7835 -1.5708  1.4607
 2545SOL     OW19270   0.895   2.624   4.267  0.5151  0.5112  0.6836
 2545SOL    HW119271   0.833   2.593   4.333  0.2090  0.8460  0.5535
 2545SOL    HW219272   0.855   2.708   4.243  1.8176  0.6256 -1.1063
 2546SOL     OW19273   1.176   0.618   3.473  0.2201 -0.1094  0.0115
 2546SOL    HW119274   1.143   0.668   3.399  1.5619  0.8934  0.0849
 2546SOL    HW219275   1.251   0.671   3.499 -1.8948  1.3919  2.9803
 2547SOL     OW19276   1.792   2.377   5.043 -0.3182 -0.6752  0.0802
 2547SOL    HW119277   1.782   2.470   5.063  1.1218 -0.5807  0.3636
 2547SOL    HW219278   1.852   2.387   4.969  0.3184  1.5390  0.8963
 2548SOL     OW19279   1.987   4.324  14.104 -0.5439  0.1496  0.5800
 2548SOL    HW119280   1.893   4.307  14.114 -0.4149 -0.4755  0.7563
 2548SOL    HW219281   2.000   4.255  14.039  2.4235  1.5079 -0.2296
 2549SOL     OW19282   0.561   1.427   1.042  0.2038  0.2762 -0.0660
 2549SOL    HW119283   0.538   1.410   1.134 -2.7061  1.2240 -0.6086
 2549SOL    HW219284   0.478   1.398   1.003  0.0547  0.9765 -0.2708
 2550SOL     OW19285   1.083   3.140   8.409  0.0160  0.2505 -0.2079
 2550SOL    HW119286   1.064   3.234   8.405 -1.2444  0.0673  1.1849
 2550SOL    HW219287   1.097   3.121   8.316  1.9608  1.4888 -0.1508
 2551SOL     OW19288   1.258   1.215  17.746 -0.1431 -0.5456  0.0562
 2551SOL    HW119289   1.266   1.241   0.084 -1.2825 -2.2453  0.6338
 2551SOL    HW219290   1.171   1.175  17.746 -0.7961  0.8953  0.2033
 2552SOL     OW19291   3.036   3.599   7.193 -0.0082  0.5161 -0.1946
 2552SOL    HW119292   3.000   3.556   7.270 -1.5183  1.8286 -0.1869
 2552SOL    HW219293   2.994   3.557   7.118 -0.2317  1.6431 -0.7001
 2553SOL     OW19294   2.032   2.680   9.291  0.4028  0.0802  0.2715
 2553SOL    HW119295   2.035   2.729   9.209  1.7087 -0.0917  0.2124
 2553SOL    HW219296   2.105   2.619   9.279  0.7749  0.4549  0.6100
 2554SOL     OW19297   4.204   3.005  11.286 -0.0634 -0.8490  0.3368
 2554SOL    HW119298   4.157   3.038  11.209 -0.7784 -0.6792  0.8411
 2554SOL    HW219299   4.128   2.976  11.338 -1.6025  2.7129  0.0708
 2555SOL     OW19300   4.379   0.723  10.256 -0.3120  0.0532  0.0231
 2555SOL    HW119301   4.315   0.793  10.267 -0.4290  0.3919 -2.6022
 2555SOL    HW219302   4.322   0.652  10.224 -0.0077 -0.0343 -0.3235
 2556SOL     OW19303   0.535   0.771   4.825  0.2339 -0.7770  0.1296
 2556SOL    HW119304   0.503   0.841   4.768 -1.6789 -1.6387  0.1596
 2556SOL    HW219305   0.471   0.700   4.816 -1.3191  0.6557 -0.0953
 2557SOL     OW19306   2.673   2.848   4.537 -0.5046  0.1732 -0.1451
 2557SOL    HW119307   2.641   2.791   4.467 -0.4776  0.7749 -0.6470
 2557SOL    HW219308   2.592   2.876   4.580 -1.2747 -2.5362  0.1934
 2558SOL     OW19309   3.266   2.147   9.188  0.4458  0.2503  0.1761
 2558SOL    HW119310   3.290   2.214   9.125  0.5238  0.8662  0.8596
 2558SOL    HW219311   3.290   2.196   9.267 -0.2257 -0.0414  0.5663
 2559SOL     OW19312   2.553   2.253   5.480 -0.2911  0.5095 -0.1635
 2559SOL    HW119313   2.617   2.191   5.516 -1.3808 -0.4338  0.1345
 2559SOL    HW219314   2.611   2.327   5.461 -0.1287  0.2320 -0.7740
 2560SOL     OW19315   2.185   3.190   3.361  0.5772 -0.1884  0.3616
 2560SOL    HW119316   2.230   3.197   3.277  2.6694 -0.4388  1.4498
 2560SOL    HW219317   2.109   3.248   3.353 -0.5597 -1.6986  0.3786
 2561SOL     OW19318   4.108   3.657   7.161  0.0724 -0.5163  0.1880
 2561SOL    HW119319   4.126   3.673   7.068  0.8139 -1.4189  0.1737
 2561SOL    HW219320   4.014   3.661   7.177 -0.1922  0.7207 -1.6693
 2562SOL     OW19321   1.508   2.440   5.833  0.4547  0.2241 -0.8422
 2562SOL    HW119322   1.507   2.406   5.744  1.4474 -2.6696  0.2605
 2562SOL    HW219323   1.598   2.421   5.860 -0.2350 -2.8574 -0.7981
 2563SOL     OW19324   4.574   4.474   7.835 -0.2534  0.0513 -0.1222
 2563SOL    HW119325   4.515   4.399   7.839  1.3745 -1.1521  1.4259
 2563SOL    HW219326   4.529   4.536   7.893 -0.2036  0.3431 -0.3990
 2564SOL     OW19327   2.019   2.044   7.906 -0.0480  0.1675  0.2403
 2564SOL    HW119328   2.062   2.038   7.820  1.6994 -0.4373  1.1623
 2564SOL    HW219329   2.098   2.060   7.956  1.1899  0.2485 -1.7303
 2565SOL     OW19330   3.617   0.844  15.205 -0.1822 -0.0914 -0.0532
 2565SOL    HW119331   3.646   0.766  15.157  1.9756  0.1917  0.7671
 2565SOL    HW219332   3.582   0.811  15.287 -1.8428 -2.3946 -1.6857
 2566SOL     OW19333   0.686   3.670  11.702  0.1026 -0.6926  0.3396
 2566SOL    HW119334   0.642   3.708  11.778 -0.2749  1.5272 -0.9907
 2566SOL    HW219335   0.604   3.637  11.664  0.1008 -0.5704  0.2372
 2567SOL     OW19336   1.424   0.542   3.054 -0.6101 -0.1360 -0.1047
 2567SOL    HW119337   1.328   0.539   3.043 -0.4230  1.2693 -2.2667
 2567SOL    HW219338   1.420   0.479   3.125 -1.7413 -0.5670 -0.5367
 2568SOL     OW19339   2.280   4.704   8.156  0.5006  0.2238  0.5494
 2568SOL    HW119340   2.312   0.049   8.124  1.1365 -0.1049  0.3325
 2568SOL    HW219341   2.214   4.690   8.087  0.7466 -0.6661  0.4888
 2569SOL     OW19342   3.984   1.801   1.583  0.0521 -0.1990  0.0884
 2569SOL    HW119343   4.060   1.770   1.633  1.9434  0.0126 -2.6059
 2569SOL    HW219344   3.974   1.883   1.632  1.8428  1.4222 -2.1819
 2570SOL     OW19345   2.241   4.362  13.267  0.0858  0.0769  0.2455
 2570SOL    HW119346   2.325   4.398  13.296  0.6650 -0.6378 -0.5361
 2570SOL    HW219347   2.225   4.313  13.347  1.9121 -1.5605 -0.4028
 2571SOL     OW19348   1.357   4.404   0.777 -0.8303  0.4549  0.1850
 2571SOL    HW119349   1.395   4.322   0.809 -0.1711  0.5411 -0.3786
 2571SOL    HW219350   1.315   4.389   0.692 -1.0048 -0.9491  0.5271
 2572SOL     OW19351   4.734   3.771   2.663  0.1818  0.1103  0.4253
 2572SOL    HW119352   4.660   3.723   2.699  0.4801 -1.5735 -1.1808
 2572SOL    HW219353   4.709   3.863   2.677 -2.5496 -0.4567 -0.7388
 2573SOL     OW19354   1.671   3.559   8.751  0.2029  0.1920  0.4592
 2573SOL    HW119355   1.608   3.546   8.822  0.7109 -1.7562  0.5534
 2573SOL    HW219356   1.691   3.651   8.768  0.5099  0.8260 -3.2702
 2574SOL     OW19357   4.722   0.756   7.410  0.0915  0.0566  0.3816
 2574SOL    HW119358   0.023   0.843   7.417  0.1101  0.1540 -0.8625
 2574SOL    HW219359   0.051   0.693   7.435 -0.8312 -0.6322  1.1377
 2575SOL     OW19360   1.505   2.120   5.294 -0.3407 -0.0566 -0.1425
 2575SOL    HW119361   1.567   2.140   5.225 -0.6944  1.1591 -0.1081
 2575SOL    HW219362   1.451   2.200   5.296  0.5326  0.5147  0.5733
 2576SOL     OW19363   0.438   3.241  15.091  0.0487 -0.0130 -0.3799
 2576SOL    HW119364   0.361   3.272  15.045 -0.1413 -0.0573 -0.0911
 2576SOL    HW219365   0.408   3.161  15.135 -0.4237 -1.5266 -3.4574
 2577SOL     OW19366   4.263   1.676   5.970  0.3222  0.2984 -0.6377
 2577SOL    HW119367   4.226   1.737   5.906  2.4005  0.1081 -1.9987
 2577SOL    HW219368   4.242   1.736   6.042  3.2383  0.2083  0.2789
 2578SOL     OW19369   1.996   4.313   8.757 -0.1607 -0.3459  0.0022
 2578SOL    HW119370   1.940   4.246   8.797 -0.4562  0.2309  0.5454
 2578SOL    HW219371   2.032   4.357   8.833  0.3092  0.0483 -0.4494
 2579SOL     OW19372   3.938   1.831   5.995 -0.6217  0.0339  0.2349
 2579SOL    HW119373   4.005   1.823   5.927 -0.9931 -1.8684  0.0904
 2579SOL    HW219374   3.873   1.764   5.974  0.2958 -1.0887  0.9279
 2580SOL     OW19375   1.737   3.702   6.204  0.4999 -0.8105  0.3563
 2580SOL    HW119376   1.659   3.648   6.191  0.0096 -0.2669  1.1147
 2580SOL    HW219377   1.767   3.700   6.113 -1.8949 -0.3554 -0.4553
 2581SOL     OW19378   1.341   1.651   6.860  0.0615 -0.0660  0.4817
 2581SOL    HW119379   1.418   1.654   6.804  1.4515  0.3215  2.4306
 2581SOL    HW219380   1.340   1.737   6.902 -1.8268 -0.0225  0.3692
 2582SOL     OW19381   2.151   2.097   4.893 -0.0881 -0.1558 -0.2673
 2582SOL    HW119382   2.163   2.005   4.917  1.0450 -0.4496 -1.9286
 2582SOL    HW219383   2.239   2.135   4.893 -0.4589  0.6611 -4.6198
 2583SOL     OW19384   2.211   4.731   7.073  0.2161  0.1478 -0.2710
 2583SOL    HW119385   2.238   0.083   7.063 -0.1581  0.4050  1.0439
 2583SOL    HW219386   2.168   4.734   7.159 -0.8422  1.0290 -0.8315
 2584SOL     OW19387   1.161   0.504   5.100  0.0985 -0.1407 -0.1290
 2584SOL    HW119388   1.253   0.530   5.098  0.2566 -0.8301 -1.7106
 2584SOL    HW219389   1.148   0.459   5.183  1.6364  0.3660  0.3737
 2585SOL     OW19390   0.219   4.472   4.805  0.3801 -0.3734 -0.0663
 2585SOL    HW119391   0.166   4.436   4.877  0.5131  0.3269  0.3843
 2585SOL    HW219392   0.227   4.563   4.834 -1.0285 -0.6693  1.3135
 2586SOL     OW19393   0.310   1.950   4.111  0.1687 -0.4856  0.4313
 2586SOL    HW119394   0.386   1.974   4.165  0.8447  2.1135 -1.6779
 2586SOL    HW219395   0.236   1.976   4.165  0.4110  2.7884 -0.8433
 2587SOL     OW19396   4.735   4.524   4.065 -0.5574  0.0698  0.4048
 2587SOL    HW119397   0.012   4.442   4.111  0.4500 -1.0630 -1.9773
 2587SOL    HW219398   4.651   4.555   4.099 -1.9068 -2.0494 -1.0017
 2588SOL     OW19399   1.963   3.530  14.816 -0.2575 -0.0459  0.2132
 2588SOL    HW119400   2.012   3.456  14.782 -2.2936 -0.7480 -1.2415
 2588SOL    HW219401   1.975   3.531  14.910  4.5221 -0.3834 -0.4124
 2589SOL     OW19402   0.949   0.603  16.138  0.1302 -0.0756  0.0329
 2589SOL    HW119403   1.019   0.664  16.117 -1.3988  1.6395 -0.0925
 2589SOL    HW219404   0.887   0.663  16.181 -0.8486 -1.5589  0.6810
 2590SOL     OW19405   0.250   3.863  16.627  0.4538 -0.1265 -0.2254
 2590SOL    HW119406   0.166   3.898  16.600 -0.2032 -1.1204  0.5451
 2590SOL    HW219407   0.240   3.910  16.710 -2.3869 -0.1040 -0.5860
 2591SOL     OW19408   1.114   1.183   8.183  0.4088  0.3069 -0.7028
 2591SOL    HW119409   1.132   1.226   8.100  0.6383  1.4793 -0.0519
 2591SOL    HW219410   1.087   1.097   8.153  4.3832 -1.0331 -0.4979
 2592SOL     OW19411   0.407   1.607   8.293  0.5388  0.4430 -0.0106
 2592SOL    HW119412   0.347   1.539   8.262 -0.9963  1.5107  0.5702
 2592SOL    HW219413   0.495   1.574   8.311  0.7142  0.7105 -0.3792
 2593SOL     OW19414   3.361   2.909  10.073 -0.0420  0.6884  0.4389
 2593SOL    HW119415   3.320   2.992  10.048  0.6026  1.1716  0.9772
 2593SOL    HW219416   3.348   2.902  10.167 -0.6752 -1.3429  0.1961
 2594SOL     OW19417   4.307   2.946  15.638  0.6356  0.2343 -0.5620
 2594SOL    HW119418   4.281   2.944  15.730 -1.3859  0.4561 -1.1304
 2594SOL    HW219419   4.384   2.888  15.640 -1.0883 -2.0413 -0.5133
 2595SOL     OW19420   0.192   3.539   3.927  0.1709 -0.1715 -0.3127
 2595SOL    HW119421   0.144   3.527   4.009 -0.2191 -0.0818 -0.5274
 2595SOL    HW219422   0.238   3.623   3.936  0.9696 -0.8035  1.5411
 2596SOL     OW19423   3.475   2.767   8.387  0.4080  0.2978 -0.1885
 2596SOL    HW119424   3.380   2.767   8.399  0.6899 -1.3197  2.2861
 2596SOL    HW219425   3.483   2.821   8.309 -0.7356 -2.0522 -1.9121
 2597SOL     OW19426   3.089   0.086  13.351 -0.1010 -0.0913  0.0677
 2597SOL    HW119427   3.092   0.056  13.261 -0.4802 -1.7850  0.6196
 2597SOL    HW219428   3.084   0.181  13.334  3.1294  0.0247 -0.1799
 2598SOL     OW19429   0.495   0.174   5.112  0.4565  0.2623 -0.0764
 2598SOL    HW119430   0.555   0.206   5.179  0.5036  0.6557 -0.3050
 2598SOL    HW219431   0.508   0.081   5.131 -0.4752  0.1902  0.2155
 2599SOL     OW19432   3.532   0.301   7.341 -0.5574 -0.2726  0.7058
 2599SOL    HW119433   3.550   0.387   7.303  2.1308 -1.1309  0.0345
 2599SOL    HW219434   3.487   0.262   7.266  1.6070 -0.2770 -0.5895
 2600SOL     OW19435   0.626   4.652   0.099 -0.2262  0.2817 -0.2972
 2600SOL    HW119436   0.554   4.657   0.162  0.2435  2.4566  0.0745
 2600SOL    HW219437   0.628   4.559   0.079 -3.2122  0.7831 -3.0391
 2601SOL     OW19438   2.881   2.825   7.994 -0.0888 -0.7079  0.3464
 2601SOL    HW119439   2.857   2.736   8.020  0.8597 -0.4782  1.9623
 2601SOL    HW219440   2.953   2.846   8.053  1.2144 -1.4887 -0.9906
 2602SOL     OW19441   4.377   0.367   2.526  0.5655  0.5773 -0.2102
 2602SOL    HW119442   4.424   0.355   2.608  0.2168 -2.3441 -0.4350
 2602SOL    HW219443   4.390   0.462   2.524 -0.2971  0.7396  2.2744
 2603SOL     OW19444   3.031   0.871   0.757 -0.6808  0.0049  0.4043
 2603SOL    HW119445   2.946   0.828   0.762 -0.2541 -0.8079  0.7991
 2603SOL    HW219446   3.078   0.827   0.828  1.0125 -1.5758 -1.6960
 2604SOL     OW19447   3.005   1.811   7.977 -0.2746  0.6225  0.5320
 2604SOL    HW119448   3.083   1.762   8.002  1.3212  2.2129 -1.2677
 2604SOL    HW219449   2.961   1.739   7.931  0.1182 -0.1703  1.4187
 2605SOL     OW19450   4.312   1.381  17.585 -0.2278 -0.1117 -1.1111
 2605SOL    HW119451   4.272   1.351  17.667 -0.5800 -0.2020 -1.3161
 2605SOL    HW219452   4.328   1.473  17.605 -0.2665  0.4234 -3.6070
 2606SOL     OW19453   2.259   0.303   2.310  0.6396 -0.1843 -0.9661
 2606SOL    HW119454   2.234   0.312   2.401  0.0358  3.5260 -1.4921
 2606SOL    HW219455   2.220   0.380   2.268 -0.6779 -1.3780 -1.9488
 2607SOL     OW19456   0.432   3.288   2.674  0.1068  0.2472 -0.3509
 2607SOL    HW119457   0.448   3.304   2.581  0.0204 -0.0055 -0.4095
 2607SOL    HW219458   0.490   3.357   2.706  1.0980 -1.1628  0.8568
 2608SOL     OW19459   0.637   3.744   2.034 -0.3357  0.0807 -0.5950
 2608SOL    HW119460   0.693   3.754   1.957 -1.0899 -0.8561 -1.2503
 2608SOL    HW219461   0.597   3.831   2.039  1.9550  1.0575  0.9295
 2609SOL     OW19462   0.359   4.102   6.698  0.2187 -0.2798  0.0358
 2609SOL    HW119463   0.448   4.127   6.724  0.4279 -1.6814  0.6378
 2609SOL    HW219464   0.323   4.189   6.680  0.9973 -0.2963 -1.6731
 2610SOL     OW19465   1.753   4.296   6.642  0.1453 -0.3489 -0.3823
 2610SOL    HW119466   1.778   4.213   6.682  0.6912 -0.7392 -1.5510
 2610SOL    HW219467   1.804   4.285   6.562 -0.0854 -0.2097 -0.5478
 2611SOL     OW19468   0.509   0.485   7.297  0.6066  0.2264 -0.3099
 2611SOL    HW119469   0.585   0.449   7.252  0.7433  0.2559 -0.1035
 2611SOL    HW219470   0.452   0.409   7.298  2.2525 -0.9757  1.1822
 2612SOL     OW19471   1.969   4.298   0.147  0.0151  0.0305  0.1051
 2612SOL    HW119472   2.006   4.385   0.133  2.2728 -1.2548 -2.0568
 2612SOL    HW219473   1.929   4.305   0.233 -0.2059 -1.9320  0.1591
 2613SOL     OW19474   0.872   1.928   3.337  0.1243  0.2735 -0.5935
 2613SOL    HW119475   0.936   1.857   3.330  1.3303  1.3181  0.0299
 2613SOL    HW219476   0.918   1.995   3.387  0.9173  0.3156 -1.3876
 2614SOL     OW19477   2.614   4.361   5.763  0.4889 -0.2150 -0.3606
 2614SOL    HW119478   2.567   4.278   5.752 -0.0241 -0.3309  2.7424
 2614SOL    HW219479   2.672   4.358   5.686 -1.2377 -1.3320 -1.6250
 2615SOL     OW19480   3.094   4.411   2.531  0.4511 -0.1570 -0.0221
 2615SOL    HW119481   3.095   4.500   2.496  1.0505  0.3636  1.3085
 2615SOL    HW219482   3.003   4.392   2.509  0.8708 -0.6470 -1.3176
 2616SOL     OW19483   2.626   2.417   5.748 -0.0112 -0.0344 -0.5454
 2616SOL    HW119484   2.699   2.472   5.777  0.5574  0.2916 -2.5894
 2616SOL    HW219485   2.664   2.394   5.663  2.8132  0.2649  0.6538
 2617SOL     OW19486   1.881   3.121   7.783 -0.1441  0.3167  1.0394
 2617SOL    HW119487   1.823   3.183   7.738  0.1523 -0.0503  0.1411
 2617SOL    HW219488   1.950   3.179   7.817  1.6744 -0.9546 -0.5017
 2618SOL     OW19489   1.115   2.629   2.475  0.3919  0.4939  0.3029
 2618SOL    HW119490   1.168   2.632   2.395 -0.3142 -1.7691 -0.2622
 2618SOL    HW219491   1.101   2.537   2.497 -1.9139  0.4771 -1.2624
 2619SOL     OW19492   4.017   3.486   2.485 -0.2036 -0.4546 -0.2977
 2619SOL    HW119493   3.955   3.558   2.499  2.4903  2.2656 -2.4173
 2619SOL    HW219494   4.083   3.497   2.554 -0.2290 -2.1759 -0.0013
 2620SOL     OW19495   0.387   4.086   1.818 -0.2629 -0.2633 -0.3669
 2620SOL    HW119496   0.295   4.111   1.817  0.7066  3.2725 -0.2836
 2620SOL    HW219497   0.420   4.096   1.728  2.9051 -0.1696  0.7933
 2621SOL     OW19498   4.307   4.647   0.750 -0.2104  0.4193 -0.5899
 2621SOL    HW119499   4.232   4.627   0.807 -0.6620 -0.4149 -1.4673
 2621SOL    HW219500   4.345   4.560   0.738 -1.2632  0.1973 -2.2890
 2622SOL     OW19501   0.736   1.195   4.152 -0.1307 -0.0722  0.4151
 2622SOL    HW119502   0.706   1.245   4.227  0.4932 -0.7750  1.1274
 2622SOL    HW219503   0.753   1.111   4.194 -1.4544 -0.4305  0.2376
 2623SOL     OW19504   4.672   2.694   4.006 -0.2756  0.4851  0.0528
 2623SOL    HW119505   4.715   2.779   4.000 -1.6719  1.1711 -0.2190
 2623SOL    HW219506   4.597   2.701   4.065  1.1597  1.0804  1.8295
 2624SOL     OW19507   3.737   3.019   4.918  0.4782  0.6288  0.0449
 2624SOL    HW119508   3.723   2.947   4.856  0.3470 -0.3211  1.1610
 2624SOL    HW219509   3.746   2.960   4.993 -1.3047  1.0825  0.6211
 2625SOL     OW19510   4.020   2.249   9.509  0.5012 -0.1724  0.2800
 2625SOL    HW119511   4.016   2.330   9.459  0.2137 -0.6536 -0.4782
 2625SOL    HW219512   4.060   2.183   9.452  1.6506 -0.9067  1.9361
 2626SOL     OW19513   2.560   2.445   1.965 -0.5311 -0.1821 -0.8278
 2626SOL    HW119514   2.578   2.351   1.969  0.7068  0.1072  0.6759
 2626SOL    HW219515   2.484   2.464   1.911  0.6454  0.1776 -2.3535
 2627SOL     OW19516   3.519   1.032   7.808  0.7537  0.4988 -0.2765
 2627SOL    HW119517   3.558   0.982   7.736  0.8262 -1.7070  1.2927
 2627SOL    HW219518   3.440   0.980   7.827 -0.3674  2.2122 -0.2970
 2628SOL     OW19519   4.599   0.520   5.028 -0.1195  0.3821  0.3369
 2628SOL    HW119520   4.513   0.488   5.005  0.5847 -0.1124 -1.6125
 2628SOL    HW219521   4.595   0.616   5.037  1.1264  0.6266 -1.4899
 2629SOL     OW19522   0.486   0.950  12.703 -0.1294 -0.2935 -0.0873
 2629SOL    HW119523   0.496   0.945  12.608 -0.6095  1.9414 -0.2477
 2629SOL    HW219524   0.409   1.006  12.713 -0.8319 -1.1710 -0.5147
 2630SOL     OW19525   2.630   3.164   7.207 -0.2395 -0.3766 -0.3797
 2630SOL    HW119526   2.553   3.179   7.152 -0.7813 -3.8346 -0.6115
 2630SOL    HW219527   2.690   3.153   7.133  2.4778 -0.2953  1.8033
 2631SOL     OW19528   2.850   4.323   8.361 -0.4364 -0.0028  0.3230
 2631SOL    HW119529   2.766   4.333   8.316  0.2229  1.4185 -0.6108
 2631SOL    HW219530   2.819   4.314   8.451 -1.2700  0.4342  0.0769
 2632SOL     OW19531   2.442   1.075   3.129  0.1182  0.2076 -0.1929
 2632SOL    HW119532   2.362   1.046   3.173  0.5357  0.6900  0.8878
 2632SOL    HW219533   2.416   1.147   3.071  0.1575 -1.7961 -2.6691
 2633SOL     OW19534   2.513   0.682   6.282  0.0013  0.0099  0.2170
 2633SOL    HW119535   2.452   0.678   6.208 -0.3256  1.8994  0.3827
 2633SOL    HW219536   2.596   0.675   6.235 -0.1838  0.3394 -0.1502
 2634SOL     OW19537   0.867   2.700   7.133 -0.1618  0.7152  0.0576
 2634SOL    HW119538   0.848   2.794   7.137 -3.6157  0.1148 -1.9463
 2634SOL    HW219539   0.798   2.676   7.071 -2.0037  1.6141  1.7601
 2635SOL     OW19540   2.652   3.629   2.600  0.3382  0.4598  0.0495
 2635SOL    HW119541   2.743   3.603   2.584 -0.2605 -1.1329 -0.7110
 2635SOL    HW219542   2.657   3.704   2.540  1.5238  0.3044 -0.0507
 2636SOL     OW19543   2.565   1.847   6.038  0.9111 -0.0100  0.0371
 2636SOL    HW119544   2.517   1.897   5.971  3.0407  0.5950 -1.0174
 2636SOL    HW219545   2.516   1.864   6.119  0.0290  1.4876 -0.7925
 2637SOL     OW19546   4.718   2.142   3.104 -0.3143 -0.0243 -0.6112
 2637SOL    HW119547   0.067   2.175   3.086 -0.3078 -0.5857 -1.6190
 2637SOL    HW219548   4.701   2.065   3.050  2.4401 -0.2709 -1.1012
 2638SOL     OW19549   2.388   0.876   6.609 -0.2345  0.2122 -0.1278
 2638SOL    HW119550   2.464   0.845   6.560 -0.6518 -0.2257 -0.4989
 2638SOL    HW219551   2.317   0.846   6.553 -1.3870  1.5409  0.6164
 2639SOL     OW19552   0.622   0.695   9.546  0.5540  0.0707  0.0427
 2639SOL    HW119553   0.569   0.732   9.617  1.4955  0.1586  0.6981
 2639SOL    HW219554   0.707   0.735   9.565  0.8825 -0.4411 -0.3474
 2640SOL     OW19555   1.117   0.338   9.183 -0.0922  0.6347  0.2668
 2640SOL    HW119556   1.169   0.418   9.170 -1.1119  1.1389 -0.7409
 2640SOL    HW219557   1.031   0.374   9.206 -0.0138  0.2593  1.1375
 2641SOL     OW19558   3.345   3.530   1.697  0.3278 -0.4735  0.0727
 2641SOL    HW119559   3.254   3.530   1.668 -0.2432 -0.5501  1.8348
 2641SOL    HW219560   3.397   3.506   1.621 -1.0601 -0.5336 -0.8604
 2642SOL     OW19561   4.056   2.873   4.682  0.7290 -0.0616 -0.1179
 2642SOL    HW119562   3.965   2.877   4.711  1.4910  0.7463  2.2005
 2642SOL    HW219563   4.082   2.965   4.690  1.2755  0.0367 -2.9895
 2643SOL     OW19564   3.710   2.998   2.828  0.4713  0.3013  0.5060
 2643SOL    HW119565   3.644   3.061   2.857 -0.4246 -0.9635  1.2560
 2643SOL    HW219566   3.794   3.039   2.846 -0.2943  0.7384  3.2550
 2644SOL     OW19567   2.063   1.402   4.866  0.8147  0.0612  0.3142
 2644SOL    HW119568   2.127   1.458   4.911  2.2451 -0.1748 -1.4266
 2644SOL    HW219569   1.988   1.443   4.910  1.7539  1.5894  0.4952
 2645SOL     OW19570   3.838   0.371  14.085  0.3462 -0.1320  0.1745
 2645SOL    HW119571   3.927   0.364  14.053 -0.5932  1.2347 -2.7574
 2645SOL    HW219572   3.852   0.362  14.180  0.6037 -1.3126  0.0223
 2646SOL     OW19573   0.126   3.740   8.559  0.5197 -0.4119 -0.3995
 2646SOL    HW119574   0.122   3.667   8.497 -0.5716 -0.3093 -0.4574
 2646SOL    HW219575   0.212   3.725   8.596  0.0123  0.6764  1.2080
 2647SOL     OW19576   4.386   0.866   8.690 -0.2066 -0.0962 -0.2215
 2647SOL    HW119577   4.427   0.952   8.705  1.1148 -0.5763 -1.0975
 2647SOL    HW219578   4.363   0.846   8.781  0.2214  0.3904 -0.0031
 2648SOL     OW19579   4.564   2.856   6.811  0.1554  0.0283 -0.3501
 2648SOL    HW119580   4.627   2.929   6.810  1.7763 -1.3232  2.2638
 2648SOL    HW219581   4.488   2.914   6.808  0.8817  1.0565  0.6619
 2649SOL     OW19582   1.842   4.387   8.531  0.3837  0.6445 -0.6220
 2649SOL    HW119583   1.819   4.476   8.557  0.6606  0.8151 -0.9583
 2649SOL    HW219584   1.912   4.364   8.592  0.2578  0.6099 -0.4910
 2650SOL     OW19585   3.783   3.475   6.906 -0.0394  0.5227  0.6942
 2650SOL    HW119586   3.733   3.465   6.987  0.0396 -0.5272  0.6096
 2650SOL    HW219587   3.804   3.382   6.899 -0.8175  0.4704 -1.0081
 2651SOL     OW19588   0.710   4.437   6.971 -0.0562 -0.3351  0.2375
 2651SOL    HW119589   0.709   4.350   7.011 -1.9905 -0.4520 -0.0477
 2651SOL    HW219590   0.735   4.489   7.048  0.4630 -0.2247 -0.0091
 2652SOL     OW19591   1.077   1.072   4.426 -0.3050  0.4212  0.3163
 2652SOL    HW119592   1.162   1.095   4.465 -0.7777  2.0065  0.4093
 2652SOL    HW219593   1.043   1.032   4.506  1.4302 -0.2018  0.7428
 2653SOL     OW19594   2.458   3.118  14.051 -0.4488 -0.8966 -0.2710
 2653SOL    HW119595   2.495   3.148  13.968 -1.7539  2.2550  0.2882
 2653SOL    HW219596   2.371   3.159  14.054 -1.2860 -2.6812 -0.4612
 2654SOL     OW19597   0.694   1.864   9.725  0.2276 -0.2909 -0.2707
 2654SOL    HW119598   0.658   1.779   9.701 -1.4767 -0.7690  3.9622
 2654SOL    HW219599   0.678   1.906   9.640 -2.8767  0.6169  0.7517
 2655SOL     OW19600   4.503   3.571  16.467 -0.4435  0.4109  0.4941
 2655SOL    HW119601   4.495   3.507  16.396  3.1990 -0.6635  1.0312
 2655SOL    HW219602   4.593   3.558  16.498 -0.6298  0.4407  1.0431
 2656SOL     OW19603   0.411   1.292   4.564 -1.0182  0.6339  0.1809
 2656SOL    HW119604   0.412   1.370   4.619  1.6235  1.7798 -1.4463
 2656SOL    HW219605   0.353   1.232   4.612  2.4892 -2.6407  0.3596
 2657SOL     OW19606   1.820   4.374   3.130  0.2673  0.2542 -0.0468
 2657SOL    HW119607   1.798   4.281   3.125 -0.2029  0.3242  0.7117
 2657SOL    HW219608   1.833   4.397   3.038  0.6854  0.5234  0.0800
 2658SOL     OW19609   0.134   3.921   8.185  0.2724 -0.3085  0.2172
 2658SOL    HW119610   0.113   3.990   8.122  1.5708 -0.9207 -0.8970
 2658SOL    HW219611   0.170   3.848   8.134 -1.6593 -1.4092  0.4482
 2659SOL     OW19612   3.004   4.171   6.178 -0.3715  0.0100 -0.0673
 2659SOL    HW119613   3.053   4.250   6.159 -0.2202 -0.5697 -2.0861
 2659SOL    HW219614   2.969   4.195   6.263 -2.1763  1.6465 -1.2755
 2660SOL     OW19615   0.193   3.572   6.853  0.0812  0.8179  0.2235
 2660SOL    HW119616   0.211   3.589   6.761  1.4127  3.0748  0.8962
 2660SOL    HW219617   0.099   3.556   6.842  0.5030 -0.7814 -1.1158
 2661SOL     OW19618   4.534   2.575   1.544 -0.1882 -0.8229 -0.4988
 2661SOL    HW119619   4.480   2.564   1.622 -1.5107 -0.7318 -1.4086
 2661SOL    HW219620   4.544   2.670   1.537  1.9012 -1.0958 -1.4274
 2662SOL     OW19621   3.796   0.906  14.549 -0.2219  0.0190 -0.0987
 2662SOL    HW119622   3.705   0.902  14.520  0.1088 -2.8195 -0.7584
 2662SOL    HW219623   3.814   0.997  14.527 -2.4044  0.4054 -0.2646
 2663SOL     OW19624   4.664   3.801  16.347 -0.3680 -0.3129  1.0646
 2663SOL    HW119625   4.707   3.806  16.432  1.3295 -1.3720  0.2647
 2663SOL    HW219626   4.582   3.772  16.386 -0.4218  1.4989  2.3225
 2664SOL     OW19627   3.600   4.129  11.012  0.1178 -0.3672 -0.7790
 2664SOL    HW119628   3.643   4.175  10.940  0.3124  0.8155  0.0857
 2664SOL    HW219629   3.646   4.046  11.014  1.1133  0.2529  2.2272
 2665SOL     OW19630   0.021   4.664   0.805  0.7328 -0.7468 -0.0799
 2665SOL    HW119631   4.692   4.708   0.754  1.0611 -0.7797 -0.5435
 2665SOL    HW219632   0.087   4.733   0.812 -1.0522  0.7637  1.6859
 2666SOL     OW19633   0.197   1.451   6.590  0.4538  0.0896 -0.7838
 2666SOL    HW119634   0.172   1.521   6.530  0.6052 -0.1252 -1.0970
 2666SOL    HW219635   0.163   1.486   6.672  0.5251  2.1907 -1.6597
 2667SOL     OW19636   2.033   4.536   3.184 -0.0223  0.6704 -0.4360
 2667SOL    HW119637   1.950   4.490   3.183 -0.3700  1.2650  1.4267
 2667SOL    HW219638   2.022   4.609   3.245  3.1907  0.5239  0.3321
 2668SOL     OW19639   2.066   1.104  16.828 -0.4768  0.0819 -0.1661
 2668SOL    HW119640   2.124   1.109  16.752  0.8087  0.5927  0.8491
 2668SOL    HW219641   2.123   1.046  16.879  0.7859  1.3903 -0.1003
 2669SOL     OW19642   3.929   0.928   5.361  0.0774 -0.1603 -0.6785
 2669SOL    HW119643   3.898   0.915   5.271  0.5845 -0.6511 -0.7816
 2669SOL    HW219644   3.918   1.023   5.361  0.2541 -0.1508  0.5567
 2670SOL     OW19645   4.325   3.495   7.673 -0.1029 -0.1764 -0.4163
 2670SOL    HW119646   4.410   3.539   7.670 -0.1193 -0.0606  1.0327
 2670SOL    HW219647   4.276   3.514   7.753 -0.3465  1.1597 -0.8865
 2671SOL     OW19648   2.308   0.282   1.672  0.6018  0.3549  0.1199
 2671SOL    HW119649   2.270   0.358   1.629  3.1315  1.0129 -0.9704
 2671SOL    HW219650   2.299   0.308   1.764 -0.8289  0.6171 -0.1073
 2672SOL     OW19651   1.649   1.185   8.058  0.1473  0.1937 -0.0320
 2672SOL    HW119652   1.699   1.218   7.983 -0.8422  1.2059 -0.2409
 2672SOL    HW219653   1.672   1.239   8.133  2.0812  0.5950 -0.9108
 2673SOL     OW19654   2.847   4.336   2.768  0.3964  0.1535 -0.6446
 2673SOL    HW119655   2.882   4.293   2.846 -1.3379 -2.7258 -1.4561
 2673SOL    HW219656   2.885   4.423   2.781 -1.3964  0.7222  0.8742
 2674SOL     OW19657   1.598   4.679   5.415 -0.4891  0.2209  0.0472
 2674SOL    HW119658   1.660   4.611   5.388 -0.8384  0.0810 -0.4054
 2674SOL    HW219659   1.655   0.017   5.420  0.4607 -0.2525 -3.6963
 2675SOL     OW19660   3.761   4.402   0.134 -0.6925  0.3342  0.1374
 2675SOL    HW119661   3.678   4.410   0.181 -0.0850 -0.7993  1.3837
 2675SOL    HW219662   3.740   4.391   0.041 -2.1896 -2.2432  0.7749
 2676SOL     OW19663   1.995   0.635  10.312  0.1975  0.1833  0.4231
 2676SOL    HW119664   2.002   0.542  10.293 -0.0871  0.6002 -1.8093
 2676SOL    HW219665   2.078   0.657  10.354 -0.6363  0.2499  2.0069
 2677SOL     OW19666   3.653   4.309   4.206  0.1996  0.3167  0.0298
 2677SOL    HW119667   3.719   4.323   4.137  0.8386  0.2284  0.6224
 2677SOL    HW219668   3.595   4.242   4.172  0.5319  1.8402 -3.6383
 2678SOL     OW19669   4.631   4.137  10.783  0.3526 -0.3651  0.3665
 2678SOL    HW119670   4.604   4.053  10.821  2.2224 -0.5437  1.2776
 2678SOL    HW219671   4.633   4.119  10.689 -0.6358 -1.9437  0.6387
 2679SOL     OW19672   0.140   1.717   7.503 -0.3277  0.1685 -0.3440
 2679SOL    HW119673   0.127   1.748   7.592 -2.1907  1.8360 -1.2030
 2679SOL    HW219674   0.058   1.738   7.460 -1.2042 -1.2881  0.6173
 2680SOL     OW19675   0.761   4.215   2.416  0.1786 -0.0024  0.0713
 2680SOL    HW119676   0.776   4.283   2.482 -0.6221 -0.7535  1.0300
 2680SOL    HW219677   0.835   4.157   2.437 -1.6096 -1.1359  3.2966
 2681SOL     OW19678   2.665   4.467   1.703  0.1891  0.1484 -0.1044
 2681SOL    HW119679   2.656   4.462   1.608  3.0872 -0.2171 -0.3546
 2681SOL    HW219680   2.593   4.523   1.732 -1.5278 -2.3357  0.4567
 2682SOL     OW19681   0.407   3.829   5.427  0.0215  0.4972  0.0798
 2682SOL    HW119682   0.497   3.861   5.419 -0.2825  1.6718  1.3166
 2682SOL    HW219683   0.415   3.772   5.503 -1.6646 -0.0195 -0.1114
 2683SOL     OW19684   2.273   3.109   6.318  0.5213 -1.0858  0.0946
 2683SOL    HW119685   2.241   3.020   6.332 -1.3062 -0.5767 -0.7827
 2683SOL    HW219686   2.213   3.157   6.376  1.2848 -2.1704  1.7658
 2684SOL     OW19687   2.972   2.449   8.510 -0.3581  0.3341  0.3663
 2684SOL    HW119688   2.908   2.520   8.503  0.0555  0.7055  0.3330
 2684SOL    HW219689   2.915   2.378   8.540  0.3148 -0.8610 -1.1899
 2685SOL     OW19690   4.568   2.181   7.178  0.1993  0.1186  0.4393
 2685SOL    HW119691   4.482   2.143   7.160  1.1777 -2.6035  1.4904
 2685SOL    HW219692   4.536   2.246   7.240  1.7827  1.3426 -0.0276
 2686SOL     OW19693   3.150   2.570   7.270 -0.7648 -0.2050  0.4621
 2686SOL    HW119694   3.072   2.588   7.218  0.2514  0.9603 -0.6471
 2686SOL    HW219695   3.142   2.474   7.270  2.3913 -0.4718 -0.0581
 2687SOL     OW19696   3.940   1.983  16.198 -0.2125 -0.0058 -0.3409
 2687SOL    HW119697   3.933   2.033  16.117  1.1520  0.2352 -0.3027
 2687SOL    HW219698   3.989   1.910  16.162 -0.5417  0.5731 -1.9399
 2688SOL     OW19699   3.673   2.907  16.110  0.6314  0.5413  0.5007
 2688SOL    HW119700   3.647   2.973  16.047  0.4048 -0.9965 -1.0220
 2688SOL    HW219701   3.616   2.832  16.094  1.9211 -0.3961  0.1929
 2689SOL     OW19702   0.628   3.997   1.908  0.3121  0.4262 -0.7408
 2689SOL    HW119703   0.668   3.971   1.825 -1.2202 -0.9309 -1.0389
 2689SOL    HW219704   0.559   4.059   1.889  2.0854  2.7347  0.3300
 2690SOL     OW19705   2.074   3.898   7.414 -0.3766  0.1837  0.1780
 2690SOL    HW119706   2.092   3.809   7.444 -0.9577  0.2097  0.6000
 2690SOL    HW219707   2.101   3.957   7.484  1.0602 -1.5980  1.1141
 2691SOL     OW19708   2.797   1.999  17.672  0.0198 -0.6289 -0.2669
 2691SOL    HW119709   2.738   1.955  17.733  0.4675 -0.8703 -0.0057
 2691SOL    HW219710   2.836   1.934  17.613  3.3069 -0.0447  1.2395
 2692SOL     OW19711   1.597   1.639   4.926 -0.2968 -0.3403 -0.2232
 2692SOL    HW119712   1.647   1.692   4.863  1.8952 -2.6800 -0.4797
 2692SOL    HW219713   1.541   1.703   4.969 -1.4330 -0.9379 -0.8231
 2693SOL     OW19714   0.974   3.440   6.255  0.2361 -0.3007  0.7798
 2693SOL    HW119715   1.069   3.451   6.251  0.0800  0.5867 -0.2905
 2693SOL    HW219716   0.931   3.526   6.249  2.3946  0.7163 -0.1644
 2694SOL     OW19717   2.455   4.269   2.537 -0.0849  0.2490  0.0758
 2694SOL    HW119718   2.449   4.339   2.603  2.8057  1.3107 -0.7706
 2694SOL    HW219719   2.369   4.284   2.499 -0.6646 -0.3925  1.1277
 2695SOL     OW19720   0.033   2.067   9.732  0.5914 -0.0929 -0.4092
 2695SOL    HW119721   4.723   2.029   9.804 -0.3033  0.3951 -0.7519
 2695SOL    HW219722   0.026   2.003   9.661 -1.1517  0.7585 -1.0204
 2696SOL     OW19723   1.245   2.522  13.785 -0.2426  0.1405 -0.0319
 2696SOL    HW119724   1.215   2.499  13.873  1.5494 -2.4690 -0.1002
 2696SOL    HW219725   1.261   2.436  13.747  3.4388  1.4166 -1.4206
 2697SOL     OW19726   3.542   0.972   5.198 -0.2352  0.3690 -0.5474
 2697SOL    HW119727   3.571   0.938   5.113  0.0554  3.3271 -1.6287
 2697SOL    HW219728   3.460   1.012   5.170 -1.2324 -1.3966 -0.1240
 2698SOL     OW19729   0.845   2.772   8.903  0.4122  0.9450 -0.2470
 2698SOL    HW119730   0.931   2.744   8.935  0.0386  1.2286  1.0287
 2698SOL    HW219731   0.873   2.816   8.823 -1.5814  1.5952 -0.6051
 2699SOL     OW19732   4.413   2.256   1.892  0.0883  0.2147 -0.0214
 2699SOL    HW119733   4.496   2.257   1.940  1.6412  1.8286 -2.7251
 2699SOL    HW219734   4.352   2.270   1.964 -1.2276 -0.6620 -0.9476
 2700SOL     OW19735   2.005   2.684   4.785  0.5320  0.2446 -0.2943
 2700SOL    HW119736   2.062   2.685   4.708  1.2173  0.5855  0.2147
 2700SOL    HW219737   1.932   2.633   4.749  1.7191 -2.1689  0.7865
 2701SOL     OW19738   3.850   3.135   6.879  0.4414  0.2968  0.2439
 2701SOL    HW119739   3.826   3.137   6.786  0.1750 -0.6616  0.2936
 2701SOL    HW219740   3.940   3.102   6.878  0.3025 -0.0578 -0.5037
 2702SOL     OW19741   0.274   1.583  14.236  0.1232  0.0736 -0.0580
 2702SOL    HW119742   0.290   1.566  14.143 -1.5371  0.9546 -0.5118
 2702SOL    HW219743   0.329   1.523  14.285  0.0049  1.5104  1.8171
 2703SOL     OW19744   1.387   3.383   7.715  0.2323  0.4073 -0.4203
 2703SOL    HW119745   1.317   3.419   7.770  1.3984  1.8958  0.0826
 2703SOL    HW219746   1.338   3.370   7.634 -0.6093  0.1800  0.1258
 2704SOL     OW19747   0.537   2.795   6.124  0.0848 -0.6216  0.5933
 2704SOL    HW119748   0.475   2.864   6.100  0.9919  0.0600  0.2350
 2704SOL    HW219749   0.613   2.817   6.071 -1.5850  2.7325 -0.4302
 2705SOL     OW19750   0.678   3.910  12.630 -0.6323  0.2960  0.3873
 2705SOL    HW119751   0.722   3.910  12.715  1.0182  0.3290 -0.4681
 2705SOL    HW219752   0.650   3.820  12.613 -0.8184  0.4202  0.0445
 2706SOL     OW19753   0.247   0.307   2.998 -0.2377 -0.4365 -0.4970
 2706SOL    HW119754   0.239   0.375   2.931  0.6638 -1.0096 -1.1888
 2706SOL    HW219755   0.250   0.231   2.940 -0.2021  1.5253 -3.0656
 2707SOL     OW19756   2.237   3.545   6.317 -0.1308  0.4097 -0.6891
 2707SOL    HW119757   2.244   3.630   6.361 -1.4173  1.5662 -2.7533
 2707SOL    HW219758   2.330   3.531   6.297  0.1943 -0.1932  1.2677
 2708SOL     OW19759   4.676   3.123  13.635 -0.1855 -0.4165  0.0695
 2708SOL    HW119760   4.598   3.102  13.584 -0.1756 -0.2587 -0.0106
 2708SOL    HW219761   0.009   3.079  13.589 -0.1981  1.2662 -1.5593
 2709SOL     OW19762   4.729   3.214   8.091  0.1274 -1.0694 -0.1429
 2709SOL    HW119763   0.043   3.149   8.044  1.8434 -0.3312  0.7740
 2709SOL    HW219764   4.736   3.199   8.185 -0.0740 -0.4484 -0.0304
 2710SOL     OW19765   0.386   1.890  10.390  0.3873  0.0721  0.1890
 2710SOL    HW119766   0.401   1.802  10.425 -1.7657 -0.0352  0.8519
 2710SOL    HW219767   0.302   1.887  10.343 -0.3076 -3.1725  1.6532
 2711SOL     OW19768   3.737   1.940   3.739  0.5490 -0.2424 -0.1521
 2711SOL    HW119769   3.709   1.941   3.831 -0.8595 -0.3565 -0.5916
 2711SOL    HW219770   3.824   1.976   3.756  0.4209 -0.4217  0.9387
 2712SOL     OW19771   0.591   1.401  13.772  0.3866  0.1880 -0.4806
 2712SOL    HW119772   0.649   1.478  13.766 -0.5618  1.0024  0.9583
 2712SOL    HW219773   0.543   1.400  13.689  0.9194 -0.9359 -0.7820
 2713SOL     OW19774   1.511   0.486   4.620 -0.0610  0.2735 -0.3002
 2713SOL    HW119775   1.489   0.426   4.548  2.5071 -1.2217  0.2083
 2713SOL    HW219776   1.559   0.428   4.678  0.0404  0.1281 -0.5285
 2714SOL     OW19777   4.733   0.510   9.179 -0.1792  0.6030  0.1211
 2714SOL    HW119778   0.070   0.527   9.236  0.6095 -1.5518 -0.2782
 2714SOL    HW219779   0.046   0.487   9.102 -0.6822 -0.0136 -0.0316
 2715SOL     OW19780   3.694   4.731  17.590 -0.0112  0.1601 -0.0321
 2715SOL    HW119781   3.710   4.674  17.515 -0.3315  2.6350 -1.9768
 2715SOL    HW219782   3.726   4.669  17.656  0.9115 -0.7960 -1.3693
 2716SOL     OW19783   4.353   1.623   3.834  0.7009  0.8097 -0.6540
 2716SOL    HW119784   4.304   1.543   3.854  1.5729  0.6386  0.8034
 2716SOL    HW219785   4.383   1.608   3.744  1.4494  0.2589 -0.3232
 2717SOL     OW19786   1.351   3.665   4.004  0.0896  0.2821  0.4614
 2717SOL    HW119787   1.424   3.651   3.944 -0.8049  0.1450 -0.5879
 2717SOL    HW219788   1.294   3.726   3.957  0.5708  1.2384  1.1267
 2718SOL     OW19789   1.141   4.296  14.900  0.0932 -0.8666 -0.1631
 2718SOL    HW119790   1.097   4.377  14.878  0.0503 -0.4983  1.3018
 2718SOL    HW219791   1.219   4.331  14.944 -1.2302 -1.4655  2.6566
 2719SOL     OW19792   2.211   0.652   0.785  0.1028  0.3153  0.3411
 2719SOL    HW119793   2.237   0.719   0.721 -2.2702  0.5183 -0.3963
 2719SOL    HW219794   2.293   0.617   0.820  1.1032  1.4856 -0.8212
 2720SOL     OW19795   1.068   3.847   4.881  0.8452 -0.0566  0.2718
 2720SOL    HW119796   1.122   3.821   4.806  1.0721  0.4197  0.2689
 2720SOL    HW219797   1.092   3.939   4.878  1.8589 -0.2946  1.3436
 2721SOL     OW19798   2.019   4.397  12.874  0.0172  0.4205  0.0475
 2721SOL    HW119799   1.979   4.415  12.959  0.5928 -0.2234  0.4504
 2721SOL    HW219800   1.969   4.449  12.811 -0.6648 -1.8719 -1.3456
 2722SOL     OW19801   1.749   1.767   9.127 -0.2223 -0.2286 -0.2139
 2722SOL    HW119802   1.704   1.811   9.198  0.3653  2.2250 -1.3411
 2722SOL    HW219803   1.712   1.819   9.056  1.6468  1.9768  0.4068
 2723SOL     OW19804   1.635   4.495  15.215 -0.3724 -0.2368  0.3636
 2723SOL    HW119805   1.692   4.422  15.242 -0.4575 -1.2032 -2.0384
 2723SOL    HW219806   1.690   4.545  15.156 -0.4884  0.6197  0.9886
 2724SOL     OW19807   1.568   0.617   4.306  0.1250  1.0137 -0.7181
 2724SOL    HW119808   1.586   0.530   4.342 -4.0351  1.2107  1.8177
 2724SOL    HW219809   1.534   0.670   4.379 -0.1306  2.7461 -2.0854
 2725SOL     OW19810   4.156   4.019   7.182  0.0385 -0.0344  0.8789
 2725SOL    HW119811   4.106   4.096   7.207 -0.5450 -0.9711  2.5752
 2725SOL    HW219812   4.086   3.976   7.133 -0.5418  1.0919  0.7281
 2726SOL     OW19813   3.401   3.331  15.288 -0.3534  0.3059 -0.1561
 2726SOL    HW119814   3.312   3.335  15.326 -0.6289  0.4904 -0.8297
 2726SOL    HW219815   3.434   3.244  15.307  1.9831  0.9083 -1.5332
 2727SOL     OW19816   0.087   3.598  12.521 -0.3393 -0.1094 -0.1405
 2727SOL    HW119817   0.123   3.561  12.441  1.4468  1.2404  0.0480
 2727SOL    HW219818   0.167   3.601  12.573  0.9358 -0.9090 -2.0862
 2728SOL     OW19819   0.429   4.512   0.277 -0.0800  0.4376 -0.0504
 2728SOL    HW119820   0.381   4.430   0.282  1.4319 -0.3314  1.6015
 2728SOL    HW219821   0.369   4.570   0.324  0.0328 -0.6052  1.3568
 2729SOL     OW19822   1.795   1.989   5.360  0.7689 -0.1306 -0.3976
 2729SOL    HW119823   1.706   2.015   5.337  0.6746  1.3179  1.6130
 2729SOL    HW219824   1.796   1.893   5.363 -0.8379 -0.1463 -0.6735
 2730SOL     OW19825   0.406   0.978   9.450  0.2197 -0.0555 -0.1948
 2730SOL    HW119826   0.502   0.986   9.445  0.3566 -1.3928  0.2168
 2730SOL    HW219827   0.391   0.909   9.515 -0.1978 -0.0917 -0.3328
 2731SOL     OW19828   0.078   1.743   2.752  0.5748  0.1990 -0.3712
 2731SOL    HW119829   0.011   1.676   2.738 -0.4853  0.8911  1.3482
 2731SOL    HW219830   0.153   1.690   2.727 -1.1963 -1.5868 -1.9526
 2732SOL     OW19831   0.823   0.256   4.040  0.4625  0.0166 -0.1127
 2732SOL    HW119832   0.849   0.338   4.082 -0.7125  0.4684 -0.2579
 2732SOL    HW219833   0.775   0.214   4.112  2.5027 -0.0285  1.2277
 2733SOL     OW19834   3.593   2.438   1.692  0.1758 -0.3712 -0.4741
 2733SOL    HW119835   3.507   2.471   1.716  0.8302  0.7964  0.2536
 2733SOL    HW219836   3.569   2.349   1.719  1.5330 -0.8005 -0.6432
 2734SOL     OW19837   1.172   4.499   2.115  0.5304 -0.3795 -0.1501
 2734SOL    HW119838   1.213   4.429   2.165  0.2594  0.9794  1.9672
 2734SOL    HW219839   1.077   4.488   2.122  0.1079  2.5637 -1.2097
 2735SOL     OW19840   4.301   2.928  14.556  0.3634 -0.3109 -0.2340
 2735SOL    HW119841   4.365   2.980  14.605  0.5323 -1.5454  0.8649
 2735SOL    HW219842   4.277   2.984  14.483 -1.8688 -2.1258 -0.8769
 2736SOL     OW19843   0.565   0.200   4.838  0.6446 -0.5605 -0.1717
 2736SOL    HW119844   0.512   0.206   4.917  0.4432 -1.7269 -0.2171
 2736SOL    HW219845   0.647   0.164   4.871  1.6359  1.3953 -0.5071
 2737SOL     OW19846   1.133   1.640  15.498  0.6279 -0.0567 -0.2410
 2737SOL    HW119847   1.193   1.599  15.560 -0.5552 -0.8665  0.3663
 2737SOL    HW219848   1.160   1.730  15.484 -0.0251  0.0995 -0.4789
 2738SOL     OW19849   3.938   2.599  15.854 -0.0941  0.0019  0.1945
 2738SOL    HW119850   3.949   2.507  15.828 -0.1635  0.3678 -1.0966
 2738SOL    HW219851   3.952   2.638  15.768 -0.6483  0.2679  0.2271
 2739SOL     OW19852   4.344   4.294  16.686 -0.0589  0.4383  0.0484
 2739SOL    HW119853   4.349   4.315  16.779 -0.9695  0.7383  0.0289
 2739SOL    HW219854   4.435   4.267  16.676 -0.4305 -0.2153 -1.5834
 2740SOL     OW19855   4.191   3.458   5.891 -0.2267 -0.5128 -0.2119
 2740SOL    HW119856   4.241   3.519   5.945 -0.6769 -0.0004 -0.3859
 2740SOL    HW219857   4.104   3.495   5.904 -0.8351 -1.6544 -0.9900
 2741SOL     OW19858   2.453   0.179   8.953  0.4787 -0.1077 -0.2099
 2741SOL    HW119859   2.533   0.230   8.965  0.6279 -0.6315  1.0274
 2741SOL    HW219860   2.407   0.205   9.033  0.5377 -0.2061 -0.1450
 2742SOL     OW19861   4.293   3.609  15.570  0.3728 -0.2662  0.0980
 2742SOL    HW119862   4.307   3.640  15.481 -1.1872  1.6603  0.5171
 2742SOL    HW219863   4.379   3.603  15.610 -0.2716  0.3184  1.5791
 2743SOL     OW19864   2.362   0.772   4.518  0.0570  0.4787 -0.1012
 2743SOL    HW119865   2.319   0.843   4.566  0.4714 -0.6209  1.8530
 2743SOL    HW219866   2.288   0.719   4.488  0.6265 -0.0452 -0.5738
 2744SOL     OW19867   1.998   1.183   7.070  0.3463 -1.0868  0.2294
 2744SOL    HW119868   1.986   1.093   7.042  0.6879 -0.8183 -0.7923
 2744SOL    HW219869   1.978   1.178   7.163  1.5576  1.8034  0.6513
 2745SOL     OW19870   1.753   1.709   5.316 -0.1037  0.1235 -0.2977
 2745SOL    HW119871   1.794   1.647   5.376 -0.7936 -0.5732 -0.5534
 2745SOL    HW219872   1.680   1.734   5.373 -1.1921 -4.1000  0.1579
 2746SOL     OW19873   0.004   1.870  17.689  0.0062 -0.5401  0.5100
 2746SOL    HW119874   4.669   1.923  17.661  0.1213 -0.9105 -0.5169
 2746SOL    HW219875   0.075   1.908  17.637 -0.5390  1.0578  0.9528
 2747SOL     OW19876   1.329   2.114   6.226 -0.5978  0.0984 -0.4481
 2747SOL    HW119877   1.275   2.060   6.284 -2.8836  0.9648 -1.8069
 2747SOL    HW219878   1.268   2.177   6.190  0.2637  0.9518 -0.4075
 2748SOL     OW19879   0.584   2.525   1.662  0.4670  0.2305  0.3220
 2748SOL    HW119880   0.521   2.503   1.730  0.0692  3.2368  0.9266
 2748SOL    HW219881   0.596   2.440   1.619 -2.4620  1.0063 -2.0306
 2749SOL     OW19882   0.164   1.074   7.832  0.6881  0.0825  0.3634
 2749SOL    HW119883   0.091   1.054   7.891  0.2273 -0.2127 -0.3047
 2749SOL    HW219884   0.225   1.095   7.903  2.5405 -0.4517 -1.0639
 2750SOL     OW19885   2.286   1.780   9.088 -0.5862  0.3785  0.0428
 2750SOL    HW119886   2.280   1.779   9.183  1.9112 -3.4932  0.1819
 2750SOL    HW219887   2.206   1.729   9.084  0.2178 -1.0253  1.9935
 2751SOL     OW19888   3.838   3.893   2.977 -0.4175 -0.2239  0.1248
 2751SOL    HW119889   3.845   3.799   2.958 -1.5340  0.1347 -2.0553
 2751SOL    HW219890   3.749   3.909   2.948 -0.0297  1.0151 -0.3721
 2752SOL     OW19891   0.452   0.425   3.640  0.3490 -0.1548  0.0935
 2752SOL    HW119892   0.382   0.487   3.621  0.8335  0.9980  2.0680
 2752SOL    HW219893   0.400   0.345   3.647  1.3645 -0.6324  2.0775
 2753SOL     OW19894   3.806   0.064   8.452  0.4921  0.1348  0.5509
 2753SOL    HW119895   3.734   0.118   8.419  0.9959  0.0923 -0.6314
 2753SOL    HW219896   3.764   4.729   8.496  0.5413  1.7964  3.3868
 2754SOL     OW19897   2.937   1.369   5.598  0.7124  0.1782 -0.2450
 2754SOL    HW119898   2.852   1.400   5.567  0.4094 -2.3577 -1.9217
 2754SOL    HW219899   2.934   1.277   5.573 -0.1446  0.2637 -0.4632
 2755SOL     OW19900   2.310   3.514   3.040  0.5719  0.5993  0.2389
 2755SOL    HW119901   2.294   3.601   3.078 -1.3796  0.3428 -0.0054
 2755SOL    HW219902   2.377   3.539   2.976  0.3495 -0.6913 -0.4849
 2756SOL     OW19903   1.719   3.276  14.717  0.0796  0.1902 -0.7459
 2756SOL    HW119904   1.808   3.308  14.735 -1.3407  2.6746  1.7611
 2756SOL    HW219905   1.690   3.321  14.638  0.3017  1.5962 -0.0351
 2757SOL     OW19906   2.016   3.927   9.122  0.5996  0.1443 -0.4606
 2757SOL    HW119907   1.968   3.849   9.151 -1.8161  1.0626 -1.9708
 2757SOL    HW219908   2.022   3.980   9.202 -0.5582 -0.5454  0.0968
 2758SOL     OW19909   1.497   1.968   6.955  0.3439 -0.0043 -0.6058
 2758SOL    HW119910   1.431   1.974   6.886 -1.0066  1.6012  0.8327
 2758SOL    HW219911   1.566   2.033   6.940 -0.5201  0.6083 -1.9112
 2759SOL     OW19912   0.898   3.476  13.193  0.0772  0.0035  0.0964
 2759SOL    HW119913   0.907   3.413  13.121  0.6550 -0.2352  0.3812
 2759SOL    HW219914   0.988   3.499  13.216  0.2909  0.3844 -1.1055
 2760SOL     OW19915   0.750   3.915   5.974 -0.4675  0.0445  0.6135
 2760SOL    HW119916   0.729   3.913   5.880  2.3448 -3.9555  0.0195
 2760SOL    HW219917   0.662   3.919   6.010 -1.0768  0.9977 -0.9592
 2761SOL     OW19918   4.173   2.801  12.232  0.0719  0.0004  0.1143
 2761SOL    HW119919   4.198   2.876  12.286  0.4498  0.5927 -0.8767
 2761SOL    HW219920   4.243   2.803  12.167  0.4712 -1.8631  0.5023
 2762SOL     OW19921   2.840   0.170   1.766  0.0271 -0.1754 -0.0757
 2762SOL    HW119922   2.823   0.253   1.722  2.1206 -0.5928 -1.6257
 2762SOL    HW219923   2.933   0.163   1.748 -0.0322 -1.3804  0.0789
 2763SOL     OW19924   2.769   1.944  12.246  0.4718 -0.0528  0.1306
 2763SOL    HW119925   2.851   1.896  12.253 -0.8491 -2.3706 -0.2498
 2763SOL    HW219926   2.808   2.032  12.241  1.6000 -0.5524  0.1961
 2764SOL     OW19927   0.186   1.437   7.590 -0.3059 -0.2561  0.4767
 2764SOL    HW119928   0.268   1.406   7.629 -0.0241 -0.3069 -0.1623
 2764SOL    HW219929   0.189   1.530   7.569  2.1267 -0.5251 -0.3638
 2765SOL     OW19930   2.286   3.388  12.182 -0.0173  0.1774  0.5523
 2765SOL    HW119931   2.280   3.295  12.202 -0.7017 -0.0498 -0.7120
 2765SOL    HW219932   2.264   3.389  12.089  0.8846  1.6688  0.3461
 2766SOL     OW19933   1.591   2.795  17.562 -0.0870  0.2227 -0.3296
 2766SOL    HW119934   1.634   2.745  17.493  0.5710  2.3513 -1.4773
 2766SOL    HW219935   1.626   2.881  17.537  1.1562  0.5314  2.3389
 2767SOL     OW19936   0.459   1.604  16.810 -0.0187  0.0854  0.0484
 2767SOL    HW119937   0.458   1.511  16.835 -1.8244  0.1396  0.1640
 2767SOL    HW219938   0.527   1.632  16.871  0.4732 -0.2748 -0.3316
 2768SOL     OW19939   1.556   3.991   6.354 -0.2917 -0.1008  0.0763
 2768SOL    HW119940   1.538   4.085   6.357  0.1923  0.0045 -0.3190
 2768SOL    HW219941   1.609   3.984   6.274  0.0998  0.2559  0.3015
 2769SOL     OW19942   0.883   1.961   6.095  0.4225  0.3582  0.1413
 2769SOL    HW119943   0.821   2.025   6.060 -1.1227 -2.0374 -1.4484
 2769SOL    HW219944   0.862   1.984   6.186  0.5126 -2.8788  0.9718
 2770SOL     OW19945   4.051   1.098  10.152 -0.1166  0.0797 -0.3170
 2770SOL    HW119946   4.093   1.038  10.214  0.2583 -0.3658 -0.9989
 2770SOL    HW219947   4.122   1.118  10.090 -0.9521  0.2818 -1.2076
 2771SOL     OW19948   0.522   4.586  13.620 -0.3106  0.3403 -0.0114
 2771SOL    HW119949   0.573   4.585  13.701  0.0049  1.0844 -0.1951
 2771SOL    HW219950   0.564   4.514  13.573 -0.0510 -1.4946  3.0583
 2772SOL     OW19951   1.967   1.682   5.165 -0.5470  0.1384 -0.3651
 2772SOL    HW119952   1.873   1.673   5.180 -0.3541 -0.2989  0.5894
 2772SOL    HW219953   1.972   1.708   5.073  1.3306  1.8161  0.2170
 2773SOL     OW19954   3.084   0.171  15.068 -0.3974  0.1804  0.7643
 2773SOL    HW119955   3.021   0.153  14.998  0.0432 -0.8957  0.6443
 2773SOL    HW219956   3.028   0.205  15.138  0.3545  1.4265  0.7451
 2774SOL     OW19957   0.117   1.250   2.775 -0.2398 -0.0165  0.6883
 2774SOL    HW119958   0.177   1.281   2.843  0.5158  1.4278 -0.6679
 2774SOL    HW219959   0.141   1.311   2.706 -0.5991  1.4870  1.8742
 2775SOL     OW19960   4.158   3.058   7.247 -0.3040 -0.5451 -0.3837
 2775SOL    HW119961   4.151   3.142   7.291  0.2675 -1.7602  2.0655
 2775SOL    HW219962   4.251   3.051   7.226 -0.8039 -1.9987 -2.1094
 2776SOL     OW19963   4.213   1.179   8.138  0.1682 -0.3949  0.4852
 2776SOL    HW119964   4.186   1.171   8.230 -0.6123 -1.6995  0.1392
 2776SOL    HW219965   4.163   1.257   8.114 -0.3934 -0.4401  1.5237
 2777SOL     OW19966   4.296   4.595   3.659  0.1683  0.0718  0.2575
 2777SOL    HW119967   4.360   4.631   3.720  1.6074 -0.7548 -0.7477
 2777SOL    HW219968   4.264   4.674   3.615  0.7109  1.0668  1.6492
 2778SOL     OW19969   3.281   3.074   0.429  0.3340  1.0248 -0.1123
 2778SOL    HW119970   3.332   3.038   0.501  0.4400  1.0066 -0.1960
 2778SOL    HW219971   3.205   3.089   0.484  0.0174 -0.5814 -0.0960
 2779SOL     OW19972   4.702   4.248  12.865  0.2976  0.2034 -0.6573
 2779SOL    HW119973   4.710   4.154  12.847  0.5878  0.6945 -3.1103
 2779SOL    HW219974   4.611   4.257  12.893  0.3273  0.4383 -0.6336
 2780SOL     OW19975   1.180   1.540   8.555 -0.4734  0.1956 -0.0974
 2780SOL    HW119976   1.226   1.499   8.482 -2.0331 -0.5745 -0.6434
 2780SOL    HW219977   1.123   1.602   8.509  1.5191  1.1499 -1.2754
 2781SOL     OW19978   0.830   2.346  14.584 -0.2812  1.0450 -0.3139
 2781SOL    HW119979   0.847   2.256  14.556 -1.0925  0.8221 -0.0915
 2781SOL    HW219980   0.920   2.376  14.593  0.5585 -1.8486  0.9012
 2782SOL     OW19981   1.238   2.314   1.988  0.1505 -0.4334  0.2673
 2782SOL    HW119982   1.154   2.306   2.034  0.3279 -0.5853  0.5622
 2782SOL    HW219983   1.304   2.292   2.054  0.2466 -0.3865  0.1861
 2783SOL     OW19984   1.045   3.326   8.654  0.5025 -0.0672  0.8247
 2783SOL    HW119985   1.136   3.331   8.626 -0.1391 -0.4345 -1.3805
 2783SOL    HW219986   1.056   3.306   8.747 -0.7727  3.2863  1.7324
 2784SOL     OW19987   4.142   1.868  12.292 -0.2418 -0.1503 -0.2290
 2784SOL    HW119988   4.145   1.822  12.209 -1.1400 -2.8002  1.1992
 2784SOL    HW219989   4.052   1.844  12.316 -0.5876  1.6986  0.3452
 2785SOL     OW19990   4.399   2.081   9.257 -0.4396  0.0366  0.2814
 2785SOL    HW119991   4.445   2.104   9.337 -1.8885  2.1736  0.4973
 2785SOL    HW219992   4.472   2.059   9.200  0.7583 -2.0791  2.6445
 2786SOL     OW19993   3.701   4.149   3.208  0.2961 -0.3459 -0.1312
 2786SOL    HW119994   3.661   4.230   3.175  1.3620  0.9391  1.7402
 2786SOL    HW219995   3.744   4.187   3.285 -0.9100  1.0794 -0.1451
 2787SOL     OW19996   1.478   4.096   4.071 -0.0276 -0.3073 -0.4766
 2787SOL    HW119997   1.447   4.121   4.158  0.4516 -0.3978 -0.2807
 2787SOL    HW219998   1.533   4.019   4.087 -1.6871 -1.1139  1.4670
 2788SOL     OW19999   2.717   3.786  10.092  0.0214 -0.1393  0.0920
 2788SOL    HW120000   2.710   3.699  10.052  0.6052 -0.1056 -0.0827
 2788SOL    HW220001   2.733   3.767  10.184 -0.6378  0.9704  0.4329
 2789SOL     OW20002   3.886   3.003   7.368 -1.1315  0.2833 -0.3903
 2789SOL    HW120003   3.917   2.967   7.451 -0.8627 -0.3998 -0.7864
 2789SOL    HW220004   3.883   3.099   7.370 -1.9441  0.2935 -1.9566
 2790SOL     OW20005   4.360   1.243   6.884  0.0009  0.2589  0.1678
 2790SOL    HW120006   4.284   1.207   6.839  1.3580 -2.0042 -0.3172
 2790SOL    HW220007   4.426   1.228   6.816  0.3796 -1.4791  0.9018
 2791SOL     OW20008   3.921   2.497   8.701 -0.2901 -0.2823  0.3920
 2791SOL    HW120009   3.929   2.582   8.745  1.5284  0.3090 -1.0951
 2791SOL    HW220010   3.989   2.439   8.734 -0.6775 -0.3956  0.9902
 2792SOL     OW20011   4.447   2.361   7.317 -0.4903  0.1561  0.2429
 2792SOL    HW120012   4.480   2.450   7.308  0.5797 -0.3913 -1.1985
 2792SOL    HW220013   4.368   2.351   7.265 -0.3200 -2.1332  0.4410
 2793SOL     OW20014   2.575   1.438   8.282  0.5524 -0.1737 -0.2444
 2793SOL    HW120015   2.631   1.483   8.346  0.5431 -0.6254  0.0762
 2793SOL    HW220016   2.593   1.345   8.298 -0.7548 -0.3037  0.4473
 2794SOL     OW20017   2.844   0.686  17.130 -0.4234  0.3123 -0.3767
 2794SOL    HW120018   2.808   0.617  17.074  2.9698 -0.6301 -1.4168
 2794SOL    HW220019   2.879   0.740  17.059 -0.3336  0.4324 -0.2388
 2795SOL     OW20020   2.628   3.058  10.519 -0.6234 -0.5843 -0.1238
 2795SOL    HW120021   2.533   3.056  10.505 -1.0308  0.5840  2.5449
 2795SOL    HW220022   2.636   3.148  10.488 -2.6742  0.1914  1.6312
 2796SOL     OW20023   2.408   3.433  16.782 -0.1617  0.0921  0.3007
 2796SOL    HW120024   2.388   3.521  16.815  1.3871  0.6046 -0.1046
 2796SOL    HW220025   2.366   3.431  16.696 -0.3877  0.8442  0.3904
 2797SOL     OW20026   4.073   0.312   5.503 -0.3238  0.1591  0.4234
 2797SOL    HW120027   4.131   0.273   5.569 -0.8391 -2.2097 -0.5324
 2797SOL    HW220028   4.000   0.339   5.557 -2.3232  1.2554 -2.8423
 2798SOL     OW20029   3.092   3.095   4.818 -0.0943 -0.5837 -0.0501
 2798SOL    HW120030   3.056   3.169   4.867 -0.6352 -0.3525 -0.7983
 2798SOL    HW220031   3.060   3.115   4.730 -1.3143  1.0275  0.7709
 2799SOL     OW20032   1.991   0.476   3.154 -0.4625 -0.1351 -0.6610
 2799SOL    HW120033   1.973   0.568   3.135 -0.6656  0.8748  4.3457
 2799SOL    HW220034   2.010   0.470   3.247  0.4129 -2.4084 -1.0038
 2800SOL     OW20035   4.129   3.750   4.934  0.4738 -0.0932  0.2265
 2800SOL    HW120036   4.085   3.691   4.872  0.3190  1.3579 -1.0320
 2800SOL    HW220037   4.216   3.715   4.916  0.8047  1.4723 -1.1861
 2801SOL     OW20038   1.255   2.578   7.496 -0.1702  0.2464 -0.2902
 2801SOL    HW120039   1.250   2.656   7.550  2.8030 -0.2283  0.7129
 2801SOL    HW220040   1.244   2.626   7.414  0.8038  1.8480  0.5237
 2802SOL     OW20041   0.523   1.599   3.867 -0.6034  0.4276 -0.1906
 2802SOL    HW120042   0.458   1.658   3.827 -0.3644 -0.7248 -2.2694
 2802SOL    HW220043   0.541   1.647   3.948  0.2645 -2.0887  1.0737
 2803SOL     OW20044   3.489   2.994   8.203 -0.8881 -0.0893 -0.0167
 2803SOL    HW120045   3.417   3.020   8.146 -0.6384  0.9847  0.1694
 2803SOL    HW220046   3.482   3.046   8.282 -0.6346  0.1773 -0.1663
 2804SOL     OW20047   0.799   4.430  16.458 -0.4082 -0.1380 -0.0414
 2804SOL    HW120048   0.807   4.414  16.364 -2.2200  2.6413 -0.6677
 2804SOL    HW220049   0.719   4.385  16.485 -0.6927 -0.0404 -0.7318
 2805SOL     OW20050   2.614   1.861   8.227  0.5529  0.5671 -0.1839
 2805SOL    HW120051   2.691   1.817   8.262 -1.0757 -1.2871  1.0532
 2805SOL    HW220052   2.614   1.846   8.132  2.6576  0.9547 -0.2461
 2806SOL     OW20053   3.095   4.194   9.111 -0.5394  0.4509  0.2885
 2806SOL    HW120054   3.160   4.233   9.168  0.5253 -0.5124 -0.2656
 2806SOL    HW220055   3.053   4.144   9.182 -0.8573  0.0132 -0.2009
 2807SOL     OW20056   3.050   4.683   6.652  0.3459  0.5747 -0.0008
 2807SOL    HW120057   2.981   0.005   6.677 -0.4321 -0.8049  1.1830
 2807SOL    HW220058   3.126   0.002   6.643  1.4219 -0.7021  0.9738
 2808SOL     OW20059   3.525   2.092  10.935 -1.0651 -0.0649  0.6539
 2808SOL    HW120060   3.465   2.107  10.862 -0.9987  0.3428  0.6844
 2808SOL    HW220061   3.551   2.181  10.959 -0.2047 -0.3673  0.8425
 2809SOL     OW20062   1.123   4.162   5.866  0.3339  0.5072 -0.0192
 2809SOL    HW120063   1.205   4.182   5.820 -0.0314  0.8845 -0.4983
 2809SOL    HW220064   1.105   4.253   5.889  2.1653  0.3434  2.0497
 2810SOL     OW20065   2.702   0.563   5.453 -0.4251 -0.0083  0.2690
 2810SOL    HW120066   2.772   0.524   5.401 -1.0311 -1.0734  0.2646
 2810SOL    HW220067   2.689   0.641   5.398  1.2136  0.0703  0.0074
 2811SOL     OW20068   3.930   4.254  17.308  0.2908  0.3097 -0.2343
 2811SOL    HW120069   3.944   4.317  17.380 -2.2863 -0.5970  1.0435
 2811SOL    HW220070   3.985   4.296  17.242  2.1343 -1.3652  0.2354
 2812SOL     OW20071   3.839   3.302   5.448  0.6519  0.1063 -0.1382
 2812SOL    HW120072   3.777   3.375   5.452  0.7565  0.2013 -0.2393
 2812SOL    HW220073   3.888   3.313   5.529  0.0937 -0.1724  0.2298
 2813SOL     OW20074   2.108   0.968   8.530 -0.1296 -0.3274 -0.7958
 2813SOL    HW120075   2.072   1.051   8.499  1.7613  1.2315  1.2058
 2813SOL    HW220076   2.043   0.937   8.594 -0.5994  0.1154 -1.0613
 2814SOL     OW20077   3.249   1.556  13.303  0.4757 -0.6393 -0.4483
 2814SOL    HW120078   3.236   1.461  13.312  0.9932 -0.6550  0.1412
 2814SOL    HW220079   3.340   1.558  13.334 -0.4756 -0.2583  2.2891
 2815SOL     OW20080   1.171   0.400   8.854  0.1075  0.2965 -0.1783
 2815SOL    HW120081   1.228   0.469   8.887 -1.0816  1.3501 -0.3507
 2815SOL    HW220082   1.226   0.342   8.801 -0.3653  1.1027 -1.5472
 2816SOL     OW20083   1.929   2.221   2.958  0.0506 -0.6274  0.2605
 2816SOL    HW120084   2.015   2.194   2.989  1.3733  1.4138 -1.6910
 2816SOL    HW220085   1.949   2.220   2.865 -1.6385  0.9474 -0.1107
 2817SOL     OW20086   1.815   1.456   4.968 -0.2326  0.5359  0.5010
 2817SOL    HW120087   1.746   1.519   4.944  0.4732  0.5522 -1.5067
 2817SOL    HW220088   1.758   1.382   4.986 -0.0940 -0.0405 -1.3905
 2818SOL     OW20089   3.192   3.839   3.552  0.6061 -0.0030 -1.0998
 2818SOL    HW120090   3.261   3.892   3.510 -0.2417  0.3214 -2.0695
 2818SOL    HW220091   3.240   3.813   3.632 -0.9766 -0.7517 -0.3975
 2819SOL     OW20092   2.028   3.002   0.802  0.3544 -0.3100 -0.4612
 2819SOL    HW120093   1.987   2.986   0.717 -1.4072 -0.6814  0.4461
 2819SOL    HW220094   2.003   2.926   0.855 -0.1889  0.4585  0.3922
 2820SOL     OW20095   3.917   3.129   4.773 -0.2114  0.1281  0.1002
 2820SOL    HW120096   3.830   3.105   4.804  0.4453  0.1035  1.9181
 2820SOL    HW220097   3.961   3.142   4.857 -0.7934 -1.1297  0.5995
 2821SOL     OW20098   0.551   2.152   2.468 -0.3330 -0.0030 -0.3440
 2821SOL    HW120099   0.475   2.198   2.434  1.5212  1.8815 -1.9406
 2821SOL    HW220100   0.525   2.137   2.559 -2.7461 -0.8322 -1.1750
 2822SOL     OW20101   2.514   1.079  17.022  0.4153  0.7310 -0.3969
 2822SOL    HW120102   2.530   1.141  17.093 -0.3803 -0.7788  1.0778
 2822SOL    HW220103   2.544   1.134  16.950  0.0092  0.3413 -0.8622
 2823SOL     OW20104   4.554   1.426   3.014  0.2578  0.1419 -0.2653
 2823SOL    HW120105   4.627   1.487   3.000  0.3776 -0.1257 -0.7895
 2823SOL    HW220106   4.555   1.406   3.108  0.0067  0.5309 -0.1799
 2824SOL     OW20107   4.557   1.528   8.923 -0.0650 -0.1449 -0.4895
 2824SOL    HW120108   4.612   1.567   8.855  0.8998  2.6587  1.9107
 2824SOL    HW220109   4.469   1.551   8.895 -0.1346 -1.8047 -1.6559
 2825SOL     OW20110   3.730   4.126   8.396 -0.1704 -0.4454 -0.2381
 2825SOL    HW120111   3.713   4.052   8.338 -0.6103 -1.2563  0.9261
 2825SOL    HW220112   3.823   4.139   8.379 -0.7026  0.2687 -2.6489
 2826SOL     OW20113   2.006   2.854   5.716 -0.6172  0.2708 -0.1326
 2826SOL    HW120114   2.044   2.848   5.628  1.7515  1.7876  0.8139
 2826SOL    HW220115   1.913   2.832   5.707 -0.4034 -0.7799  0.3015
 2827SOL     OW20116   4.244   3.135   2.549  0.2618 -0.2188 -0.7926
 2827SOL    HW120117   4.298   3.078   2.494  1.3702  1.4945 -1.4796
 2827SOL    HW220118   4.189   3.173   2.481  0.1456  2.6803  0.9313
 2828SOL     OW20119   4.430   3.083   2.261 -0.1412 -0.4340 -0.0986
 2828SOL    HW120120   4.346   3.053   2.294 -0.5591  2.3621  1.3965
 2828SOL    HW220121   4.424   3.026   2.184  2.6356 -1.0916  0.1605
 2829SOL     OW20122   2.322   1.659   7.334  0.0925 -0.0970  0.3450
 2829SOL    HW120123   2.371   1.587   7.374  0.7085  0.9611  1.5013
 2829SOL    HW220124   2.394   1.721   7.336 -2.0433  2.4513 -1.3295
 2830SOL     OW20125   1.649   2.894  12.412 -0.3011  0.3166 -0.0981
 2830SOL    HW120126   1.573   2.953  12.411  0.4827  1.3248 -2.1935
 2830SOL    HW220127   1.633   2.849  12.494 -2.0296 -0.8014 -1.0463
 2831SOL     OW20128   1.145   4.463   1.562  0.3417 -0.0734  0.1121
 2831SOL    HW120129   1.180   4.549   1.538  0.8071 -0.2782  0.0579
 2831SOL    HW220130   1.157   4.444   1.655 -0.1643  1.7344  0.5340
 2832SOL     OW20131   2.500   3.915   6.502  0.1705  0.7607  0.1951
 2832SOL    HW120132   2.585   3.922   6.459  0.6471 -2.3554  0.6872
 2832SOL    HW220133   2.534   3.941   6.588 -0.3839 -1.3686  1.0528
 2833SOL     OW20134   1.905   4.120   2.940  0.1657  0.1716  0.4794
 2833SOL    HW120135   1.986   4.153   2.978  0.3830  0.8059 -0.5252
 2833SOL    HW220136   1.886   4.204   2.899 -1.6978 -0.5733 -0.2058
 2834SOL     OW20137   4.211   2.046   2.688 -0.1464 -0.5502  0.3362
 2834SOL    HW120138   4.301   2.053   2.720  0.3910  0.6074 -1.4663
 2834SOL    HW220139   4.202   2.126   2.637 -2.5657 -1.3483 -0.4665
 2835SOL     OW20140   0.533   1.743   5.877 -0.6308  0.5539 -0.3639
 2835SOL    HW120141   0.620   1.705   5.862 -0.2142  0.9942  1.0127
 2835SOL    HW220142   0.479   1.666   5.889  0.7473 -0.6275 -1.6107
 2836SOL     OW20143   0.533   1.669   1.408  0.4551  0.2314 -0.5731
 2836SOL    HW120144   0.486   1.669   1.491  0.7283 -1.9111 -0.4130
 2836SOL    HW220145   0.497   1.591   1.366 -1.4241  0.1588  1.2289
 2837SOL     OW20146   0.235   1.083   5.166 -0.2330  0.0525 -0.4945
 2837SOL    HW120147   0.214   0.990   5.154  0.2942 -0.1830  0.4046
 2837SOL    HW220148   0.331   1.076   5.170 -0.3003  0.2981  1.9415
 2838SOL     OW20149   3.936   4.346   8.095 -0.1924 -0.1391 -0.3626
 2838SOL    HW120150   3.881   4.279   8.055 -2.6700  1.5618  0.1581
 2838SOL    HW220151   3.967   4.400   8.022  0.3354 -1.6424 -1.2354
 2839SOL     OW20152   3.414   1.222   7.030 -0.2438  0.2825 -0.4400
 2839SOL    HW120153   3.497   1.188   6.998 -0.0763  0.8484 -0.5992
 2839SOL    HW220154   3.440   1.294   7.086 -1.6411 -0.0214  0.5946
 2840SOL     OW20155   0.662   4.594   2.581 -0.4075 -0.0394  0.5936
 2840SOL    HW120156   0.600   4.664   2.603 -0.9702 -0.4822  0.4069
 2840SOL    HW220157   0.736   4.654   2.573 -0.5517  0.0184 -0.2702
 2841SOL     OW20158   3.637   3.539   3.477  0.4305  0.0920 -0.4542
 2841SOL    HW120159   3.723   3.576   3.461  0.1109  0.6542 -0.8619
 2841SOL    HW220160   3.641   3.533   3.573  1.7168  0.4587 -0.4893
 2842SOL     OW20161   2.677   3.751   1.867 -0.2925 -0.2101  0.5757
 2842SOL    HW120162   2.654   3.841   1.892 -1.6805 -0.9453  1.8827
 2842SOL    HW220163   2.722   3.764   1.783 -3.5696  2.8086 -0.6860
 2843SOL     OW20164   1.182   4.606   8.194 -0.3064 -0.2318  0.1070
 2843SOL    HW120165   1.124   4.655   8.136 -0.1186  0.0648  0.1713
 2843SOL    HW220166   1.132   4.529   8.221 -2.1029  0.8067 -0.2105
 2844SOL     OW20167   1.194   4.001   8.542 -0.0462 -0.2862 -0.8764
 2844SOL    HW120168   1.127   4.035   8.601  0.5319  1.6577 -1.3397
 2844SOL    HW220169   1.131   3.990   8.470 -0.1673 -1.8792 -0.5192
 2845SOL     OW20170   1.803   0.994   3.778 -0.0639 -0.4450 -0.5882
 2845SOL    HW120171   1.887   0.967   3.815 -0.5890 -2.4373 -0.8609
 2845SOL    HW220172   1.752   1.030   3.850 -0.6673 -0.8475 -0.8161
 2846SOL     OW20173   4.347   0.325   3.665  0.1738  0.5411 -0.4323
 2846SOL    HW120174   4.357   0.414   3.631  0.6090 -0.0043 -1.7506
 2846SOL    HW220175   4.385   0.344   3.750 -0.9348  0.0015  0.1779
 2847SOL     OW20176   4.702   0.518   2.701  0.3768  0.0468 -0.1475
 2847SOL    HW120177   4.632   0.496   2.763 -0.4886  1.3566 -0.6393
 2847SOL    HW220178   4.693   0.611   2.679  0.8537  0.3018  0.7302
 2848SOL     OW20179   2.344   1.923   4.633  0.3927  0.1527 -0.1311
 2848SOL    HW120180   2.249   1.912   4.629  0.2593  1.2474  0.1263
 2848SOL    HW220181   2.361   1.967   4.550 -1.1644  0.2062 -0.4356
 2849SOL     OW20182   2.663   4.594   6.845  0.4903 -0.5882  0.6922
 2849SOL    HW120183   2.641   4.685   6.826  1.7950 -0.8949 -2.3197
 2849SOL    HW220184   2.612   4.581   6.925 -1.9279  0.5353 -0.6609
 2850SOL     OW20185   4.385   1.758   7.150 -0.1461 -0.4023 -0.1592
 2850SOL    HW120186   4.466   1.730   7.106  0.4862  1.6109 -0.2592
 2850SOL    HW220187   4.390   1.707   7.231  0.1545  4.7752  3.0410
 2851SOL     OW20188   1.046   3.965  10.976 -0.1636  0.5197  0.0361
 2851SOL    HW120189   1.029   3.937  10.886  0.4696 -2.4884  0.8361
 2851SOL    HW220190   1.013   3.889  11.025  0.8872  0.6968  1.0114
 2852SOL     OW20191   1.347   2.656   9.059 -0.3978  0.4902 -0.1356
 2852SOL    HW120192   1.405   2.701   9.121  0.3700 -1.1536  0.3392
 2852SOL    HW220193   1.377   2.566   9.070 -0.2589  0.5565  0.0315
 2853SOL     OW20194   4.269   3.520   9.264  0.2198 -0.9004 -0.6006
 2853SOL    HW120195   4.180   3.485   9.262  0.3153 -1.1060 -1.0711
 2853SOL    HW220196   4.322   3.442   9.250  3.1682  0.8646  0.8726
 2854SOL     OW20197   2.372   1.001  16.704  0.0865  0.0815 -0.2487
 2854SOL    HW120198   2.465   0.979  16.705  0.4505  1.9031  3.9245
 2854SOL    HW220199   2.347   1.005  16.796  2.5643 -0.3248  0.4398
 2855SOL     OW20200   2.034   1.965   1.222  0.2521  0.2639  0.3926
 2855SOL    HW120201   1.962   1.955   1.285 -1.1631  2.7459 -0.8127
 2855SOL    HW220202   1.993   1.940   1.139  2.3668 -1.0712 -0.2402
 2856SOL     OW20203   3.090   3.150  10.044 -0.6168 -0.0457 -0.2138
 2856SOL    HW120204   3.020   3.165  10.108 -0.5842  1.9147 -0.6544
 2856SOL    HW220205   3.052   3.075   9.997  1.2154  0.5467 -2.6028
 2857SOL     OW20206   4.280   3.705  15.309  0.1536 -0.4652 -0.0908
 2857SOL    HW120207   4.202   3.726  15.257 -0.9684  1.0306  2.2103
 2857SOL    HW220208   4.333   3.679  15.234  1.1286  2.4337 -0.3855
 2858SOL     OW20209   3.652   1.101  17.648  0.5385 -0.3133 -0.7542
 2858SOL    HW120210   3.685   1.187  17.674 -1.0149 -0.4321  1.5907
 2858SOL    HW220211   3.665   1.105  17.553  1.1533  0.9056 -0.6178
 2859SOL     OW20212   3.039   2.284   5.784 -0.1229 -0.0809  0.0441
 2859SOL    HW120213   3.130   2.297   5.757 -0.6480 -2.9230 -3.0655
 2859SOL    HW220214   2.992   2.358   5.746 -0.2987 -1.2657 -2.0430
 2860SOL     OW20215   3.038   3.383   6.599 -0.2768 -0.1719  0.4159
 2860SOL    HW120216   3.055   3.300   6.643  0.2904  0.4122  1.2998
 2860SOL    HW220217   3.049   3.443   6.673  0.0116 -1.2153  1.2235
 2861SOL     OW20218   3.461   2.522   3.607  0.3342  0.2364  0.2777
 2861SOL    HW120219   3.501   2.529   3.520 -1.3292 -1.2329 -0.5955
 2861SOL    HW220220   3.527   2.481   3.663  0.3792 -1.0742 -0.7443
 2862SOL     OW20221   1.231   3.562  16.551 -0.3359 -0.1582 -0.1265
 2862SOL    HW120222   1.245   3.544  16.458 -0.8808  0.5310 -0.3387
 2862SOL    HW220223   1.197   3.479  16.584  1.5417 -1.0858 -0.5338
 2863SOL     OW20224   4.379   1.263  10.797 -0.1905 -0.3999 -0.0476
 2863SOL    HW120225   4.318   1.253  10.724  1.2848 -1.3278 -1.1515
 2863SOL    HW220226   4.319   1.234  10.866  0.2721  0.1557  0.5988
 2864SOL     OW20227   2.610   3.140  17.599 -0.2775 -0.0060 -0.1657
 2864SOL    HW120228   2.639   3.105  17.515  2.3866  0.4424  0.5498
 2864SOL    HW220229   2.607   3.233  17.574 -1.4300 -0.0383 -0.1466
 2865SOL     OW20230   1.137   2.494   9.303 -0.6057 -0.3203  1.0244
 2865SOL    HW120231   1.202   2.563   9.296 -0.9647 -0.0543  0.2643
 2865SOL    HW220232   1.143   2.447   9.220  1.8507  1.8696 -0.0297
 2866SOL     OW20233   4.510   4.322   4.723 -0.6328  0.0450  0.4587
 2866SOL    HW120234   4.428   4.296   4.763 -0.4280 -0.8111  0.3303
 2866SOL    HW220235   4.572   4.350   4.790 -0.2313 -1.4134  0.7029
 2867SOL     OW20236   2.956   3.291   6.113 -0.2550 -0.1968 -0.2473
 2867SOL    HW120237   2.953   3.221   6.048 -0.0956 -2.1633  1.8547
 2867SOL    HW220238   3.046   3.323   6.107 -0.4498  0.4858  0.4471
 2868SOL     OW20239   3.197   2.220   4.301 -0.0878  0.3855 -0.3800
 2868SOL    HW120240   3.163   2.209   4.212 -2.4972  1.1638  0.4617
 2868SOL    HW220241   3.167   2.138   4.340 -1.5898  1.1629  0.0830
 2869SOL     OW20242   1.476   2.396   9.240  0.3465 -0.1049 -0.2112
 2869SOL    HW120243   1.507   2.307   9.224 -0.8352 -0.5089 -0.2784
 2869SOL    HW220244   1.561   2.440   9.242  0.5680 -0.5054 -1.0571
 2870SOL     OW20245   3.707   1.309   4.144  0.1754 -0.2872  0.5252
 2870SOL    HW120246   3.621   1.319   4.104  0.3226  0.5932  0.4376
 2870SOL    HW220247   3.692   1.242   4.211 -0.4171 -1.1202 -0.4391
 2871SOL     OW20248   4.102   2.178   8.250 -0.1508 -0.4494 -0.4459
 2871SOL    HW120249   4.079   2.086   8.257 -1.1689 -0.2201 -0.7092
 2871SOL    HW220250   4.065   2.209   8.167  0.0700 -0.5009 -0.5648
 2872SOL     OW20251   2.237   3.367   8.171 -0.0841  0.5614 -0.2146
 2872SOL    HW120252   2.236   3.461   8.187  2.1980  0.4503  0.6471
 2872SOL    HW220253   2.294   3.355   8.095 -1.1931 -3.2299 -0.4612
 2873SOL     OW20254   4.005   4.465   7.233  0.7785 -0.4800  0.2256
 2873SOL    HW120255   4.001   4.393   7.296  0.4870  0.2272  1.0123
 2873SOL    HW220256   4.068   4.528   7.269 -0.4267 -0.1903  1.7939
 2874SOL     OW20257   2.983   2.883   3.496  1.1055 -0.0154  0.6133
 2874SOL    HW120258   3.039   2.864   3.421 -1.0102 -0.3798 -0.8792
 2874SOL    HW220259   2.930   2.957   3.467  2.5315  1.1711  1.0549
 2875SOL     OW20260   2.899   1.704   8.701  0.4346  0.2505  0.6899
 2875SOL    HW120261   2.823   1.750   8.665 -0.2892  0.4219  2.4476
 2875SOL    HW220262   2.878   1.706   8.794 -0.0823  0.0281  0.5809
 2876SOL     OW20263   0.837   3.578  12.148 -0.3489  0.1080  0.0425
 2876SOL    HW120264   0.744   3.588  12.126 -0.7946 -1.1324  1.3111
 2876SOL    HW220265   0.821   3.569  12.242  1.4161  1.1897  0.4447
 2877SOL     OW20266   4.688   2.781   3.612  0.5842 -0.3724  0.2551
 2877SOL    HW120267   4.603   2.782   3.655  1.6440  0.0450  2.3670
 2877SOL    HW220268   4.733   2.830   3.681 -0.0278  1.2215 -0.4707
 2878SOL     OW20269   1.235   2.106   1.334  0.2633 -0.4741 -0.1785
 2878SOL    HW120270   1.162   2.054   1.299 -1.4573 -0.8793  4.0577
 2878SOL    HW220271   1.249   2.079   1.425 -0.4220  0.1118  0.0993
 2879SOL     OW20272   0.459   2.359   4.517  0.1148  0.0598  0.3975
 2879SOL    HW120273   0.496   2.293   4.577 -1.4594 -0.2292  1.0439
 2879SOL    HW220274   0.413   2.416   4.578 -0.1434 -1.2974  1.4783
 2880SOL     OW20275   1.568   1.621   2.545  0.2592  0.3553  0.3619
 2880SOL    HW120276   1.653   1.628   2.588  0.4171 -2.2794  0.4650
 2880SOL    HW220277   1.567   1.531   2.513  0.6269 -1.0308  4.1594
 2881SOL     OW20278   3.282   1.547   4.068  0.3065 -0.6967  0.3464
 2881SOL    HW120279   3.317   1.596   4.143 -1.3833  0.0936  0.6194
 2881SOL    HW220280   3.194   1.522   4.095 -0.9626  0.0212 -3.1523
 2882SOL     OW20281   4.064   3.094   1.446  0.1393 -0.2521  0.0212
 2882SOL    HW120282   4.023   3.022   1.398  0.9658 -1.0752  0.5334
 2882SOL    HW220283   3.998   3.159   1.422  1.8579  1.5745  0.2039
 2883SOL     OW20284   4.202   4.172  15.397 -0.0249  0.3885  0.1980
 2883SOL    HW120285   4.165   4.233  15.461 -1.0889  0.0106 -0.0517
 2883SOL    HW220286   4.204   4.086  15.440 -1.1045  0.4272  0.3153
 2884SOL     OW20287   3.763   0.715  17.022 -0.0572  0.6182 -0.2103
 2884SOL    HW120288   3.839   0.769  17.047  1.7617 -1.7396 -0.6557
 2884SOL    HW220289   3.761   0.642  17.084 -1.3651  1.7654  1.0810
 2885SOL     OW20290   3.498   3.636   8.211  0.1912  0.6739 -0.5179
 2885SOL    HW120291   3.486   3.715   8.158 -2.0081  0.9637  0.4109
 2885SOL    HW220292   3.427   3.587   8.170 -0.2111  1.3425 -0.6182
 2886SOL     OW20293   0.873   3.893  10.761  0.5804 -0.6849  0.6406
 2886SOL    HW120294   0.858   3.987  10.771 -0.6731 -0.9624  1.3815
 2886SOL    HW220295   0.943   3.891  10.696 -0.7180  0.9291 -0.8139
 2887SOL     OW20296   1.553   4.328   2.907  0.0565  0.1630 -0.2323
 2887SOL    HW120297   1.506   4.408   2.931 -0.8923  0.4056 -2.9051
 2887SOL    HW220298   1.638   4.370   2.921  0.5274 -0.5493 -0.9335
 2888SOL     OW20299   2.713   2.813  10.676 -0.0056 -0.2165  0.3049
 2888SOL    HW120300   2.695   2.891  10.624  0.8264  0.4613  1.0263
 2888SOL    HW220301   2.625   2.800  10.710 -0.2100  4.1553  1.3921
 2889SOL     OW20302   1.350   1.540   8.768  0.3581  0.1416  0.3484
 2889SOL    HW120303   1.307   1.581   8.693 -1.5072 -0.5902  1.0447
 2889SOL    HW220304   1.283   1.478   8.794  0.1521  0.9760  1.7891
 2890SOL     OW20305   3.203   3.263   8.228 -0.8659 -0.2677  0.1169
 2890SOL    HW120306   3.159   3.275   8.313 -0.7360  0.7027  0.0434
 2890SOL    HW220307   3.170   3.334   8.173 -0.7358  0.9078  1.5269
 2891SOL     OW20308   4.188   1.107   5.483 -0.4678  0.2642 -0.0010
 2891SOL    HW120309   4.253   1.168   5.447 -0.6557 -0.0107 -0.8051
 2891SOL    HW220310   4.141   1.074   5.406  0.8116 -1.9115  0.1610
 2892SOL     OW20311   2.280   0.716   5.290  0.1555 -0.0352  0.1112
 2892SOL    HW120312   2.257   0.799   5.330  1.8662  0.9739 -0.9941
 2892SOL    HW220313   2.312   0.657   5.359  1.7879  0.3101 -0.3532
 2893SOL     OW20314   0.593   1.781  14.054  0.2848  0.5505 -0.4056
 2893SOL    HW120315   0.509   1.736  14.051 -0.7308  2.2572  2.1249
 2893SOL    HW220316   0.586   1.851  13.989 -0.7241  0.3616 -0.4950
 2894SOL     OW20317   1.789   0.359   1.956  0.1610  0.0141  0.4868
 2894SOL    HW120318   1.706   0.321   1.982  0.1705 -0.2482  0.1316
 2894SOL    HW220319   1.796   0.305   1.877  1.4850 -0.7785  1.1480
 2895SOL     OW20320   0.486   4.050   0.760 -0.1736  0.1310 -0.0984
 2895SOL    HW120321   0.557   4.112   0.774  0.8161 -0.3738 -2.7984
 2895SOL    HW220322   0.498   3.973   0.815  0.2949  0.6586  0.5412
 2896SOL     OW20323   0.223   2.014  11.074  0.1294  0.2978  0.6416
 2896SOL    HW120324   0.135   2.050  11.082  0.4161  0.9166  1.0071
 2896SOL    HW220325   0.263   2.079  11.016  1.3349 -2.2358 -1.3562
 2897SOL     OW20326   0.554   4.028   5.024  0.5892  0.2388  0.1349
 2897SOL    HW120327   0.514   3.994   4.944  0.2241  2.1910 -0.4951
 2897SOL    HW220328   0.500   4.106   5.035 -1.3058 -1.0467 -0.1010
 2898SOL     OW20329   2.933   1.810   7.600  0.4344 -0.0078  0.2765
 2898SOL    HW120330   2.901   1.734   7.649 -2.2187  1.7601  1.2373
 2898SOL    HW220331   2.900   1.882   7.652  2.4731  0.6092  0.7411
 2899SOL     OW20332   1.722   2.559   4.289  0.5846  0.4637  0.5078
 2899SOL    HW120333   1.720   2.464   4.279 -0.8397  0.6845 -1.1992
 2899SOL    HW220334   1.817   2.571   4.283  0.4601  1.7657  1.1462
 2900SOL     OW20335   0.634   0.609   3.901 -0.5675 -0.0199 -0.0225
 2900SOL    HW120336   0.664   0.607   3.992  0.3763  2.7323 -0.2536
 2900SOL    HW220337   0.603   0.519   3.897 -0.5906 -0.1294  2.8887
 2901SOL     OW20338   1.452   4.607   8.486 -0.1663 -0.2161  0.4143
 2901SOL    HW120339   1.496   4.567   8.411  1.2952  0.6458  0.8135
 2901SOL    HW220340   1.527   4.631   8.540 -0.8162  0.8131  0.8838
 2902SOL     OW20341   2.299   1.876   2.827 -0.3102  1.0768  0.4286
 2902SOL    HW120342   2.220   1.844   2.870 -0.7495 -0.0525 -1.2181
 2902SOL    HW220343   2.275   1.968   2.839  0.3988  1.5765 -1.9062
 2903SOL     OW20344   1.674   3.535   5.777 -0.0378 -0.6006  0.1186
 2903SOL    HW120345   1.673   3.440   5.787  1.2760 -0.6197  0.1146
 2903SOL    HW220346   1.676   3.539   5.681  1.5834 -0.7416  0.1435
 2904SOL     OW20347   2.513   1.620   2.613 -0.4866 -0.0122  0.0193
 2904SOL    HW120348   2.526   1.699   2.666  1.8706  0.1063 -0.7315
 2904SOL    HW220349   2.574   1.637   2.541 -0.5101 -2.0937 -0.4862
 2905SOL     OW20350   0.421   4.215   4.722  0.3946 -0.2671 -0.4375
 2905SOL    HW120351   0.332   4.251   4.724  0.8016  0.6892  0.7878
 2905SOL    HW220352   0.395   4.127   4.697 -0.8461  0.9597 -3.4365
 2906SOL     OW20353   4.256   0.215  14.231  0.0937 -0.4269 -0.4954
 2906SOL    HW120354   4.293   0.263  14.305  0.1313 -0.1389 -0.6986
 2906SOL    HW220355   4.214   0.285  14.181  4.0639  0.8944 -1.9405
 2907SOL     OW20356   1.346   0.055  12.062 -0.4282 -0.4050  0.2080
 2907SOL    HW120357   1.344   0.142  12.021 -2.1502 -0.5830 -0.1108
 2907SOL    HW220358   1.342   0.000  11.983  0.6414 -1.1406  0.6789
 2908SOL     OW20359   2.873   2.966  11.762 -0.3367 -0.0295  0.6002
 2908SOL    HW120360   2.938   2.900  11.737 -0.2964  0.6730 -1.1534
 2908SOL    HW220361   2.901   2.994  11.849 -0.6945  0.1886  0.6417
 2909SOL     OW20362   2.674   0.185   5.781  0.1234 -0.1534 -0.1631
 2909SOL    HW120363   2.668   0.229   5.866 -1.2345 -0.6868  0.0301
 2909SOL    HW220364   2.767   0.195   5.763 -0.3311  2.5030 -1.0346
 2910SOL     OW20365   2.071   1.773   0.825  0.4951  0.3773 -0.3921
 2910SOL    HW120366   2.097   1.689   0.788 -0.8092 -0.1346 -0.1496
 2910SOL    HW220367   2.114   1.828   0.759  0.6979 -0.0659 -0.6277
 2911SOL     OW20368   0.674   3.450   1.661 -0.4207 -0.1658 -0.0366
 2911SOL    HW120369   0.618   3.380   1.627 -0.8458 -0.0943  0.5126
 2911SOL    HW220370   0.603   3.481   1.718 -1.6398 -0.3456 -1.4639
 2912SOL     OW20371   1.748   2.275   5.490  0.2442 -0.0186 -0.4239
 2912SOL    HW120372   1.708   2.194   5.520  0.7260 -0.5990 -1.3680
 2912SOL    HW220373   1.839   2.254   5.510  0.1565  0.9145  0.9532
 2913SOL     OW20374   3.394   2.905   3.895  0.1574  0.3461 -0.4944
 2913SOL    HW120375   3.382   2.972   3.962  0.7994  0.2276 -0.2681
 2913SOL    HW220376   3.310   2.859   3.897  0.0567  0.7231  2.8568
 2914SOL     OW20377   1.276   3.088   0.248 -0.3798  0.6115 -0.2564
 2914SOL    HW120378   1.329   3.012   0.223 -0.4587 -0.6650  3.3982
 2914SOL    HW220379   1.324   3.160   0.209 -0.3212  0.2917 -0.7733
 2915SOL     OW20380   3.514   3.743  17.506  0.3679 -0.5029  0.3635
 2915SOL    HW120381   3.570   3.779  17.437 -0.3293 -0.8960 -0.4048
 2915SOL    HW220382   3.576   3.694  17.559  1.2835  0.4484  0.1747
 2916SOL     OW20383   4.342   1.496   4.113  0.8933  0.0427  0.2460
 2916SOL    HW120384   4.330   1.586   4.082 -0.7228  0.4851  2.1785
 2916SOL    HW220385   4.284   1.493   4.189  2.2006  2.9096  1.3426
 2917SOL     OW20386   4.390   2.553   3.653 -0.0024  0.0619  0.3554
 2917SOL    HW120387   4.439   2.499   3.715 -1.7005 -1.0251  0.7683
 2917SOL    HW220388   4.426   2.639   3.674 -2.2452  0.8971  0.7643
 2918SOL     OW20389   4.680   2.458   6.304 -0.5726 -0.4610 -0.1217
 2918SOL    HW120390   4.623   2.413   6.367 -0.2132  2.0415  1.9966
 2918SOL    HW220391   4.718   2.380   6.264 -0.5707 -0.8849  0.7004
 2919SOL     OW20392   1.720   0.620   5.357 -0.6255 -0.1730 -0.1482
 2919SOL    HW120393   1.652   0.627   5.423  0.0579  1.0595  0.4451
 2919SOL    HW220394   1.763   0.705   5.366  0.7588 -1.1685  2.6566
 2920SOL     OW20395   1.500   2.398  17.566  0.3067  0.3044 -0.0947
 2920SOL    HW120396   1.456   2.414  17.650 -0.5776  0.1301 -0.5295
 2920SOL    HW220397   1.514   2.304  17.571 -2.1107 -0.0239  0.4669
 2921SOL     OW20398   3.749   1.535   6.979  0.5511 -0.4826 -0.4483
 2921SOL    HW120399   3.659   1.505   6.990  0.2089  0.5095 -0.5045
 2921SOL    HW220400   3.758   1.607   7.042 -0.5030  0.7341 -1.6811
 2922SOL     OW20401   3.866   0.411   7.863 -0.0136 -0.2456  0.0281
 2922SOL    HW120402   3.810   0.375   7.794  2.2560  0.3111 -2.1084
 2922SOL    HW220403   3.931   0.467   7.820  0.9837 -1.8427 -0.5216
 2923SOL     OW20404   4.078   0.039  10.562  0.4509  0.0706  0.5898
 2923SOL    HW120405   4.153   0.096  10.547  0.9927 -1.2681 -1.7935
 2923SOL    HW220406   4.013   0.097  10.522  1.2464  2.0052  2.1438
 2924SOL     OW20407   2.400   1.964   5.856 -0.1167  0.0522 -0.3348
 2924SOL    HW120408   2.344   2.038   5.877 -0.7367 -0.7751  0.8706
 2924SOL    HW220409   2.346   1.907   5.802  1.7561 -0.8159 -1.2905
 2925SOL     OW20410   4.047   0.612   5.408  0.3887  0.3311 -0.8721
 2925SOL    HW120411   4.043   0.525   5.449 -1.3356 -0.1018 -1.9102
 2925SOL    HW220412   4.076   0.671   5.477 -0.1993 -0.4704  0.0816
 2926SOL     OW20413   4.722   3.237   9.650  0.1851  0.2836 -0.5198
 2926SOL    HW120414   0.001   3.271   9.738  2.4852 -0.5583 -0.6721
 2926SOL    HW220415   0.031   3.155   9.654 -0.2492 -0.0608 -2.2681
 2927SOL     OW20416   3.735   1.638   5.777  0.4495  0.3364 -0.3017
 2927SOL    HW120417   3.647   1.637   5.740  0.2275 -0.6326  0.2698
 2927SOL    HW220418   3.739   1.550   5.814 -0.1827 -0.7138 -2.7495
 2928SOL     OW20419   1.236   2.834  11.369 -0.2975  0.5372  0.5383
 2928SOL    HW120420   1.251   2.824  11.275  2.7323  2.1721  0.8563
 2928SOL    HW220421   1.304   2.897  11.391 -0.1179  0.7219 -0.5781
 2929SOL     OW20422   1.199   2.541   5.454  0.0265 -0.6067 -0.0640
 2929SOL    HW120423   1.284   2.573   5.424  0.4138 -0.6906  0.9273
 2929SOL    HW220424   1.218   2.488   5.532 -0.6010 -1.9349 -0.8228
 2930SOL     OW20425   2.437   2.075   6.163 -0.2628  0.4214 -0.0388
 2930SOL    HW120426   2.482   2.037   6.239 -2.4520 -0.7957  0.6407
 2930SOL    HW220427   2.494   2.149   6.141  1.1362 -0.1131  1.7749
 2931SOL     OW20428   1.156   2.702   0.872 -0.8313 -0.1357 -0.1202
 2931SOL    HW120429   1.214   2.749   0.932 -0.6053 -1.4705  0.7091
 2931SOL    HW220430   1.225   2.668   0.815 -0.4393 -0.6653  0.6661
 2932SOL     OW20431   4.005   3.479  12.400  0.1016 -0.4048  0.3027
 2932SOL    HW120432   4.023   3.560  12.353 -1.5916 -0.4915 -0.5113
 2932SOL    HW220433   3.934   3.438  12.351  0.2170  1.0861 -1.1149
 2933SOL     OW20434   3.266   0.922  12.652 -0.1873 -0.1661 -0.5405
 2933SOL    HW120435   3.295   0.868  12.578  2.3392 -0.1269  0.4159
 2933SOL    HW220436   3.275   1.009  12.611 -0.6218  0.6178  1.0480
 2934SOL     OW20437   2.865   3.601   1.028 -0.2366  0.1653 -0.6555
 2934SOL    HW120438   2.950   3.557   1.036 -1.6000 -2.1133  1.2078
 2934SOL    HW220439   2.861   3.644   0.943 -1.7937  0.6046 -0.3661
 2935SOL     OW20440   2.870   1.969   4.863 -0.1253 -0.1887  0.3165
 2935SOL    HW120441   2.923   1.890   4.854  0.2129  0.0285  0.4141
 2935SOL    HW220442   2.874   2.017   4.780  0.9715 -0.0632  0.4518
 2936SOL     OW20443   0.010   1.577  10.613 -0.3135 -0.4978  0.2444
 2936SOL    HW120444   4.731   1.559  10.706 -2.5936 -0.6392 -0.2115
 2936SOL    HW220445   0.013   1.671  10.631  1.5617 -0.9567  2.2745
 2937SOL     OW20446   3.755   1.660   1.547 -0.2593  0.0793 -0.5036
 2937SOL    HW120447   3.759   1.680   1.641 -2.0940  1.5530 -0.7306
 2937SOL    HW220448   3.845   1.676   1.520 -0.4109 -0.6432 -1.4153
 2938SOL     OW20449   2.059   1.261   8.161 -0.2368 -0.0686  0.1331
 2938SOL    HW120450   2.040   1.354   8.174  2.4625  0.2743  1.6648
 2938SOL    HW220451   2.140   1.243   8.209  2.0317  2.6165 -2.6747
 2939SOL     OW20452   1.139   0.031   3.529 -0.5929 -0.1312  0.3004
 2939SOL    HW120453   1.165   4.683   3.561 -0.3726  0.3432  1.4311
 2939SOL    HW220454   1.165   0.091   3.599  0.4447  2.2355 -2.1177
 2940SOL     OW20455   0.047   4.128  14.830 -0.3528  0.0369  0.7130
 2940SOL    HW120456   0.044   4.118  14.926  0.0089  0.8911  0.8141
 2940SOL    HW220457   0.080   4.217  14.823 -1.9642  0.5452 -0.2652
 2941SOL     OW20458   0.661   4.045   6.807  0.1449 -0.1667 -0.2668
 2941SOL    HW120459   0.683   3.952   6.806 -2.5853 -0.7859 -1.0468
 2941SOL    HW220460   0.682   4.075   6.896  0.0167 -0.5724 -0.1011
 2942SOL     OW20461   4.367   4.660  14.941 -0.1258 -0.4968 -0.4765
 2942SOL    HW120462   4.352   4.676  14.847  0.9095 -0.6754 -0.6739
 2942SOL    HW220463   4.288   4.608  14.956 -0.0029  0.0805  2.1127
 2943SOL     OW20464   1.780   2.954   7.562  0.0827 -0.4030 -0.5429
 2943SOL    HW120465   1.835   3.014   7.612 -2.2304  1.5153 -0.3272
 2943SOL    HW220466   1.755   3.011   7.490 -1.0172 -0.5366 -0.2621
 2944SOL     OW20467   1.261   0.408   4.797 -0.6521 -0.0496  0.3981
 2944SOL    HW120468   1.340   0.378   4.842  0.4555  1.9649 -0.1936
 2944SOL    HW220469   1.303   0.439   4.716 -0.8360  0.4509  0.4913
 2945SOL     OW20470   1.604   1.714   7.588 -0.0461 -0.0049  0.2732
 2945SOL    HW120471   1.583   1.803   7.558 -2.3038 -0.6112  0.0568
 2945SOL    HW220472   1.556   1.723   7.670 -0.0337  0.1340  0.2647
 2946SOL     OW20473   2.856   3.058   7.804 -0.1943  0.3604  0.4555
 2946SOL    HW120474   2.892   3.139   7.841 -0.3459  0.1166  1.1473
 2946SOL    HW220475   2.850   3.004   7.883  1.7230  3.1241  2.5405
 2947SOL     OW20476   3.646   3.514   8.747  0.2954 -0.1292  0.0003
 2947SOL    HW120477   3.552   3.496   8.758  0.0305  0.3923 -1.4308
 2947SOL    HW220478   3.678   3.436   8.701 -2.8800 -1.7689  0.5369
 2948SOL     OW20479   0.694   4.345   9.371 -0.3482  0.3787  0.0977
 2948SOL    HW120480   0.670   4.383   9.287 -1.5688 -0.9679 -0.1759
 2948SOL    HW220481   0.685   4.250   9.357 -0.1709  0.7169 -2.2401
 2949SOL     OW20482   1.090   4.397  17.004 -0.1328 -0.1746  0.5772
 2949SOL    HW120483   1.086   4.468  16.940 -2.0021 -0.1812  0.6837
 2949SOL    HW220484   1.180   4.367  17.013 -0.3671 -1.8169 -2.3577
 2950SOL     OW20485   1.262   1.154   4.596  0.3701 -0.6038 -0.3987
 2950SOL    HW120486   1.350   1.191   4.606  0.3345  0.1533 -2.9618
 2950SOL    HW220487   1.284   1.066   4.629 -0.5467 -0.3561  0.8869
 2951SOL     OW20488   4.605   3.288  17.074  0.2461  0.3692 -0.0649
 2951SOL    HW120489   4.636   3.202  17.101  1.9963  1.2684  0.7457
 2951SOL    HW220490   4.670   3.346  17.113  0.4629  0.2095 -0.1872
 2952SOL     OW20491   3.530   2.140   9.424  0.0047 -0.3208 -0.1227
 2952SOL    HW120492   3.520   2.064   9.367 -0.4446  1.6571 -2.6973
 2952SOL    HW220493   3.444   2.177   9.446  0.3507 -0.2174  1.0605
 2953SOL     OW20494   2.114   4.060   3.959  0.4402  0.3962 -0.0563
 2953SOL    HW120495   2.032   4.035   4.002 -0.1779  2.7003  0.0670
 2953SOL    HW220496   2.178   4.041   4.028 -0.3615 -0.8081  0.3593
 2954SOL     OW20497   1.189   3.019   8.631 -0.0298  0.0944 -0.4564
 2954SOL    HW120498   1.151   3.060   8.553  0.0357  0.3490 -0.3562
 2954SOL    HW220499   1.279   3.036   8.603 -0.7382 -0.7569 -3.1992
 2955SOL     OW20500   3.475   3.342   8.135 -0.0155 -0.4798 -0.1408
 2955SOL    HW120501   3.387   3.333   8.172  0.0858  1.7608  0.6465
 2955SOL    HW220502   3.459   3.327   8.042  1.8558 -0.6953 -0.4283
 2956SOL     OW20503   0.694   1.146   9.276 -0.1734 -0.8406 -0.0335
 2956SOL    HW120504   0.639   1.118   9.203  1.5305 -2.7908 -0.5735
 2956SOL    HW220505   0.780   1.117   9.245  0.1057  0.5363 -0.5479
 2957SOL     OW20506   4.431   1.850   2.252  0.0625 -0.8780  0.3241
 2957SOL    HW120507   4.433   1.868   2.346 -2.6998 -1.8006  0.5854
 2957SOL    HW220508   4.480   1.930   2.233 -1.6782 -0.3906 -2.1000
 2958SOL     OW20509   4.503   1.625   5.148 -0.2512 -0.7677 -0.4078
 2958SOL    HW120510   4.568   1.667   5.203 -1.4889 -0.4390  0.8135
 2958SOL    HW220511   4.475   1.558   5.210  2.6024 -0.9916  0.6329
 2959SOL     OW20512   1.680   1.334  10.198 -0.2754 -0.2389 -0.0685
 2959SOL    HW120513   1.661   1.421  10.233 -0.9996  0.5236 -2.4181
 2959SOL    HW220514   1.715   1.348  10.111  1.5661  0.6363  0.8153
 2960SOL     OW20515   0.036   1.853  10.580  0.5357  0.4440  0.6200
 2960SOL    HW120516   0.110   1.808  10.538  1.4551  1.4587  1.1352
 2960SOL    HW220517   0.003   1.908  10.508 -2.6513 -1.5477  0.5574
 2961SOL     OW20518   3.778   4.375  15.374  0.2879  0.2965 -0.0821
 2961SOL    HW120519   3.826   4.387  15.292 -0.1382  1.2842 -0.1825
 2961SOL    HW220520   3.752   4.285  15.354  0.1887 -0.1759  2.1737
 2962SOL     OW20521   3.284   0.524  10.696  0.1214 -0.7761  0.1733
 2962SOL    HW120522   3.345   0.577  10.644  1.6324 -2.9494 -0.2539
 2962SOL    HW220523   3.302   0.556  10.785  0.9264  1.5143 -0.8032
 2963SOL     OW20524   2.973   0.430   0.713  0.0392  0.3116  0.1285
 2963SOL    HW120525   2.989   0.410   0.805 -1.7850 -1.7388 -0.0125
 2963SOL    HW220526   3.034   0.377   0.661  0.2205  0.1514  0.5079
 2964SOL     OW20527   1.877   1.021   0.247  0.2530  0.4679 -0.1456
 2964SOL    HW120528   1.968   1.048   0.237 -0.4215  1.7096 -2.7250
 2964SOL    HW220529   1.827   1.100   0.230 -0.1047  0.9500  3.2140
 2965SOL     OW20530   4.489   1.106   2.362 -0.0922  0.2835  0.8970
 2965SOL    HW120531   4.467   1.105   2.455  2.1723  1.5116  1.4615
 2965SOL    HW220532   4.564   1.166   2.369  0.1950 -0.1168  1.2821
 2966SOL     OW20533   0.885   2.808   7.705  0.2062 -1.0310 -0.4496
 2966SOL    HW120534   0.977   2.804   7.731 -0.1417 -1.3330  0.7406
 2966SOL    HW220535   0.854   2.898   7.715 -0.1370 -1.4364  2.2577
 2967SOL     OW20536   1.806   3.678   4.161  0.0875  0.2398  0.1327
 2967SOL    HW120537   1.799   3.671   4.065  0.1696 -2.8525  0.3557
 2967SOL    HW220538   1.749   3.603   4.179 -0.6801  0.9969  0.8366
 2968SOL     OW20539   0.937   1.580   6.539 -0.7818 -0.4525  0.2705
 2968SOL    HW120540   1.027   1.579   6.507 -0.3520  1.7177  1.4232
 2968SOL    HW220541   0.952   1.623   6.623  0.1448 -0.7888  0.2786
 2969SOL     OW20542   4.356   3.108  13.012  0.2582 -0.0442  0.1780
 2969SOL    HW120543   4.405   3.096  13.093 -1.2203  2.6915  1.4930
 2969SOL    HW220544   4.410   3.174  12.967  1.2692 -0.7560  0.3541
 2970SOL     OW20545   1.894   3.343   3.711  0.2293  0.1120 -0.0876
 2970SOL    HW120546   1.948   3.328   3.634  1.1138  0.1160  0.5217
 2970SOL    HW220547   1.810   3.344   3.666 -0.1293  2.3863  0.6055
 2971SOL     OW20548   2.822   1.393   0.820  0.3601  0.4612  0.3551
 2971SOL    HW120549   2.818   1.357   0.909 -0.6489  2.2141  1.0211
 2971SOL    HW220550   2.783   1.323   0.768  2.2031 -0.9202  0.8109
 2972SOL     OW20551   1.708   3.036   2.101  0.1263  0.1323 -0.4457
 2972SOL    HW120552   1.711   2.963   2.164 -0.0574 -0.0279 -0.6243
 2972SOL    HW220553   1.674   2.990   2.024  0.6635  0.5205 -0.9114
 2973SOL     OW20554   2.245   4.252   8.395 -0.4082  0.1941 -0.0302
 2973SOL    HW120555   2.332   4.213   8.382 -0.2419 -0.0489  1.7348
 2973SOL    HW220556   2.269   4.322   8.456  1.4152 -0.1686 -0.3299
 2974SOL     OW20557   3.908   0.968   1.160 -0.2862  0.6139  0.4326
 2974SOL    HW120558   3.878   0.986   1.248 -1.7199  0.7559 -0.0875
 2974SOL    HW220559   3.920   1.055   1.120  3.2687  1.1722  2.6797
 2975SOL     OW20560   3.889   2.606   2.525 -0.5930 -0.0831 -0.7186
 2975SOL    HW120561   3.937   2.634   2.447 -2.8132 -1.1330 -2.4625
 2975SOL    HW220562   3.955   2.545   2.559  0.4661  1.3313 -0.2557
 2976SOL     OW20563   2.047   3.467   2.086 -0.2471  0.0254 -0.0376
 2976SOL    HW120564   2.061   3.446   2.178 -1.1048  0.8664  0.2844
 2976SOL    HW220565   2.124   3.425   2.047  0.1135  0.2050  0.4768
 2977SOL     OW20566   0.127   4.587   4.534  0.0035  0.0534 -0.5536
 2977SOL    HW120567   0.192   4.551   4.474  1.3909 -1.1502  1.6393
 2977SOL    HW220568   0.148   4.546   4.618  2.1623  1.6102 -0.3375
 2978SOL     OW20569   0.771   1.492   4.488  0.2577 -0.1635  0.0039
 2978SOL    HW120570   0.741   1.574   4.451 -1.3650 -0.0510  1.5811
 2978SOL    HW220571   0.866   1.499   4.473 -0.1613 -0.4265 -2.7942
 2979SOL     OW20572   0.688   1.549   8.512  0.3664 -0.2145  0.1437
 2979SOL    HW120573   0.642   1.608   8.571 -1.4579  0.1861 -1.6947
 2979SOL    HW220574   0.706   1.601   8.434  0.1874 -2.6484 -1.5326
 2980SOL     OW20575   3.097   0.252   2.674  0.3539  0.0584  0.0733
 2980SOL    HW120576   3.049   0.197   2.735  0.2096  0.8566  0.6792
 2980SOL    HW220577   3.039   0.322   2.644 -0.8900 -1.3233 -0.7256
 2981SOL     OW20578   4.614   1.425   3.358 -0.3103 -0.2476 -0.1127
 2981SOL    HW120579   4.666   1.352   3.391 -0.4347 -0.6926 -0.8919
 2981SOL    HW220580   4.552   1.435   3.430 -2.9422  0.0779 -2.3902
 2982SOL     OW20581   1.064   3.792   6.498 -0.2152 -0.0413 -0.5913
 2982SOL    HW120582   0.973   3.788   6.470 -0.2706 -0.5281 -0.3435
 2982SOL    HW220583   1.083   3.700   6.515 -0.1277 -0.0594 -0.7880
 2983SOL     OW20584   0.019   3.818   7.605 -0.3591 -0.3860  1.3329
 2983SOL    HW120585   0.085   3.824   7.536 -0.1568 -0.3865  1.5256
 2983SOL    HW220586   4.732   3.725   7.602 -0.6926 -0.2734  0.6670
 2984SOL     OW20587   0.329   2.577   4.684  0.1362  0.7957 -0.0380
 2984SOL    HW120588   0.384   2.637   4.734  1.2138  0.6951 -1.1079
 2984SOL    HW220589   0.346   2.497   4.734 -1.4739  0.7364  0.4256
 2985SOL     OW20590   1.614   1.500   7.019 -0.3333 -0.1237 -0.0578
 2985SOL    HW120591   1.671   1.437   6.974 -0.8525  0.1925 -1.1662
 2985SOL    HW220592   1.675   1.569   7.045  1.5625 -0.0908 -4.5147
 2986SOL     OW20593   1.410   3.161   6.072  0.0302  0.2549 -1.2456
 2986SOL    HW120594   1.328   3.112   6.068  0.0146  0.0555  1.0673
 2986SOL    HW220595   1.469   3.110   6.017  1.8594  1.4508 -0.4034
 2987SOL     OW20596   0.059   3.605  13.774  0.3043 -0.2137  0.4209
 2987SOL    HW120597   0.098   3.526  13.739  0.1826 -1.1687  2.4471
 2987SOL    HW220598   0.006   3.580  13.849 -0.6927  0.1742 -0.1487
 2988SOL     OW20599   4.532   2.938   8.203 -0.0880  0.3099  0.6834
 2988SOL    HW120600   4.509   2.922   8.112 -0.0200 -1.8623  1.0589
 2988SOL    HW220601   4.620   2.900   8.196  0.4595  1.8948 -1.3118
 2989SOL     OW20602   3.933   2.245   6.778 -0.5107  0.1770 -0.1883
 2989SOL    HW120603   3.968   2.161   6.806 -1.0190 -0.4401 -1.4175
 2989SOL    HW220604   4.016   2.289   6.760 -0.2557 -0.5838 -0.8540
 2990SOL     OW20605   1.750   3.999  11.955  0.0436  0.1293 -0.4643
 2990SOL    HW120606   1.732   3.912  11.919  1.6582 -0.1845 -0.4951
 2990SOL    HW220607   1.658   4.026  11.951 -0.1598 -0.6294 -0.7969
 2991SOL     OW20608   3.935   1.170   7.555 -0.0591  0.0797 -0.4072
 2991SOL    HW120609   4.024   1.156   7.522  0.0085 -0.0705 -0.1635
 2991SOL    HW220610   3.943   1.259   7.590 -1.2738 -0.7631  2.0214
 2992SOL     OW20611   1.440   0.424   5.567 -0.2910 -0.1284  0.5458
 2992SOL    HW120612   1.451   0.472   5.649  1.9139 -0.7978  0.6523
 2992SOL    HW220613   1.377   0.478   5.520 -0.6580  0.0779  1.2756
 2993SOL     OW20614   0.595   2.781   9.457 -0.1445  0.2852  0.1241
 2993SOL    HW120615   0.571   2.808   9.546  1.2768  1.9938 -0.0158
 2993SOL    HW220616   0.601   2.686   9.466 -0.4496  0.2581  0.0314
 2994SOL     OW20617   2.203   1.616  15.067  0.4959 -0.4546  0.2440
 2994SOL    HW120618   2.121   1.570  15.084 -0.4545  0.1549 -2.7586
 2994SOL    HW220619   2.243   1.552  15.008  1.1949  0.4952 -0.3215
 2995SOL     OW20620   4.715   3.641  12.829  0.0132 -0.4554  0.2548
 2995SOL    HW120621   0.026   3.722  12.821 -0.0849 -0.3405  0.8624
 2995SOL    HW220622   4.704   3.643  12.924 -0.1217  0.0764  0.2221
 2996SOL     OW20623   1.819   2.939   8.794  0.0558 -0.0254  0.4140
 2996SOL    HW120624   1.753   2.884   8.751  0.5389 -1.2351  1.2708
 2996SOL    HW220625   1.846   2.996   8.722  1.8330 -1.2875  0.1013
 2997SOL     OW20626   1.436   2.885   6.763 -0.2333  0.1178  0.1226
 2997SOL    HW120627   1.463   2.975   6.781  0.8706  0.1926 -2.0018
 2997SOL    HW220628   1.401   2.895   6.675  1.9716  0.1142 -0.7298
 2998SOL     OW20629   0.839   0.036   8.146  0.4186 -0.2481  0.2548
 2998SOL    HW120630   0.925   0.068   8.119  0.4174  1.2308  2.0553
 2998SOL    HW220631   0.782   0.112   8.137  1.2331  0.6003  2.3658
 2999SOL     OW20632   1.476   1.039   9.927  0.2185  0.4108  0.0333
 2999SOL    HW120633   1.445   0.949   9.943 -1.0681  0.6542 -1.0251
 2999SOL    HW220634   1.560   1.038   9.973  0.8879  1.8722 -1.1939
 3000SOL     OW20635   1.357   1.801   8.012  0.3494  0.0825  0.0352
 3000SOL    HW120636   1.395   1.837   8.092  2.0792 -2.2583  0.2935
 3000SOL    HW220637   1.323   1.713   8.032  1.3770  0.1317  1.9543
 3001SOL     OW20638   1.568   3.016   5.921 -0.6508 -0.0078  0.5851
 3001SOL    HW120639   1.535   2.943   5.869  1.1900 -0.7941  0.5445
 3001SOL    HW220640   1.654   2.984   5.947 -0.1284 -0.0103 -1.1808
 3002SOL     OW20641   3.631   4.356   5.335  0.3502  0.1071  0.2063
 3002SOL    HW120642   3.696   4.300   5.293 -0.2713 -1.4735  1.3760
 3002SOL    HW220643   3.658   4.348   5.427  0.2795  0.6227  0.2749
 3003SOL     OW20644   1.598   4.467  10.006  0.0889 -0.5769 -0.2865
 3003SOL    HW120645   1.588   4.560  10.026 -0.4560 -0.4982 -0.9503
 3003SOL    HW220646   1.683   4.463  10.051 -0.0893 -2.0652 -0.0873
 3004SOL     OW20647   0.188   2.311   8.384 -0.4783  0.0431  0.5246
 3004SOL    HW120648   0.117   2.313   8.448 -0.3299  0.5300  0.6781
 3004SOL    HW220649   0.184   2.223   8.348 -0.1983  0.0809  0.4039
 3005SOL     OW20650   3.781   0.084   4.418  0.0168  0.5183 -0.3299
 3005SOL    HW120651   3.743   0.172   4.426  0.1200  0.6383 -1.1662
 3005SOL    HW220652   3.702   0.039   4.448  0.4717  0.2924  0.5089
 3006SOL     OW20653   1.162   4.292   6.707 -0.4314 -0.3750  0.0735
 3006SOL    HW120654   1.223   4.273   6.635  0.3217  0.9717  0.3603
 3006SOL    HW220655   1.209   4.363   6.751  1.7955 -1.3687 -0.6812
 3007SOL     OW20656   4.456   1.656  11.299  0.2005 -0.6742 -0.3395
 3007SOL    HW120657   4.541   1.623  11.272  0.1949 -0.3122 -0.8016
 3007SOL    HW220658   4.450   1.649  11.394 -0.9751 -0.9833 -0.4339
 3008SOL     OW20659   1.660   2.024   2.666  0.5462 -0.3221 -0.5717
 3008SOL    HW120660   1.730   2.032   2.602  1.6993 -1.9281  0.4949
 3008SOL    HW220661   1.688   1.968   2.738  0.1629 -1.4585 -1.2976
 3009SOL     OW20662   1.105   0.638   1.075 -0.0834  0.2464  0.4473
 3009SOL    HW120663   1.177   0.667   1.019  0.5487  0.1911  1.2151
 3009SOL    HW220664   1.033   0.701   1.068 -0.5826  0.2127  5.0502
 3010SOL     OW20665   0.078   0.733   5.926  0.0174 -0.2292  0.4093
 3010SOL    HW120666   4.729   0.747   5.960  0.3658  0.4619  1.0304
 3010SOL    HW220667   0.090   0.805   5.864  1.4111 -1.3950 -0.6811
 3011SOL     OW20668   3.894   3.833  13.463 -0.5281  0.0537 -0.2670
 3011SOL    HW120669   3.816   3.779  13.455 -0.7091  0.1493  0.8833
 3011SOL    HW220670   3.900   3.834  13.559 -1.8396  2.9521 -0.2361
 3012SOL     OW20671   4.253   0.484   8.808 -0.2541 -0.3369 -0.1476
 3012SOL    HW120672   4.281   0.561   8.858 -0.8838  0.7430 -1.4660
 3012SOL    HW220673   4.160   0.472   8.831  0.1848  0.2138  1.9253
 3013SOL     OW20674   2.662   0.324   2.779 -0.1010  0.4474  0.3661
 3013SOL    HW120675   2.605   0.282   2.844  0.4767 -1.9447 -0.6693
 3013SOL    HW220676   2.589   0.353   2.724  0.8807  0.1457 -1.1258
 3014SOL     OW20677   2.974   0.958   3.496  0.2100  0.6729 -0.9715
 3014SOL    HW120678   2.943   1.031   3.442  1.4948  1.5772 -0.4833
 3014SOL    HW220679   2.909   0.889   3.486 -0.6563  1.3865 -0.3135
 3015SOL     OW20680   1.477   0.171  14.735  0.3429  0.3695  0.0190
 3015SOL    HW120681   1.477   0.157  14.830 -1.2694 -0.7131 -0.1328
 3015SOL    HW220682   1.551   0.117  14.710 -0.0110  0.2909 -0.8489
 3016SOL     OW20683   3.896   3.838   5.416 -0.2403 -0.1887 -0.1016
 3016SOL    HW120684   3.989   3.832   5.394 -0.4472 -0.2668 -0.9534
 3016SOL    HW220685   3.855   3.813   5.334  1.6655 -1.1481 -0.7584
 3017SOL     OW20686   2.507   4.073  11.463  0.2392  0.1776 -0.1873
 3017SOL    HW120687   2.576   4.044  11.522  1.1637  2.3031 -0.1935
 3017SOL    HW220688   2.454   3.999  11.434  0.3177  0.6079 -1.4412
 3018SOL     OW20689   0.216   2.211   2.987 -0.2360  0.0649  0.1600
 3018SOL    HW120690   0.306   2.177   2.980 -1.2190 -2.6563  0.8866
 3018SOL    HW220691   0.213   2.228   2.893 -0.8142  0.8595  0.3327
 3019SOL     OW20692   0.111   4.381   8.351  0.3915 -0.1644  0.0809
 3019SOL    HW120693   0.171   4.341   8.287  1.7630  2.6562 -0.3950
 3019SOL    HW220694   0.127   4.314   8.418  0.6068 -0.4508 -0.2543
 3020SOL     OW20695   3.318   2.320   4.759  0.3325  0.0824 -0.2392
 3020SOL    HW120696   3.222   2.327   4.754  0.0425 -2.6815  1.8461
 3020SOL    HW220697   3.348   2.339   4.670 -1.1043 -0.6358 -0.8696
 3021SOL     OW20698   1.739   0.184   4.240  0.1984  0.1768 -0.3553
 3021SOL    HW120699   1.778   0.117   4.295  0.1293 -0.9503 -1.6857
 3021SOL    HW220700   1.698   0.127   4.174 -0.2032  0.6520 -0.5248
 3022SOL     OW20701   1.676   3.650   6.867 -0.1616  0.2385  0.6029
 3022SOL    HW120702   1.759   3.603   6.865 -0.7052 -0.7682  1.8887
 3022SOL    HW220703   1.624   3.605   6.800  0.9327  0.2387 -0.2483
 3023SOL     OW20704   3.657   0.862   6.809 -0.2608  0.1558  0.2690
 3023SOL    HW120705   3.700   0.899   6.886  2.4057  0.1421 -1.1981
 3023SOL    HW220706   3.580   0.917   6.795  0.1212  1.0105  1.5290
 3024SOL     OW20707   4.234   0.598  15.067  0.2450  0.3310  0.6986
 3024SOL    HW120708   4.277   0.549  14.997 -2.5507 -0.1177 -0.7156
 3024SOL    HW220709   4.311   0.645  15.097  0.3378  0.5784  0.0786
 3025SOL     OW20710   0.823   1.927   6.662  0.5119 -0.0480 -0.2097
 3025SOL    HW120711   0.731   1.928   6.636  0.7555  1.1402 -1.0130
 3025SOL    HW220712   0.820   1.925   6.758 -1.7472  1.2974 -0.2427
 3026SOL     OW20713   1.389   4.001   6.973  0.4450  0.1691 -0.1273
 3026SOL    HW120714   1.407   3.921   7.023  1.0461 -0.1684 -0.8624
 3026SOL    HW220715   1.463   3.988   6.914  0.7188  1.3059 -0.0312
 3027SOL     OW20716   4.512   0.569   4.247  0.4838  0.1384 -0.0016
 3027SOL    HW120717   4.563   0.497   4.211  2.1129  1.2865  0.0062
 3027SOL    HW220718   4.443   0.520   4.291  0.0681  1.1464  0.4755
 3028SOL     OW20719   3.744   3.818   2.456 -0.1826  0.1782 -0.2000
 3028SOL    HW120720   3.712   3.752   2.394  2.9678 -0.6258 -0.9538
 3028SOL    HW220721   3.714   3.895   2.407 -0.1493  1.8270  2.3543
 3029SOL     OW20722   1.542   1.233   3.774  0.7609  0.0050 -0.0310
 3029SOL    HW120723   1.560   1.148   3.815 -0.6822 -0.4636 -0.3443
 3029SOL    HW220724   1.478   1.274   3.833 -0.4348 -0.2564 -1.1339
 3030SOL     OW20725   3.396   0.775   3.157 -0.0196 -0.0538 -0.1329
 3030SOL    HW120726   3.439   0.690   3.147 -0.5094 -0.3820  0.6045
 3030SOL    HW220727   3.469   0.824   3.197  0.5869 -1.1251  0.0814
 3031SOL     OW20728   2.533   2.524   6.732 -0.0817  0.3793 -0.6738
 3031SOL    HW120729   2.476   2.455   6.698 -0.8294  1.1799 -1.0437
 3031SOL    HW220730   2.469   2.593   6.752  0.5622  0.9008 -0.4329
 3032SOL     OW20731   0.267   3.568  11.276  0.9513  0.3516 -0.4120
 3032SOL    HW120732   0.272   3.473  11.287 -0.2396  0.2092 -1.1157
 3032SOL    HW220733   0.257   3.590  11.369  1.1251  1.8176 -0.7355
 3033SOL     OW20734   2.537   4.378   8.699  0.1870  0.1946 -0.0924
 3033SOL    HW120735   2.445   4.396   8.680  0.2328 -0.5412 -0.9854
 3033SOL    HW220736   2.539   4.383   8.795  3.2120  3.3261 -0.3215
 3034SOL     OW20737   1.986   2.949   1.207 -0.5673  0.1391  0.0313
 3034SOL    HW120738   2.043   3.014   1.248  0.3166 -0.0160 -0.9685
 3034SOL    HW220739   1.950   2.903   1.283 -0.5556  0.0198 -0.0352
 3035SOL     OW20740   3.320   3.642  11.077 -0.0926 -0.0056 -0.2444
 3035SOL    HW120741   3.320   3.709  11.146  0.7828 -0.3671  0.1020
 3035SOL    HW220742   3.382   3.682  11.016 -0.3993  1.0627  0.1313
 3036SOL     OW20743   2.833   3.192   1.769  0.3313  0.0276 -0.1436
 3036SOL    HW120744   2.778   3.185   1.847 -0.2749  1.2699 -0.4633
 3036SOL    HW220745   2.890   3.265   1.796 -0.7223  0.5432  0.7107
 3037SOL     OW20746   2.635   0.508   7.169  0.1776 -0.0023 -0.0433
 3037SOL    HW120747   2.713   0.563   7.161  0.6780 -1.0229 -2.0572
 3037SOL    HW220748   2.619   0.508   7.264  1.6592  0.3170  0.2093
 3038SOL     OW20749   1.225   3.564   4.450  0.6743 -0.0151 -0.2781
 3038SOL    HW120750   1.222   3.488   4.391 -0.5188  0.0919 -0.3532
 3038SOL    HW220751   1.134   3.588   4.429  0.9580  0.8090 -0.5542
 3039SOL     OW20752   4.665   3.844  16.625  0.1550  0.4268 -0.0516
 3039SOL    HW120753   4.662   3.938  16.644  2.4420  0.6419 -0.8530
 3039SOL    HW220754   4.656   3.811  16.715 -0.4282  3.3701  0.9567
 3040SOL     OW20755   0.773   0.619  12.778 -0.0252  0.4119  0.5672
 3040SOL    HW120756   0.683   0.627  12.811 -0.0879  4.3239 -0.5736
 3040SOL    HW220757   0.760   0.632  12.684  1.5038 -2.6630 -0.0620
 3041SOL     OW20758   4.571   1.126  17.065 -0.2293 -0.3144  0.6868
 3041SOL    HW120759   4.526   1.210  17.066  0.3798  0.0104  0.8948
 3041SOL    HW220760   4.495   1.071  17.044 -0.8217  1.6245 -2.2636
 3042SOL     OW20761   2.497   4.504   4.547  0.4172 -0.0890 -0.0059
 3042SOL    HW120762   2.507   4.454   4.628 -0.0206  0.0125  0.1140
 3042SOL    HW220763   2.488   4.430   4.487  2.0777 -0.1094 -0.2293
 3043SOL     OW20764   4.568   0.442   6.379 -0.1582  0.4403 -0.0537
 3043SOL    HW120765   4.517   0.476   6.305 -1.5027  1.5907  1.3885
 3043SOL    HW220766   4.621   0.377   6.332 -0.9336  1.0161 -1.7492
 3044SOL     OW20767   2.097   3.751   0.293  0.5121 -0.2911  0.2595
 3044SOL    HW120768   2.172   3.701   0.263  0.4115 -0.0101 -0.4565
 3044SOL    HW220769   2.022   3.713   0.246  0.6814 -2.3437  1.6165
 3045SOL     OW20770   4.237   0.587   7.370 -0.0861 -0.3480  0.1324
 3045SOL    HW120771   4.175   0.519   7.345 -0.0575 -0.0487 -0.7493
 3045SOL    HW220772   4.270   0.617   7.285 -0.2353  1.5756  0.7471
 3046SOL     OW20773   4.732   3.146   7.309  0.3500 -0.3779  0.4961
 3046SOL    HW120774   0.082   3.183   7.304 -0.2742  0.8661 -1.6510
 3046SOL    HW220775   0.015   3.054   7.323 -1.1446 -0.4931  2.0476
 3047SOL     OW20776   4.504   1.063   6.345 -0.0340 -0.3678 -0.0038
 3047SOL    HW120777   4.579   1.024   6.301 -0.1786 -0.1523 -0.4345
 3047SOL    HW220778   4.465   0.982   6.380 -0.6892  0.2697  0.7615
 3048SOL     OW20779   2.645   2.411   3.829 -0.3887  0.3733 -0.0578
 3048SOL    HW120780   2.719   2.458   3.791 -0.7228 -0.3064 -1.5272
 3048SOL    HW220781   2.575   2.441   3.771  0.2029  0.5852 -0.6588
 3049SOL     OW20782   0.482   0.762  16.491 -0.1637 -0.2034  0.0850
 3049SOL    HW120783   0.528   0.701  16.547  1.4561  0.6715 -0.2965
 3049SOL    HW220784   0.525   0.842  16.521 -0.1391 -0.1023 -0.2210
 3050SOL     OW20785   4.624   0.367   5.289  0.3184 -0.0947  0.0630
 3050SOL    HW120786   4.584   0.362   5.202  0.5948  1.0701 -0.1295
 3050SOL    HW220787   4.641   0.459   5.306 -0.8567  0.0358  0.5239
 3051SOL     OW20788   2.144   4.598   4.714  0.3695  1.0594  0.5577
 3051SOL    HW120789   2.196   4.657   4.659  1.0772 -0.4432 -0.3928
 3051SOL    HW220790   2.144   4.520   4.658  1.7901  0.1047  1.8787
 3052SOL     OW20791   3.096   1.408   4.418 -0.2069 -0.6968  0.1785
 3052SOL    HW120792   3.030   1.351   4.380  0.8006 -0.7150 -1.5177
 3052SOL    HW220793   3.033   1.479   4.426  1.5563  0.7129  1.7145
 3053SOL     OW20794   2.805   3.609  13.665 -0.3849 -0.3297  0.6680
 3053SOL    HW120795   2.784   3.632  13.574 -1.7357 -2.1168  0.5487
 3053SOL    HW220796   2.737   3.656  13.713 -0.0499 -0.5612  1.3687
 3054SOL     OW20797   2.079   2.175   2.691 -0.2735 -0.5345  0.2478
 3054SOL    HW120798   2.032   2.256   2.669  1.7176  0.6311  0.3221
 3054SOL    HW220799   2.137   2.185   2.616  0.6847 -1.6329  0.8406
 3055SOL     OW20800   1.500   4.695   2.192 -0.0762 -0.6689  0.6525
 3055SOL    HW120801   1.556   4.732   2.260 -0.2710 -0.1058  0.5079
 3055SOL    HW220802   1.529   4.605   2.204  0.5328 -0.3970  1.2140
 3056SOL     OW20803   1.957   0.913   0.917 -0.1222  0.3535  0.4773
 3056SOL    HW120804   1.954   0.834   0.864  0.8205  1.0398 -0.6176
 3056SOL    HW220805   1.863   0.922   0.928 -0.2288  2.0456 -1.7036
 3057SOL     OW20806   3.173   3.050  12.031 -0.6186  0.4864  0.3507
 3057SOL    HW120807   3.227   3.031  12.107 -0.5332 -1.6129 -0.2259
 3057SOL    HW220808   3.107   2.980  12.036  0.0098 -0.0324  1.2665
 3058SOL     OW20809   4.252   2.061   5.133  0.7943  0.0727  0.0052
 3058SOL    HW120810   4.329   2.016   5.098  0.2533 -0.4409 -0.5204
 3058SOL    HW220811   4.197   1.985   5.150  0.8501  0.0500  0.0846
 3059SOL     OW20812   0.545   2.345   0.442  0.4484 -0.0511  0.1015
 3059SOL    HW120813   0.615   2.392   0.486 -0.2492  1.5924 -0.5376
 3059SOL    HW220814   0.585   2.335   0.355  0.0728 -1.1653  0.0526
 3060SOL     OW20815   2.737   3.208   4.517  0.1756  0.1968 -0.0135
 3060SOL    HW120816   2.751   3.197   4.611 -0.9822  0.3469  0.1769
 3060SOL    HW220817   2.670   3.139   4.518  2.7362 -2.2746  0.7061
 3061SOL     OW20818   1.432   2.360   0.680  0.1833  0.0558 -0.2382
 3061SOL    HW120819   1.385   2.341   0.761  1.1171 -0.8719  0.0728
 3061SOL    HW220820   1.513   2.396   0.715  0.2524  1.0072 -1.3507
 3062SOL     OW20821   2.455   1.988  14.798 -0.0098  0.0103  0.6860
 3062SOL    HW120822   2.381   1.965  14.855  0.0910 -2.1371 -0.0448
 3062SOL    HW220823   2.408   1.962  14.718  0.0948  2.2724 -0.1069
 3063SOL     OW20824   1.539   4.717   7.902  0.7076  0.6554  0.3859
 3063SOL    HW120825   1.618   0.028   7.885  0.2886  1.0201 -0.4860
 3063SOL    HW220826   1.577   4.666   7.974  0.8306  0.4495  0.1741
 3064SOL     OW20827   0.437   3.970   8.694 -0.0427  0.2403  0.0897
 3064SOL    HW120828   0.374   3.986   8.625 -0.1738  1.8247  0.5828
 3064SOL    HW220829   0.377   3.942   8.763  0.3294 -1.6879 -0.3515
 3065SOL     OW20830   3.623   2.662   7.738 -0.2973  0.0036  0.2287
 3065SOL    HW120831   3.613   2.626   7.826  1.4842 -0.2574  0.3350
 3065SOL    HW220832   3.601   2.754   7.754 -0.1659  0.2030 -0.6953
 3066SOL     OW20833   3.212   0.782   6.368 -0.1562  1.2671 -0.0206
 3066SOL    HW120834   3.230   0.800   6.276  0.2118  0.4149 -0.1227
 3066SOL    HW220835   3.277   0.834   6.415  0.8647 -0.3301  0.3326
 3067SOL     OW20836   0.818   0.234   7.940 -0.4164  0.5127 -0.0911
 3067SOL    HW120837   0.909   0.261   7.935  0.4596 -2.7525 -1.3136
 3067SOL    HW220838   0.797   0.252   7.849  0.7832  1.8026 -0.1057
 3068SOL     OW20839   2.602   1.006   8.683  0.0661 -0.3914  0.1182
 3068SOL    HW120840   2.514   0.981   8.711 -0.0661  0.7689  0.7142
 3068SOL    HW220841   2.615   1.080   8.741  1.4292 -0.0261 -0.6452
 3069SOL     OW20842   4.459   2.056  10.743  0.2049  0.0957  0.6040
 3069SOL    HW120843   4.554   2.058  10.752  0.1582 -1.9231  1.4237
 3069SOL    HW220844   4.437   1.963  10.737  0.1962  0.0824  0.8616
 3070SOL     OW20845   0.218   0.218   6.295 -0.2572 -0.0561  0.1750
 3070SOL    HW120846   0.180   0.205   6.381  0.9305 -0.2601  0.6729
 3070SOL    HW220847   0.154   0.283   6.267 -0.9692 -1.5079 -1.5872
 3071SOL     OW20848   0.133   0.519   7.949 -0.4611 -0.3133  0.0545
 3071SOL    HW120849   0.161   0.610   7.963 -1.7474  0.1053 -0.0624
 3071SOL    HW220850   0.123   0.481   8.036  1.0629 -2.3517 -0.6735
 3072SOL     OW20851   1.605   3.628  12.080 -0.0032 -0.0577  0.0727
 3072SOL    HW120852   1.630   3.662  11.994  0.1006  1.0629  0.5541
 3072SOL    HW220853   1.685   3.624  12.132  1.2768 -1.3599 -1.9946
 3073SOL     OW20854   3.970   2.949   6.048 -0.1472  0.0757  0.3611
 3073SOL    HW120855   3.950   2.925   5.958 -3.0251  0.1682  0.9860
 3073SOL    HW220856   4.024   3.026   6.029  2.3138 -1.2446  2.0908
 3074SOL     OW20857   3.181   1.881   4.277 -0.1005  0.7092  0.0911
 3074SOL    HW120858   3.117   1.818   4.310  0.8250 -0.2919 -0.0220
 3074SOL    HW220859   3.254   1.880   4.339 -0.9945  1.9159  1.1683
 3075SOL     OW20860   2.373   0.579  13.178 -0.1441 -0.7970  0.0851
 3075SOL    HW120861   2.427   0.503  13.198 -0.0626 -0.6081  0.5798
 3075SOL    HW220862   2.288   0.535  13.169 -0.4042  0.0220 -1.5807
 3076SOL     OW20863   4.548   2.122   6.186 -0.0139 -0.4819 -0.2319
 3076SOL    HW120864   4.507   2.042   6.220  2.4021 -1.3263  0.6784
 3076SOL    HW220865   4.474   2.159   6.138 -0.2323 -0.3309  0.2190
 3077SOL     OW20866   2.267   4.357   8.885 -0.1108 -0.2502 -0.1308
 3077SOL    HW120867   2.238   4.390   8.800  1.7156 -0.1998 -0.7244
 3077SOL    HW220868   2.271   4.263   8.872  2.2372 -0.1164 -0.3985
 3078SOL     OW20869   3.192   3.276   3.958  0.5816 -0.3839 -0.1921
 3078SOL    HW120870   3.151   3.338   3.897  0.1253 -1.8726 -1.3919
 3078SOL    HW220871   3.122   3.260   4.022 -1.2678  0.3770 -2.0076
 3079SOL     OW20872   1.427   1.545  15.310  0.1206 -0.0076  0.7251
 3079SOL    HW120873   1.373   1.530  15.232 -0.5932  0.2601  1.1622
 3079SOL    HW220874   1.390   1.485  15.375  0.4936 -1.2483 -0.2240
 3080SOL     OW20875   4.172   3.350   2.126 -0.1485  0.1556  0.6075
 3080SOL    HW120876   4.192   3.441   2.100 -0.0436 -0.0983 -0.2041
 3080SOL    HW220877   4.119   3.316   2.054 -3.1857  0.1385  2.8536
 3081SOL     OW20878   1.090   1.454   9.875  0.3190 -0.0378 -0.3994
 3081SOL    HW120879   1.111   1.528   9.819 -1.5168 -1.5588 -3.1299
 3081SOL    HW220880   1.173   1.411   9.856  0.0052  0.1340 -2.1336
 3082SOL     OW20881   1.853   2.086   9.599 -0.1098  0.5580 -0.1015
 3082SOL    HW120882   1.832   2.000   9.636 -0.2311  0.4171 -0.5017
 3082SOL    HW220883   1.768   2.107   9.561 -1.0434  0.4966  1.9258
 3083SOL     OW20884   4.094   0.800  11.233 -0.3569  0.2374  0.2057
 3083SOL    HW120885   4.006   0.811  11.271 -0.2649 -0.8609  0.7073
 3083SOL    HW220886   4.085   0.708  11.208 -0.2976  1.3439 -3.9105
 3084SOL     OW20887   1.323   2.406   2.695 -0.7504  0.1070 -0.2354
 3084SOL    HW120888   1.348   2.481   2.748  0.9446 -1.3695  1.0394
 3084SOL    HW220889   1.350   2.335   2.753 -1.2902  0.7381  0.7884
 3085SOL     OW20890   4.323   4.441   2.957  0.6063  0.5260  0.1163
 3085SOL    HW120891   4.243   4.474   2.996 -0.1813 -0.0368 -1.0223
 3085SOL    HW220892   4.376   4.426   3.035 -0.2869 -2.7047  0.0927
 3086SOL     OW20893   4.579   2.554   1.226 -0.8166 -0.4454  0.0166
 3086SOL    HW120894   4.655   2.496   1.216 -0.9552 -0.3155 -1.8440
 3086SOL    HW220895   4.577   2.564   1.321 -0.1016 -0.2015  0.0076
 3087SOL     OW20896   1.193   3.772   4.625  0.2360  0.3009  0.2100
 3087SOL    HW120897   1.229   3.686   4.604  1.0491  0.9228 -0.9475
 3087SOL    HW220898   1.123   3.773   4.560 -1.0078  0.0968  1.5582
 3088SOL     OW20899   2.613   3.559  13.994 -0.3233  0.0383  0.2278
 3088SOL    HW120900   2.542   3.584  14.053  0.1210 -0.4677  0.9852
 3088SOL    HW220901   2.607   3.609  13.913 -0.2745 -1.5619 -0.7814
 3089SOL     OW20902   0.796   2.507   5.571  0.2738 -0.2403  0.3304
 3089SOL    HW120903   0.824   2.476   5.485  0.2776 -0.5823  0.4534
 3089SOL    HW220904   0.701   2.501   5.565  0.5022 -0.9055 -2.4930
 3090SOL     OW20905   4.246   1.240   7.477  0.1257  0.2125 -0.3713
 3090SOL    HW120906   4.256   1.324   7.522  1.4558 -0.2629  0.2301
 3090SOL    HW220907   4.280   1.173   7.536  2.1700  0.3464 -1.3809
 3091SOL     OW20908   1.360   2.496  13.042 -0.1753 -0.4412  0.1435
 3091SOL    HW120909   1.406   2.546  12.975 -0.8625  0.2838  0.2185
 3091SOL    HW220910   1.372   2.405  13.015  0.2815 -0.8710  1.8109
 3092SOL     OW20911   3.352   0.132   3.146 -0.5531  0.3850 -0.2528
 3092SOL    HW120912   3.354   0.227   3.152  0.1977  0.3801 -0.4385
 3092SOL    HW220913   3.397   0.111   3.064 -0.4438 -0.1465 -0.0600
 3093SOL     OW20914   0.032   0.412   2.177 -0.0701 -0.1054 -0.1047
 3093SOL    HW120915   0.061   0.444   2.262  1.2552  0.8382 -0.9220
 3093SOL    HW220916   4.729   0.333   2.211  0.6220  0.0899  1.1933
 3094SOL     OW20917   3.648   2.657   2.918 -0.1169  0.4246 -0.5249
 3094SOL    HW120918   3.720   2.595   2.932 -1.2330 -0.8983 -0.6817
 3094SOL    HW220919   3.577   2.609   2.960  1.2730 -1.0332  0.1801
 3095SOL     OW20920   0.328   3.085   2.999  0.7638 -0.2700 -0.3860
 3095SOL    HW120921   0.293   3.172   2.980  0.5542 -0.6781 -1.8568
 3095SOL    HW220922   0.279   3.056   3.076 -2.5057 -1.7718 -3.0513
 3096SOL     OW20923   2.852   0.930   8.614  0.4996  0.0747 -0.1073
 3096SOL    HW120924   2.768   0.955   8.652  0.7729  0.0027  0.5385
 3096SOL    HW220925   2.870   0.849   8.663  1.5531 -0.3729 -1.2312
 3097SOL     OW20926   3.989   0.290  11.707  0.3258  0.3182 -0.5873
 3097SOL    HW120927   3.894   0.300  11.715  0.5602  1.5123  0.7066
 3097SOL    HW220928   4.007   0.196  11.702 -0.4617  0.0667  1.3060
 3098SOL     OW20929   1.816   2.229   1.219  0.1772  0.0519 -0.4188
 3098SOL    HW120930   1.775   2.225   1.133 -1.4056  0.0192  0.3345
 3098SOL    HW220931   1.868   2.309   1.210 -0.9258  0.6100 -1.7917
 3099SOL     OW20932   1.432   0.557  17.021 -0.2759  0.0509 -0.3499
 3099SOL    HW120933   1.469   0.581  17.106  1.5057 -1.5439 -0.6780
 3099SOL    HW220934   1.369   0.629  17.020  1.7737  1.8840  2.1194
 3100SOL     OW20935   1.510   3.918   3.044  0.7329 -0.0989 -0.4551
 3100SOL    HW120936   1.461   3.905   2.962 -1.9295  0.2949  1.0850
 3100SOL    HW220937   1.489   3.834   3.086 -1.0961  1.1763  1.1816
 3101SOL     OW20938   4.521   0.385   6.902 -0.0733 -0.1861 -0.0006
 3101SOL    HW120939   4.551   0.305   6.946 -1.2645 -0.9273 -0.5186
 3101SOL    HW220940   4.548   0.356   6.815  1.5120 -0.0739  0.4534
 3102SOL     OW20941   3.714   2.669   5.763  0.2164  0.5343 -0.0654
 3102SOL    HW120942   3.760   2.586   5.771 -0.7422 -0.0479 -0.6553
 3102SOL    HW220943   3.776   2.739   5.785  2.2380 -0.9657 -1.0063
 3103SOL     OW20944   1.808   4.661   5.071  0.3385  0.2622 -0.1682
 3103SOL    HW120945   1.892   4.661   5.024  0.8820 -1.4722  0.8370
 3103SOL    HW220946   1.831   4.626   5.157 -1.7967 -0.1850  0.2310
 3104SOL     OW20947   0.659   2.005   5.794 -0.3765  0.0754 -0.2808
 3104SOL    HW120948   0.644   1.942   5.723  2.1016  0.8856 -1.5351
 3104SOL    HW220949   0.640   2.089   5.751 -0.0975  0.9072  1.2338
 3105SOL     OW20950   2.515   4.075   9.255 -0.4826 -0.4227 -0.2573
 3105SOL    HW120951   2.565   4.021   9.316  0.1831  0.5368  0.0523
 3105SOL    HW220952   2.437   4.097   9.305 -0.9562 -0.9353 -0.7706
 3106SOL     OW20953   1.409   2.134  17.591  0.3673  0.0049  0.3428
 3106SOL    HW120954   1.331   2.078  17.595  0.6844 -0.6333 -2.4523
 3106SOL    HW220955   1.453   2.099  17.514 -2.7581 -3.0931 -0.0564
 3107SOL     OW20956   4.388   2.510   6.748  0.4885  0.7439 -0.1379
 3107SOL    HW120957   4.464   2.568   6.750  1.5048 -0.5179 -1.6474
 3107SOL    HW220958   4.353   2.525   6.660  0.0006 -0.5462 -0.1707
 3108SOL     OW20959   0.392   1.639   5.578 -0.0452  0.8342  0.2302
 3108SOL    HW120960   0.314   1.605   5.621 -0.4255  0.0178 -1.1145
 3108SOL    HW220961   0.417   1.700   5.648 -1.4930 -0.0762  1.5529
 3109SOL     OW20962   2.456   4.344   2.204 -0.0215 -0.2423 -0.4573
 3109SOL    HW120963   2.412   4.281   2.262 -0.3588 -0.0201 -0.4769
 3109SOL    HW220964   2.426   4.432   2.225  0.5701  0.0728 -0.9579
 3110SOL     OW20965   4.141   0.332   1.639  0.5142  0.1186 -0.2371
 3110SOL    HW120966   4.228   0.365   1.660  0.8459 -0.8140 -0.1422
 3110SOL    HW220967   4.127   0.352   1.547 -0.5273  0.8334  0.0653
 3111SOL     OW20968   2.268   0.514   9.232  0.1519 -0.1604 -0.0413
 3111SOL    HW120969   2.180   0.544   9.208  0.7289  2.0397  0.6180
 3111SOL    HW220970   2.319   0.594   9.232  0.7080 -0.5105 -0.7475
 3112SOL     OW20971   1.159   4.048   6.445 -0.0813 -0.1739  0.6538
 3112SOL    HW120972   1.109   3.991   6.503 -1.6798 -1.1304 -1.7084
 3112SOL    HW220973   1.222   3.979   6.428 -0.8874 -0.3700 -1.4748
 3113SOL     OW20974   0.253   3.263   7.565 -0.6470 -0.6405 -0.1189
 3113SOL    HW120975   0.160   3.286   7.565 -0.0211  1.8946 -0.8795
 3113SOL    HW220976   0.255   3.198   7.495  3.3861 -1.0846  0.4315
 3114SOL     OW20977   4.199   4.653   1.932  0.3976  0.3650  0.3369
 3114SOL    HW120978   4.236   4.671   1.846 -0.6536  1.3688  0.1096
 3114SOL    HW220979   4.118   4.703   1.929  0.9906  1.3390  0.6534
 3115SOL     OW20980   2.133   3.155   1.330 -0.1491 -0.0487 -0.2190
 3115SOL    HW120981   2.121   3.216   1.257  0.9528 -0.1102 -0.4558
 3115SOL    HW220982   2.103   3.214   1.399 -1.8455 -1.5821  0.3456
 3116SOL     OW20983   3.107   4.482  16.671 -0.2385 -0.0461 -0.3710
 3116SOL    HW120984   3.077   4.401  16.630 -0.9297 -1.3742  2.7332
 3116SOL    HW220985   3.024   4.525  16.691 -0.2299 -0.4783  0.5960
 3117SOL     OW20986   2.670   2.225   6.074 -0.1654 -0.2831 -0.4450
 3117SOL    HW120987   2.735   2.162   6.043  1.1085  0.5775  0.4383
 3117SOL    HW220988   2.718   2.300   6.110 -1.6058  0.0231  0.8791
 3118SOL     OW20989   2.352   3.024  16.194 -0.0558  0.1343 -0.0807
 3118SOL    HW120990   2.268   3.030  16.240 -0.9577 -2.1512 -1.4147
 3118SOL    HW220991   2.341   3.097  16.133 -1.1294 -1.0649 -1.3129
 3119SOL     OW20992   2.756   3.438   5.130  0.0579  0.1596  0.3164
 3119SOL    HW120993   2.841   3.459   5.092  0.6674  0.4329  1.8626
 3119SOL    HW220994   2.763   3.343   5.136 -0.5895  0.1591  1.0691
 3120SOL     OW20995   0.829   2.503  16.771 -0.1221 -0.2240 -0.3230
 3120SOL    HW120996   0.827   2.599  16.775 -0.1488 -0.3046  2.0301
 3120SOL    HW220997   0.905   2.492  16.828 -1.8456 -0.2170  1.9781
 3121SOL     OW20998   1.446   2.439   0.091  0.2641  0.1810 -0.5825
 3121SOL    HW120999   1.474   2.392   0.170 -1.4870  0.3395  0.1242
 3121SOL    HW221000   1.493   2.522   0.092  2.8159 -1.2926  1.8220
 3122SOL     OW21001   0.600   4.222   7.397 -0.0747 -0.1548  0.1123
 3122SOL    HW121002   0.532   4.260   7.453 -0.4616  0.3990 -0.7245
 3122SOL    HW221003   0.662   4.290   7.423  0.0619 -0.0283 -0.5368
 3123SOL     OW21004   2.993   3.970   8.939  0.3672 -0.1612 -0.3709
 3123SOL    HW121005   3.075   3.989   8.894  0.4812  0.4629  0.1078
 3123SOL    HW221006   2.962   4.060   8.948  2.0568  0.3085  0.7619
 3124SOL     OW21007   1.569   2.983   5.545  0.0551  0.0298  0.0209
 3124SOL    HW121008   1.508   2.909   5.540 -1.0138  0.9409 -0.4826
 3124SOL    HW221009   1.654   2.941   5.535 -0.4308 -0.9995  0.2134
 3125SOL     OW21010   3.371   1.521  14.306  0.2536  0.0989 -0.2361
 3125SOL    HW121011   3.371   1.501  14.399 -0.5942  1.5656  0.0733
 3125SOL    HW221012   3.415   1.606  14.315  1.2349 -0.5552  1.1361
 3126SOL     OW21013   3.175   0.764   8.510 -0.6112 -0.3787 -0.0413
 3126SOL    HW121014   3.126   0.709   8.448  0.4770 -2.0183  0.5729
 3126SOL    HW221015   3.187   0.842   8.455 -0.8629  0.3658  0.9682
 3127SOL     OW21016   3.758   2.224   6.546 -0.0462  0.1333  0.0880
 3127SOL    HW121017   3.775   2.309   6.506 -0.1816 -0.3064 -0.9042
 3127SOL    HW221018   3.801   2.236   6.631 -0.0354  0.7854 -0.0088
 3128SOL     OW21019   1.509   0.338   7.296 -0.1595 -0.6159  0.3727
 3128SOL    HW121020   1.443   0.407   7.293  1.3991  0.8214 -0.8268
 3128SOL    HW221021   1.474   0.280   7.229  1.1958 -0.7865 -0.1853
 3129SOL     OW21022   3.909   4.508  16.213  0.0607 -0.5473  0.0564
 3129SOL    HW121023   3.838   4.444  16.204  0.3940 -0.9813  0.4911
 3129SOL    HW221024   3.935   4.500  16.305 -0.2627 -2.8329 -0.0590
 3130SOL     OW21025   3.237   2.744  11.929 -0.3329  0.0341  0.4550
 3130SOL    HW121026   3.302   2.675  11.936 -3.2931 -2.7693  0.4286
 3130SOL    HW221027   3.286   2.823  11.906 -0.1457 -0.1904  0.0822
 3131SOL     OW21028   0.775   4.113   5.430 -0.1457 -0.2301  0.0023
 3131SOL    HW121029   0.764   4.018   5.438  0.7724 -0.5197 -2.1649
 3131SOL    HW221030   0.762   4.125   5.336  3.3691  1.0449 -0.3346
 3132SOL     OW21031   2.116   4.320   8.146  0.0118  0.3535 -0.0307
 3132SOL    HW121032   2.181   4.299   8.212  0.6166  3.0643  0.2246
 3132SOL    HW221033   2.072   4.389   8.197 -0.0633  1.7060 -1.8974
 3133SOL     OW21034   3.261   0.914   7.916  0.2861 -0.3058  0.7291
 3133SOL    HW121035   3.253   0.987   7.977  1.5054 -0.2541  0.8230
 3133SOL    HW221036   3.222   0.948   7.836  0.2270  0.2692  1.0028
 3134SOL     OW21037   1.072   0.557   4.065  0.1430 -0.0771  0.0499
 3134SOL    HW121038   1.132   0.485   4.083  1.0627  0.7617  0.3414
 3134SOL    HW221039   1.109   0.622   4.125 -0.1335 -0.2042  0.3545
 3135SOL     OW21040   3.359   2.198   7.718  0.1051  0.4813  0.2420
 3135SOL    HW121041   3.275   2.159   7.745  1.0679 -1.7926 -0.0634
 3135SOL    HW221042   3.323   2.279   7.682 -0.9204 -0.3507 -0.6100
 3136SOL     OW21043   0.370   2.872   6.529 -0.1923  0.2492 -0.2501
 3136SOL    HW121044   0.439   2.938   6.525 -0.2762  0.2602 -1.3941
 3136SOL    HW221045   0.398   2.809   6.463  2.7164  1.3729 -0.0623
 3137SOL     OW21046   4.695   0.802  12.550  0.1324  0.1964  0.6429
 3137SOL    HW121047   4.728   0.713  12.545 -0.6009 -0.1330  1.6584
 3137SOL    HW221048   0.030   0.845  12.508 -0.8482  0.7019 -0.5690
 3138SOL     OW21049   0.398   3.319   8.196 -0.0535  0.1484 -0.3694
 3138SOL    HW121050   0.472   3.309   8.256 -1.3701 -0.6811  1.1114
 3138SOL    HW221051   0.429   3.257   8.129  0.8012 -1.1502  1.2191
 3139SOL     OW21052   2.725   1.088   2.277  0.4311  0.4756  0.2782
 3139SOL    HW121053   2.767   1.152   2.334 -1.1152  1.3488  0.4307
 3139SOL    HW221054   2.667   1.047   2.341 -0.0454  0.5670 -0.0881
 3140SOL     OW21055   3.255   2.865   4.460 -0.0022 -0.1902  0.5937
 3140SOL    HW121056   3.321   2.862   4.391  1.2731 -3.3346  1.9042
 3140SOL    HW221057   3.182   2.821   4.417 -2.0612  2.7861  1.0476
 3141SOL     OW21058   1.261   4.480  10.307  0.0315  0.4942 -0.0343
 3141SOL    HW121059   1.271   4.397  10.260 -0.4684 -1.4535  3.3148
 3141SOL    HW221060   1.210   4.522  10.238 -0.3391 -2.6992 -1.6898
 3142SOL     OW21061   1.355   0.847   4.959  0.3596  0.0292  0.2011
 3142SOL    HW121062   1.392   0.759   4.951  0.5826  0.0406  1.1079
 3142SOL    HW221063   1.309   0.839   5.043  0.9892 -0.2128  0.5264
 3143SOL     OW21064   4.150   4.164   7.642  0.0079  0.3295  0.2813
 3143SOL    HW121065   4.226   4.184   7.587 -0.0728  1.7605  0.6844
 3143SOL    HW221066   4.191   4.122   7.717 -1.4390 -0.4768  0.6263
 3144SOL     OW21067   2.167   1.804   5.330 -0.4508 -0.1629 -0.1203
 3144SOL    HW121068   2.094   1.771   5.278  0.1312  1.0360 -1.7027
 3144SOL    HW221069   2.176   1.896   5.307 -1.5908 -0.0929 -0.2724
 3145SOL     OW21070   4.178   4.301  12.369 -0.0520  0.4713 -0.1607
 3145SOL    HW121071   4.244   4.281  12.303  0.8041  0.9318  0.5430
 3145SOL    HW221072   4.146   4.212  12.380  2.1961 -0.2698  0.3413
 3146SOL     OW21073   1.453   1.131   7.402  0.1590 -0.1835  0.5346
 3146SOL    HW121074   1.530   1.171   7.361  1.2095 -0.3414  2.3225
 3146SOL    HW221075   1.441   1.178   7.484  1.4269  1.2044 -0.0607
 3147SOL     OW21076   0.196   1.590  11.510 -0.3167 -0.3211  0.4487
 3147SOL    HW121077   0.247   1.511  11.528  0.4406 -0.4619 -2.3289
 3147SOL    HW221078   0.139   1.543  11.450  0.6205  0.3565 -0.9615
 3148SOL     OW21079   2.847   4.063   9.426  0.2277  0.1422  0.4910
 3148SOL    HW121080   2.889   4.133   9.476 -0.0976 -0.7073  1.9653
 3148SOL    HW221081   2.899   4.029   9.353  0.7039  1.3523  0.2691
 3149SOL     OW21082   1.385   2.782   7.009 -0.1689 -0.6377 -0.3452
 3149SOL    HW121083   1.322   2.713   6.988 -0.1032 -0.5790 -0.7441
 3149SOL    HW221084   1.414   2.790   6.918  0.0831 -0.7082 -0.2705
 3150SOL     OW21085   3.895   2.922   4.177  0.0192 -0.0903  0.2903
 3150SOL    HW121086   3.805   2.945   4.153  0.6973  2.9685  0.7627
 3150SOL    HW221087   3.870   2.893   4.265 -0.1864 -0.8290 -0.0071
 3151SOL     OW21088   0.928   2.778   3.364  0.5565 -0.4395  0.1333
 3151SOL    HW121089   0.858   2.740   3.311 -1.3583  1.3433  1.4037
 3151SOL    HW221090   0.885   2.852   3.406  0.2628 -0.4134 -0.2129
 3152SOL     OW21091   3.197   3.463   6.135  0.4421  0.2354  0.1172
 3152SOL    HW121092   3.221   3.491   6.223  0.9584  1.3516 -0.3789
 3152SOL    HW221093   3.184   3.549   6.095 -0.6112  1.5415  3.2224
 3153SOL     OW21094   3.230   4.269   2.734  0.0048 -0.0283  0.0468
 3153SOL    HW121095   3.281   4.346   2.760 -0.0237 -0.2383  0.7113
 3153SOL    HW221096   3.183   4.301   2.657 -0.4564  0.2456  0.4491
 3154SOL     OW21097   0.252   4.125  15.160 -0.2844  0.0730 -0.0385
 3154SOL    HW121098   0.277   4.206  15.115  0.4167  0.5584  1.2333
 3154SOL    HW221099   0.158   4.141  15.168 -0.5278 -1.7296  0.5397
 3155SOL     OW21100   2.989   1.221   4.235  0.0242 -0.7130  1.3404
 3155SOL    HW121101   3.059   1.160   4.212  1.1203  0.3744  1.7824
 3155SOL    HW221102   2.928   1.156   4.269 -0.0721 -0.4286  1.7084
 3156SOL     OW21103   4.161   4.253   4.823  0.1331  0.3231  0.3852
 3156SOL    HW121104   4.172   4.321   4.889  2.1020  1.1683 -0.8095
 3156SOL    HW221105   4.228   4.192   4.851 -0.4039  0.1909  1.3702
 3157SOL     OW21106   2.039   1.424   2.165 -0.1465  0.0040  0.1727
 3157SOL    HW121107   1.992   1.341   2.174  0.5857 -0.4242  0.0972
 3157SOL    HW221108   1.978   1.477   2.216 -1.4092 -1.3986  0.1045
 3158SOL     OW21109   1.049   2.871   0.681 -0.0217 -0.0179  0.3339
 3158SOL    HW121110   0.962   2.871   0.720  0.6312 -0.0088  1.7906
 3158SOL    HW221111   1.103   2.824   0.743 -0.6283  0.2142  1.0353
 3159SOL     OW21112   2.627   2.838   3.214 -0.1725 -0.3448 -0.4527
 3159SOL    HW121113   2.720   2.820   3.201 -0.3165 -0.4961 -1.3147
 3159SOL    HW221114   2.589   2.777   3.150  1.6206 -0.9526 -0.9445
 3160SOL     OW21115   1.096   4.132   1.025 -0.6108 -0.3947 -0.4080
 3160SOL    HW121116   1.191   4.144   1.031 -0.8023  2.0499 -2.4098
 3160SOL    HW221117   1.059   4.209   0.982  0.7184 -0.6872 -2.0745
 3161SOL     OW21118   0.962   0.460   4.402  0.1265 -0.0222  0.2084
 3161SOL    HW121119   0.955   0.482   4.494  0.7512  1.3067 -0.0622
 3161SOL    HW221120   0.890   0.397   4.400  0.2809 -0.1593 -1.1550
 3162SOL     OW21121   0.349   2.986   9.564 -0.4473  0.0560 -0.4634
 3162SOL    HW121122   0.355   3.080   9.547 -1.2914  0.3206  0.6883
 3162SOL    HW221123   0.399   2.979   9.646 -0.2747  1.2192 -0.4653
 3163SOL     OW21124   0.492   1.576   4.411  0.6013  0.7369 -0.4468
 3163SOL    HW121125   0.549   1.635   4.460  1.1097  0.1611 -0.3456
 3163SOL    HW221126   0.407   1.614   4.436 -1.1392 -2.4740 -1.3750
 3164SOL     OW21127   4.410   2.237  16.667 -0.3064  0.2538  0.2266
 3164SOL    HW121128   4.384   2.151  16.634 -1.9474  0.2903  1.3955
 3164SOL    HW221129   4.447   2.211  16.751 -1.2880  0.1921  0.6368
 3165SOL     OW21130   0.897   3.974   2.433 -0.0224  0.3533 -0.0186
 3165SOL    HW121131   0.880   3.956   2.526 -0.0773  1.0707  0.1106
 3165SOL    HW221132   0.806   3.965   2.404 -0.5208  2.1314  0.9732
 3166SOL     OW21133   3.124   3.619   1.892  0.0567  0.7431  0.1693
 3166SOL    HW121134   3.121   3.650   1.983  0.3354  0.0498  0.4190
 3166SOL    HW221135   3.220   3.613   1.891 -0.0256 -0.4443 -1.5305
 3167SOL     OW21136   4.651   0.836  15.566  0.0360 -0.0876 -0.1974
 3167SOL    HW121137   4.647   0.762  15.505  0.2458 -0.5211  0.3217
 3167SOL    HW221138   4.672   0.786  15.644 -0.8591  1.2122  0.8743
 3168SOL     OW21139   2.495   1.712   5.044 -0.3279 -0.8069 -0.4688
 3168SOL    HW121140   2.503   1.801   5.078  0.6505  0.4849 -4.1466
 3168SOL    HW221141   2.501   1.725   4.950 -0.8405 -1.8475 -0.6492
 3169SOL     OW21142   3.410   1.336   3.552 -0.1118 -0.3647 -0.8539
 3169SOL    HW121143   3.375   1.270   3.612  1.5607 -0.2212  0.2687
 3169SOL    HW221144   3.466   1.381   3.615  0.7513 -1.5019 -0.8047
 3170SOL     OW21145   1.945   2.699  17.651 -0.4104 -0.3623 -0.0955
 3170SOL    HW121146   1.956   2.762  17.722 -0.6300 -0.9251  0.4425
 3170SOL    HW221147   1.853   2.672  17.654 -0.7353  0.8529  0.7200
 3171SOL     OW21148   0.535   1.757  12.653  0.2692  0.0825  0.2126
 3171SOL    HW121149   0.516   1.849  12.637 -1.3141 -0.3572 -0.4679
 3171SOL    HW221150   0.606   1.753  12.717  1.5609  2.5576 -1.0835
 3172SOL     OW21151   0.106   4.201   8.584  0.7141 -0.5146  0.1381
 3172SOL    HW121152   0.169   4.137   8.551  0.4213 -0.5955 -0.2661
 3172SOL    HW221153   0.042   4.140   8.620 -1.9053  1.6078 -0.8695
 3173SOL     OW21154   2.032   4.060  15.674  0.2786 -0.1159  0.3717
 3173SOL    HW121155   2.065   4.055  15.584  0.2539 -2.4745  0.5121
 3173SOL    HW221156   2.095   4.012  15.727 -0.7684 -1.1169  0.7014
 3174SOL     OW21157   1.033   4.431   3.470 -0.0908 -0.1458 -0.2069
 3174SOL    HW121158   1.059   4.366   3.405  2.2428  0.0142  0.5854
 3174SOL    HW221159   1.024   4.503   3.408 -2.6574 -0.3600 -0.0902
 3175SOL     OW21160   3.940   1.666   4.840  0.1215 -0.2354  0.0841
 3175SOL    HW121161   3.889   1.737   4.881  0.4082 -0.0459  0.1140
 3175SOL    HW221162   3.990   1.705   4.769  1.4537  0.2548  1.3005
 3176SOL     OW21163   2.725   0.632   7.687 -0.1391 -0.6742 -0.1122
 3176SOL    HW121164   2.770   0.571   7.629  1.0537  3.1121 -3.1943
 3176SOL    HW221165   2.786   0.705   7.695 -0.9679 -0.2639  2.7444
 3177SOL     OW21166   4.523   4.010   4.465 -0.0951 -0.2503 -0.0183
 3177SOL    HW121167   4.460   4.002   4.537  1.0699 -2.1112  0.7976
 3177SOL    HW221168   4.605   4.033   4.510 -1.2934  3.1780  0.4531
 3178SOL     OW21169   1.926   0.761   9.597 -0.2164 -0.2359 -0.3007
 3178SOL    HW121170   1.952   0.839   9.547 -2.7523 -1.4383 -3.4791
 3178SOL    HW221171   1.831   0.760   9.603 -0.2030  0.1337 -0.0081
 3179SOL     OW21172   1.435   3.268   0.110  0.4481 -0.5839  0.6620
 3179SOL    HW121173   1.459   3.199   0.049  0.9452 -0.7415  1.0294
 3179SOL    HW221174   1.405   3.336   0.050 -0.5910 -0.0046  1.8457
 3180SOL     OW21175   3.189   3.584   2.428  0.0610  0.2248 -0.2537
 3180SOL    HW121176   3.203   3.531   2.349  0.6897 -0.8054  0.5500
 3180SOL    HW221177   3.261   3.645   2.410 -0.7288  1.0814 -0.4789
 3181SOL     OW21178   3.220   1.106   1.738 -0.0160 -0.3741  0.4006
 3181SOL    HW121179   3.309   1.088   1.707 -0.2560  1.1555 -1.1933
 3181SOL    HW221180   3.193   1.178   1.680  0.1279 -1.4484 -1.0231
 3182SOL     OW21181   3.703   3.975   9.407 -0.0535 -0.1899  0.0551
 3182SOL    HW121182   3.755   3.952   9.330 -0.9591 -0.5705 -0.4418
 3182SOL    HW221183   3.630   4.012   9.358  0.9590 -1.0890 -2.1504
 3183SOL     OW21184   4.534   1.044   7.655  0.0648  0.6353 -0.0064
 3183SOL    HW121185   4.583   1.125   7.673 -1.9951  1.8063  0.3539
 3183SOL    HW221186   4.527   1.048   7.560  1.7289  0.3638 -0.1511
 3184SOL     OW21187   1.946   0.297   3.952 -0.1867  0.0281 -0.0384
 3184SOL    HW121188   1.865   0.258   3.919  1.1878 -1.8287 -1.2435
 3184SOL    HW221189   1.994   0.221   3.986  0.9163  0.5735 -0.3691
 3185SOL     OW21190   4.663   2.823   8.669  0.4161  0.8442 -0.1436
 3185SOL    HW121191   4.689   2.914   8.686  0.6058  0.7523  0.0599
 3185SOL    HW221192   4.604   2.830   8.594 -1.1092 -2.9762  0.7114
 3186SOL     OW21193   1.219   0.544  16.325 -0.3469 -0.3724  0.8295
 3186SOL    HW121194   1.190   0.481  16.259  1.6086 -1.2365  0.7643
 3186SOL    HW221195   1.232   0.625  16.275  1.9451 -0.4064  1.3496
 3187SOL     OW21196   4.686   4.169   9.611  0.1828  0.0403 -0.1854
 3187SOL    HW121197   4.708   4.076   9.603  2.3812  0.5645 -0.3375
 3187SOL    HW221198   4.623   4.173   9.539 -0.2401  0.7955  0.2302
 3188SOL     OW21199   4.453   3.325   8.068 -0.4618 -0.5342  0.0695
 3188SOL    HW121200   4.401   3.291   8.141  0.1419  1.9222  1.6651
 3188SOL    HW221201   4.540   3.288   8.085  0.3765  0.7090 -1.5697
 3189SOL     OW21202   3.354   3.946  16.127 -0.1080 -0.0929  0.3177
 3189SOL    HW121203   3.264   3.923  16.151 -0.0037 -0.5985  0.2353
 3189SOL    HW221204   3.362   4.041  16.139  0.0761  0.0253 -0.8083
 3190SOL     OW21205   0.738   1.942  17.332  0.4317  0.5453  0.0702
 3190SOL    HW121206   0.801   2.014  17.330  0.2478  0.6572 -1.3165
 3190SOL    HW221207   0.776   1.872  17.386 -1.6746 -1.4565 -1.0436
 3191SOL     OW21208   1.270   4.610  17.185 -0.5017 -0.0268  0.0702
 3191SOL    HW121209   1.286   4.641  17.274  0.4039  0.7792 -0.3858
 3191SOL    HW221210   1.320   4.674  17.135 -2.2820  1.7671  0.5698
 3192SOL     OW21211   0.352   3.281   4.479  0.1892  0.8418  0.4575
 3192SOL    HW121212   0.265   3.256   4.511  0.7368  1.3164  2.3494
 3192SOL    HW221213   0.335   3.373   4.458 -2.5251  0.1792 -0.2856
 3193SOL     OW21214   2.466   4.087   8.323  0.0854 -0.2495  0.0714
 3193SOL    HW121215   2.482   4.043   8.240  1.8900  0.3735  0.0858
 3193SOL    HW221216   2.509   4.027   8.384  1.4414  0.9340  0.2891
 3194SOL     OW21217   0.761   2.746  11.781  0.2325 -0.1605 -0.0299
 3194SOL    HW121218   0.792   2.825  11.825 -0.6869  0.4778 -0.5147
 3194SOL    HW221219   0.695   2.788  11.725  1.2259  1.0596 -0.2739
 3195SOL     OW21220   3.716   0.370   2.875 -0.6435  0.1803  0.3826
 3195SOL    HW121221   3.672   0.441   2.828 -0.0746 -1.4625 -2.5818
 3195SOL    HW221222   3.678   0.389   2.961  0.4322  2.1245  0.4464
 3196SOL     OW21223   2.020   2.862  16.945  0.0709  0.7439 -0.3808
 3196SOL    HW121224   2.018   2.902  16.858 -1.5440 -0.2190 -0.7938
 3196SOL    HW221225   2.081   2.790  16.931 -0.7355  0.2598 -1.4916
 3197SOL     OW21226   4.380   0.395  13.645 -0.0006 -0.1788  0.6228
 3197SOL    HW121227   4.303   0.447  13.667 -0.6164 -1.7910  2.3115
 3197SOL    HW221228   4.448   0.461  13.634 -0.0322 -0.2978 -0.2771
 3198SOL     OW21229   4.183   3.816   7.397  0.4321 -0.2455  0.4041
 3198SOL    HW121230   4.128   3.748   7.357 -0.6129  1.2780 -0.7139
 3198SOL    HW221231   4.182   3.881   7.328  0.6109 -0.6868 -0.0145
 3199SOL     OW21232   3.663   4.360  14.778 -0.0297  0.0921 -0.1138
 3199SOL    HW121233   3.597   4.406  14.725 -1.0357  0.3043  1.3191
 3199SOL    HW221234   3.624   4.273  14.772  0.3025 -0.1068  0.7004
 3200SOL     OW21235   2.148   3.695  10.486  0.5509 -0.9460  0.5237
 3200SOL    HW121236   2.238   3.672  10.463  1.4266  1.3789  1.5585
 3200SOL    HW221237   2.164   3.786  10.510 -0.1439 -1.0910  1.5072
 3201SOL     OW21238   0.975   3.957   1.763 -0.0796  0.0608  0.0613
 3201SOL    HW121239   0.983   4.035   1.817  0.0976 -0.0712  0.2258
 3201SOL    HW221240   0.907   3.992   1.705  1.2120  0.0557 -1.4668
 3202SOL     OW21241   1.950   3.824   5.719 -0.0278 -0.2253 -0.6665
 3202SOL    HW121242   1.942   3.870   5.802  1.3266  2.0986 -1.8270
 3202SOL    HW221243   1.941   3.731   5.739 -1.0018  0.0250  0.0783
 3203SOL     OW21244   2.428   1.336  10.134 -0.2555  0.3953  0.4603
 3203SOL    HW121245   2.339   1.364  10.153 -0.5214 -0.8569  1.0715
 3203SOL    HW221246   2.482   1.407  10.170 -1.1562  1.9878 -1.3271
 3204SOL     OW21247   4.275   3.725   5.606  0.1769 -0.2260 -0.2900
 3204SOL    HW121248   4.277   3.655   5.540  1.7972 -1.0420  0.6301
 3204SOL    HW221249   4.227   3.783   5.547  0.1593  0.5101  0.4483
 3205SOL     OW21250   1.824   0.981  11.073 -0.2274  1.1928 -0.1559
 3205SOL    HW121251   1.785   1.000  11.159 -0.6759  1.7268 -0.4747
 3205SOL    HW221252   1.907   0.962  11.116 -0.1223  0.1936 -0.8123
 3206SOL     OW21253   4.102   3.108   8.043  0.5867  0.6047 -0.4539
 3206SOL    HW121254   4.164   3.169   8.083 -0.8560  1.4122  0.5259
 3206SOL    HW221255   4.100   3.141   7.953  1.8231  2.6864  0.2936
 3207SOL     OW21256   2.624   2.805   7.887 -0.3139 -0.2432  0.1157
 3207SOL    HW121257   2.603   2.826   7.978 -2.0703  1.7229 -0.7493
 3207SOL    HW221258   2.704   2.759   7.912 -1.8516 -1.2489  3.1592
 3208SOL     OW21259   1.898   4.599  13.104 -0.0672 -0.3008  0.0462
 3208SOL    HW121260   1.924   4.513  13.136  0.9427  0.1245  0.3634
 3208SOL    HW221261   1.957   4.661  13.147 -1.5665  0.3055  1.2000
 3209SOL     OW21262   3.793   0.399   8.282  0.5862  0.3577  0.1309
 3209SOL    HW121263   3.860   0.346   8.238  0.5425 -1.3329  2.1128
 3209SOL    HW221264   3.734   0.329   8.309  1.9419 -0.5424  0.7968
 3210SOL     OW21265   3.315   2.921   3.230  0.2604  0.3029 -0.2678
 3210SOL    HW121266   3.399   2.890   3.195  0.1704 -2.9855  2.5299
 3210SOL    HW221267   3.293   3.010   3.201 -0.2906  0.2310 -0.0615
 3211SOL     OW21268   0.246   2.429   6.199  0.1834 -0.4706 -0.2449
 3211SOL    HW121269   0.302   2.375   6.255 -0.0556  2.5929  2.9284
 3211SOL    HW221270   0.178   2.363   6.184 -0.7670  0.1111  1.5091
 3212SOL     OW21271   3.162   0.541   6.968  0.2505  0.1813  0.5633
 3212SOL    HW121272   3.159   0.520   7.061 -1.1926  1.3505  0.7690
 3212SOL    HW221273   3.219   0.618   6.961  1.6972 -0.5356  4.3508
 3213SOL     OW21274   3.464   0.653   5.742  0.3747 -0.0651 -0.9012
 3213SOL    HW121275   3.485   0.708   5.818 -1.7936  0.4216 -0.6658
 3213SOL    HW221276   3.531   0.585   5.747  1.5244  1.2032  1.0145
 3214SOL     OW21277   0.379   4.565   6.500 -0.2723 -0.3290  0.3526
 3214SOL    HW121278   0.394   4.471   6.514  1.3776  0.2481  2.3705
 3214SOL    HW221279   0.469   4.589   6.478 -0.7993  2.5407  1.3894
 3215SOL     OW21280   4.276   0.806   4.919  0.4534 -0.1458  0.1822
 3215SOL    HW121281   4.278   0.840   4.830  0.3176  2.4955  1.1916
 3215SOL    HW221282   4.211   0.736   4.911 -0.7519  1.3031 -2.5573
 3216SOL     OW21283   2.761   0.087   3.807 -0.0050 -0.2490  0.1172
 3216SOL    HW121284   2.800   0.030   3.873 -1.9423  0.1646  1.6384
 3216SOL    HW221285   2.828   0.153   3.791 -0.8371  0.6719  0.4280
 3217SOL     OW21286   4.009   2.293   8.004 -0.1595  0.6976 -0.3581
 3217SOL    HW121287   4.053   2.344   7.937  1.0069  1.1697  0.7756
 3217SOL    HW221288   3.923   2.334   8.009 -0.9982 -1.3907  2.6778
 3218SOL     OW21289   2.640   3.948   5.494 -0.3498 -0.4754 -0.4420
 3218SOL    HW121290   2.573   3.881   5.508 -1.3078  0.5822  0.0374
 3218SOL    HW221291   2.722   3.899   5.502  0.5579  1.0367 -0.4278
 3219SOL     OW21292   4.095   3.337   8.708  0.1378 -0.1181 -0.1415
 3219SOL    HW121293   4.076   3.247   8.736 -0.7620  0.8670  2.3514
 3219SOL    HW221294   4.081   3.392   8.784  0.8967 -0.2279  0.0768
 3220SOL     OW21295   2.599   0.938  17.314 -0.2862 -0.3755  0.3487
 3220SOL    HW121296   2.569   1.008  17.256  0.5456  0.5703  1.0763
 3220SOL    HW221297   2.616   0.985  17.395  1.3680  1.9290 -1.3477
 3221SOL     OW21298   2.511   4.093  17.440  0.6946  0.3514 -0.5718
 3221SOL    HW121299   2.441   4.049  17.489 -0.1380  1.2397 -0.9789
 3221SOL    HW221300   2.459   4.128  17.368  1.7053 -0.2971 -1.6236
 3222SOL     OW21301   3.727   2.207   1.456 -0.6188 -0.1622  1.1554
 3222SOL    HW121302   3.729   2.112   1.451  2.5347 -0.2019  3.6084
 3222SOL    HW221303   3.821   2.223   1.459 -0.7383  0.9581 -1.7794
 3223SOL     OW21304   1.334   0.545   6.313 -0.2569  0.3169  0.3177
 3223SOL    HW121305   1.389   0.481   6.270 -0.7223  1.1381 -1.5079
 3223SOL    HW221306   1.291   0.503   6.388 -1.7244  1.9861  0.4283
 3224SOL     OW21307   1.609   0.642  16.031 -0.2403  0.7521 -0.2796
 3224SOL    HW121308   1.528   0.626  15.982  0.7668  0.0065 -1.6864
 3224SOL    HW221309   1.578   0.608  16.115 -1.8087 -0.8392 -1.5118
 3225SOL     OW21310   1.267   0.005   1.546 -0.0002 -0.2164 -0.2507
 3225SOL    HW121311   1.363   0.007   1.546  0.0005 -0.2375 -0.2300
 3225SOL    HW221312   1.245   0.059   1.470 -0.4835 -0.7666 -0.4988
 3226SOL     OW21313   1.219   1.963  11.547 -0.0276  0.1155 -0.0345
 3226SOL    HW121314   1.293   1.921  11.591  0.6407  0.0392 -1.2061
 3226SOL    HW221315   1.252   1.981  11.459 -0.3946 -0.7230 -0.3440
 3227SOL     OW21316   1.811   2.608   4.597 -0.3732  0.5617  0.1687
 3227SOL    HW121317   1.859   2.618   4.515 -0.2632 -0.0356  0.1578
 3227SOL    HW221318   1.745   2.543   4.576 -2.4277  2.4262  0.8463
 3228SOL     OW21319   1.466   3.243  14.854 -0.0937  0.5366 -0.7069
 3228SOL    HW121320   1.523   3.267  14.782 -0.9021 -0.0562 -1.5453
 3228SOL    HW221321   1.522   3.182  14.902  0.0724  2.4474  1.5583
 3229SOL     OW21322   0.524   1.683   7.914  0.4703 -0.3548  0.1709
 3229SOL    HW121323   0.495   1.593   7.928 -0.2867 -0.1242  0.0382
 3229SOL    HW221324   0.480   1.718   7.992 -0.2691 -0.4281 -0.2229
 3230SOL     OW21325   3.256   4.206   3.312  0.0555  0.4796 -0.5151
 3230SOL    HW121326   3.169   4.166   3.313  0.2621  0.0144 -1.5432
 3230SOL    HW221327   3.287   4.175   3.227  0.3642 -2.1395  0.5636
 3231SOL     OW21328   1.572   2.850   1.860  0.1562 -0.3705 -0.8508
 3231SOL    HW121329   1.531   2.783   1.806  1.1863 -0.5438 -1.4365
 3231SOL    HW221330   1.498   2.904   1.888  1.9171  1.9200 -0.5208
 3232SOL     OW21331   2.660   1.398   3.525 -0.3451 -0.4655  0.5237
 3232SOL    HW121332   2.746   1.377   3.490 -1.3015 -0.7879 -1.6416
 3232SOL    HW221333   2.609   1.354   3.457 -0.6886 -0.9459  1.0946
 3233SOL     OW21334   0.809   2.333   8.038  0.0144  0.2791  0.0879
 3233SOL    HW121335   0.853   2.375   8.113 -0.5108 -0.8372  1.0187
 3233SOL    HW221336   0.815   2.240   8.062  0.7868  0.1554 -0.6068
 3234SOL     OW21337   2.610   3.926   0.505  0.4380 -0.0482  0.7745
 3234SOL    HW121338   2.697   3.942   0.470 -0.1494  1.1883 -0.1436
 3234SOL    HW221339   2.561   4.004   0.476 -1.9318 -1.1821  1.6927
 3235SOL     OW21340   3.970   0.167   2.129 -0.7089  0.1439 -0.0001
 3235SOL    HW121341   3.978   0.194   2.037  0.4864 -0.4929 -0.1005
 3235SOL    HW221342   3.932   0.080   2.115  0.4818 -0.5464  0.9588
 3236SOL     OW21343   0.122   4.352   2.538  0.3152 -0.1426 -0.1164
 3236SOL    HW121344   0.173   4.320   2.612 -0.5481 -0.3969  0.3702
 3236SOL    HW221345   0.126   4.280   2.475  0.7658 -1.5501  1.5155
 3237SOL     OW21346   0.306   1.436   4.813 -0.2805 -0.6366 -0.0393
 3237SOL    HW121347   0.242   1.497   4.775 -0.9484 -1.2582  0.0764
 3237SOL    HW221348   0.277   1.421   4.903 -2.8121 -0.6062 -0.8391
 3238SOL     OW21349   1.022   1.626   6.773  0.2364  0.6961 -0.8910
 3238SOL    HW121350   1.095   1.563   6.764 -0.4645  0.0992 -2.4999
 3238SOL    HW221351   1.008   1.623   6.867  0.3565  1.2545 -0.8554
 3239SOL     OW21352   3.093   3.990   5.413  0.2148  0.2396 -0.0200
 3239SOL    HW121353   3.056   3.975   5.326  2.4231  1.3449 -1.1360
 3239SOL    HW221354   3.067   4.079   5.435  0.6674  0.5066 -0.5786
 3240SOL     OW21355   3.595   2.865   3.151 -0.1514 -0.6126  0.0018
 3240SOL    HW121356   3.624   2.837   3.064  0.0546  2.7289 -1.0398
 3240SOL    HW221357   3.677   2.857   3.200 -0.7689 -0.7088  1.0275
 3241SOL     OW21358   1.738   1.809   7.018  0.4019 -0.1590  0.1540
 3241SOL    HW121359   1.656   1.858   7.017  1.3816  1.4684  1.0267
 3241SOL    HW221360   1.785   1.888   7.043  0.1266 -0.6888  2.3123
 3242SOL     OW21361   2.048   0.847   6.901 -0.4481 -0.6409  0.2247
 3242SOL    HW121362   2.139   0.817   6.907 -0.0755  0.8379  2.1510
 3242SOL    HW221363   2.024   0.822   6.812 -2.2839  1.6711  0.0647
 3243SOL     OW21364   2.351   3.780  16.543 -0.5791  0.7033  0.6967
 3243SOL    HW121365   2.285   3.805  16.479  0.7903  0.8758 -0.6351
 3243SOL    HW221366   2.309   3.707  16.587 -0.3236  0.1654  0.0517
 3244SOL     OW21367   4.485   1.475  10.058  0.5766 -0.2885 -0.3787
 3244SOL    HW121368   4.557   1.450  10.001  2.4881 -0.5789  2.1414
 3244SOL    HW221369   4.473   1.568  10.040  1.9371 -0.4016 -1.7993
 3245SOL     OW21370   0.096   2.085   2.060  0.0118  0.5246  0.2277
 3245SOL    HW121371   0.169   2.035   2.097  0.1697  2.3842  2.4227
 3245SOL    HW221372   0.137   2.164   2.025 -0.0512 -0.0666 -1.1731
 3246SOL     OW21373   3.067   3.948  16.213  0.2611  0.3454 -0.0764
 3246SOL    HW121374   3.047   3.961  16.306  0.4141 -2.2354  0.3128
 3246SOL    HW221375   3.055   4.039  16.183  1.2767  0.0408 -1.3878
 3247SOL     OW21376   1.574   2.218   1.687 -0.0552  0.3044 -0.1882
 3247SOL    HW121377   1.613   2.158   1.623 -0.7819  0.0749 -0.4162
 3247SOL    HW221378   1.543   2.160   1.756 -1.2467  1.0433 -0.0834
 3248SOL     OW21379   2.054   1.162   6.646 -0.6626  0.8699  0.0518
 3248SOL    HW121380   2.022   1.249   6.623 -1.3263  0.1478 -1.7570
 3248SOL    HW221381   2.143   1.175   6.678 -0.0338  1.0906 -1.7518
 3249SOL     OW21382   1.829   0.553  15.924 -0.0747 -0.8360  0.0640
 3249SOL    HW121383   1.785   0.500  15.858 -0.5412  0.1117 -0.3705
 3249SOL    HW221384   1.749   0.585  15.966 -0.1404 -1.1579  0.1820
 3250SOL     OW21385   1.675   3.738  10.876 -0.2521  0.1375 -0.7831
 3250SOL    HW121386   1.611   3.778  10.935  1.4502  1.1017  0.3805
 3250SOL    HW221387   1.747   3.790  10.911 -0.9079 -0.2573  1.1207
 3251SOL     OW21388   2.162   2.111   7.628 -0.3585  1.1245 -0.0577
 3251SOL    HW121389   2.123   2.180   7.575 -2.0178  1.0053  1.0008
 3251SOL    HW221390   2.252   2.141   7.633 -0.4420  1.3674 -0.0257
 3252SOL     OW21391   2.870   2.493   4.480 -0.1713  0.1262 -0.1908
 3252SOL    HW121392   2.957   2.476   4.444 -0.8122  3.5703 -3.3741
 3252SOL    HW221393   2.881   2.588   4.488 -1.4272  0.4160 -2.0035
 3253SOL     OW21394   2.355   2.214   2.867  0.0524 -0.1057 -0.0982
 3253SOL    HW121395   2.418   2.187   2.801  1.1155  0.7748  0.5518
 3253SOL    HW221396   2.294   2.269   2.817  3.3515  4.0483  0.4837
 3254SOL     OW21397   4.077   3.952  17.539 -0.1235  0.1193  0.0782
 3254SOL    HW121398   3.998   4.003  17.523 -0.5133 -0.4688  0.1295
 3254SOL    HW221399   4.107   3.991  17.621 -2.5085 -0.3867  1.1705
 3255SOL     OW21400   1.394   4.190  11.530  0.1541 -0.7376 -0.0227
 3255SOL    HW121401   1.387   4.155  11.441  1.2150  1.8390 -1.1063
 3255SOL    HW221402   1.324   4.254  11.532  1.3732  0.6085 -0.4986
 3256SOL     OW21403   0.514   2.664   9.150 -0.1869  0.3165 -0.3755
 3256SOL    HW121404   0.566   2.619   9.216  0.5716  0.9987 -0.5123
 3256SOL    HW221405   0.426   2.637   9.176  0.9301  0.3840  3.5095
 3257SOL     OW21406   1.024   1.542  10.360  0.7190 -0.1522 -0.5631
 3257SOL    HW121407   1.089   1.569  10.425  1.1351 -1.7182 -0.3329
 3257SOL    HW221408   1.068   1.476  10.307  0.7338 -0.1180 -0.5935
 3258SOL     OW21409   0.807   2.982   3.563  0.0815 -0.4978 -0.5245
 3258SOL    HW121410   0.813   2.941   3.649  0.4453 -1.7741 -1.1570
 3258SOL    HW221411   0.715   3.008   3.556  0.5630  1.6056  0.8810
 3259SOL     OW21412   2.359   3.010   1.411 -0.7066 -0.0785 -0.2542
 3259SOL    HW121413   2.424   3.079   1.419 -1.1565  0.2730  0.4041
 3259SOL    HW221414   2.280   3.050   1.374  0.6600  0.6439 -2.3310
 3260SOL     OW21415   1.800   0.820   6.463 -0.3329  0.0968 -0.2683
 3260SOL    HW121416   1.741   0.891   6.439 -0.9246 -0.3264 -0.0741
 3260SOL    HW221417   1.779   0.743   6.411 -0.9746  0.0948  0.0001
 3261SOL     OW21418   0.999   4.625  10.193 -0.0485  0.0954  0.3231
 3261SOL    HW121419   0.993   4.637  10.288 -0.7592 -0.4502  0.3457
 3261SOL    HW221420   0.996   4.530  10.178  1.3269  0.0065  0.5878
 3262SOL     OW21421   1.343   0.862  11.614 -0.2689  0.1574  0.1415
 3262SOL    HW121422   1.340   0.957  11.623 -2.2255  0.1924 -0.8981
 3262SOL    HW221423   1.320   0.834  11.703 -0.3695 -0.8957 -0.2157
 3263SOL     OW21424   1.420   4.144   8.484  0.0837  0.1274  0.4164
 3263SOL    HW121425   1.472   4.148   8.564  0.2155 -0.4574  0.3624
 3263SOL    HW221426   1.357   4.075   8.503  1.7886 -1.6254 -0.2561
 3264SOL     OW21427   3.623   0.313   7.002 -0.4192 -0.1313 -0.0351
 3264SOL    HW121428   3.601   0.404   6.984  1.3458  0.5624  1.2828
 3264SOL    HW221429   3.543   0.261   7.011 -1.6028  1.7275 -0.0102
 3265SOL     OW21430   3.774   1.007  14.847 -0.0979 -0.5138  0.0661
 3265SOL    HW121431   3.782   0.983  14.755 -0.4911  0.1737 -0.1403
 3265SOL    HW221432   3.860   1.035  14.877 -1.8280  2.2191  2.5492
 3266SOL     OW21433   1.376   0.103  10.790  0.0126 -0.4464  0.1252
 3266SOL    HW121434   1.350   0.064  10.874  1.4885  1.5101  1.4815
 3266SOL    HW221435   1.300   0.103  10.731 -0.3824 -3.7569  0.6182
 3267SOL     OW21436   3.564   1.083  17.336 -0.1552  0.6358  0.2192
 3267SOL    HW121437   3.574   1.006  17.280 -1.9856  1.1061 -0.7814
 3267SOL    HW221438   3.646   1.131  17.327  0.6303 -0.3405  2.3636
 3268SOL     OW21439   0.807   0.584   7.450  0.4917 -0.2279 -0.3610
 3268SOL    HW121440   0.803   0.501   7.403  1.2016 -0.2928 -0.3083
 3268SOL    HW221441   0.902   0.599   7.453  0.1491  2.0393 -0.9003
 3269SOL     OW21442   3.613   0.941   3.262 -0.3270 -0.6823  0.4887
 3269SOL    HW121443   3.540   0.991   3.298 -1.3047 -0.6545 -1.5229
 3269SOL    HW221444   3.660   1.012   3.219 -1.8926 -0.3935 -0.7605
 3270SOL     OW21445   1.215   4.274   5.213  0.6746  0.0228  0.4982
 3270SOL    HW121446   1.308   4.278   5.234  0.9553  0.8599 -0.9077
 3270SOL    HW221447   1.182   4.191   5.248 -2.9679  2.0674  1.8344
 3271SOL     OW21448   1.097   3.744  12.994  0.0990  0.4585 -0.1584
 3271SOL    HW121449   1.174   3.776  13.041  0.3455 -1.5831  0.8406
 3271SOL    HW221450   1.033   3.769  13.060 -1.2813 -0.3110 -1.2054
 3272SOL     OW21451   3.291   2.227   3.704 -0.1302  0.9713 -0.0079
 3272SOL    HW121452   3.353   2.168   3.746 -1.6362 -1.4356 -1.1295
 3272SOL    HW221453   3.264   2.173   3.629  0.4155 -0.6855  0.9953
 3273SOL     OW21454   3.850   2.201   8.820  0.5674  0.4093 -0.3712
 3273SOL    HW121455   3.928   2.213   8.873  0.4852 -0.1560 -0.1280
 3273SOL    HW221456   3.870   2.253   8.742  0.3931 -0.7200 -1.1620
 3274SOL     OW21457   4.139   3.342   7.432 -0.0264  0.0547 -0.3282
 3274SOL    HW121458   4.180   3.386   7.506  1.2522  1.0310 -1.6071
 3274SOL    HW221459   4.047   3.331   7.456 -0.9554  1.4617 -3.1851
 3275SOL     OW21460   4.045   0.357  15.181  0.5915  0.2037  0.2177
 3275SOL    HW121461   3.962   0.376  15.137  0.3117  0.9242  1.0566
 3275SOL    HW221462   4.099   0.431  15.154 -0.3241  1.4336  1.8231
 3276SOL     OW21463   2.638   1.610   5.751 -0.2216  0.1696 -0.3825
 3276SOL    HW121464   2.704   1.597   5.819 -0.1718  0.6983 -0.3281
 3276SOL    HW221465   2.555   1.584   5.791 -0.6698  3.0314  0.5192
 3277SOL     OW21466   2.017   4.223   2.431 -0.4116  0.5810 -0.0882
 3277SOL    HW121467   1.958   4.246   2.502  0.8660 -0.2572  1.2406
 3277SOL    HW221468   1.984   4.137   2.408 -2.6746  1.2814  0.5478
 3278SOL     OW21469   0.249   2.509   5.658 -0.1362 -0.2883  0.0866
 3278SOL    HW121470   0.223   2.419   5.677  0.5016 -1.0274 -2.4923
 3278SOL    HW221471   0.269   2.541   5.745 -1.1347 -3.6282  1.5653
 3279SOL     OW21472   0.574   0.561  17.733  0.5332  0.3998  0.5625
 3279SOL    HW121473   0.532   0.503  17.669 -2.5190  1.9974  1.1205
 3279SOL    HW221474   0.520   0.639  17.730 -0.8505 -0.6855 -2.6655
 3280SOL     OW21475   0.260   0.942  13.222 -0.1650  0.2044  0.6682
 3280SOL    HW121476   0.216   0.999  13.286  0.5586 -0.9147  2.1707
 3280SOL    HW221477   0.231   0.854  13.247 -2.0375  0.7256  0.3208
 3281SOL     OW21478   3.446   2.335   1.396 -0.4894 -0.1540  0.4486
 3281SOL    HW121479   3.414   2.282   1.469  1.5162 -0.9345  0.7451
 3281SOL    HW221480   3.359   2.338   1.356  0.8070 -2.5198 -2.5528
 3282SOL     OW21481   0.882   4.586   7.656  0.1262 -0.2877  0.4828
 3282SOL    HW121482   0.975   4.574   7.639  0.0993 -0.1234  0.2231
 3282SOL    HW221483   0.867   4.567   7.749 -3.5101 -0.4064 -0.1270
 3283SOL     OW21484   4.229   4.673   6.795 -0.2874 -0.0906  0.1981
 3283SOL    HW121485   4.152   4.628   6.831 -0.9693 -0.4096 -1.6458
 3283SOL    HW221486   4.243   4.619   6.717 -4.7139  1.4807 -1.6598
 3284SOL     OW21487   3.114   0.308   8.020  0.4346 -0.1581 -0.1987
 3284SOL    HW121488   3.201   0.314   7.980  1.1633  2.0850  1.6886
 3284SOL    HW221489   3.088   0.400   8.020 -0.7078 -0.4724 -0.4549
 3285SOL     OW21490   1.364   1.740   4.211 -0.1014 -0.4222 -0.5876
 3285SOL    HW121491   1.295   1.796   4.246 -1.6074 -1.8831 -1.2138
 3285SOL    HW221492   1.372   1.673   4.279 -0.2319  1.5529  1.3582
 3286SOL     OW21493   0.488   1.099   3.377 -0.2535  0.2730 -0.0441
 3286SOL    HW121494   0.576   1.127   3.400 -0.5267  1.1309 -0.0310
 3286SOL    HW221495   0.444   1.184   3.369  1.1087  0.8848 -1.1318
 3287SOL     OW21496   1.989   3.727   7.857  0.2973 -0.0961 -0.1060
 3287SOL    HW121497   2.042   3.725   7.937 -2.1576  1.4444  1.5530
 3287SOL    HW221498   1.945   3.806   7.887  1.0393 -0.4746  1.9994
 3288SOL     OW21499   1.480   2.874   0.215 -0.0724 -0.5224  0.1316
 3288SOL    HW121500   1.506   2.910   0.130  1.5797 -1.5901  0.1708
 3288SOL    HW221501   1.448   2.785   0.197 -0.4826  0.3107 -3.1218
 3289SOL     OW21502   4.122   1.431   7.995 -0.7782  0.7441  0.3679
 3289SOL    HW121503   4.101   1.491   8.066  1.5178  1.2553  0.6006
 3289SOL    HW221504   4.054   1.452   7.931 -0.5962  2.4765  0.7558
 3290SOL     OW21505   3.667   0.092   3.766 -0.2422 -0.1889  0.1580
 3290SOL    HW121506   3.720   0.129   3.835 -1.0989  0.8114  0.2819
 3290SOL    HW221507   3.606   0.165   3.752 -0.8824 -0.6982  0.3037
 3291SOL     OW21508   1.947   1.185  10.914 -0.0104  0.2203  0.2336
 3291SOL    HW121509   1.878   1.251  10.917 -0.4242 -0.2788  2.0103
 3291SOL    HW221510   1.912   1.120  10.975  0.4964 -1.1068 -0.8903
 3292SOL     OW21511   0.125   2.380  10.896 -0.1480  0.6044 -0.5843
 3292SOL    HW121512   0.084   2.421  10.819 -2.0645 -0.5851 -0.1967
 3292SOL    HW221513   0.209   2.426  10.896 -0.3521  0.9856 -1.6857
 3293SOL     OW21514   0.367   4.128  16.129  0.2170  0.5673  0.1112
 3293SOL    HW121515   0.313   4.062  16.173 -2.2127  0.4743 -2.9827
 3293SOL    HW221516   0.311   4.202  16.153  1.0479  1.7776 -1.6399
 3294SOL     OW21517   0.165   4.589   3.096  0.4811 -0.1131 -0.0932
 3294SOL    HW121518   0.246   4.566   3.142  1.8402  1.4640 -1.6715
 3294SOL    HW221519   0.115   4.509   3.110 -3.7766  2.4698 -0.4627
 3295SOL     OW21520   2.145   0.945   4.297  0.5048 -0.1682  0.0413
 3295SOL    HW121521   2.111   0.929   4.385 -2.2025 -0.8268 -1.1308
 3295SOL    HW221522   2.117   0.862   4.257  2.3145  0.0068 -1.5896
 3296SOL     OW21523   1.598   2.354   3.493 -0.3768 -0.5423  0.0285
 3296SOL    HW121524   1.519   2.346   3.547  1.1826 -1.1767  2.2311
 3296SOL    HW221525   1.668   2.378   3.553 -0.0266 -1.1624 -0.1362
 3297SOL     OW21526   3.436   3.437  17.021 -0.0556 -0.2647 -0.3959
 3297SOL    HW121527   3.400   3.376  16.957  1.8422 -0.8426 -0.9035
 3297SOL    HW221528   3.505   3.478  16.967  0.6452  0.3433  0.9552
 3298SOL     OW21529   1.038   2.858   5.208 -0.5829  0.1785  0.2492
 3298SOL    HW121530   1.132   2.850   5.223 -0.8358 -1.5016  0.9774
 3298SOL    HW221531   1.011   2.928   5.267  0.6492  0.4537  0.4821
 3299SOL     OW21532   1.013   1.089   5.271  0.3862 -0.4827  0.0127
 3299SOL    HW121533   0.981   1.087   5.180  0.4161 -1.9558  0.0356
 3299SOL    HW221534   0.955   1.025   5.312  1.4027 -1.4841 -0.1350
 3300SOL     OW21535   3.232   2.608   5.481  0.7424 -0.2211 -0.5185
 3300SOL    HW121536   3.245   2.533   5.422 -0.6973 -1.3928  0.6641
 3300SOL    HW221537   3.314   2.656   5.467  1.0487 -0.0808  1.7182
 3301SOL     OW21538   3.579   1.209   2.612  0.3383 -0.3056 -0.2946
 3301SOL    HW121539   3.635   1.185   2.685 -0.4465 -0.6138  0.2016
 3301SOL    HW221540   3.580   1.305   2.618 -0.1084 -0.3042 -0.2187
 3302SOL     OW21541   3.270   0.592  11.779 -0.1677 -0.7075  0.5173
 3302SOL    HW121542   3.224   0.655  11.723 -1.0108 -1.6650  0.1457
 3302SOL    HW221543   3.253   0.620  11.869 -1.5621 -0.6009  0.2214
 3303SOL     OW21544   4.496   3.886   2.454  0.2125  0.5925 -0.0399
 3303SOL    HW121545   4.445   3.900   2.375 -1.1773  0.9723  0.9202
 3303SOL    HW221546   4.587   3.898   2.427 -0.1275  1.7708 -0.6546
 3304SOL     OW21547   2.270   4.460   7.620 -0.3822  0.3048  0.8589
 3304SOL    HW121548   2.288   4.424   7.533  2.0068  2.4942  0.4505
 3304SOL    HW221549   2.178   4.439   7.635  0.2348 -0.3151  3.7989
 3305SOL     OW21550   3.295   2.146  11.140  0.1665  0.1169 -0.1143
 3305SOL    HW121551   3.357   2.073  11.141 -3.1088 -2.6339 -0.3863
 3305SOL    HW221552   3.237   2.138  11.215  0.8950 -1.1507  0.3144
 3306SOL     OW21553   0.112   2.775   2.632 -0.2522  0.2570  0.1520
 3306SOL    HW121554   0.130   2.844   2.568  0.1567  0.8806  0.9284
 3306SOL    HW221555   0.158   2.806   2.710 -0.1248  0.2965  0.0625
 3307SOL     OW21556   1.067   3.598   5.906 -0.5108  0.1497 -0.3970
 3307SOL    HW121557   0.979   3.564   5.921 -0.9938  1.7223  0.4608
 3307SOL    HW221558   1.073   3.652   5.986  1.8044  0.1511 -0.5770
 3308SOL     OW21559   4.172   3.960   5.310 -0.1832  0.2746 -0.6103
 3308SOL    HW121560   4.262   3.933   5.291  0.4528  2.1071 -0.1940
 3308SOL    HW221561   4.155   4.002   5.226 -0.1234  1.3001 -0.1016
 3309SOL     OW21562   4.522   2.550   7.697 -0.6391  0.2685  0.6297
 3309SOL    HW121563   4.603   2.601   7.689 -0.7218  0.1025 -1.1994
 3309SOL    HW221564   4.478   2.550   7.612  2.1659  0.2448 -0.8109
 3310SOL     OW21565   2.982   0.381   1.936  0.3743 -1.0371 -0.0712
 3310SOL    HW121566   2.903   0.427   1.964  0.6461 -0.2388 -0.6019
 3310SOL    HW221567   3.014   0.335   2.014  2.9554 -2.0601 -1.7282
 3311SOL     OW21568   1.396   4.367  16.041  0.6511 -0.0243  0.3155
 3311SOL    HW121569   1.448   4.314  16.102  1.1457 -0.5842 -0.5869
 3311SOL    HW221570   1.454   4.425  15.992  3.1420 -0.4479  2.7993
 3312SOL     OW21571   2.605   1.409   0.178 -0.0261  0.0029 -0.0407
 3312SOL    HW121572   2.604   1.331   0.233 -0.9380 -0.9133 -1.3542
 3312SOL    HW221573   2.662   1.467   0.227  0.2201 -0.3906  0.1442
 3313SOL     OW21574   0.474   4.077   4.309  0.3348 -0.5761 -0.2354
 3313SOL    HW121575   0.424   3.995   4.311  0.3787 -0.6300 -1.0222
 3313SOL    HW221576   0.406   4.143   4.323 -1.2882 -1.9655 -1.4786
 3314SOL     OW21577   4.418   4.191   3.510  0.3010 -0.1898  0.3896
 3314SOL    HW121578   4.470   4.248   3.568 -1.1201  0.2869  1.1778
 3314SOL    HW221579   4.485   4.124   3.494  2.0950  1.4017  1.1261
 3315SOL     OW21580   3.454   3.072   6.828 -0.2671  0.2583  0.1519
 3315SOL    HW121581   3.418   3.125   6.898 -0.9484 -0.1886  0.1351
 3315SOL    HW221582   3.512   3.014   6.877 -0.6267  1.0080  1.4316
 3316SOL     OW21583   2.666   4.630   7.323 -0.0313  0.1147  0.1462
 3316SOL    HW121584   2.584   4.680   7.331  1.3318  2.2070  0.8665
 3316SOL    HW221585   2.667   4.592   7.410  2.6078 -0.5969 -0.1893
 3317SOL     OW21586   4.531   3.497   2.557  0.0184  0.6347  0.9634
 3317SOL    HW121587   4.452   3.551   2.551 -0.3802  0.0034  0.4529
 3317SOL    HW221588   4.510   3.449   2.476 -0.8693  0.7593  1.1191
 3318SOL     OW21589   0.712   3.084  17.363  0.0688  0.0266  0.0630
 3318SOL    HW121590   0.625   3.125  17.358 -0.1661 -0.3015  1.3522
 3318SOL    HW221591   0.733   3.099  17.271  1.8262 -0.1260  0.4543
 3319SOL     OW21592   0.141   1.121   6.605 -0.5118  0.0071 -0.1930
 3319SOL    HW121593   0.220   1.160   6.641  0.2784 -0.7677 -1.1088
 3319SOL    HW221594   0.157   1.027   6.598  0.3664  0.0758  0.9814
 3320SOL     OW21595   1.950   4.339   5.529 -0.0869  0.3948 -0.0804
 3320SOL    HW121596   1.887   4.293   5.585  0.1575 -1.1753 -1.0964
 3320SOL    HW221597   2.026   4.325   5.586 -0.9192 -0.6890  0.7850
 3321SOL     OW21598   0.874   4.373   2.606 -0.4621  0.0215 -0.0109
 3321SOL    HW121599   0.852   4.463   2.580  0.1034  0.3602  0.6890
 3321SOL    HW221600   0.950   4.397   2.659 -0.2191 -2.1175  0.6232
 3322SOL     OW21601   0.577   2.147   9.088 -0.1141 -0.4892 -0.0473
 3322SOL    HW121602   0.541   2.207   9.023  2.0687  1.7133  0.7754
 3322SOL    HW221603   0.574   2.062   9.043  1.0919 -0.0992 -0.8424
 3323SOL     OW21604   1.819   2.216  16.001  0.2090 -0.2873 -0.0100
 3323SOL    HW121605   1.870   2.143  15.967 -1.9547 -1.5924 -0.4290
 3323SOL    HW221606   1.880   2.289  15.989  0.2326 -0.1605  0.9368
 3324SOL     OW21607   2.717   4.268   2.196  0.1229  0.4364  0.5622
 3324SOL    HW121608   2.637   4.319   2.193 -0.8175 -1.1932 -1.7366
 3324SOL    HW221609   2.686   4.179   2.211 -1.3009  0.7964 -0.3477
 3325SOL     OW21610   4.640   3.686   4.631  0.0217 -0.1543 -0.2528
 3325SOL    HW121611   4.553   3.694   4.670 -0.4265 -0.2040 -1.2479
 3325SOL    HW221612   4.652   3.591   4.635 -0.4302 -0.2197 -0.4320
 3326SOL     OW21613   2.991   0.680   2.808 -0.1102  0.3073 -0.1485
 3326SOL    HW121614   3.028   0.739   2.743 -0.1484  0.0292 -0.4226
 3326SOL    HW221615   2.970   0.605   2.752  1.2637 -0.8616  0.9008
 3327SOL     OW21616   0.791   2.746   8.323  0.3704  0.3268 -0.4332
 3327SOL    HW121617   0.831   2.832   8.331 -0.8465  0.5992  2.7301
 3327SOL    HW221618   0.702   2.776   8.304 -0.1707 -1.4066 -0.7106
 3328SOL     OW21619   3.606   2.832  12.748 -0.7056 -0.3317 -0.3090
 3328SOL    HW121620   3.596   2.749  12.796  1.9941  0.8404  2.2697
 3328SOL    HW221621   3.682   2.869  12.792 -1.6011  1.0932  0.0658
 3329SOL     OW21622   2.940   2.138   2.692 -0.4053 -0.8781  0.0797
 3329SOL    HW121623   3.006   2.070   2.704  0.6464  0.4058  1.4696
 3329SOL    HW221624   2.987   2.216   2.720 -1.0591  0.0836 -1.4830
 3330SOL     OW21625   3.277   4.692   4.522  0.3187  0.2090 -0.0822
 3330SOL    HW121626   3.225   4.676   4.600  0.5116 -0.7482 -0.1534
 3330SOL    HW221627   3.234   4.637   4.457 -0.1668  1.2648 -0.6641
 3331SOL     OW21628   0.399   4.289   2.579 -0.0231  0.8654  0.4086
 3331SOL    HW121629   0.451   4.303   2.658 -1.2513  1.1712  1.1615
 3331SOL    HW221630   0.421   4.367   2.528 -0.2969 -1.3282 -3.0473
 3332SOL     OW21631   0.779   0.906   9.423  0.2087 -0.0075  0.1973
 3332SOL    HW121632   0.770   0.997   9.394  2.1400 -0.4446 -1.7708
 3332SOL    HW221633   0.872   0.894   9.438  0.7109  2.2102 -1.2069
 3333SOL     OW21634   0.937   3.785  11.147  0.3417 -0.3846  0.0585
 3333SOL    HW121635   0.904   3.699  11.172 -3.2061  0.6864 -0.9254
 3333SOL    HW221636   0.896   3.837  11.216 -1.3353 -0.1402 -1.1436
 3334SOL     OW21637   3.712   1.545   4.462  0.8100 -0.1409  0.5477
 3334SOL    HW121638   3.694   1.604   4.535 -0.5287  1.3556 -0.9734
 3334SOL    HW221639   3.807   1.531   4.464  0.7259 -0.7952 -0.1732
 3335SOL     OW21640   4.592   3.060   7.713 -0.1701 -0.5121 -0.8954
 3335SOL    HW121641   4.630   2.997   7.774 -3.1959  0.9039  2.4418
 3335SOL    HW221642   4.547   3.120   7.773 -1.6062 -0.7746 -1.7169
 3336SOL     OW21643   0.002   0.087   2.457 -0.1682  0.1693  0.3326
 3336SOL    HW121644   0.077   0.029   2.469 -1.8254 -2.5643 -2.5446
 3336SOL    HW221645   4.665   0.029   2.449 -0.2092  0.0875  1.3425
 3337SOL     OW21646   1.177   4.721   2.877  0.2553 -0.2728  0.2131
 3337SOL    HW121647   1.178   0.007   2.785  0.1364 -0.5310  0.1444
 3337SOL    HW221648   1.158   0.066   2.920 -1.5973 -0.4333 -0.2736
 3338SOL     OW21649   4.624   0.976  15.226 -0.0103  0.0227  0.6615
 3338SOL    HW121650   4.619   1.065  15.262 -2.2949  0.1217  0.1151
 3338SOL    HW221651   4.707   0.964  15.181 -1.3129 -2.6337 -1.0536
 3339SOL     OW21652   4.552   4.415   1.604  0.8695  0.0010 -0.3440
 3339SOL    HW121653   4.543   4.414   1.699  0.8785 -3.3358 -0.3630
 3339SOL    HW221654   4.640   4.450   1.596  0.5207  1.4698  2.1601
 3340SOL     OW21655   1.603   1.664   7.258  0.1964 -0.3274  0.2071
 3340SOL    HW121656   1.691   1.628   7.272  1.2219  1.8993 -0.4612
 3340SOL    HW221657   1.600   1.737   7.319  2.4886 -0.3269  0.3344
 3341SOL     OW21658   3.782   0.530  17.234 -0.3796  0.7288 -0.2906
 3341SOL    HW121659   3.811   0.440  17.253  1.8316  1.7751  1.3807
 3341SOL    HW221660   3.700   0.542  17.282  0.8436 -0.7862  2.1986
 3342SOL     OW21661   2.734   2.254   8.773 -0.1822  0.1879 -0.2204
 3342SOL    HW121662   2.805   2.203   8.812  0.9550  0.2155 -2.2665
 3342SOL    HW221663   2.729   2.195   8.698  2.4352  0.6477 -0.7430
 3343SOL     OW21664   2.272   3.783   6.488 -0.6639  0.0254 -0.4189
 3343SOL    HW121665   2.358   3.824   6.484  1.4564 -4.2692  0.5718
 3343SOL    HW221666   2.221   3.854   6.449  2.3432  0.9016 -2.7363
 3344SOL     OW21667   3.057   2.583   2.649 -0.2635  0.5664  0.3697
 3344SOL    HW121668   3.022   2.525   2.581  1.6826 -0.4301  0.2128
 3344SOL    HW221669   2.973   2.621   2.673 -1.0525 -0.2516 -1.0566
 3345SOL     OW21670   4.263   0.831  17.480  0.1983  0.1805 -0.4987
 3345SOL    HW121671   4.179   0.790  17.458  1.0494 -1.1519 -1.2802
 3345SOL    HW221672   4.244   0.912  17.527 -2.3296 -0.4443 -0.4203
 3346SOL     OW21673   2.994   2.918   9.168  0.6042 -0.2224  0.1841
 3346SOL    HW121674   2.909   2.926   9.212  1.5395  0.6825  1.8156
 3346SOL    HW221675   2.999   3.006   9.131 -2.4751 -0.2643 -0.3024
 3347SOL     OW21676   4.325   1.068  13.293 -0.2771  0.2503  0.5242
 3347SOL    HW121677   4.306   1.123  13.369  0.8009  1.3004  0.0399
 3347SOL    HW221678   4.282   0.987  13.321 -0.9620  0.5004  0.1766
 3348SOL     OW21679   3.642   1.054   7.329 -0.5143 -0.1459 -0.8115
 3348SOL    HW121680   3.700   0.992   7.374 -0.5986  1.2357  1.2274
 3348SOL    HW221681   3.697   1.111   7.277  2.0815 -1.2480  0.7001
 3349SOL     OW21682   3.752   1.472   8.875 -0.6146 -0.3509  0.3283
 3349SOL    HW121683   3.697   1.402   8.909  0.7502 -1.0485  1.0629
 3349SOL    HW221684   3.713   1.491   8.789  0.0355  1.0341  0.3292
 3350SOL     OW21685   1.256   4.495   3.632 -0.2361  0.7989 -0.3409
 3350SOL    HW121686   1.180   4.457   3.587  0.8003  1.6645 -2.7966
 3350SOL    HW221687   1.330   4.472   3.576  0.9342  1.1773  1.0594
 3351SOL     OW21688   3.276   1.888   7.070  0.2084 -0.0680  0.2012
 3351SOL    HW121689   3.260   1.901   7.163  0.2766 -0.7238  0.3050
 3351SOL    HW221690   3.319   1.971   7.047  0.2545 -0.6747 -1.9319
 3352SOL     OW21691   2.856   4.412   9.825  0.5550  0.0965  0.1226
 3352SOL    HW121692   2.811   4.328   9.816  0.0033  0.4219 -0.1675
 3352SOL    HW221693   2.835   4.443   9.913 -0.1331 -0.3329  0.1168
 3353SOL     OW21694   0.476   0.244   6.801 -0.2910 -0.3197  0.2831
 3353SOL    HW121695   0.526   0.163   6.815 -1.1982 -1.3088 -2.1628
 3353SOL    HW221696   0.537   0.317   6.790  1.2801 -1.4975  1.1060
 3354SOL     OW21697   0.682   0.500   5.269  0.5677  0.0614 -0.0077
 3354SOL    HW121698   0.750   0.441   5.301 -1.2775 -2.7576 -1.3473
 3354SOL    HW221699   0.657   0.463   5.185 -1.9099  2.2183 -0.2148
 3355SOL     OW21700   3.240   2.986   1.885 -0.5470 -0.4594 -0.3121
 3355SOL    HW121701   3.322   2.980   1.932 -0.1311 -0.4180 -1.0330
 3355SOL    HW221702   3.244   3.071   1.841  0.1581  0.2888  1.1977
 3356SOL     OW21703   3.838   1.144   2.806  0.4091 -0.6809  0.2457
 3356SOL    HW121704   3.911   1.110   2.753  0.1567  1.0188 -1.1703
 3356SOL    HW221705   3.822   1.233   2.775 -0.2830 -0.5722  0.9252
 3357SOL     OW21706   1.854   3.863   1.696 -0.0046  0.0498 -0.2379
 3357SOL    HW121707   1.944   3.884   1.723 -0.3538  0.0199  0.9847
 3357SOL    HW221708   1.821   3.813   1.771  0.3018 -0.1058 -0.2058
 3358SOL     OW21709   4.658   0.946   1.963 -0.4978 -0.1208 -0.0353
 3358SOL    HW121710   4.579   1.000   1.964 -0.6264 -0.2890 -0.9491
 3358SOL    HW221711   4.669   0.947   1.868  0.5123 -3.2034  0.0506
 3359SOL     OW21712   0.461   2.349   6.948  0.0023  0.1542  0.7444
 3359SOL    HW121713   0.374   2.314   6.965 -0.5347  1.8620  1.5288
 3359SOL    HW221714   0.514   2.281   6.989  2.3706  1.1907 -0.5299
 3360SOL     OW21715   2.710   1.208   4.558  0.2169  0.3313  0.5269
 3360SOL    HW121716   2.637   1.214   4.619 -2.3220  0.4797 -2.5069
 3360SOL    HW221717   2.696   1.293   4.516 -1.5272  0.3816  1.2005
 3361SOL     OW21718   2.385   1.262   8.087  0.0027  0.2682 -0.2244
 3361SOL    HW121719   2.390   1.356   8.069  2.7263 -0.2402 -1.9958
 3361SOL    HW221720   2.403   1.221   8.003 -1.3209  0.1600 -0.4568
 3362SOL     OW21721   4.041   2.696   2.989  0.6675  0.2241 -0.2224
 3362SOL    HW121722   3.961   2.713   2.938  0.6278 -1.1975 -0.6411
 3362SOL    HW221723   4.045   2.600   2.984  1.7563  0.2708 -0.2464
 3363SOL     OW21724   2.415   2.159   4.864 -0.6716  0.0584  0.3704
 3363SOL    HW121725   2.506   2.165   4.894 -0.1112  1.5373 -1.5524
 3363SOL    HW221726   2.426   2.114   4.780 -0.8702  1.8821 -0.6304
 3364SOL     OW21727   2.782   3.717   9.011  0.2933  0.0770 -0.4961
 3364SOL    HW121728   2.780   3.785   8.944  2.4679 -0.0583 -0.6935
 3364SOL    HW221729   2.688   3.724   9.030  0.6759 -0.1946  1.5397
 3365SOL     OW21730   0.251   1.077   5.591  0.0702  0.1808  0.1520
 3365SOL    HW121731   0.215   1.133   5.523  2.6417  0.6083 -0.8663
 3365SOL    HW221732   0.301   1.012   5.542 -0.5402  0.8139 -1.2889
 3366SOL     OW21733   0.862   2.040   3.843 -0.3730 -0.8539  0.9404
 3366SOL    HW121734   0.913   2.118   3.821 -0.0895 -0.7177  2.1142
 3366SOL    HW221735   0.833   2.015   3.755 -0.5576 -0.2217  0.8196
 3367SOL     OW21736   2.171   1.049   1.051  0.1061 -0.2457  0.6844
 3367SOL    HW121737   2.159   1.038   1.146  3.4715 -0.0182  1.1589
 3367SOL    HW221738   2.095   1.008   1.012 -0.1779  0.1892  0.7897
 3368SOL     OW21739   2.426   1.431   1.246 -0.0942 -0.2694 -0.1804
 3368SOL    HW121740   2.382   1.499   1.298 -0.2856 -0.5248 -0.0073
 3368SOL    HW221741   2.510   1.421   1.292 -0.6612  0.9595  1.1017
 3369SOL     OW21742   1.758   1.171  12.162 -0.2354 -0.0242  0.0387
 3369SOL    HW121743   1.672   1.209  12.146 -0.3432 -0.5933 -0.7730
 3369SOL    HW221744   1.779   1.171  12.069 -1.3038  0.9407 -0.2019
 3370SOL     OW21745   0.755   2.613  14.706  0.1433  0.0122 -0.4553
 3370SOL    HW121746   0.734   2.527  14.669 -0.7455 -0.1343  0.3843
 3370SOL    HW221747   0.776   2.666  14.629 -0.2873  2.1970  0.9146
 3371SOL     OW21748   3.242   4.664   5.312  0.3015  0.0765 -0.0749
 3371SOL    HW121749   3.204   4.719   5.244  0.1037 -1.9180 -1.5840
 3371SOL    HW221750   3.311   4.620   5.261 -0.1388  1.0206 -1.4735
 3372SOL     OW21751   1.814   1.485  12.544  0.0314 -0.4030 -0.0932
 3372SOL    HW121752   1.850   1.408  12.587 -0.3809 -0.3393  0.3702
 3372SOL    HW221753   1.817   1.460  12.452 -0.7998  1.3239 -0.5923
 3373SOL     OW21754   4.566   0.097   6.625 -0.4732 -0.2298  0.4113
 3373SOL    HW121755   4.547   0.079   6.717 -0.3614  1.1450  0.6976
 3373SOL    HW221756   4.529   0.185   6.616 -1.3436 -0.6783 -0.4399
 3374SOL     OW21757   3.604   3.342   2.001  0.6983 -0.0525 -0.1249
 3374SOL    HW121758   3.696   3.320   2.019  0.5130 -1.2147 -0.5750
 3374SOL    HW221759   3.561   3.337   2.086  2.3145  0.9775  0.7574
 3375SOL     OW21760   0.374   0.955   4.381  0.1395  0.2305 -0.4501
 3375SOL    HW121761   0.449   0.941   4.439  0.6306 -1.0540 -1.3919
 3375SOL    HW221762   0.325   0.874   4.369  0.0434  0.1044  0.7751
 3376SOL     OW21763   0.596   1.515  17.305  0.1545  0.8644 -0.0741
 3376SOL    HW121764   0.596   1.559  17.220 -0.1188 -1.2354 -1.1627
 3376SOL    HW221765   0.524   1.453  17.291 -0.2236  1.2599  0.1261
 3377SOL     OW21766   4.256   3.299   5.104 -0.0743 -0.3225  0.0294
 3377SOL    HW121767   4.264   3.211   5.140  0.9760  0.3214  1.3703
 3377SOL    HW221768   4.191   3.331   5.167 -1.9687 -1.1795 -1.5036
 3378SOL     OW21769   1.028   1.312   4.632  0.4637  0.8576 -0.3185
 3378SOL    HW121770   1.098   1.374   4.651  2.2119 -1.0931 -0.3442
 3378SOL    HW221771   1.077   1.242   4.589  0.7308  0.9756 -0.2019
 3379SOL     OW21772   2.777   0.465   5.918  0.0576  0.3388  0.0034
 3379SOL    HW121773   2.853   0.423   5.957  0.5787  2.0227  0.8313
 3379SOL    HW221774   2.709   0.431   5.977  1.2262  0.1392  1.2365
 3380SOL     OW21775   2.813   1.650   4.716  0.0017  0.0673 -0.1908
 3380SOL    HW121776   2.873   1.678   4.785 -2.2138 -0.2962  1.8872
 3380SOL    HW221777   2.771   1.575   4.759 -0.6223  0.7180  0.3171
 3381SOL     OW21778   1.050   4.207   1.506  0.2569 -0.5240  0.7036
 3381SOL    HW121779   1.082   4.291   1.540 -1.6935  0.3144  0.4686
 3381SOL    HW221780   1.118   4.188   1.441  0.8330  0.9302  0.8813
 3382SOL     OW21781   1.247   0.586   5.468  0.1806 -0.1838 -0.3223
 3382SOL    HW121782   1.226   0.666   5.516  1.4371 -0.1592  0.1825
 3382SOL    HW221783   1.163   0.539   5.470  0.1476 -0.0515  1.8196
 3383SOL     OW21784   4.166   4.401  12.845  0.1704 -0.4657 -0.4723
 3383SOL    HW121785   4.120   4.439  12.920  0.3202 -0.7858 -0.2135
 3383SOL    HW221786   4.135   4.449  12.769 -2.1417 -2.3668 -0.7343
 3384SOL     OW21787   1.932   1.172   5.053 -0.1928  0.3296 -0.0007
 3384SOL    HW121788   1.956   1.258   5.018  1.6877 -1.1511 -2.4015
 3384SOL    HW221789   1.852   1.206   5.092 -0.5935 -2.1748  1.3620
 3385SOL     OW21790   1.142   3.572  15.283 -0.7717  0.6872 -0.0778
 3385SOL    HW121791   1.079   3.616  15.225  0.6274  0.4791 -1.7430
 3385SOL    HW221792   1.104   3.485  15.279  0.6727 -0.0307  2.0802
 3386SOL     OW21793   2.671   2.890  16.490 -0.3289 -0.3525 -0.0528
 3386SOL    HW121794   2.591   2.917  16.535 -0.1259  2.5003 -1.4595
 3386SOL    HW221795   2.721   2.842  16.556 -0.8763  1.2913  1.5426
 3387SOL     OW21796   2.774   1.941   5.123  0.7259  0.0093 -0.1805
 3387SOL    HW121797   2.801   1.946   5.031  1.2280 -1.1095 -0.0872
 3387SOL    HW221798   2.686   1.980   5.121 -0.0206 -1.5969  1.6271
 3388SOL     OW21799   1.360   0.856   2.134 -0.1263  0.5183 -0.5624
 3388SOL    HW121800   1.415   0.874   2.057  2.5697 -1.5534  0.8939
 3388SOL    HW221801   1.364   0.760   2.128  0.7056  0.4843  0.5372
 3389SOL     OW21802   2.165   4.677   6.248 -0.2944 -0.1582 -0.5588
 3389SOL    HW121803   2.221   4.602   6.228  1.8617  1.4052 -0.3847
 3389SOL    HW221804   2.234   0.000   6.227  1.0829 -1.6538 -0.4570
 3390SOL     OW21805   3.735   3.833   4.092 -0.3746 -0.5763 -0.4498
 3390SOL    HW121806   3.725   3.740   4.111  2.5011 -1.2389 -2.2756
 3390SOL    HW221807   3.767   3.865   4.176  1.5450 -1.8627 -0.7116
 3391SOL     OW21808   2.774   1.919  13.974 -1.0525  0.2581  0.4741
 3391SOL    HW121809   2.724   1.855  13.924  0.1182  1.3492 -2.1057
 3391SOL    HW221810   2.758   1.886  14.062  0.2467 -0.1684  0.5575
 3392SOL     OW21811   3.877   4.082  16.766 -0.1536  0.4037 -0.0946
 3392SOL    HW121812   3.859   4.166  16.808  1.1766 -0.3564  2.0049
 3392SOL    HW221813   3.971   4.078  16.748 -0.8374  1.1240 -3.7822
 3393SOL     OW21814   2.898   4.215   5.602  0.2266  0.0149 -0.3503
 3393SOL    HW121815   2.965   4.238   5.538  0.2841 -0.3697 -0.4289
 3393SOL    HW221816   2.816   4.261   5.583 -0.7466 -1.4405  0.3159
 3394SOL     OW21817   3.229   4.602  16.441  0.3878 -0.2753  0.4330
 3394SOL    HW121818   3.147   4.616  16.392 -1.3542 -1.0654  3.1032
 3394SOL    HW221819   3.219   4.675  16.502 -1.5953  0.5162 -0.8143
 3395SOL     OW21820   0.640   2.142   8.757  0.5297 -0.0407 -0.0664
 3395SOL    HW121821   0.617   2.235   8.748 -0.1981 -0.4044 -1.9551
 3395SOL    HW221822   0.727   2.136   8.718  1.0784 -0.4875  1.2197
 3396SOL     OW21823   4.055   4.498   3.716  0.0421  0.0506  0.3004
 3396SOL    HW121824   4.136   4.543   3.692  0.7818 -0.6472  1.5376
 3396SOL    HW221825   3.984   4.561   3.704  0.7036  0.5201 -1.2538
 3397SOL     OW21826   4.527   1.997  13.297 -0.8493  0.3198  0.2328
 3397SOL    HW121827   4.458   2.020  13.235  0.4965  1.0967 -1.0035
 3397SOL    HW221828   4.490   1.913  13.322 -0.9112  0.0694 -0.6814
 3398SOL     OW21829   0.038   0.236   6.500 -0.1274  0.2707 -0.4255
 3398SOL    HW121830   0.060   0.286   6.578  0.2134 -2.6800  1.3277
 3398SOL    HW221831   4.733   0.165   6.547  1.0512 -0.1309  0.0845
 3399SOL     OW21832   0.165   2.317  16.448  0.3177  0.1341  0.5816
 3399SOL    HW121833   0.126   2.258  16.512 -2.1209 -0.9476 -1.8831
 3399SOL    HW221834   0.181   2.394  16.503  0.7350  2.2747 -2.5158
 3400SOL     OW21835   0.027   0.948   9.368 -0.1876 -0.2370  0.4158
 3400SOL    HW121836   0.025   1.018   9.433  0.6540 -0.6064  0.8276
 3400SOL    HW221837   0.004   0.875   9.424  1.0888  0.2900  1.6168
 3401SOL     OW21838   1.236   0.402   6.517  0.6836  0.2537  0.1231
 3401SOL    HW121839   1.164   0.389   6.578  0.0656  1.3016 -0.3920
 3401SOL    HW221840   1.228   0.321   6.467  0.2256 -0.6333  1.6299
 3402SOL     OW21841   0.402   1.838  16.606  0.1645 -0.8745 -0.3212
 3402SOL    HW121842   0.316   1.823  16.645  0.6916  0.9961  1.5075
 3402SOL    HW221843   0.443   1.759  16.642  0.6792  1.3153  3.8791
 3403SOL     OW21844   1.271   0.366  14.842 -0.0186  0.2845 -0.2081
 3403SOL    HW121845   1.325   0.323  14.775  1.3129  1.0583  0.3537
 3403SOL    HW221846   1.321   0.446  14.856  1.4385 -0.8617  1.2293
 3404SOL     OW21847   4.410   0.853   8.971 -0.5270  0.7846 -0.0702
 3404SOL    HW121848   4.491   0.813   9.004  0.0890  1.2663 -0.9968
 3404SOL    HW221849   4.432   0.940   9.005  0.6272  0.5400 -0.2004
 3405SOL     OW21850   3.016   1.376   8.747 -0.1661  0.6261  0.0084
 3405SOL    HW121851   2.967   1.332   8.677 -1.8171 -1.1841  2.3099
 3405SOL    HW221852   2.974   1.462   8.752 -2.6886 -0.6078  0.0878
 3406SOL     OW21853   2.405   2.497   6.114 -0.3923 -0.2563 -0.0088
 3406SOL    HW121854   2.459   2.574   6.093 -1.0068  0.6599  1.7863
 3406SOL    HW221855   2.402   2.450   6.031  0.3532 -2.2313  1.0703
 3407SOL     OW21856   0.587   3.357  12.644  0.2064 -0.7601  0.1733
 3407SOL    HW121857   0.681   3.375  12.637 -0.4033  2.7059  0.5556
 3407SOL    HW221858   0.561   3.399  12.726 -0.0426 -0.6395  0.0318
 3408SOL     OW21859   3.192   1.852  13.600  0.1177 -0.0520 -0.4081
 3408SOL    HW121860   3.187   1.846  13.505 -0.5569 -0.0009 -0.3795
 3408SOL    HW221861   3.120   1.792  13.618  0.5998 -0.3889  0.3945
 3409SOL     OW21862   3.200   1.774   2.402 -0.1009  0.2845 -0.0339
 3409SOL    HW121863   3.224   1.688   2.434 -0.7907 -0.3542 -1.2420
 3409SOL    HW221864   3.142   1.753   2.328 -1.2499  1.2904  0.5733
 3410SOL     OW21865   0.346   3.102  13.823  0.1032 -0.2413 -0.3762
 3410SOL    HW121866   0.313   3.108  13.913  2.2901 -0.7256  0.4653
 3410SOL    HW221867   0.432   3.138  13.845  0.0971 -0.2615 -0.3186
 3411SOL     OW21868   0.950   3.356   7.407  1.0687 -0.1115  0.3464
 3411SOL    HW121869   0.935   3.389   7.318  0.4549 -2.6918 -0.5362
 3411SOL    HW221870   0.886   3.284   7.404  0.5111  0.2804  3.1460
 3412SOL     OW21871   0.409   1.607  12.481  0.1544 -0.1886 -0.1031
 3412SOL    HW121872   0.333   1.566  12.523 -1.3820  1.8902 -0.8468
 3412SOL    HW221873   0.445   1.642  12.562 -1.0227  0.5762  0.0898
 3413SOL     OW21874   4.333   1.469  12.661  0.1765 -0.1039  0.0630
 3413SOL    HW121875   4.352   1.446  12.752 -0.1911 -0.5729  0.0217
 3413SOL    HW221876   4.238   1.470  12.664  0.1459 -0.0283 -1.0240
 3414SOL     OW21877   1.653   1.144   5.875 -0.3428 -0.0644 -0.3437
 3414SOL    HW121878   1.668   1.082   5.803 -1.5035 -1.8173  0.9302
 3414SOL    HW221879   1.566   1.177   5.855 -0.1855  1.6277  1.7419
 3415SOL     OW21880   2.474   0.647   8.853  0.0705 -0.0987  0.2684
 3415SOL    HW121881   2.400   0.595   8.822 -0.8568 -0.0666  2.3698
 3415SOL    HW221882   2.516   0.677   8.773  0.3495 -0.2111  0.3702
 3416SOL     OW21883   1.762   2.560   1.927  0.0912 -0.1653  0.8168
 3416SOL    HW121884   1.768   2.655   1.920  2.2689 -0.3615 -0.1346
 3416SOL    HW221885   1.687   2.554   1.986 -1.3387  1.1962 -0.8554
 3417SOL     OW21886   2.778   1.617   1.070 -0.2829  0.6206  0.3419
 3417SOL    HW121887   2.794   1.596   1.162  0.1153 -1.1850 -0.1367
 3417SOL    HW221888   2.706   1.562   1.040  1.0442 -1.6618  1.2227
 3418SOL     OW21889   3.350   4.402   4.745  0.1040 -0.0237 -0.0878
 3418SOL    HW121890   3.315   4.428   4.660 -1.0523  1.9363  0.9953
 3418SOL    HW221891   3.326   4.486   4.785  0.3554 -0.6568  1.3764
 3419SOL     OW21892   1.864   1.253   5.350 -0.1659  0.1613  0.2816
 3419SOL    HW121893   1.897   1.209   5.428 -1.1772  1.2523  1.3384
 3419SOL    HW221894   1.774   1.222   5.339 -0.7640  1.3687  1.8045
 3420SOL     OW21895   3.227   3.164   3.125  0.0553  0.0561  0.5158
 3420SOL    HW121896   3.224   3.123   3.039  1.0397 -1.1951  1.0737
 3420SOL    HW221897   3.267   3.247   3.100 -0.6367 -0.3520 -1.9608
 3421SOL     OW21898   4.589   1.682   6.113 -0.3048  0.5681  0.6549
 3421SOL    HW121899   4.613   1.592   6.135  0.0322  0.4514 -0.2074
 3421SOL    HW221900   4.611   1.677   6.020 -0.3769  0.4180  0.6462
 3422SOL     OW21901   3.196   3.798   7.028 -0.2653  0.3433  0.5982
 3422SOL    HW121902   3.147   3.831   6.953 -1.4905  0.4242  1.4449
 3422SOL    HW221903   3.147   3.721   7.059  0.9951 -0.2479  1.1358
 3423SOL     OW21904   1.068   1.358   2.354 -0.4115 -0.2693 -0.1802
 3423SOL    HW121905   1.025   1.398   2.279 -0.6960 -0.1300  0.0564
 3423SOL    HW221906   1.149   1.322   2.320 -0.1487  0.7764 -0.6478
 3424SOL     OW21907   4.503   3.896   6.625 -0.1067  0.0378 -0.6214
 3424SOL    HW121908   4.502   3.892   6.721  1.0712  0.2447 -0.6038
 3424SOL    HW221909   4.416   3.936   6.616 -0.5169 -0.6124  0.3920
 3425SOL     OW21910   2.361   1.021   7.003 -0.2563  0.0451 -0.4896
 3425SOL    HW121911   2.422   1.055   7.069 -1.8608 -2.3819  2.2588
 3425SOL    HW221912   2.293   0.992   7.063 -1.1181 -1.1377 -2.0409
 3426SOL     OW21913   4.360   2.796   6.196  0.2841  0.4397 -0.3102
 3426SOL    HW121914   4.317   2.867   6.244 -0.3115  1.4834 -2.3707
 3426SOL    HW221915   4.426   2.842   6.146  1.9548  0.4567  1.9394
 3427SOL     OW21916   4.041   0.305   2.461  0.3213  0.1598  0.4391
 3427SOL    HW121917   4.015   0.385   2.506 -1.4245  0.5125 -1.1793
 3427SOL    HW221918   4.100   0.332   2.390 -0.4914 -1.7591 -0.9656
 3428SOL     OW21919   0.348   2.380   5.127 -0.0140  0.3979 -0.3034
 3428SOL    HW121920   0.345   2.393   5.222  2.3968  3.2696 -0.6230
 3428SOL    HW221921   0.287   2.306   5.122 -0.3767  0.5870  1.2778
 3429SOL     OW21922   0.337   3.419  12.878  0.3957 -0.6390  0.3798
 3429SOL    HW121923   0.337   3.465  12.962 -0.5376  1.2796 -0.6903
 3429SOL    HW221924   0.430   3.396  12.889  0.5539  0.3880  1.2177
 3430SOL     OW21925   3.465   3.740   5.219 -0.0973 -0.3006  0.2871
 3430SOL    HW121926   3.427   3.800   5.283 -0.5578  0.1765 -0.4392
 3430SOL    HW221927   3.545   3.719   5.267 -0.0188 -1.6675 -0.4310
 3431SOL     OW21928   3.913   1.909   5.057 -0.4085  0.1339 -0.0702
 3431SOL    HW121929   3.874   1.889   5.142 -1.1192  0.0626 -0.4198
 3431SOL    HW221930   3.836   1.888   5.005 -1.2549  2.5191  0.2219
 3432SOL     OW21931   2.261   3.339   9.285 -0.3030  0.3486  0.0120
 3432SOL    HW121932   2.241   3.260   9.336 -1.0441  1.9691  2.2154
 3432SOL    HW221933   2.341   3.378   9.320 -1.5627  1.8583  1.2231
 3433SOL     OW21934   2.323   1.605  13.061 -0.8831 -0.5192  0.0848
 3433SOL    HW121935   2.278   1.621  13.144  0.0085 -0.2761  0.5212
 3433SOL    HW221936   2.308   1.512  13.047 -1.2468 -0.2185 -1.4806
 3434SOL     OW21937   1.601   4.053  13.058 -0.0552 -0.7043  0.2451
 3434SOL    HW121938   1.516   4.087  13.031  0.8871  0.7051 -0.9682
 3434SOL    HW221939   1.658   4.119  13.018  0.3819 -0.4503  1.2758
 3435SOL     OW21940   4.262   1.882  10.290 -0.1359  0.2231 -0.7164
 3435SOL    HW121941   4.226   1.804  10.248  1.1389 -0.6418 -0.1826
 3435SOL    HW221942   4.190   1.938  10.259 -0.6387 -0.4317 -0.7385
 3436SOL     OW21943   1.315   4.679   9.352 -0.0885 -0.4194  0.3959
 3436SOL    HW121944   1.241   4.714   9.302 -1.0040  0.5130  2.4162
 3436SOL    HW221945   1.276   4.594   9.372  4.2104 -2.1801  1.1341
 3437SOL     OW21946   3.916   2.842   3.820 -0.5142 -0.1462  0.5114
 3437SOL    HW121947   3.885   2.922   3.862 -3.2249 -1.6901  1.3822
 3437SOL    HW221948   3.837   2.819   3.772  0.6868  1.7462 -2.3868
 3438SOL     OW21949   1.066   4.089   2.256 -0.2687  0.3379 -0.3383
 3438SOL    HW121950   1.030   4.041   2.330 -2.1390  0.3096 -1.2553
 3438SOL    HW221951   1.000   4.063   2.192  0.8706 -3.5390  0.0452
 3439SOL     OW21952   3.451   1.239  14.244  0.1537 -0.0444  0.0142
 3439SOL    HW121953   3.527   1.271  14.194  1.0390 -0.5613  1.0316
 3439SOL    HW221954   3.412   1.320  14.278 -2.2697 -1.9589  1.7156
 3440SOL     OW21955   3.750   3.876   7.258 -0.0292  0.7669  0.1743
 3440SOL    HW121956   3.811   3.916   7.196  0.0649 -0.6798 -0.6717
 3440SOL    HW221957   3.768   3.784   7.237  1.6577  1.0906  0.1810
 3441SOL     OW21958   3.062   0.276   4.487  0.5250 -0.2831 -0.0558
 3441SOL    HW121959   2.967   0.281   4.479  0.4622 -0.1590  0.7843
 3441SOL    HW221960   3.079   0.369   4.499  0.8344 -0.6096  1.9834
 3442SOL     OW21961   2.919   2.105   8.361 -0.1912  0.8353 -0.2820
 3442SOL    HW121962   2.920   2.079   8.269  0.5951  2.8282 -0.8489
 3442SOL    HW221963   3.010   2.135   8.370  0.3305 -0.4082 -1.3420
 3443SOL     OW21964   4.315   4.441   3.426 -0.1785  0.5419 -0.2564
 3443SOL    HW121965   4.316   4.471   3.517  0.9035  1.2629 -0.5092
 3443SOL    HW221966   4.333   4.349   3.442 -1.8040 -0.1695 -2.5358
 3444SOL     OW21967   4.629   2.305   9.733 -0.1478  0.1252  0.7903
 3444SOL    HW121968   4.555   2.268   9.780 -1.7119  2.3535  0.0792
 3444SOL    HW221969   4.682   2.227   9.716  1.0874  1.0317  0.4206
 3445SOL     OW21970   4.304   0.138   6.192  0.4504  0.4861  0.0596
 3445SOL    HW121971   4.389   0.141   6.235 -1.4271 -0.8990  3.8784
 3445SOL    HW221972   4.322   0.066   6.131  3.1429  1.8127 -0.6715
 3446SOL     OW21973   0.020   3.131   9.279  0.0532  0.6896  0.0354
 3446SOL    HW121974   0.106   3.168   9.260 -0.0340  0.6216 -0.4930
 3446SOL    HW221975   4.708   3.200   9.321  0.4175  0.9732  0.0010
 3447SOL     OW21976   3.125   2.261   6.802  0.1159 -0.1628  0.3160
 3447SOL    HW121977   3.072   2.335   6.772 -0.9243 -0.9860  0.1171
 3447SOL    HW221978   3.097   2.262   6.894  2.2888  1.6307  0.9880
 3448SOL     OW21979   3.252   2.576   4.202 -0.7720 -0.4861 -0.2638
 3448SOL    HW121980   3.212   2.490   4.213  0.1843 -0.8226  0.5845
 3448SOL    HW221981   3.211   2.611   4.123 -1.8202  1.2358  1.0528
 3449SOL     OW21982   1.067   0.326  11.386 -0.0954 -0.2238  0.3299
 3449SOL    HW121983   1.061   0.416  11.417 -1.0130 -0.9790  2.3594
 3449SOL    HW221984   1.115   0.297  11.464 -1.3921 -0.3592  1.0708
 3450SOL     OW21985   2.627   1.882   0.087  0.1331  0.1526 -0.6211
 3450SOL    HW121986   2.629   1.833   0.170  2.0701  0.5716 -0.4365
 3450SOL    HW221987   2.570   1.828   0.032 -1.0242 -0.0555  0.7734
 3451SOL     OW21988   0.169   2.244   1.537  0.2057  0.0532 -0.3437
 3451SOL    HW121989   0.119   2.268   1.459 -0.4664 -1.3302 -0.3521
 3451SOL    HW221990   0.101   2.224   1.601  1.8852 -0.5156  1.2504
 3452SOL     OW21991   0.278   2.476   7.226  0.1885 -0.3174  0.2647
 3452SOL    HW121992   0.310   2.527   7.299  0.3720  0.2358 -0.2009
 3452SOL    HW221993   0.240   2.406   7.280 -0.0888 -1.0625 -0.8890
 3453SOL     OW21994   0.398   3.410   5.509 -0.3203 -0.3039  0.4389
 3453SOL    HW121995   0.348   3.488   5.536  0.9953 -0.5582  3.6231
 3453SOL    HW221996   0.362   3.380   5.425  2.1479 -2.0294  0.0196
 3454SOL     OW21997   2.987   1.057  15.319  0.1420 -0.0155  0.2825
 3454SOL    HW121998   2.984   1.002  15.241 -0.2869  1.4765 -0.7445
 3454SOL    HW221999   3.079   1.079  15.310 -0.5622  1.9139 -2.3142
 3455SOL     OW22000   2.689   3.591   8.694 -0.5648  0.2809  0.6743
 3455SOL    HW122001   2.700   3.685   8.709 -0.9443  0.5089 -0.4866
 3455SOL    HW222002   2.765   3.554   8.739 -0.6628  0.7044  1.1877
 3456SOL     OW22003   2.783   3.230   7.424 -0.3517  0.0834 -0.1884
 3456SOL    HW122004   2.717   3.201   7.361  1.5788 -1.6195 -1.4177
 3456SOL    HW222005   2.857   3.177   7.395 -0.0523  0.3799  0.0318
 3457SOL     OW22006   0.925   3.017   7.173  0.6449  0.8669  0.0372
 3457SOL    HW122007   0.859   2.986   7.235  0.9442 -0.3933 -0.2792
 3457SOL    HW222008   0.889   3.095   7.131  1.5854  0.0732 -2.2256
 3458SOL     OW22009   4.305   1.874   7.491  0.3949  0.2550  0.5562
 3458SOL    HW122010   4.382   1.900   7.541  0.4489  0.4239  0.3865
 3458SOL    HW222011   4.316   1.927   7.412  0.0124  0.7474  0.8372
 3459SOL     OW22012   0.591   3.159   3.761  0.0549  0.3232 -0.1890
 3459SOL    HW122013   0.581   3.138   3.668  1.6090 -1.1170 -0.0447
 3459SOL    HW222014   0.607   3.069   3.792  0.6477 -0.2197 -2.0696
 3460SOL     OW22015   3.243   4.002  11.227  0.1605 -0.4181 -0.1126
 3460SOL    HW122016   3.153   4.021  11.251 -0.1429 -1.7042 -0.2292
 3460SOL    HW222017   3.250   3.914  11.264  0.0623 -0.6069 -0.5470
 3461SOL     OW22018   2.099   4.173   0.511 -0.5177 -0.2755 -0.1063
 3461SOL    HW122019   2.059   4.236   0.571  0.1920 -1.2626  1.3756
 3461SOL    HW222020   2.034   4.103   0.498 -0.3463 -0.0581 -2.2555
 3462SOL     OW22021   3.420   4.161   4.062  0.7011  0.1473 -0.1722
 3462SOL    HW122022   3.422   4.193   3.971 -1.2944  0.8366  0.0203
 3462SOL    HW222023   3.414   4.069   4.037 -0.9279  0.4617 -0.9475
 3463SOL     OW22024   1.018   2.792   3.689 -0.3813 -0.2355  0.5980
 3463SOL    HW122025   0.931   2.776   3.726 -0.9346  0.6617 -0.3514
 3463SOL    HW222026   1.027   2.706   3.647  0.6154  0.7296 -1.1492
 3464SOL     OW22027   4.430   0.109   5.723  0.0190  0.4255 -0.1583
 3464SOL    HW122028   4.408   0.050   5.652 -0.1226  0.7422 -0.3749
 3464SOL    HW222029   4.346   0.154   5.723  0.0195  0.4267 -0.4318
 3465SOL     OW22030   4.727   0.022   1.588  0.2257 -0.8174  0.1371
 3465SOL    HW122031   0.009   4.668   1.574 -0.2530 -0.3950 -3.4015
 3465SOL    HW222032   4.702   0.017   1.680 -3.0559  2.2596 -0.5906
 3466SOL     OW22033   1.710   3.373   6.932 -0.5784  0.3905  0.2266
 3466SOL    HW122034   1.689   3.434   7.002 -0.5662 -0.7373  1.2097
 3466SOL    HW222035   1.802   3.398   6.920 -0.2721 -0.0824  1.6042
 3467SOL     OW22036   4.591   2.159   7.887 -0.5032  0.0896  0.2663
 3467SOL    HW122037   4.498   2.139   7.877 -0.5515  0.9516 -0.8832
 3467SOL    HW222038   4.597   2.204   7.971  0.9971  0.4012 -0.0022
 3468SOL     OW22039   3.874   1.055   0.668 -0.0885  0.2310 -0.1927
 3468SOL    HW122040   3.837   0.988   0.725  0.4376  1.2777  1.3681
 3468SOL    HW222041   3.846   1.022   0.582  0.4775 -1.4996  0.2855
 3469SOL     OW22042   2.383   1.925   6.914  0.1926  0.2804  0.3782
 3469SOL    HW122043   2.327   1.865   6.962  0.7730 -0.9491 -0.4716
 3469SOL    HW222044   2.382   1.995   6.980  0.6638 -0.2795  0.9726
 3470SOL     OW22045   4.384   3.652   4.865  0.8265 -0.1342 -0.3854
 3470SOL    HW122046   4.401   3.558   4.864  0.8613 -0.1386  0.7299
 3470SOL    HW222047   4.364   3.666   4.772 -0.0145  0.8802 -0.0542
 3471SOL     OW22048   1.066   3.647   8.353 -0.1006  0.0529 -0.2477
 3471SOL    HW122049   0.997   3.706   8.381 -1.7556 -1.3983 -1.2313
 3471SOL    HW222050   1.104   3.706   8.288 -0.0734 -0.6063 -0.8411
 3472SOL     OW22051   4.103   3.916   2.074 -0.2351  0.0952  0.2733
 3472SOL    HW122052   4.047   3.858   2.127  2.2156 -1.7359  0.8405
 3472SOL    HW222053   4.098   3.862   1.995  1.2336  0.6479 -0.2017
 3473SOL     OW22054   1.100   1.743  10.143 -0.5938  0.4427 -0.7296
 3473SOL    HW122055   1.035   1.675  10.128  0.2481 -0.3547 -0.7415
 3473SOL    HW222056   1.090   1.782  10.230  0.0371  1.1024 -0.9485
 3474SOL     OW22057   3.649   3.908  16.790 -0.1046 -0.0885 -0.0454
 3474SOL    HW122058   3.725   3.961  16.766  0.0677  1.0886  3.0585
 3474SOL    HW222059   3.590   3.951  16.729  0.4645 -1.8211 -1.8576
 3475SOL     OW22060   3.284   3.371   7.207 -0.3500  0.2139  0.1512
 3475SOL    HW122061   3.315   3.305   7.269  0.3237  0.7794  0.4033
 3475SOL    HW222062   3.216   3.403   7.266 -0.9791 -2.2602  0.7948
 3476SOL     OW22063   1.390   2.336   0.970  0.0454 -0.2298  0.0579
 3476SOL    HW122064   1.318   2.387   1.007 -0.1364 -0.2691 -0.2425
 3476SOL    HW222065   1.377   2.250   1.009 -1.9790 -0.3424 -0.8689
 3477SOL     OW22066   1.472   3.134  12.669  0.3779 -0.0751 -0.6923
 3477SOL    HW122067   1.457   3.117  12.576 -0.3873  0.0489 -0.5931
 3477SOL    HW222068   1.454   3.228  12.664  1.6042  0.2680  1.2458
 3478SOL     OW22069   3.848   0.933   5.105  0.2280 -0.3631  0.0016
 3478SOL    HW122070   3.844   1.003   5.041 -2.2422  0.2690  0.8667
 3478SOL    HW222071   3.761   0.895   5.097  1.4393 -3.4058  0.9405
 3479SOL     OW22072   1.795   1.420   8.198 -0.0310  0.0088  0.1617
 3479SOL    HW122073   1.703   1.444   8.203 -0.1830 -0.3588 -0.7430
 3479SOL    HW222074   1.796   1.351   8.265 -1.0675  0.5855  0.7554
 3480SOL     OW22075   1.598   1.206   9.452  0.4189  0.2731  0.9306
 3480SOL    HW122076   1.668   1.214   9.516 -1.3881 -1.2270  3.0706
 3480SOL    HW222077   1.584   1.296   9.422  1.1918  0.2295  0.4379
 3481SOL     OW22078   1.351   2.470   8.666  0.5502 -0.1970 -0.0026
 3481SOL    HW122079   1.297   2.439   8.593 -1.1989 -1.1047  1.6718
 3481SOL    HW222080   1.383   2.550   8.624 -1.0839  0.9196  0.8874
 3482SOL     OW22081   3.975   0.477   3.197 -0.2021  0.4241  0.5360
 3482SOL    HW122082   3.965   0.399   3.142  2.4059  0.3030  0.2090
 3482SOL    HW222083   3.974   0.543   3.128 -1.4421  0.3484  0.4892
 3483SOL     OW22084   1.298   4.377   3.867 -0.1447  0.2668 -0.2250
 3483SOL    HW122085   1.284   4.445   3.801  3.4125 -0.5104 -1.7745
 3483SOL    HW222086   1.233   4.402   3.932 -0.3931 -0.8147 -0.0655
 3484SOL     OW22087   0.805   1.638  17.457  0.7015  0.3190 -0.5701
 3484SOL    HW122088   0.750   1.592  17.393 -1.7631  2.4883  0.0312
 3484SOL    HW222089   0.878   1.578  17.477  0.1989 -0.4173 -0.9534
 3485SOL     OW22090   3.650   1.405  11.553 -0.5974 -0.2020  0.3600
 3485SOL    HW122091   3.581   1.435  11.611 -1.4074 -0.2453 -0.5828
 3485SOL    HW222092   3.729   1.437  11.597 -0.8479 -1.0141  1.4197
 3486SOL     OW22093   1.473   1.780   1.618  0.0680  0.3794  0.1709
 3486SOL    HW122094   1.501   1.689   1.608 -0.2366  0.1595  1.3262
 3486SOL    HW222095   1.383   1.785   1.586 -0.1627  1.3507  0.9768
 3487SOL     OW22096   3.595   0.885  17.171  0.0067 -0.0192  0.3304
 3487SOL    HW122097   3.615   0.812  17.112 -2.0122  0.4748 -0.9715
 3487SOL    HW222098   3.570   0.950  17.106  0.1536  0.3864  0.6815
 3488SOL     OW22099   1.581   0.693   2.310 -0.5696  0.2805  0.5765
 3488SOL    HW122100   1.606   0.632   2.240 -4.5551  0.1084 -0.7053
 3488SOL    HW222101   1.502   0.650   2.345  1.5753 -2.6380  1.8985
 3489SOL     OW22102   2.609   2.711   4.812 -0.4649 -0.1433  0.2683
 3489SOL    HW122103   2.538   2.730   4.873 -2.1536 -2.4978 -0.9742
 3489SOL    HW222104   2.668   2.787   4.818 -0.3688 -0.2049  0.1100
 3490SOL     OW22105   0.647   0.946  10.136  0.2921 -0.2030  0.0341
 3490SOL    HW122106   0.602   1.014  10.086 -1.0677 -0.3881  1.0264
 3490SOL    HW222107   0.692   0.901  10.064  2.3824 -0.5648  1.5809
 3491SOL     OW22108   3.648   0.766   5.007 -0.2388 -0.5477  0.4549
 3491SOL    HW122109   3.711   0.701   5.036  0.4396 -0.6735 -1.3286
 3491SOL    HW222110   3.635   0.740   4.916  2.8272  0.6153 -0.3255
 3492SOL     OW22111   4.410   2.561   1.799  0.4648 -0.5653 -0.2380
 3492SOL    HW122112   4.478   2.618   1.836  0.5201 -0.0475 -1.1420
 3492SOL    HW222113   4.351   2.548   1.873 -0.4525  0.6799 -0.7430
 3493SOL     OW22114   4.390   0.767   4.066 -0.7100 -0.1148 -0.3268
 3493SOL    HW122115   4.412   0.703   4.134 -0.6898  3.1551  2.7627
 3493SOL    HW222116   4.336   0.710   4.012 -0.2821  0.9914 -1.9064
 3494SOL     OW22117   2.381   3.976   7.833 -0.0505  0.1241  0.0367
 3494SOL    HW122118   2.356   4.056   7.879  2.6277  1.3719 -0.6738
 3494SOL    HW222119   2.476   3.985   7.824 -0.0873  1.7549  1.3969
 3495SOL     OW22120   4.532   3.160   1.052 -0.0236 -0.1164 -0.1241
 3495SOL    HW122121   4.547   3.114   0.969 -0.2790 -0.0367 -0.2161
 3495SOL    HW222122   4.549   3.094   1.119 -1.6817  0.7098  1.1069
 3496SOL     OW22123   3.027   2.404   1.653 -0.4724  0.4348 -0.4605
 3496SOL    HW122124   2.991   2.407   1.565  0.4529  2.7290 -0.7356
 3496SOL    HW222125   2.984   2.329   1.696 -0.4926 -0.2149 -1.6256
 3497SOL     OW22126   2.742   4.391   3.478 -0.6100  0.7193  0.0356
 3497SOL    HW122127   2.770   4.342   3.555  0.6040 -0.8383 -1.4010
 3497SOL    HW222128   2.762   4.476   3.516  0.0736  0.0001  1.2839
 3498SOL     OW22129   2.519   2.402   9.770  0.2597 -0.0425  0.3726
 3498SOL    HW122130   2.468   2.368   9.697 -1.2582  0.6732  1.1013
 3498SOL    HW222131   2.448   2.411   9.835 -0.5051  1.4491 -0.6651
 3499SOL     OW22132   3.048   4.058   6.516 -0.3089 -0.1225 -0.5039
 3499SOL    HW122133   3.132   4.075   6.475 -1.5358 -2.2943 -3.8617
 3499SOL    HW222134   3.018   4.148   6.530  0.0667 -0.1660  0.5808
 3500SOL     OW22135   4.720   0.951  14.410 -0.1427  0.4264  0.0189
 3500SOL    HW122136   0.071   0.943  14.380  0.0434 -1.4558  1.1010
 3500SOL    HW222137   4.671   0.978  14.332 -0.2647  2.1204  0.6760
 3501SOL     OW22138   0.330   4.556  15.263  0.3348 -0.1903  0.2871
 3501SOL    HW122139   0.322   4.634  15.317  0.4225  0.8942 -1.2723
 3501SOL    HW222140   0.294   4.492  15.325 -1.7117  0.9981  0.3270
 3502SOL     OW22141   2.018   3.500   4.809  0.5204  0.1442  0.0911
 3502SOL    HW122142   2.081   3.429   4.820  1.1427  0.9615  1.9178
 3502SOL    HW222143   1.942   3.455   4.772  2.1011  0.7039 -3.8264
 3503SOL     OW22144   2.659   0.550   3.243  0.0491  0.2155 -0.0182
 3503SOL    HW122145   2.659   0.489   3.169 -0.6465 -2.4021  2.1147
 3503SOL    HW222146   2.581   0.515   3.286 -1.2142  3.2378  0.0929
 3504SOL     OW22147   2.237   0.459  14.103  0.1545 -0.2224 -0.3019
 3504SOL    HW122148   2.326   0.493  14.111 -0.1338  0.4935 -0.1563
 3504SOL    HW222149   2.237   0.378  14.154  2.3395  0.3841  0.6312
 3505SOL     OW22150   3.489   4.269  10.547  0.7045 -0.4643 -0.1092
 3505SOL    HW122151   3.535   4.233  10.472 -0.9529 -1.5065 -0.6081
 3505SOL    HW222152   3.419   4.207  10.566 -0.3005  0.5087 -0.6051
 3506SOL     OW22153   2.735   3.493   7.374  0.1496  0.0994  0.0470
 3506SOL    HW122154   2.760   3.516   7.463 -1.3853 -1.4594  0.8852
 3506SOL    HW222155   2.782   3.410   7.364  0.9441  0.4966  0.5406
 3507SOL     OW22156   3.110   3.608  17.264  0.4525  0.9077 -0.8246
 3507SOL    HW122157   3.205   3.600  17.253  0.4345 -0.6951  0.0970
 3507SOL    HW222158   3.091   3.682  17.321  2.0260 -1.2744  2.5228
 3508SOL     OW22159   0.783   3.536  16.878 -0.0818 -0.6991 -0.0971
 3508SOL    HW122160   0.733   3.595  16.822 -0.6983  0.0133  1.2055
 3508SOL    HW222161   0.800   3.596  16.951  1.9851  0.3998 -1.4983
 3509SOL     OW22162   0.765   4.147   2.881 -0.0076 -0.8798  0.2102
 3509SOL    HW122163   0.851   4.124   2.848  0.2430  0.3672  0.0296
 3509SOL    HW222164   0.745   4.227   2.834 -0.4800 -1.3811 -0.4398
 3510SOL     OW22165   4.711   0.764   7.728  0.4097  0.1947 -0.0320
 3510SOL    HW122166   0.060   0.790   7.703  0.3053 -0.2533 -0.8398
 3510SOL    HW222167   4.655   0.837   7.703  0.9109  0.9914  1.1470
 3511SOL     OW22168   4.171   4.049  12.146 -0.3158  0.8933  0.6240
 3511SOL    HW122169   4.197   4.064  12.237 -0.3406 -3.1831  1.3035
 3511SOL    HW222170   4.177   3.954  12.156 -0.5823  0.9068  0.9075
 3512SOL     OW22171   1.094   0.274   6.701  0.0143  0.1742 -0.3088
 3512SOL    HW122172   1.159   0.209   6.727 -0.8507 -0.4936  0.1883
 3512SOL    HW222173   1.014   0.255   6.750 -0.0307 -0.0897 -0.4792
 3513SOL     OW22174   1.412   3.850   2.534  0.0076 -0.4420 -0.1169
 3513SOL    HW122175   1.508   3.855   2.538  0.0018 -2.0140  1.8462
 3513SOL    HW222176   1.407   3.801   2.452 -0.2394 -1.3522  0.4489
 3514SOL     OW22177   4.016   0.833   3.943  0.1559 -0.0740 -0.6897
 3514SOL    HW122178   4.024   0.849   3.849  2.3856 -3.1482 -1.0458
 3514SOL    HW222179   4.076   0.758   3.945  0.9653  0.5619 -0.8126
 3515SOL     OW22180   0.958   4.347  10.166 -0.0072 -0.3639  0.2211
 3515SOL    HW122181   0.925   4.257  10.168 -2.1670  0.4098 -0.4573
 3515SOL    HW222182   0.899   4.390  10.104  1.9089  2.4030  0.3017
 3516SOL     OW22183   0.350   0.542   1.916 -0.4764 -0.0087 -0.0523
 3516SOL    HW122184   0.323   0.632   1.934  1.4591  0.5727 -0.1083
 3516SOL    HW222185   0.273   0.495   1.883  0.1643 -0.7992 -0.4414
 3517SOL     OW22186   1.409   2.195   8.710 -0.1011  0.0355  0.3356
 3517SOL    HW122187   1.363   2.277   8.696  1.4793  0.8703 -0.0256
 3517SOL    HW222188   1.492   2.202   8.662 -1.1900 -1.4234 -1.7676
 3518SOL     OW22189   0.650   1.263   4.409  0.8666 -0.0281 -0.3457
 3518SOL    HW122190   0.691   1.345   4.438 -1.1675 -0.2397  3.2440
 3518SOL    HW222191   0.570   1.273   4.461  0.7650 -2.3709 -0.0677
 3519SOL     OW22192   1.135   2.260   6.110 -0.0216 -0.2217 -0.4138
 3519SOL    HW122193   1.089   2.245   6.027  0.1872  0.8006 -0.7258
 3519SOL    HW222194   1.171   2.346   6.085  1.2735 -1.2749 -2.1497
 3520SOL     OW22195   3.121   3.040   6.274 -0.1586 -0.2412 -0.0780
 3520SOL    HW122196   3.087   3.109   6.331  1.4176  0.8962 -0.5068
 3520SOL    HW222197   3.173   3.087   6.209 -2.0357  1.3931 -0.3851
 3521SOL     OW22198   2.700   1.245   5.307  0.0957 -0.4203 -0.3565
 3521SOL    HW122199   2.699   1.151   5.287 -0.4838 -0.3821 -0.5236
 3521SOL    HW222200   2.700   1.242   5.403 -0.6158  0.0191 -0.3372
 3522SOL     OW22201   1.544   1.060   4.880  0.1710  0.0092 -0.1603
 3522SOL    HW122202   1.634   1.027   4.875 -0.2223 -1.2646  1.1704
 3522SOL    HW222203   1.501   0.979   4.907  0.3908  0.6710  2.1869
 3523SOL     OW22204   0.939   0.323  11.117 -0.2486  0.4139  0.4984
 3523SOL    HW122205   0.917   0.330  11.210  0.0653 -1.4816  0.7164
 3523SOL    HW222206   1.001   0.251  11.117 -1.5826 -0.7292 -0.8621
 3524SOL     OW22207   2.724   1.167  10.213 -0.3159  0.5210 -0.1727
 3524SOL    HW122208   2.815   1.138  10.214 -0.3255  0.5077  0.6187
 3524SOL    HW222209   2.744   1.258  10.233 -0.2937  0.2504  1.0445
 3525SOL     OW22210   3.992   4.285   0.165 -0.0771  0.2976 -0.4261
 3525SOL    HW122211   4.012   4.299   0.258 -0.5110  0.1572 -0.3147
 3525SOL    HW222212   3.905   4.324   0.155 -0.2389  0.0075 -0.1188
 3526SOL     OW22213   0.878   3.725   1.440  0.6849  0.1254  0.3238
 3526SOL    HW122214   0.786   3.699   1.449  1.2335 -2.1900 -0.7795
 3526SOL    HW222215   0.921   3.647   1.474 -0.1085 -0.6914 -0.5466
 3527SOL     OW22216   0.078   0.040   5.744  0.7430  0.2746 -0.1601
 3527SOL    HW122217   0.100   4.703   5.690  0.4099  0.6119 -0.7746
 3527SOL    HW222218   4.724   0.039   5.720  0.3651 -1.9328  1.4089
 3528SOL     OW22219   4.599   0.669   5.738  0.2679  0.1995 -0.1006
 3528SOL    HW122220   4.617   0.578   5.717 -0.9214  0.0783 -0.6190
 3528SOL    HW222221   4.686   0.703   5.759  1.6556 -2.6315 -1.2230
 3529SOL     OW22222   2.255   4.698   2.553 -0.3016  0.2164  0.2996
 3529SOL    HW122223   2.188   0.028   2.549 -1.4239 -0.7805  1.8751
 3529SOL    HW222224   2.212   4.629   2.603  1.6334 -0.5029  0.9538
 3530SOL     OW22225   1.894   3.928   4.064 -0.4758 -0.4156 -0.2944
 3530SOL    HW122226   1.817   3.929   4.006  0.3723  0.0051 -1.4064
 3530SOL    HW222227   1.885   3.841   4.102  0.9119 -0.5344 -0.2545
 3531SOL     OW22228   4.641   0.724   3.036  0.4723  0.3158 -0.2464
 3531SOL    HW122229   4.593   0.762   3.109  0.0419  1.3478 -1.0680
 3531SOL    HW222230   4.651   0.793   2.970 -1.7050 -0.3445 -1.2724
 3532SOL     OW22231   1.451   2.440   4.342  0.6919 -0.0527 -0.2484
 3532SOL    HW122232   1.409   2.445   4.428 -0.4016 -0.0450 -0.7734
 3532SOL    HW222233   1.524   2.500   4.351 -0.9958  1.8415  0.8028
 3533SOL     OW22234   2.504   3.444   2.157  0.5969 -0.5415 -0.2150
 3533SOL    HW122235   2.570   3.377   2.140 -0.9453 -2.6541  2.1852
 3533SOL    HW222236   2.465   3.420   2.241 -0.1643 -0.6747 -0.6090
 3534SOL     OW22237   4.157   3.408   6.264 -0.4370  0.2013 -0.3494
 3534SOL    HW122238   4.116   3.425   6.349 -0.8882  2.0528 -0.9293
 3534SOL    HW222239   4.091   3.361   6.214  0.1842  1.0732 -2.0004
 3535SOL     OW22240   0.691   3.739   7.360  0.0835 -0.1930  0.2557
 3535SOL    HW122241   0.686   3.822   7.406  0.5673 -0.1230  0.1823
 3535SOL    HW222242   0.744   3.759   7.283 -1.9570  2.9241 -0.3295
 3536SOL     OW22243   3.311   3.937   4.460 -0.0126  0.6339 -0.3433
 3536SOL    HW122244   3.231   3.989   4.474 -1.0242 -0.9958 -0.0429
 3536SOL    HW222245   3.331   3.910   4.549  0.4458  0.1428 -0.5938
 3537SOL     OW22246   2.275   1.585   2.089 -0.2435 -0.1530 -0.3036
 3537SOL    HW122247   2.327   1.510   2.060 -1.9106 -1.0306 -1.0301
 3537SOL    HW222248   2.222   1.529   2.146  0.5564 -0.1344  0.4644
 3538SOL     OW22249   4.661   2.536   5.113 -0.1050  0.0500 -0.5655
 3538SOL    HW122250   4.723   2.530   5.040 -0.2700  1.2122 -0.8021
 3538SOL    HW222251   4.702   2.613   5.153 -2.1668  0.6869  0.3197
 3539SOL     OW22252   2.311   1.428   2.543 -0.2715  0.2541  0.2688
 3539SOL    HW122253   2.238   1.490   2.550 -0.5399 -0.0634  0.2551
 3539SOL    HW222254   2.384   1.485   2.567  1.9367 -1.7573 -1.6904
 3540SOL     OW22255   0.788   2.636   4.954 -0.5084 -0.4010  0.3697
 3540SOL    HW122256   0.779   2.543   4.934  0.4028 -0.5449  0.6410
 3540SOL    HW222257   0.810   2.640   5.047 -0.0252 -0.7396  0.2725
 3541SOL     OW22258   4.616   0.124   8.806  0.3411 -0.2548  0.6447
 3541SOL    HW122259   4.526   0.152   8.786  1.0356  2.4036  1.2369
 3541SOL    HW222260   4.653   0.212   8.817  2.0082 -0.8451 -0.3221
 3542SOL     OW22261   4.410   3.099   2.962 -0.5864 -0.5734  0.2387
 3542SOL    HW122262   4.468   3.027   2.987  0.0095  0.2267  1.1169
 3542SOL    HW222263   4.397   3.140   3.047  0.0027 -0.5848  0.3297
 3543SOL     OW22264   2.341   2.750  12.597 -0.0469 -0.2191  0.2196
 3543SOL    HW122265   2.360   2.669  12.552  0.4256  1.3483 -2.4041
 3543SOL    HW222266   2.268   2.725  12.654 -2.4285  1.5140 -2.0541
 3544SOL     OW22267   3.785   4.703  15.861  0.9779 -0.4873 -0.0896
 3544SOL    HW122268   3.856   0.005  15.812 -0.2434  0.8678 -0.7367
 3544SOL    HW222269   3.781   4.617  15.819 -1.3992  1.0313 -2.9791
 3545SOL     OW22270   2.400   3.299   3.800  0.6687 -0.0868  0.2736
 3545SOL    HW122271   2.375   3.386   3.769 -1.3059 -0.0675  1.9098
 3545SOL    HW222272   2.371   3.247   3.725  4.0108 -1.4998 -0.0505
 3546SOL     OW22273   2.044   2.729   8.747 -0.2540 -0.2925  0.1249
 3546SOL    HW122274   1.981   2.801   8.757 -0.7838 -0.7610  0.1157
 3546SOL    HW222275   1.985   2.658   8.722 -0.2374 -0.7083  1.2312
 3547SOL     OW22276   0.405   4.046   2.200 -0.1054 -0.7109 -0.4475
 3547SOL    HW122277   0.389   4.134   2.166  3.3159 -0.0348 -0.2566
 3547SOL    HW222278   0.418   3.996   2.119 -2.3840 -0.0750 -1.2280
 3548SOL     OW22279   3.645   0.851   1.164 -0.1778 -0.0963 -0.5432
 3548SOL    HW122280   3.653   0.770   1.113  1.1568 -0.2334 -0.0984
 3548SOL    HW222281   3.720   0.892   1.121  0.3542  0.5186  0.9710
 3549SOL     OW22282   4.557   1.271   1.884 -0.5403 -0.5062 -0.2498
 3549SOL    HW122283   4.631   1.316   1.925 -1.7133  0.3161  0.9468
 3549SOL    HW222284   4.518   1.223   1.957 -0.7045 -2.5023 -1.6550
 3550SOL     OW22285   2.468   1.940   1.081  0.7311  0.1114  0.4458
 3550SOL    HW122286   2.406   2.004   1.116  0.5022 -0.6657  1.4625
 3550SOL    HW222287   2.458   1.868   1.142 -0.6858 -1.2743 -1.4231
 3551SOL     OW22288   1.995   2.859   9.490  0.4137 -0.2401 -0.0035
 3551SOL    HW122289   2.025   2.793   9.428  2.1322 -0.6917  1.3223
 3551SOL    HW222290   1.902   2.837   9.486  0.2843  0.1492  0.7720
 3552SOL     OW22291   1.394   3.877   2.809 -0.1776 -0.7097 -0.3550
 3552SOL    HW122292   1.417   3.871   2.716  1.3141 -0.1277 -0.0306
 3552SOL    HW222293   1.315   3.824   2.808 -0.6963  0.0770 -0.5363
 3553SOL     OW22294   3.254   4.690  15.009 -0.0363  0.3966  0.2396
 3553SOL    HW122295   3.191   0.023  15.012 -0.4210  0.0365  0.8475
 3553SOL    HW222296   3.295   4.705  14.924  1.9023  1.2154  1.3118
 3554SOL     OW22297   1.587   0.080  12.204  0.2923 -0.0001  0.2333
 3554SOL    HW122298   1.596   0.175  12.206 -1.6771  0.1399  2.2232
 3554SOL    HW222299   1.499   0.066  12.168  0.8613 -2.3797 -0.2785
 3555SOL     OW22300   2.187   1.520   6.447 -0.4019  0.3130 -0.1025
 3555SOL    HW122301   2.184   1.484   6.536 -2.8295  1.0125  0.0887
 3555SOL    HW222302   2.281   1.538   6.450 -0.7013  1.8465  0.1155
 3556SOL     OW22303   3.304   4.723   9.085  0.1840 -0.6078  0.2307
 3556SOL    HW122304   3.284   4.673   9.005 -2.1814 -2.5343  2.0394
 3556SOL    HW222305   3.218   4.717   9.125  0.3120  2.2101  0.9089
 3557SOL     OW22306   1.869   4.315   4.981 -0.6214  0.0312 -0.2581
 3557SOL    HW122307   1.958   4.350   4.976 -0.3556 -0.5523  0.4514
 3557SOL    HW222308   1.827   4.391   5.023  1.5797 -0.4232  2.7459
 3558SOL     OW22309   2.915   2.181  15.255 -0.1654 -0.7403 -0.0278
 3558SOL    HW122310   2.882   2.159  15.167 -0.8685  0.5545 -0.0994
 3558SOL    HW222311   2.888   2.272  15.270 -2.9721 -1.7106  0.7696
 3559SOL     OW22312   1.562   3.146   4.022  0.6817  0.1339 -0.1825
 3559SOL    HW122313   1.560   3.233   3.981  0.6733  0.3186  0.2186
 3559SOL    HW222314   1.627   3.104   3.966 -1.0476 -1.3282 -1.1315
 3560SOL     OW22315   0.494   4.265   8.658 -0.0189  0.2206 -0.0527
 3560SOL    HW122316   0.512   4.284   8.750  0.7294 -1.0383  0.0601
 3560SOL    HW222317   0.468   4.173   8.660 -0.5290  0.3778  1.0452
 3561SOL     OW22318   1.614   1.462   4.682 -0.1940  0.6660  0.0435
 3561SOL    HW122319   1.591   1.508   4.762 -0.8995 -0.7173  0.6357
 3561SOL    HW222320   1.629   1.537   4.623 -0.4478 -1.3939 -2.6561
 3562SOL     OW22321   4.424   4.364  13.296 -0.1450  0.0639  0.6741
 3562SOL    HW122322   4.507   4.337  13.335 -0.3348 -1.0697  0.2976
 3562SOL    HW222323   4.427   4.459  13.309 -1.2404  0.1223  0.4973
 3563SOL     OW22324   0.311   4.030   1.113  0.1515 -0.1885  0.1785
 3563SOL    HW122325   0.388   4.003   1.162 -0.0093 -1.5039 -0.2864
 3563SOL    HW222326   0.256   4.038   1.191  0.0243  1.4117 -0.0631
 3564SOL     OW22327   2.482   3.436   8.735 -0.3000 -0.4843  0.1016
 3564SOL    HW122328   2.405   3.490   8.720  0.6691  1.0125  0.5303
 3564SOL    HW222329   2.557   3.487   8.705 -1.6759  0.6211 -1.4300
 3565SOL     OW22330   3.332   0.546   1.653 -0.0295 -0.5810  0.4544
 3565SOL    HW122331   3.244   0.509   1.642  0.6262 -1.9729 -0.0774
 3565SOL    HW222332   3.384   0.469   1.675  0.5277 -0.2133  0.4285
 3566SOL     OW22333   0.370   2.483  10.911 -0.0431  0.4021  0.0918
 3566SOL    HW122334   0.413   2.553  10.960  0.7281 -0.1883  0.2666
 3566SOL    HW222335   0.444   2.431  10.880 -0.7133 -1.0905  0.9459
 3567SOL     OW22336   1.017   2.026   8.585 -0.0220  0.1563 -0.3934
 3567SOL    HW122337   0.945   2.072   8.542  0.5554  1.9485  0.5850
 3567SOL    HW222338   0.974   1.962   8.643 -0.4109 -0.4126 -1.3110
 3568SOL     OW22339   4.149   4.689   5.164 -0.1916 -0.2401 -0.0677
 3568SOL    HW122340   4.159   0.011   5.237  1.8877  1.3558 -1.6616
 3568SOL    HW222341   4.058   4.711   5.147 -0.6261 -0.9241  1.3759
 3569SOL     OW22342   1.624   0.895   0.214 -0.0191  0.0648 -0.3098
 3569SOL    HW122343   1.683   0.970   0.209  2.6387 -1.9911  0.3431
 3569SOL    HW222344   1.696   0.835   0.197  0.1542 -0.3399  1.8434
 3570SOL     OW22345   0.186   0.830   1.599 -0.2539 -0.5683  0.1354
 3570SOL    HW122346   0.251   0.777   1.646 -0.8376 -3.3268 -2.1594
 3570SOL    HW222347   0.161   0.773   1.527 -1.9670 -1.3011  1.2965
 3571SOL     OW22348   4.124   3.205   7.786 -0.0073 -0.4269  0.1676
 3571SOL    HW122349   4.084   3.151   7.717 -1.3242 -1.6940  1.9212
 3571SOL    HW222350   4.210   3.232   7.753  1.4438 -4.6272  0.5062
 3572SOL     OW22351   1.268   2.096  10.298 -0.1853  0.5110  0.1953
 3572SOL    HW122352   1.177   2.077  10.275 -0.6055 -1.6565  3.6302
 3572SOL    HW222353   1.272   2.032  10.369  0.6786 -0.7999 -1.0179
 3573SOL     OW22354   2.147   0.051   2.195 -0.2272  0.9475 -1.0983
 3573SOL    HW122355   2.202   0.126   2.217  0.8255  0.2531 -1.3857
 3573SOL    HW222356   2.148   0.057   2.099  1.1625  0.3830 -1.1147
 3574SOL     OW22357   2.255   1.901   0.629 -0.1814 -0.2296  0.2513
 3574SOL    HW122358   2.345   1.916   0.658 -0.4865  2.1807 -0.0753
 3574SOL    HW222359   2.267   1.831   0.565 -1.2461 -0.5577  0.4079
 3575SOL     OW22360   1.738   4.544   0.824  0.2429  0.5974 -0.8362
 3575SOL    HW122361   1.702   4.617   0.876 -0.8136 -1.3518  1.1621
 3575SOL    HW222362   1.676   4.553   0.751  1.5494  0.3023 -1.9750
 3576SOL     OW22363   1.351   3.556  14.572  0.2335 -0.2635  0.0753
 3576SOL    HW122364   1.446   3.552  14.584  0.2023  2.1999  1.2654
 3576SOL    HW222365   1.337   3.608  14.492 -0.3096 -0.4058  0.0742
 3577SOL     OW22366   0.459   2.136   8.012  0.0314  0.0683  0.0555
 3577SOL    HW122367   0.383   2.191   8.033 -0.2834  0.1363 -1.2523
 3577SOL    HW222368   0.483   2.172   7.927  0.1231 -0.9546 -0.3475
 3578SOL     OW22369   0.619   3.190   4.499  0.2881  0.0871  0.4394
 3578SOL    HW122370   0.527   3.218   4.499  0.8580  1.9822  1.0399
 3578SOL    HW222371   0.657   3.255   4.441 -1.4903 -0.6466 -1.5607
 3579SOL     OW22372   3.526   4.102   9.801  0.1135  0.3718  0.1885
 3579SOL    HW122373   3.456   4.098   9.736 -0.3841 -2.2069  0.8532
 3579SOL    HW222374   3.538   4.008   9.813 -1.5548  0.0496 -0.6818
 3580SOL     OW22375   4.463   3.450  15.205 -0.4101 -0.0749 -0.0395
 3580SOL    HW122376   4.424   3.446  15.118 -0.4356 -3.3268  0.1359
 3580SOL    HW222377   4.440   3.362  15.234 -0.2482  0.4119  1.5512
 3581SOL     OW22378   3.995   1.900   2.331  0.1269  0.1055  0.6368
 3581SOL    HW122379   3.944   1.824   2.303 -0.3223  0.2730  1.0109
 3581SOL    HW222380   3.967   1.888   2.422  0.9964 -2.8112  0.5167
 3582SOL     OW22381   2.563   2.755   3.794 -0.0840 -0.4617 -0.5283
 3582SOL    HW122382   2.491   2.714   3.746 -0.3357 -0.8002  0.1247
 3582SOL    HW222383   2.639   2.752   3.736 -1.3864 -1.2503 -2.2035
 3583SOL     OW22384   3.070   3.682  16.132 -0.2828  0.0239 -0.9275
 3583SOL    HW122385   3.073   3.772  16.165  1.0087 -0.3835  0.0926
 3583SOL    HW222386   3.080   3.697  16.038 -1.8365 -5.1833 -1.9273
 3584SOL     OW22387   2.685   4.555   2.375  0.5235 -0.3993 -0.3922
 3584SOL    HW122388   2.716   4.566   2.285 -0.2405 -1.9696 -0.8432
 3584SOL    HW222389   2.743   4.489   2.413  1.9173  0.7740 -0.4802
 3585SOL     OW22390   3.255   2.781   2.617 -0.2372 -0.1948  0.0404
 3585SOL    HW122391   3.181   2.721   2.624 -1.8803  1.6913 -1.2954
 3585SOL    HW222392   3.310   2.735   2.554 -1.8550 -1.8866 -0.1420
 3586SOL     OW22393   2.414   1.310   5.745 -0.3389  0.2514 -0.0059
 3586SOL    HW122394   2.359   1.349   5.677  0.1665 -1.4045 -1.3788
 3586SOL    HW222395   2.408   1.370   5.819  0.0246 -1.7960  1.6972
 3587SOL     OW22396   0.977   0.558  16.532 -0.4529  0.7715  0.0735
 3587SOL    HW122397   1.030   0.561  16.612 -0.4950  1.6829  0.0652
 3587SOL    HW222398   1.041   0.583  16.466  1.6498  0.1141  1.8754
 3588SOL     OW22399   0.048   4.169  11.176  0.0440 -0.6247  0.2504
 3588SOL    HW122400   0.067   4.202  11.088 -0.9425 -0.7325 -0.0049
 3588SOL    HW222401   0.085   4.081  11.184  1.3146 -0.1595 -0.5498
 3589SOL     OW22402   4.297   4.227  17.470 -0.2744  0.1528 -0.5842
 3589SOL    HW122403   4.268   4.149  17.422  1.7136 -2.1244  1.9521
 3589SOL    HW222404   4.222   4.239  17.528 -0.5431  0.3779 -0.9753
 3590SOL     OW22405   2.189   2.973  12.586  0.2559  0.2910 -0.3302
 3590SOL    HW122406   2.260   2.960  12.523 -2.1630  0.8163 -3.1405
 3590SOL    HW222407   2.189   2.882  12.617  0.2499  0.5658  0.4544
 3591SOL     OW22408   2.467   3.888   7.449 -0.2198  0.4537 -0.3699
 3591SOL    HW122409   2.557   3.873   7.421 -0.3757  1.1300 -1.2538
 3591SOL    HW222410   2.430   3.804   7.476  1.6433 -0.3403 -0.3302
 3592SOL     OW22411   0.172   4.624   2.524  0.1085 -0.3427  0.5134
 3592SOL    HW122412   0.135   4.539   2.550 -1.4769 -0.7323 -3.0242
 3592SOL    HW222413   0.220   4.646   2.604 -0.4024 -0.9516  0.9929
 3593SOL     OW22414   3.767   1.582   7.380 -0.5069 -0.1901  0.0923
 3593SOL    HW122415   3.790   1.649   7.315 -0.5376  1.4845  1.8145
 3593SOL    HW222416   3.826   1.515   7.346  0.1388  0.6906 -0.5095
 3594SOL     OW22417   0.807   0.351   7.315 -0.5417  0.0889 -0.3952
 3594SOL    HW122418   0.855   0.274   7.345  1.1091  0.9079 -0.9337
 3594SOL    HW222419   0.844   0.377   7.231 -0.2265  0.9731  0.0283
 3595SOL     OW22420   2.569   4.226   6.105 -0.9962 -0.0322 -0.8705
 3595SOL    HW122421   2.483   4.254   6.072 -2.5968 -2.3426  1.3911
 3595SOL    HW222422   2.554   4.190   6.192  2.3335  0.0879 -0.2564
 3596SOL     OW22423   3.743   2.312   0.848 -0.2397  0.6941 -0.4726
 3596SOL    HW122424   3.655   2.310   0.809  0.2804 -2.9191 -1.4708
 3596SOL    HW222425   3.792   2.348   0.774  0.6616 -2.3593 -1.3640
 3597SOL     OW22426   2.697   4.678   3.194  0.3996  0.1409 -0.4192
 3597SOL    HW122427   2.713   4.584   3.192 -1.5653 -0.1803 -0.6622
 3597SOL    HW222428   2.739   4.705   3.276 -2.9452  0.8565  1.0246
 3598SOL     OW22429   3.086   4.143   6.844  0.6796  0.5143  0.4011
 3598SOL    HW122430   3.121   4.136   6.933 -0.2432 -0.1835  0.7177
 3598SOL    HW222431   3.151   4.200   6.805 -0.5246  0.7861 -1.2060
 3599SOL     OW22432   1.361   3.875  11.572 -0.3368  0.2460  0.0788
 3599SOL    HW122433   1.404   3.951  11.532 -1.2660  1.3742  1.2037
 3599SOL    HW222434   1.272   3.884  11.538 -0.6529  1.3857  1.1908
 3600SOL     OW22435   1.573   1.015  11.924  0.1954 -0.5560  0.6119
 3600SOL    HW122436   1.536   0.994  12.009 -0.7419  0.2603  0.4010
 3600SOL    HW222437   1.569   1.110  11.923  2.0989 -0.4659  1.2747
 3601SOL     OW22438   1.949   1.401   3.002  0.3529 -0.0375  0.3564
 3601SOL    HW122439   1.874   1.382   3.059  0.8456 -0.5222  0.8392
 3601SOL    HW222440   2.020   1.381   3.062  1.1557  0.8293 -0.2896
 3602SOL     OW22441   0.312   4.273   6.455 -0.2099  0.1876 -0.5796
 3602SOL    HW122442   0.240   4.255   6.516  0.3950  3.6768  1.1024
 3602SOL    HW222443   0.267   4.320   6.385  1.7080  1.0509 -1.2083
 3603SOL     OW22444   1.654   3.461   3.192  0.6890  0.0723 -0.0458
 3603SOL    HW122445   1.618   3.549   3.196  2.0912  0.6872 -1.1260
 3603SOL    HW222446   1.655   3.438   3.285  0.4505  0.4556  0.0494
 3604SOL     OW22447   0.273   0.045   6.688  0.1156  0.3995  0.6740
 3604SOL    HW122448   0.348   0.090   6.729  1.1372 -0.5665 -0.1587
 3604SOL    HW222449   0.310   0.014   6.606  1.1406  3.1632  0.0806
 3605SOL     OW22450   3.691   2.672   8.036 -0.0925 -0.7392 -0.0058
 3605SOL    HW122451   3.630   2.613   8.080 -1.9311 -0.9603 -2.8712
 3605SOL    HW222452   3.751   2.697   8.106  1.2209 -0.4822 -1.2274
 3606SOL     OW22453   4.552   2.271   8.122  0.3850 -0.2497 -0.1041
 3606SOL    HW122454   4.464   2.306   8.133  0.5725 -0.0473  0.7026
 3606SOL    HW222455   4.555   2.200   8.186 -0.5042 -1.5110 -1.4658
 3607SOL     OW22456   2.327   2.907   3.077 -0.4219  0.0679 -0.2524
 3607SOL    HW122457   2.288   2.891   2.991  1.3226  0.9995 -1.2260
 3607SOL    HW222458   2.262   2.861   3.130  0.6123  2.0575  2.7645
 3608SOL     OW22459   1.591   2.456   6.255  0.1744 -0.0195  0.3545
 3608SOL    HW122460   1.498   2.451   6.277  0.2644  1.5181  1.0860
 3608SOL    HW222461   1.614   2.367   6.282 -0.6431 -0.5360 -0.6261
 3609SOL     OW22462   2.859   4.381  16.536 -0.1556 -0.3594 -0.5512
 3609SOL    HW122463   2.844   4.313  16.470 -1.9995 -0.8113  0.3330
 3609SOL    HW222464   2.846   4.463  16.488 -0.0950 -1.2846 -2.1300
 3610SOL     OW22465   0.951   3.070   5.357 -0.3461 -0.0347  0.6343
 3610SOL    HW122466   0.985   3.111   5.436 -1.9573  3.4388 -0.4577
 3610SOL    HW222467   0.921   3.143   5.303  1.7596  1.9901  2.2088
 3611SOL     OW22468   2.177   4.254   5.667 -0.4315  0.5508  0.0974
 3611SOL    HW122469   2.220   4.262   5.752 -1.4336 -0.4858  0.6876
 3611SOL    HW222470   2.223   4.185   5.619 -2.1202 -1.7898  1.8877
 3612SOL     OW22471   4.113   1.610  14.159 -0.3417 -0.0851  0.1987
 3612SOL    HW122472   4.061   1.677  14.202 -2.2133 -0.6465 -1.2050
 3612SOL    HW222473   4.203   1.634  14.182 -0.5651  0.4005  0.5568
 3613SOL     OW22474   4.595   1.215   2.825 -0.5442 -0.2828  0.1574
 3613SOL    HW122475   4.683   1.226   2.788  0.2068  1.1087  2.4017
 3613SOL    HW222476   4.597   1.270   2.903  1.0510 -0.6187  0.3603
 3614SOL     OW22477   4.663   1.006   7.985 -0.4504  0.1386  0.7181
 3614SOL    HW122478   4.590   1.068   7.989 -0.9010 -0.4276  1.3846
 3614SOL    HW222479   4.610   0.930   7.958 -1.8756  1.5572 -0.4728
 3615SOL     OW22480   0.144   1.054  12.452 -0.1233  0.0656 -0.1003
 3615SOL    HW122481   0.139   1.148  12.438  1.5893  0.3344  1.1451
 3615SOL    HW222482   0.177   1.019  12.369 -1.5411 -0.8718 -0.2698
 3616SOL     OW22483   1.303   3.061   4.575 -0.3807 -0.0398 -0.3070
 3616SOL    HW122484   1.271   3.078   4.486 -0.3490 -0.4304 -0.3945
 3616SOL    HW222485   1.221   3.086   4.617 -0.3463  0.6940 -0.6704
 3617SOL     OW22486   2.640   2.007   8.952 -0.7238 -0.0230  0.1159
 3617SOL    HW122487   2.623   2.032   9.043 -0.4948 -1.0923  0.4551
 3617SOL    HW222488   2.733   2.030   8.943  0.3661 -4.0507  1.1373
 3618SOL     OW22489   1.772   3.023   3.557 -0.4614 -0.2896  0.4283
 3618SOL    HW122490   1.779   2.981   3.471  1.7580 -0.2014  0.5528
 3618SOL    HW222491   1.733   2.946   3.598 -0.9875  0.5274  1.4285
 3619SOL     OW22492   1.692   3.903   2.564  0.0932 -0.4261  0.0744
 3619SOL    HW122493   1.673   3.990   2.598  0.8179 -1.3578  2.8682
 3619SOL    HW222494   1.759   3.871   2.624  1.8295 -0.1206 -1.6864
 3620SOL     OW22495   0.888   2.977   4.660 -0.3543  0.5384  0.3721
 3620SOL    HW122496   0.945   2.985   4.736 -0.2623 -1.8394  0.5355
 3620SOL    HW222497   0.934   3.019   4.587 -1.0747  0.9289  0.1373
 3621SOL     OW22498   3.145   1.035   8.688 -0.1619 -0.0346 -0.2269
 3621SOL    HW122499   3.198   0.958   8.710 -1.6025 -1.1811 -0.7948
 3621SOL    HW222500   3.067   0.993   8.653  0.3022 -1.4524  0.4084
 3622SOL     OW22501   1.840   4.406   1.880 -0.0890  0.3169 -0.3495
 3622SOL    HW122502   1.852   4.311   1.886  0.2031  0.2134 -2.4910
 3622SOL    HW222503   1.745   4.416   1.874  0.0908  0.8769 -2.3482
 3623SOL     OW22504   0.374   2.285   8.928  0.0330 -0.0031  0.5575
 3623SOL    HW122505   0.376   2.369   8.881  2.3406 -0.6407 -0.4372
 3623SOL    HW222506   0.325   2.232   8.865 -3.9010  1.5030  2.3518
 3624SOL     OW22507   0.178   1.073  11.297  0.3754  0.7714  0.2860
 3624SOL    HW122508   0.225   1.106  11.219  0.5673 -1.7093 -0.6630
 3624SOL    HW222509   0.253   1.037  11.345 -0.8453 -2.1168  0.0290
 3625SOL     OW22510   2.481   0.513   1.252  0.0884  0.2705  0.1628
 3625SOL    HW122511   2.509   0.443   1.193 -0.6601  0.6712 -0.6594
 3625SOL    HW222512   2.459   0.463   1.330 -1.1391  1.1649  0.3848
 3626SOL     OW22513   1.592   3.506   3.488  0.0977  0.4559  0.0737
 3626SOL    HW122514   1.589   3.423   3.535  2.7415 -1.2879 -2.8892
 3626SOL    HW222515   1.499   3.528   3.490  0.1199  0.6117 -0.6732
 3627SOL     OW22516   3.877   2.363   4.046 -0.0102  0.2978  0.5585
 3627SOL    HW122517   3.966   2.340   4.019  0.0289 -1.3159  2.0393
 3627SOL    HW222518   3.874   2.458   4.037  0.9046  0.2761  0.0814
 3628SOL     OW22519   1.824   3.353   9.043  0.5832  0.2118 -0.1766
 3628SOL    HW122520   1.793   3.325   8.956 -0.9590 -0.3782  0.5638
 3628SOL    HW222521   1.768   3.301   9.101  1.0916 -0.4737 -0.3100
 3629SOL     OW22522   4.184   3.389   6.725  0.3415 -0.1140 -0.3888
 3629SOL    HW122523   4.239   3.460   6.691  0.4122  0.8954  1.7928
 3629SOL    HW222524   4.113   3.403   6.662  1.3706  2.9320 -0.8822
 3630SOL     OW22525   4.352   4.697  16.652  0.0729 -0.4563 -0.4504
 3630SOL    HW122526   4.406   4.646  16.713 -0.6198 -1.2229 -0.4785
 3630SOL    HW222527   4.402   0.040  16.643 -0.6642 -0.1604 -1.8521
 3631SOL     OW22528   4.548   1.783   1.877  0.3007  0.1787 -0.0105
 3631SOL    HW122529   4.463   1.828   1.876 -0.7113 -1.6964  1.1555
 3631SOL    HW222530   4.519   1.699   1.843  0.8023  0.6243 -1.5082
 3632SOL     OW22531   2.399   1.705   8.060  0.1271  0.1734  0.0618
 3632SOL    HW122532   2.489   1.677   8.045 -0.4285 -1.2578 -0.6045
 3632SOL    HW222533   2.354   1.685   7.978  0.4287  0.8976 -0.2809
 3633SOL     OW22534   0.481   0.388   9.247  0.0663 -0.2606  0.1233
 3633SOL    HW122535   0.563   0.373   9.198  0.7225  2.4800  0.3593
 3633SOL    HW222536   0.526   0.412   9.328  0.4984  1.6078 -0.6552
 3634SOL     OW22537   1.179   1.424   6.907  0.3613  0.1697  0.0372
 3634SOL    HW122538   1.224   1.508   6.902 -0.9289  0.8561 -0.2900
 3634SOL    HW222539   1.259   1.372   6.913  0.0827 -0.7120 -3.8013
 3635SOL     OW22540   4.680   3.981  13.326  0.5223 -0.1838 -0.1804
 3635SOL    HW122541   4.648   3.958  13.238 -1.3443  1.9774 -0.0647
 3635SOL    HW222542   0.006   3.913  13.346  0.2185  0.5553  3.2145
 3636SOL     OW22543   4.381   2.737   9.379 -0.5145  0.3678  0.5073
 3636SOL    HW122544   4.420   2.791   9.448 -1.7374 -0.6741  2.0094
 3636SOL    HW222545   4.411   2.790   9.305  1.0981 -1.4129 -0.0876
 3637SOL     OW22546   3.431   1.664   6.987 -0.0981 -0.2562  0.0074
 3637SOL    HW122547   3.392   1.741   7.026  1.4531  0.4663  0.1301
 3637SOL    HW222548   3.459   1.614   7.064 -0.4411 -1.0540 -0.3781
 3638SOL     OW22549   0.414   2.610   2.240  0.6675  0.6344  0.1263
 3638SOL    HW122550   0.406   2.541   2.306  0.3710  1.6972  1.1986
 3638SOL    HW222551   0.467   2.667   2.295  0.6390  0.7307  0.0544
 3639SOL     OW22552   0.777   4.509   4.388 -0.8202 -0.3596  0.0430
 3639SOL    HW122553   0.762   4.417   4.366  0.6339 -0.4944 -0.3993
 3639SOL    HW222554   0.860   4.501   4.435 -0.5368 -1.5411 -0.6476
 3640SOL     OW22555   3.369   4.210  16.226 -0.4853  0.4717  0.6408
 3640SOL    HW122556   3.453   4.254  16.243  1.3007 -1.4309 -3.1831
 3640SOL    HW222557   3.314   4.267  16.280  0.8394  1.5251  0.9097
 3641SOL     OW22558   3.138   0.887   3.140  0.1788  0.1169  0.2700
 3641SOL    HW122559   3.225   0.848   3.151 -0.0190 -0.7276 -1.1439
 3641SOL    HW222560   3.167   0.975   3.116 -2.7405  1.2957  1.0598
 3642SOL     OW22561   4.211   1.849  16.777  0.1575 -0.6401 -0.3901
 3642SOL    HW122562   4.207   1.757  16.800 -0.3538 -0.4926  0.1163
 3642SOL    HW222563   4.292   1.875  16.822  0.6340 -0.1513 -1.5361
 3643SOL     OW22564   3.704   4.273  10.805 -0.6229 -0.0736 -0.0453
 3643SOL    HW122565   3.748   4.231  10.730 -1.5316 -2.5458  0.8014
 3643SOL    HW222566   3.658   4.337  10.751  0.1833  1.2879  0.8922
 3644SOL     OW22567   0.515   0.387   9.839 -0.0786  0.4970 -0.7124
 3644SOL    HW122568   0.429   0.406   9.877  0.0468 -0.8972  0.2738
 3644SOL    HW222569   0.494   0.316   9.777  0.4392  0.0693 -0.3988
 3645SOL     OW22570   2.213   1.153   5.440 -0.3796  0.1327 -0.0831
 3645SOL    HW122571   2.257   1.238   5.434  0.2245 -0.1003  1.1290
 3645SOL    HW222572   2.263   1.106   5.507 -0.7036  0.8068  0.6371
 3646SOL     OW22573   3.390   0.722   7.015 -0.0252  0.1703  0.2597
 3646SOL    HW122574   3.333   0.799   7.012  1.4209  1.2605  0.9861
 3646SOL    HW222575   3.433   0.736   7.099 -1.7935  0.5631  1.1049
 3647SOL     OW22576   0.265   0.476   2.775 -0.2453  0.2965 -0.2406
 3647SOL    HW122577   0.178   0.450   2.743 -0.5519  1.9154 -0.7441
 3647SOL    HW222578   0.276   0.570   2.761  0.3375  0.2816  0.1283
 3648SOL     OW22579   0.337   3.218   5.292  0.1798 -0.0931 -0.0551
 3648SOL    HW122580   0.362   3.149   5.230 -0.0678 -0.2238 -0.0099
 3648SOL    HW222581   0.245   3.225   5.270 -0.1212  0.5856  1.3819
 3649SOL     OW22582   2.039   1.735   2.072  0.1731  0.3677  0.0072
 3649SOL    HW122583   2.119   1.706   2.117 -0.2894 -1.8071 -0.5821
 3649SOL    HW222584   2.052   1.690   1.988  0.2354  0.4776 -0.0423
 3650SOL     OW22585   3.271   3.168   7.697  0.1864  0.5092  0.0797
 3650SOL    HW122586   3.358   3.156   7.735  0.9490  0.1604 -1.7765
 3650SOL    HW222587   3.264   3.262   7.682 -2.2196  0.1191 -1.2893
 3651SOL     OW22588   0.726   2.919   4.270  0.3075  0.3771 -0.1592
 3651SOL    HW122589   0.728   2.999   4.218 -1.2131  0.3340 -0.2604
 3651SOL    HW222590   0.778   2.934   4.349 -0.8986  0.2069  0.6511
 3652SOL     OW22591   2.311   1.390   3.207  0.3938 -0.8271 -0.7321
 3652SOL    HW122592   2.227   1.344   3.204 -1.9892  3.6505 -3.2295
 3652SOL    HW222593   2.293   1.472   3.160  2.0753  0.1178  0.2668
 3653SOL     OW22594   0.914   4.261   9.156 -0.3059  0.2869 -0.4361
 3653SOL    HW122595   0.936   4.253   9.248 -1.1138 -0.7859 -0.3209
 3653SOL    HW222596   0.921   4.171   9.124 -2.1173 -0.5497  1.4871
 3654SOL     OW22597   0.363   4.492   7.066  0.4975 -0.0476 -0.0177
 3654SOL    HW122598   0.286   4.471   7.118 -0.3569  0.3881 -1.0952
 3654SOL    HW222599   0.420   4.508   7.140  2.0272  0.3733 -1.2811
 3655SOL     OW22600   3.421   0.532   6.510  0.1918 -0.1086 -0.0111
 3655SOL    HW122601   3.386   0.490   6.589  1.0934  0.3367  0.6399
 3655SOL    HW222602   3.363   0.496   6.444  0.8647  0.7506 -1.0615
 3656SOL     OW22603   2.897   2.055   0.454  0.5591 -0.4131  0.1445
 3656SOL    HW122604   2.854   2.140   0.461 -1.9947 -1.5002 -2.2003
 3656SOL    HW222605   2.928   2.065   0.363 -1.4622 -3.1438 -0.8388
 3657SOL     OW22606   0.647   3.586   8.359  0.6255  0.4196 -0.4686
 3657SOL    HW122607   0.632   3.581   8.453 -1.0321  1.2137 -0.6800
 3657SOL    HW222608   0.574   3.641   8.328 -0.3072 -0.4831  0.1180
 3658SOL     OW22609   3.863   1.059   8.432 -0.7536  0.2628 -0.5014
 3658SOL    HW122610   3.918   1.034   8.506 -2.8252  0.9986  1.3075
 3658SOL    HW222611   3.885   0.988   8.372 -0.9607  2.2327 -2.9230
 3659SOL     OW22612   2.905   2.873   2.509 -0.5118  0.4490  0.2514
 3659SOL    HW122613   2.812   2.861   2.486 -0.3169 -1.7542  0.6339
 3659SOL    HW222614   2.949   2.840   2.431  0.1161  2.0552 -0.0760
 3660SOL     OW22615   0.873   4.656   9.755 -0.1303  0.1416 -0.9435
 3660SOL    HW122616   0.848   4.619   9.670 -2.0776  1.3006 -0.8669
 3660SOL    HW222617   0.790   4.697   9.780 -0.4083 -1.1275  0.1783
 3661SOL     OW22618   0.442   1.889   7.731 -0.8649  0.5678  0.2235
 3661SOL    HW122619   0.502   1.958   7.704  0.1202 -0.0264  0.9214
 3661SOL    HW222620   0.506   1.834   7.776 -0.9592 -0.1522 -0.5138
 3662SOL     OW22621   2.639   2.057   6.703  0.5698  0.0506 -0.6949
 3662SOL    HW122622   2.620   2.119   6.633 -0.1362 -1.3089 -1.7098
 3662SOL    HW222623   2.732   2.078   6.704  0.3844  0.8310 -0.0659
 3663SOL     OW22624   2.943   0.635   4.581 -0.2656  0.1481  0.1289
 3663SOL    HW122625   2.953   0.656   4.489 -0.1636 -0.1266  0.0779
 3663SOL    HW222626   2.871   0.697   4.594 -0.7029 -0.6056  1.3902
 3664SOL     OW22627   1.318   2.749   3.876  0.7708  0.1355 -0.7663
 3664SOL    HW122628   1.327   2.785   3.964 -2.2036 -0.7720 -0.0726
 3664SOL    HW222629   1.362   2.664   3.879 -0.8411 -0.8014 -3.4501
 3665SOL     OW22630   2.092   4.687  17.502  0.5885  0.0281  0.3407
 3665SOL    HW122631   2.151   4.704  17.428 -1.7479 -2.1096 -2.0016
 3665SOL    HW222632   2.135   4.604  17.520 -0.7879 -0.6019  0.6443
 3666SOL     OW22633   0.168   2.702  10.886 -0.3336 -0.4082 -0.5554
 3666SOL    HW122634   0.251   2.661  10.912 -0.1027  0.2332 -0.2807
 3666SOL    HW222635   0.195   2.734  10.801 -2.7670  1.0311 -0.7967
 3667SOL     OW22636   0.536   2.552   7.417  0.8457 -0.3030  0.0895
 3667SOL    HW122637   0.512   2.460   7.417 -0.0652 -0.0601  1.7569
 3667SOL    HW222638   0.584   2.555   7.335  1.1183  0.0275  0.2596
 3668SOL     OW22639   4.159   2.515   4.944  0.2554 -0.3733 -0.4744
 3668SOL    HW122640   4.152   2.550   5.033  0.7158 -2.2216  0.2967
 3668SOL    HW222641   4.252   2.499   4.934  0.4204 -0.5425  1.3419
 3669SOL     OW22642   0.778   1.361   1.485  0.3577  0.3767 -0.0922
 3669SOL    HW122643   0.706   1.317   1.440  0.6261  1.1277 -1.2491
 3669SOL    HW222644   0.806   1.428   1.423  0.7731  0.6272  0.3651
 3670SOL     OW22645   4.214   2.218  10.028 -0.2411  0.1764  0.8360
 3670SOL    HW122646   4.160   2.139  10.022 -0.0770 -0.1462  3.9200
 3670SOL    HW222647   4.146   2.281  10.006 -0.9172 -0.0717  2.2309
 3671SOL     OW22648   3.022   2.823   7.402 -0.2439  0.5329 -0.3805
 3671SOL    HW122649   3.014   2.728   7.409  1.6824  0.3592 -0.5916
 3671SOL    HW222650   2.951   2.861   7.351  0.5761  0.1690 -1.7892
 3672SOL     OW22651   1.898   2.757   2.914  0.1838 -0.3346  0.1211
 3672SOL    HW122652   1.820   2.771   2.860  0.6538  0.2975 -0.3974
 3672SOL    HW222653   1.865   2.789   2.998  2.0002 -0.9052  1.0582
 3673SOL     OW22654   2.293   1.403   0.158 -0.1009 -0.3304 -0.3474
 3673SOL    HW122655   2.384   1.402   0.187 -0.1856 -3.6379 -0.1690
 3673SOL    HW222656   2.253   1.395   0.245  0.3189 -0.4022 -0.1606
 3674SOL     OW22657   0.054   0.587   6.566 -0.8299 -1.0485  0.1132
 3674SOL    HW122658   0.023   0.678   6.572  1.1591 -0.4769  1.7083
 3674SOL    HW222659   0.001   0.557   6.492  0.2922  1.2279 -1.6368
 3675SOL     OW22660   3.423   2.878   7.474  0.0476 -0.2071  0.5086
 3675SOL    HW122661   3.513   2.863   7.446 -0.3874  1.5517 -1.8780
 3675SOL    HW222662   3.424   2.855   7.567 -1.3374 -1.7473  0.1464
 3676SOL     OW22663   3.683   3.502  10.940  0.5036 -0.3223 -0.1629
 3676SOL    HW122664   3.690   3.530  11.031  0.2427 -1.5488  0.2382
 3676SOL    HW222665   3.757   3.539  10.891 -0.0716  2.7053  1.2408
 3677SOL     OW22666   2.760   3.495   1.923  0.1603 -0.4344  0.3857
 3677SOL    HW122667   2.732   3.586   1.910 -0.8209 -0.9077 -0.8548
 3677SOL    HW222668   2.852   3.500   1.899  0.7503  0.3185  2.7841
 3678SOL     OW22669   2.984   4.301   5.026  0.0220 -0.1007 -0.4189
 3678SOL    HW122670   2.973   4.212   5.059  1.0983 -0.0168  0.1792
 3678SOL    HW222671   2.962   4.296   4.934  0.9092 -0.3468 -0.6149
 3679SOL     OW22672   0.210   3.323  11.930 -0.4875  0.2356 -0.5168
 3679SOL    HW122673   0.175   3.405  11.896 -1.2787 -0.5387 -1.5561
 3679SOL    HW222674   0.287   3.297  11.881 -0.0310 -1.7731  1.2297
 3680SOL     OW22675   1.586   4.020   2.257  0.0558 -0.1114  0.2264
 3680SOL    HW122676   1.673   4.059   2.258 -0.3063  0.7229 -0.7333
 3680SOL    HW222677   1.536   4.059   2.329  0.5451  1.8277 -0.4814
 3681SOL     OW22678   1.352   3.663   1.297  0.9240 -0.6747  0.2736
 3681SOL    HW122679   1.398   3.640   1.217  0.2260  1.9046 -0.8632
 3681SOL    HW222680   1.277   3.712   1.263  1.5762  2.1966  2.8902
 3682SOL     OW22681   1.753   3.692   1.333 -0.5841  0.3797 -0.2414
 3682SOL    HW122682   1.837   3.714   1.372  0.0740  0.3132 -1.5989
 3682SOL    HW222683   1.690   3.758   1.363 -0.1444 -0.1489  1.8356
 3683SOL     OW22684   0.310   2.161  13.394 -0.0473  0.1414 -0.4367
 3683SOL    HW122685   0.406   2.157  13.402  0.0482  2.7705 -0.1570
 3683SOL    HW222686   0.306   2.240  13.340  0.1891 -0.6301 -1.5834
 3684SOL     OW22687   4.659   3.462   2.227 -0.6641  0.3283 -0.0700
 3684SOL    HW122688   4.585   3.412   2.261 -1.3875  0.7565 -1.0117
 3684SOL    HW222689   4.716   3.477   2.303 -1.1604  2.0150 -0.0233
 3685SOL     OW22690   2.100   0.912  11.158 -0.2038 -0.2266 -0.5037
 3685SOL    HW122691   2.125   0.897  11.067  0.2743 -1.1861 -0.2167
 3685SOL    HW222692   2.181   0.950  11.194 -0.0536 -3.0318  2.1378
 3686SOL     OW22693   2.454   0.058   7.344  0.2164  0.4318 -0.6339
 3686SOL    HW122694   2.419   0.146   7.327 -1.6573 -0.1740  0.0355
 3686SOL    HW222695   2.378   0.034   7.397 -1.4197  1.9580 -2.2498
 3687SOL     OW22696   2.951   1.337   3.500  0.2021  0.3370  0.2724
 3687SOL    HW122697   2.947   1.309   3.592 -1.1777 -0.6980 -0.1231
 3687SOL    HW222698   3.035   1.383   3.510  0.7282 -1.2850  3.3120
 3688SOL     OW22699   3.816   2.389   7.280  0.3092  0.1016  0.0960
 3688SOL    HW122700   3.772   2.443   7.344  0.4340 -0.4235  0.6307
 3688SOL    HW222701   3.899   2.437   7.285  2.1690 -2.8956 -1.1518
 3689SOL     OW22702   2.464   3.320   3.486 -0.2490 -0.1710 -0.4067
 3689SOL    HW122703   2.381   3.355   3.518  0.2204  1.8381 -1.3612
 3689SOL    HW222704   2.472   3.349   3.395 -0.8513 -0.0551 -0.4254
 3690SOL     OW22705   4.041   2.937   7.031 -0.4966 -0.2960 -0.2130
 3690SOL    HW122706   4.067   2.978   7.114 -1.3989 -1.0767  0.4490
 3690SOL    HW222707   3.951   2.970   7.021  0.0259  0.7191 -1.6124
 3691SOL     OW22708   3.482   1.778  15.617 -0.7453  0.3979 -0.1035
 3691SOL    HW122709   3.467   1.873  15.611 -0.6013  0.4084 -0.2883
 3691SOL    HW222710   3.530   1.784  15.700  0.3731  0.7849 -0.7793
 3692SOL     OW22711   0.447   3.110   6.941 -0.2596 -0.3407  0.2466
 3692SOL    HW122712   0.375   3.167   6.916  0.4886  0.6541  0.3777
 3692SOL    HW222713   0.410   3.022   6.929 -1.5610  0.0689  1.2966
 3693SOL     OW22714   2.281   3.512   4.415 -0.2143  0.0560  0.1461
 3693SOL    HW122715   2.232   3.430   4.422 -1.2956  0.7714  1.1114
 3693SOL    HW222716   2.213   3.563   4.370  0.0993 -0.5303 -0.9994
 3694SOL     OW22717   0.842   0.273   4.980  0.3325  0.9068 -0.3522
 3694SOL    HW122718   0.885   0.249   5.063 -0.1446  1.4233  0.0440
 3694SOL    HW222719   0.923   0.278   4.929  0.2470 -1.1845 -0.7215
 3695SOL     OW22720   4.611   2.311  17.523 -0.1226 -0.5435  0.1272
 3695SOL    HW122721   4.623   2.363  17.603 -0.2824 -0.1344 -0.1115
 3695SOL    HW222722   4.700   2.305  17.489  0.2242 -2.6301  1.4342
 3696SOL     OW22723   4.190   1.912   4.552 -0.0839 -0.3894 -0.2172
 3696SOL    HW122724   4.201   1.990   4.606 -1.8711 -0.1843 -0.1519
 3696SOL    HW222725   4.278   1.877   4.536  0.7415  1.7844 -0.4085
 3697SOL     OW22726   2.423   1.342  16.934 -0.2894  0.5216 -0.2610
 3697SOL    HW122727   2.431   1.345  17.030  0.1526  1.9077 -0.3343
 3697SOL    HW222728   2.365   1.415  16.912  0.6640  1.5459  0.5679
 3698SOL     OW22729   0.406   4.053   7.920  0.0303 -0.6185  0.1486
 3698SOL    HW122730   0.350   4.003   7.860  1.7582 -3.6002  0.9806
 3698SOL    HW222731   0.374   4.141   7.939  1.3756  0.5098 -2.7822
 3699SOL     OW22732   2.482   1.259  17.215 -0.5004  0.2863  0.3315
 3699SOL    HW122733   2.536   1.328  17.254 -1.5160  2.3249 -1.8501
 3699SOL    HW222734   2.410   1.236  17.273 -1.6923 -1.8601 -1.9993
 3700SOL     OW22735   0.822   0.550   7.067 -0.3099 -0.1709  0.2911
 3700SOL    HW122736   0.868   0.537   6.984  0.0289 -2.6823  0.8579
 3700SOL    HW222737   0.752   0.606   7.033 -1.9228 -0.5818  2.9137
 3701SOL     OW22738   1.316   1.263   2.898  0.0472 -0.0049  0.1296
 3701SOL    HW122739   1.287   1.349   2.928  1.1525  0.4657 -0.1252
 3701SOL    HW222740   1.244   1.204   2.920 -2.0849  3.1077  1.4529
 3702SOL     OW22741   4.068   4.028   5.756  0.0826 -0.1953  0.3644
 3702SOL    HW122742   4.100   4.034   5.666  0.1827  2.6844  0.6052
 3702SOL    HW222743   4.075   3.934   5.776  3.1389 -0.0779 -0.1832
 3703SOL     OW22744   3.392   4.627   7.324 -0.7786 -0.2421  0.5037
 3703SOL    HW122745   3.367   4.554   7.268  0.1191  0.6806 -1.1206
 3703SOL    HW222746   3.308   4.673   7.326 -1.1876 -0.8513 -2.7996
 3704SOL     OW22747   0.848   2.761  14.487 -0.0549  0.4547  0.5923
 3704SOL    HW122748   0.925   2.818  14.499  0.7021 -0.7318  1.4165
 3704SOL    HW222749   0.825   2.782  14.397 -1.8602  0.6622  1.1009
 3705SOL     OW22750   0.008   3.834   4.077 -0.0833  0.2073  1.0222
 3705SOL    HW122751   0.013   3.822   4.172 -0.0340 -1.6682  0.7804
 3705SOL    HW222752   4.652   3.820   4.072 -0.6239  4.0961  0.2869
 3706SOL     OW22753   4.536   1.088   7.386 -0.3115  0.1644  0.3349
 3706SOL    HW122754   4.505   1.084   7.296 -0.0423  2.9181  0.1048
 3706SOL    HW222755   4.627   1.058   7.384 -0.2585  0.4216 -1.1469
 3707SOL     OW22756   4.114   0.105   9.286  0.1175 -0.0920  0.5333
 3707SOL    HW122757   4.105   0.181   9.229 -1.1802 -0.5326  0.1334
 3707SOL    HW222758   4.073   0.035   9.235 -0.1780  0.4615  0.0167
 3708SOL     OW22759   2.522   4.401   6.415  0.7517  0.1345 -0.5813
 3708SOL    HW122760   2.589   4.343   6.450  1.4301  0.5268 -1.2345
 3708SOL    HW222761   2.483   4.434   6.496  1.0768 -1.2301  0.1115
 3709SOL     OW22762   1.049   3.213  10.955  1.2315 -0.3015  0.2979
 3709SOL    HW122763   0.961   3.180  10.969  0.4566  0.9967 -1.5058
 3709SOL    HW222764   1.044   3.301  10.992  0.0655 -0.2673  0.0427
 3710SOL     OW22765   2.356   1.921   6.444 -0.4271 -0.0883  0.0593
 3710SOL    HW122766   2.382   1.908   6.536  0.4125  1.6481  0.0605
 3710SOL    HW222767   2.437   1.912   6.394  0.2316 -1.7455  1.4282
 3711SOL     OW22768   1.118   0.701  17.501  0.3405  0.0592 -0.0635
 3711SOL    HW122769   1.170   0.624  17.483  0.8313  0.1503  0.9572
 3711SOL    HW222770   1.173   0.747  17.564  1.0985  0.1457 -0.7936
 3712SOL     OW22771   1.370   4.372  15.011  0.7102 -0.0746  0.3689
 3712SOL    HW122772   1.450   4.365  14.958 -0.6982  0.9175 -1.8726
 3712SOL    HW222773   1.408   4.399  15.094 -1.1707  3.2918  0.1063
 3713SOL     OW22774   2.242   0.499   4.187  0.8134  0.1984 -0.3956
 3713SOL    HW122775   2.229   0.509   4.092  0.9656  1.7050 -0.2559
 3713SOL    HW222776   2.192   0.576   4.213  0.3380 -0.2912  0.1477
 3714SOL     OW22777   4.680   1.286   8.963  0.0270  0.1988 -0.5650
 3714SOL    HW122778   4.641   1.372   8.946  1.8892  1.6637  2.5371
 3714SOL    HW222779   4.667   1.270   9.056  2.0777 -0.0528 -0.3038
 3715SOL     OW22780   3.693   3.523   9.945 -0.4618  1.0785 -0.4564
 3715SOL    HW122781   3.761   3.491  10.006 -1.2107 -0.8225 -0.6174
 3715SOL    HW222782   3.705   3.617   9.956  0.9869  1.2842 -4.0126
 3716SOL     OW22783   3.128   1.476   6.560 -0.3033 -0.4204  0.4514
 3716SOL    HW122784   3.178   1.556   6.543  1.0452 -1.7363 -1.7836
 3716SOL    HW222785   3.051   1.515   6.600 -0.9343 -0.0758 -1.1113
 3717SOL     OW22786   2.429   4.095   6.314 -0.5229  0.3574  0.5427
 3717SOL    HW122787   2.447   4.033   6.384 -2.8933 -0.3977  0.4867
 3717SOL    HW222788   2.352   4.142   6.345 -0.9452 -0.5930  0.9373
 3718SOL     OW22789   1.295   1.251   9.101  0.2411  0.3395  0.0067
 3718SOL    HW122790   1.327   1.229   9.189  0.0642 -0.3453 -0.0989
 3718SOL    HW222791   1.308   1.343   9.123 -0.5650  1.5187 -4.5985
 3719SOL     OW22792   0.972   1.139   0.092  0.4930  0.1361 -0.1800
 3719SOL    HW122793   0.936   1.226   0.074 -1.0995 -0.1107  1.7649
 3719SOL    HW222794   0.987   1.105   0.004  1.7918 -1.1643  0.5453
 3720SOL     OW22795   2.160   0.921  15.220  0.2738 -0.2807  0.2320
 3720SOL    HW122796   2.091   0.954  15.162 -2.1982 -0.0190  3.2959
 3720SOL    HW222797   2.145   0.827  15.226 -0.6831 -0.0395  1.6077
 3721SOL     OW22798   1.499   0.205   4.976  0.0174  0.1447 -0.3152
 3721SOL    HW122799   1.558   0.270   4.937  1.9152  0.1310  2.5286
 3721SOL    HW222800   1.545   0.196   5.060 -0.2497 -2.6224 -0.4730
 3722SOL     OW22801   4.142   1.687  12.827  0.3978 -0.6383  0.5750
 3722SOL    HW122802   4.112   1.598  12.807  2.8275 -1.4604  0.5079
 3722SOL    HW222803   4.071   1.728  12.779 -0.6776 -1.4705  1.4486
 3723SOL     OW22804   4.268   0.563   8.523 -0.5135 -0.2520  0.1512
 3723SOL    HW122805   4.173   0.556   8.518 -0.1926 -3.1611 -1.9852
 3723SOL    HW222806   4.296   0.562   8.614 -2.6693 -1.2535  0.8103
 3724SOL     OW22807   3.966   4.150   8.282 -0.0002  0.4904 -0.4734
 3724SOL    HW122808   4.021   4.085   8.238 -0.9942  0.6625 -1.9404
 3724SOL    HW222809   3.972   4.224   8.222  1.3138 -1.2114 -2.4459
 3725SOL     OW22810   3.582   4.070  10.357  0.1356  0.4471  0.0964
 3725SOL    HW122811   3.563   4.090  10.266  1.2671 -1.8165 -0.6429
 3725SOL    HW222812   3.663   4.019  10.356  0.6497  1.2560 -0.1450
 3726SOL     OW22813   0.028   4.659  15.312 -0.0933 -0.2444  0.4936
 3726SOL    HW122814   4.728   4.649  15.398 -0.2037 -0.9655  0.3594
 3726SOL    HW222815   0.026   4.570  15.279 -2.2509  0.2249 -0.6608
 3727SOL     OW22816   0.984   0.147  14.187  0.1942  0.0942  0.0823
 3727SOL    HW122817   0.934   0.187  14.259 -0.4511  0.2183 -0.4400
 3727SOL    HW222818   0.940   0.062  14.187 -0.0810  0.2388  0.2247
 3728SOL     OW22819   0.192   0.536   3.617  0.1587 -0.5337 -0.5638
 3728SOL    HW122820   0.097   0.546   3.610  0.1075  1.1969  2.6100
 3728SOL    HW222821   0.196   0.519   3.711 -0.4516  1.3704 -0.1867
 3729SOL     OW22822   3.918   2.685   7.790 -0.3469  0.2807 -0.2752
 3729SOL    HW122823   3.918   2.756   7.855 -1.5482  1.0485 -1.0922
 3729SOL    HW222824   3.830   2.649   7.807  0.3426 -0.1956  2.2761
 3730SOL     OW22825   2.607   4.150   4.167 -0.5800 -0.2283 -0.3212
 3730SOL    HW122826   2.674   4.082   4.176 -0.8213 -0.3263  0.7255
 3730SOL    HW222827   2.641   4.217   4.227 -1.9648  0.3342 -0.1804
 3731SOL     OW22828   3.850   4.444   1.908  0.2691 -0.0543  0.7447
 3731SOL    HW122829   3.762   4.413   1.884  0.6295 -0.9554  0.5839
 3731SOL    HW222830   3.894   4.360   1.895  0.7300  0.0269  1.8076
 3732SOL     OW22831   2.972   3.975  11.302  1.0361  0.2099 -0.0854
 3732SOL    HW122832   2.991   3.962  11.395 -0.8318  1.3551  0.4574
 3732SOL    HW222833   2.890   3.926  11.296  1.0711  0.2406 -0.9133
 3733SOL     OW22834   2.448   2.473  16.101 -0.3119  0.7189 -0.1851
 3733SOL    HW122835   2.429   2.565  16.081  0.9007  1.2079  0.9543
 3733SOL    HW222836   2.362   2.432  16.091 -0.9669  2.1305 -0.4003
 3734SOL     OW22837   0.364   2.166   2.104 -0.3568 -0.2590  0.3005
 3734SOL    HW122838   0.426   2.103   2.140  0.3197  0.8200  0.9842
 3734SOL    HW222839   0.423   2.203   2.039  0.2314  1.5604  1.8989
 3735SOL     OW22840   4.679   1.854   4.595 -0.0810 -0.1663 -0.2289
 3735SOL    HW122841   4.738   1.847   4.520  0.1094 -0.3719 -0.0603
 3735SOL    HW222842   4.594   1.862   4.552 -0.6441 -1.6565  0.5871
 3736SOL     OW22843   0.584   2.767   5.651  0.2275 -0.3804  0.3836
 3736SOL    HW122844   0.648   2.826   5.611  0.2861 -1.3049 -0.9024
 3736SOL    HW222845   0.534   2.823   5.711  0.9922 -0.2214  0.8724
 3737SOL     OW22846   4.598   1.909   8.852  0.4453  0.0376 -0.0879
 3737SOL    HW122847   4.540   1.896   8.777 -0.5625 -1.0141  0.8711
 3737SOL    HW222848   4.537   1.904   8.926  0.2851 -0.5703 -0.2627
 3738SOL     OW22849   4.419   2.080   5.569  0.1941 -0.3137 -0.7761
 3738SOL    HW122850   4.337   2.124   5.547  0.6301  0.5739 -0.6363
 3738SOL    HW222851   4.476   2.110   5.498 -0.8167  0.0545 -1.4248
 3739SOL     OW22852   3.219   3.578   2.725 -0.7822 -0.0036 -0.1517
 3739SOL    HW122853   3.136   3.626   2.723  0.2692  1.8355  0.7073
 3739SOL    HW222854   3.236   3.554   2.634 -0.0358  0.4730 -0.1348
 3740SOL     OW22855   1.309   3.132   3.905  0.1717  0.4805  0.3429
 3740SOL    HW122856   1.282   3.047   3.939  1.4580 -0.7163 -1.6175
 3740SOL    HW222857   1.396   3.145   3.941  0.2290  0.4906  0.1985
 3741SOL     OW22858   0.513   0.897   2.161 -0.0182 -0.1052  0.4896
 3741SOL    HW122859   0.541   0.810   2.189 -0.6623 -0.3537  0.3775
 3741SOL    HW222860   0.444   0.913   2.226  0.8450  0.0480  1.3748
 3742SOL     OW22861   1.500   3.783   7.077 -0.3513 -0.4037 -0.2050
 3742SOL    HW122862   1.574   3.733   7.042  1.3160  0.5317  2.0066
 3742SOL    HW222863   1.437   3.711   7.075  1.1449 -1.7462  1.3457
 3743SOL     OW22864   2.221   1.405   5.571  0.3073 -0.3779 -0.0045
 3743SOL    HW122865   2.229   1.494   5.537  1.9384 -1.1631 -1.7064
 3743SOL    HW222866   2.131   1.406   5.601  0.0214 -0.6980 -0.8410
 3744SOL     OW22867   3.964   2.554   5.533 -0.0516  0.2378  0.4007
 3744SOL    HW122868   4.057   2.565   5.513 -0.3091 -0.9980 -1.4506
 3744SOL    HW222869   3.961   2.481   5.596  0.8838 -0.3530 -0.2545
 3745SOL     OW22870   0.255   0.658   0.727  0.7359  0.2202  0.5944
 3745SOL    HW122871   0.180   0.695   0.681  1.0079  0.7632  0.5838
 3745SOL    HW222872   0.216   0.613   0.802  0.3317  0.3221  0.4406
 3746SOL     OW22873   3.057   2.396   4.828 -0.3093 -0.1392 -0.0021
 3746SOL    HW122874   3.043   2.480   4.785 -2.0618 -1.0535 -1.2492
 3746SOL    HW222875   2.989   2.377   4.893 -0.8313  2.8181  0.2882
 3747SOL     OW22876   4.360   1.615   9.374 -0.5664 -0.1362  0.3363
 3747SOL    HW122877   4.284   1.653   9.331 -1.6057 -0.1383  2.1408
 3747SOL    HW222878   4.319   1.545   9.425  0.7242 -2.3670 -1.7008
 3748SOL     OW22879   0.318   0.118   9.233  0.9738  0.2217 -0.6437
 3748SOL    HW122880   0.283   0.103   9.321  2.9816  0.2605  0.1615
 3748SOL    HW222881   0.357   0.205   9.243 -0.8751  0.7860  1.6273
 3749SOL     OW22882   3.543   3.465   7.832  0.2386  0.3476  0.6102
 3749SOL    HW122883   3.591   3.525   7.776 -2.2343  0.0320 -1.8692
 3749SOL    HW222884   3.602   3.390   7.839  4.4691  3.8059  1.8193
 3750SOL     OW22885   2.244   1.194  16.547  0.4835  0.1314  0.2249
 3750SOL    HW122886   2.273   1.114  16.592 -1.1414 -1.8821 -2.3207
 3750SOL    HW222887   2.259   1.160  16.459 -1.2669 -1.6912  0.6327
 3751SOL     OW22888   4.539   4.460   8.898 -0.2439 -0.6735  0.2937
 3751SOL    HW122889   4.598   4.518   8.849  1.3604 -0.3875  2.5610
 3751SOL    HW222890   4.494   4.423   8.822  0.3032 -1.0425  0.1514
 3752SOL     OW22891   1.556   3.558   4.201  0.0982 -0.0716 -0.1488
 3752SOL    HW122892   1.488   3.609   4.157  1.1558 -0.0496 -1.7762
 3752SOL    HW222893   1.544   3.593   4.289  2.3733 -1.3451  0.6781
 3753SOL     OW22894   0.861   3.366   2.239  0.2812  0.2562  0.0700
 3753SOL    HW122895   0.940   3.374   2.292 -0.2411  2.2271  0.5348
 3753SOL    HW222896   0.900   3.343   2.155 -1.8022  1.5352 -1.2529
 3754SOL     OW22897   3.211   1.069   7.697 -0.1571  0.2229  0.1964
 3754SOL    HW122898   3.180   1.136   7.637  1.8974  1.9433  1.0665
 3754SOL    HW222899   3.284   1.045   7.640  0.5474 -1.1186  1.6814
 3755SOL     OW22900   4.562   1.555   8.269 -0.2281 -0.4429 -0.4818
 3755SOL    HW122901   4.547   1.475   8.319 -0.9757  0.1605  0.2577
 3755SOL    HW222902   4.641   1.595   8.304 -1.3701 -0.4113  2.0602
 3756SOL     OW22903   1.509   4.504   0.325 -0.1443  0.1941  0.3184
 3756SOL    HW122904   1.495   4.428   0.269  1.0253 -0.3414  0.7409
 3756SOL    HW222905   1.592   4.539   0.292  0.1532  1.6187  2.6539
 3757SOL     OW22906   3.755   0.552  15.205  0.0779 -0.1316 -0.0725
 3757SOL    HW122907   3.664   0.526  15.219  0.4186  0.2413  2.8375
 3757SOL    HW222908   3.775   0.511  15.121  1.5144 -0.9315  0.6722
 3758SOL     OW22909   3.369   2.358   4.471  0.4441  0.1415  0.2118
 3758SOL    HW122910   3.322   2.318   4.398  0.8049  0.4321 -0.1731
 3758SOL    HW222911   3.444   2.301   4.489 -0.8002 -1.5650  0.0012
 3759SOL     OW22912   0.017   3.350   5.294  0.1201 -0.1708 -0.0906
 3759SOL    HW122913   0.037   3.259   5.271 -1.2970  0.0639 -2.1447
 3759SOL    HW222914   4.702   3.338   5.372  0.6281  1.6504  0.5461
 3760SOL     OW22915   4.579   1.100   8.309 -0.5611 -0.0021 -0.1628
 3760SOL    HW122916   4.597   1.006   8.309  1.9921  0.4804  2.1029
 3760SOL    HW222917   4.525   1.100   8.230 -0.4657 -1.1972 -0.2319
 3761SOL     OW22918   1.419   4.140   2.436 -0.3015 -0.0191 -0.0149
 3761SOL    HW122919   1.479   4.175   2.502 -0.6914  0.7496 -0.0655
 3761SOL    HW222920   1.364   4.092   2.499  0.0036 -0.1093  0.1810
 3762SOL     OW22921   4.417   0.031  10.073 -0.8813 -0.5340 -0.1106
 3762SOL    HW122922   4.498   0.005  10.118 -0.5531 -1.3444 -1.1760
 3762SOL    HW222923   4.443   0.062   9.986  1.4801 -0.0194  0.7789
 3763SOL     OW22924   2.563   0.401  14.327 -0.1636  0.1524 -0.2487
 3763SOL    HW122925   2.484   0.369  14.370  0.7882 -3.9846 -1.5615
 3763SOL    HW222926   2.532   0.462  14.260 -0.3092  1.8905  1.4031
 3764SOL     OW22927   0.273   1.020  11.676 -0.0296 -0.1778  0.6846
 3764SOL    HW122928   0.214   0.973  11.735 -2.6133  1.6541 -0.4520
 3764SOL    HW222929   0.211   1.088  11.652  0.7538 -0.0410 -0.9466
 3765SOL     OW22930   4.516   3.667  15.907  0.0284  0.1123 -0.2212
 3765SOL    HW122931   4.422   3.678  15.915 -0.1886 -0.6301 -1.7885
 3765SOL    HW222932   4.531   3.632  15.819  2.6701  4.5788 -1.5412
 3766SOL     OW22933   2.821   2.951   5.564 -0.1298 -0.3922  0.8218
 3766SOL    HW122934   2.856   2.926   5.479 -1.2838 -1.1761  0.5794
 3766SOL    HW222935   2.903   2.952   5.613 -1.6648 -1.6339  3.4332
 3767SOL     OW22936   2.658   1.456   4.428 -0.8102  0.2619 -0.5279
 3767SOL    HW122937   2.618   1.527   4.479 -2.4779 -1.3142  0.3919
 3767SOL    HW222938   2.624   1.472   4.340  0.8392  1.0208 -1.0134
 3768SOL     OW22939   1.305   4.720  10.112 -0.9288 -0.4340  0.9222
 3768SOL    HW122940   1.243   4.714  10.040  0.0161  0.5126  0.0205
 3768SOL    HW222941   1.375   0.036  10.076 -2.2753  0.1333 -0.8360
 3769SOL     OW22942   0.985   2.408   8.727 -0.0203  0.0163  0.5789
 3769SOL    HW122943   1.034   2.489   8.736 -0.8052  0.1785  3.3057
 3769SOL    HW222944   1.044   2.343   8.766  1.4369  1.0256  0.0429
 3770SOL     OW22945   0.470   1.543   6.760  0.2647 -0.8789 -0.1771
 3770SOL    HW122946   0.549   1.519   6.712 -0.7591 -1.8916 -1.3584
 3770SOL    HW222947   0.412   1.571   6.689  1.5120  0.1113 -0.8070
 3771SOL     OW22948   0.216   0.785   8.829  0.0211  0.1101  0.0697
 3771SOL    HW122949   0.128   0.817   8.843  0.3222 -0.1782  2.6254
 3771SOL    HW222950   0.248   0.810   8.915  0.6769 -0.4840  0.0061
 3772SOL     OW22951   0.576   1.951   6.520 -0.0598  0.2854 -0.0912
 3772SOL    HW122952   0.536   2.026   6.563  0.7998  0.2275  0.8170
 3772SOL    HW222953   0.560   1.971   6.428 -0.3873 -2.8378 -0.7167
 3773SOL     OW22954   0.173   3.871   5.704 -0.3402  0.8889 -0.4775
 3773SOL    HW122955   0.213   3.941   5.755  1.9299 -0.8320  0.0957
 3773SOL    HW222956   0.080   3.893   5.699 -0.4524  1.3855  4.4402
 3774SOL     OW22957   1.488   4.171   3.685 -0.1394  0.1162  0.2475
 3774SOL    HW122958   1.468   4.210   3.770 -0.8805 -1.3235  0.7364
 3774SOL    HW222959   1.505   4.254   3.639 -2.2580  0.0092 -0.7269
 3775SOL     OW22960   2.012   1.734  11.445  0.0341 -0.2237 -0.0973
 3775SOL    HW122961   1.927   1.698  11.469 -0.5723  1.0947 -0.2486
 3775SOL    HW222962   2.065   1.684  11.507  1.0775 -0.9952 -1.6178
 3776SOL     OW22963   4.104   1.111  16.376  0.4818  0.0266 -0.8999
 3776SOL    HW122964   4.042   1.126  16.447  0.7054 -1.3100 -0.4190
 3776SOL    HW222965   4.175   1.173  16.390 -1.8654  1.9489  2.5194
 3777SOL     OW22966   0.001   4.049   3.277 -0.2284  0.2764 -0.1237
 3777SOL    HW122967   4.660   4.085   3.236  1.3484  2.1798 -1.5250
 3777SOL    HW222968   4.736   4.095   3.360 -0.8724  0.8113 -0.4439
 3778SOL     OW22969   2.878   1.896   7.338 -0.1994  0.0580  0.9261
 3778SOL    HW122970   2.787   1.925   7.344 -0.9862 -1.5370 -3.1169
 3778SOL    HW222971   2.905   1.887   7.429 -0.8710  1.4990  1.2754
 3779SOL     OW22972   0.323   0.806   5.544 -0.4081  0.2298  0.3713
 3779SOL    HW122973   0.253   0.741   5.533  2.2880 -2.1722 -2.3228
 3779SOL    HW222974   0.391   0.774   5.485 -0.1842  1.1286  0.1437
 3780SOL     OW22975   3.158   1.655   6.833 -0.0360  0.0897 -0.4349
 3780SOL    HW122976   3.162   1.563   6.808 -0.7121  0.3927 -1.6604
 3780SOL    HW222977   3.241   1.651   6.880 -0.1733  1.1325 -0.0862
 3781SOL     OW22978   4.318   3.895   8.964 -0.5263 -0.5285  0.3639
 3781SOL    HW122979   4.339   3.987   8.973  0.0481 -0.3373 -3.3150
 3781SOL    HW222980   4.391   3.853   9.009  0.1047 -0.6712 -0.8118
 3782SOL     OW22981   1.482   3.905   1.554 -0.1316  0.8066  0.1654
 3782SOL    HW122982   1.395   3.925   1.520 -0.5934 -0.3343  0.6941
 3782SOL    HW222983   1.475   3.887   1.648 -1.4250 -1.4180 -0.3515
 3783SOL     OW22984   3.268   2.464   3.865  0.4925  0.2412  0.0371
 3783SOL    HW122985   3.296   2.426   3.781 -0.8699 -2.5037  0.8379
 3783SOL    HW222986   3.232   2.388   3.911  1.8036 -0.3599  0.0902
 3784SOL     OW22987   2.408   0.860  12.331 -0.1128 -0.7327  0.5266
 3784SOL    HW122988   2.388   0.793  12.396  0.7366 -1.4345  0.0617
 3784SOL    HW222989   2.493   0.883  12.367  0.0566  1.5028 -1.2494
 3785SOL     OW22990   4.524   3.096   4.639  0.1627  0.0772 -0.3744
 3785SOL    HW122991   4.461   3.158   4.602 -2.2336 -1.9534  0.2662
 3785SOL    HW222992   4.597   3.099   4.577  0.8745 -0.0839  0.4637
 3786SOL     OW22993   2.885   4.087   3.604 -0.4507  0.8625  0.0565
 3786SOL    HW122994   2.873   4.024   3.675  0.6353  2.0180  1.2467
 3786SOL    HW222995   2.893   4.170   3.650 -1.4181  1.2323 -0.4397
 3787SOL     OW22996   4.344   3.020  12.290  0.2563  0.2707  0.1226
 3787SOL    HW122997   4.433   3.041  12.262 -0.3221 -0.1260 -2.0180
 3787SOL    HW222998   4.319   3.106  12.325 -1.9386 -1.1144  1.9255
 3788SOL     OW22999   1.167   0.218   2.997 -0.5148  0.4354 -0.2927
 3788SOL    HW123000   1.157   0.249   3.087  2.0142  0.8984 -0.1687
 3788SOL    HW223001   1.240   0.274   2.971 -0.9992 -0.0638 -2.6823
 3789SOL     OW23002   1.255   3.983   3.949 -0.2622  0.3866  0.1281
 3789SOL    HW123003   1.281   3.955   3.861  1.8958 -0.2072  0.9530
 3789SOL    HW223004   1.339   4.023   3.972  0.7853 -0.1403 -2.7580
 3790SOL     OW23005   4.507   3.620   5.787  0.6937 -0.8723 -0.7141
 3790SOL    HW123006   4.458   3.702   5.791  0.1664 -1.1810 -0.8514
 3790SOL    HW223007   4.550   3.628   5.872 -1.9540 -0.4069  0.5992
 3791SOL     OW23008   2.854   1.661   0.765  0.1955  0.3845 -0.0005
 3791SOL    HW123009   2.760   1.674   0.766  0.1551 -0.0074  2.0329
 3791SOL    HW223010   2.867   1.570   0.792 -1.2482 -0.3346 -1.7221
 3792SOL     OW23011   0.100   2.047   8.930 -0.0927 -0.7090 -0.4379
 3792SOL    HW123012   0.068   2.135   8.952 -1.5102 -1.0257 -1.2574
 3792SOL    HW223013   0.016   2.007   8.907 -0.5898  2.2264 -3.8118
 3793SOL     OW23014   4.407   0.748   7.131  0.3262  0.3536  0.4739
 3793SOL    HW123015   4.460   0.706   7.063 -1.1548  1.3016 -1.2802
 3793SOL    HW223016   4.344   0.800   7.081  0.7876  0.5853  0.1362
 3794SOL     OW23017   0.008   3.964   9.409  0.0215  0.1211  0.2947
 3794SOL    HW123018   0.040   4.012   9.332 -2.3598  0.0482 -0.7241
 3794SOL    HW223019   4.658   3.946   9.380  2.1800 -2.6874 -4.6392
 3795SOL     OW23020   4.004   2.050   4.784  0.2693 -0.1721  0.1669
 3795SOL    HW123021   3.986   1.998   4.706 -0.0192 -0.5454  0.4897
 3795SOL    HW223022   4.000   1.981   4.850  0.9450  1.4248  1.8733
 3796SOL     OW23023   4.474   0.577   9.917  0.4523  0.0482  0.6282
 3796SOL    HW123024   4.410   0.576   9.988  1.1693 -0.1997  1.2781
 3796SOL    HW223025   4.457   0.660   9.874 -1.1441 -1.2058 -1.1658
 3797SOL     OW23026   2.069   4.550   7.404  0.0906  0.0044 -0.3837
 3797SOL    HW123027   2.035   4.505   7.482  2.2781  1.3249  1.3665
 3797SOL    HW223028   2.149   4.500   7.388 -1.3704 -2.6004  0.5291
 3798SOL     OW23029   3.588   2.453   5.197 -0.0870 -0.2675 -0.3017
 3798SOL    HW123030   3.644   2.439   5.121  1.3522  1.5650  0.4509
 3798SOL    HW223031   3.636   2.520   5.245  0.0088 -1.9192  1.8806
 3799SOL     OW23032   3.146   1.311   6.158 -0.4072  0.0283  0.4095
 3799SOL    HW123033   3.131   1.325   6.064 -1.2358  0.0041  0.5364
 3799SOL    HW223034   3.228   1.359   6.165 -0.0109 -0.5586 -0.2287
 3800SOL     OW23035   2.341   2.959   0.559 -0.8297 -0.7936 -0.2591
 3800SOL    HW123036   2.371   2.901   0.629 -2.0616  0.6991  1.4893
 3800SOL    HW223037   2.333   3.042   0.606 -2.0560 -1.1425  0.1460
 3801SOL     OW23038   3.915   1.088  16.168 -0.1556 -0.3800 -0.1048
 3801SOL    HW123039   3.829   1.065  16.205 -0.2565  0.7640  0.3894
 3801SOL    HW223040   3.968   1.089  16.248 -1.0692 -0.4429  0.5058
 3802SOL     OW23041   2.974   2.677   2.296  0.1251  0.0408  0.6256
 3802SOL    HW123042   2.892   2.702   2.254  1.2486  1.4110 -0.7621
 3802SOL    HW223043   3.041   2.717   2.241  1.1793 -1.7684  0.6153
 3803SOL     OW23044   3.683   0.346   7.701  0.1539  0.0748 -0.2018
 3803SOL    HW123045   3.633   0.267   7.681 -0.8150  0.6798 -0.1646
 3803SOL    HW223046   3.630   0.415   7.662  0.3361 -1.2729 -2.8514
 3804SOL     OW23047   2.022   1.690  16.463  0.4285 -0.4517  0.0663
 3804SOL    HW123048   1.932   1.684  16.432  0.4735  0.3199 -0.2324
 3804SOL    HW223049   2.027   1.609  16.514  1.3627  0.2684  1.1131
 3805SOL     OW23050   3.841   1.048   3.485  0.9822 -0.1015 -0.2330
 3805SOL    HW123051   3.828   1.142   3.492  2.6349  0.0527  0.7091
 3805SOL    HW223052   3.897   1.041   3.408  1.6919  0.5480  0.2335
 3806SOL     OW23053   4.257   2.360   1.681 -0.5488 -0.2470  0.3996
 3806SOL    HW123054   4.318   2.433   1.683  0.3047 -0.9890  1.8645
 3806SOL    HW223055   4.315   2.295   1.721  0.9406 -0.1752 -1.6848
 3807SOL     OW23056   3.306   1.147  11.600  0.0529  0.2769  0.3982
 3807SOL    HW123057   3.216   1.144  11.634 -0.6895  2.3797 -1.3823
 3807SOL    HW223058   3.329   1.055  11.589 -0.4185  0.1402  0.5782
 3808SOL     OW23059   0.362   4.028   7.460 -0.6866 -1.0034  0.3609
 3808SOL    HW123060   0.439   4.025   7.518 -0.9851 -1.1896  0.7502
 3808SOL    HW223061   0.343   4.122   7.470  1.1940 -0.4618 -1.0688
 3809SOL     OW23062   2.646   3.148   1.978  0.0670  0.2446 -0.0275
 3809SOL    HW123063   2.571   3.137   2.037  0.8595 -1.1141  0.7514
 3809SOL    HW223064   2.610   3.195   1.904  1.4046 -1.8357 -1.9864
 3810SOL     OW23065   3.302   0.989  12.910 -0.4196 -0.0356  0.2233
 3810SOL    HW123066   3.302   0.969  12.817  0.0351  1.9234 -0.2026
 3810SOL    HW223067   3.219   1.033  12.925  0.8523  2.3562  0.2245
 3811SOL     OW23068   0.945   0.985   9.910 -0.1715 -0.5402  0.1197
 3811SOL    HW123069   0.858   0.945   9.913  0.0815 -1.0725  0.5198
 3811SOL    HW223070   0.917   1.069   9.947  2.7380  0.3180  0.3961
 3812SOL     OW23071   2.433   2.660   4.052  0.1618  0.2499 -0.0523
 3812SOL    HW123072   2.443   2.666   3.957 -1.5553  2.5574 -0.0695
 3812SOL    HW223073   2.361   2.722   4.067 -1.1294 -0.8392 -1.7948
 3813SOL     OW23074   0.805   1.395  14.731 -0.4100  0.1259 -0.2696
 3813SOL    HW123075   0.887   1.389  14.683  0.0923  1.0039  0.4930
 3813SOL    HW223076   0.788   1.301  14.741  1.4592 -0.1883 -0.0835
 3814SOL     OW23077   0.424   3.528   3.036  0.7465 -0.2630 -0.0461
 3814SOL    HW123078   0.367   3.471   2.983 -1.4808 -1.1609  3.3018
 3814SOL    HW223079   0.421   3.612   2.990  3.9037 -0.2295 -0.1686
 3815SOL     OW23080   4.138   4.009   0.363  0.1247 -0.0505  0.3929
 3815SOL    HW123081   4.100   4.064   0.432  1.1004  0.0933  0.8134
 3815SOL    HW223082   4.067   3.994   0.300 -0.5482 -0.3965  1.2334
 3816SOL     OW23083   4.343   0.413   4.928  0.1868  0.3919  0.1292
 3816SOL    HW123084   4.288   0.459   4.864 -0.4658  2.2463  2.0137
 3816SOL    HW223085   4.311   0.451   5.009 -0.9424 -1.4062  0.5268
 3817SOL     OW23086   1.146   0.407   9.592 -0.7235 -0.1662  0.4905
 3817SOL    HW123087   1.100   0.487   9.566 -2.1315 -1.1831 -0.1736
 3817SOL    HW223088   1.229   0.433   9.632 -0.5460 -1.1784  0.7898
 3818SOL     OW23089   0.547   3.380  11.888 -0.0306 -0.7524 -0.1668
 3818SOL    HW123090   0.532   3.325  11.964  1.8402  1.9056  2.1155
 3818SOL    HW223091   0.564   3.461  11.935  1.4123  1.0103 -3.7099
 3819SOL     OW23092   1.707   0.995   7.623 -0.4025  0.1625 -0.2701
 3819SOL    HW123093   1.685   0.960   7.710 -0.4224 -0.0973 -0.3794
 3819SOL    HW223094   1.765   1.066   7.651  0.4222 -0.5748 -0.1037
 3820SOL     OW23095   2.914   1.927   1.329  0.8238  0.3135 -0.4815
 3820SOL    HW123096   2.911   1.964   1.241  2.0942 -1.8936 -1.4358
 3820SOL    HW223097   2.883   1.837   1.330  0.8823  0.2824 -2.1256
 3821SOL     OW23098   1.351   4.061   8.847  0.3872  0.2292 -0.1609
 3821SOL    HW123099   1.339   3.993   8.913  0.6889 -0.4802 -0.8506
 3821SOL    HW223100   1.268   4.041   8.805 -0.1427  0.2971  0.8357
 3822SOL     OW23101   0.432   4.531   7.517  0.0397 -0.0591  0.0564
 3822SOL    HW123102   0.473   4.569   7.595  0.2122  1.0761 -0.5829
 3822SOL    HW223103   0.375   4.601   7.486 -0.2482 -0.9253 -1.3955
 3823SOL     OW23104   3.875   2.167   2.766  0.1028 -0.1929 -0.2082
 3823SOL    HW123105   3.826   2.120   2.698  2.9668 -4.4000  0.6731
 3823SOL    HW223106   3.949   2.108   2.779  0.1202 -0.3164 -0.8648
 3824SOL     OW23107   4.646   0.137   2.751  0.1723  0.0375  0.3411
 3824SOL    HW123108   4.723   0.117   2.805 -1.1684 -2.4108  1.3483
 3824SOL    HW223109   4.673   0.129   2.660  0.9025 -0.9017  0.6340
 3825SOL     OW23110   1.083   0.304   5.592 -0.1328  0.8170  0.1865
 3825SOL    HW123111   1.005   0.313   5.646 -0.0681  0.5721  0.3235
 3825SOL    HW223112   1.137   0.362   5.646 -1.2844  0.0890  2.1389
 3826SOL     OW23113   1.900   1.599   2.773  0.4115  0.5368  0.2667
 3826SOL    HW123114   1.885   1.533   2.841  0.5579 -1.4281 -1.6105
 3826SOL    HW223115   1.913   1.556   2.688 -1.6588  0.9861 -0.2697
 3827SOL     OW23116   1.369   2.047   9.523 -0.1924  0.6033  0.2519
 3827SOL    HW123117   1.291   2.001   9.555 -0.8825  1.6867  0.1473
 3827SOL    HW223118   1.338   2.118   9.468  0.7100  1.2623  0.5975
 3828SOL     OW23119   4.519   3.443   3.413 -0.0489  0.2980  0.2685
 3828SOL    HW123120   4.581   3.413   3.479 -0.7393  0.7624  1.1254
 3828SOL    HW223121   4.443   3.469   3.464 -1.2063 -1.2629 -0.6805
 3829SOL     OW23122   0.652   0.471   4.978  0.1447  0.1241 -0.7488
 3829SOL    HW123123   0.726   0.410   4.980  0.7550  0.9558  1.2154
 3829SOL    HW223124   0.672   0.523   4.900  0.1207 -0.8163 -1.3925
 3830SOL     OW23125   0.291   1.769   6.865 -0.0681 -0.2831 -0.0954
 3830SOL    HW123126   0.335   1.844   6.825  0.9923 -0.6418  0.4104
 3830SOL    HW223127   0.332   1.693   6.824 -0.2156  0.5253 -1.7444
 3831SOL     OW23128   2.248   0.963  16.959  0.9272 -0.2803 -0.7497
 3831SOL    HW123129   2.309   1.018  17.007 -0.5594  0.7627 -0.0498
 3831SOL    HW223130   2.278   0.877  16.990  0.8116  0.4268  1.3194
 3832SOL     OW23131   2.003   2.841   8.347  0.2301 -0.0449  0.4220
 3832SOL    HW123132   2.075   2.778   8.342  0.3255  0.1382 -0.6404
 3832SOL    HW223133   2.001   2.878   8.259  0.4143  1.5383  1.0866
 3833SOL     OW23134   2.778   1.512   0.348 -0.2640 -0.3095 -0.1132
 3833SOL    HW123135   2.724   1.485   0.422  1.1129 -0.7030  0.7570
 3833SOL    HW223136   2.824   1.590   0.379 -0.0848 -0.9380  1.2133
 3834SOL     OW23137   4.304   2.964   3.333 -0.2308  0.3572 -0.0780
 3834SOL    HW123138   4.332   2.898   3.396  1.8566 -0.3373 -1.7612
 3834SOL    HW223139   4.291   2.910   3.255  3.4899 -2.7300  1.4619
 3835SOL     OW23140   3.485   0.307   3.737 -0.3163  0.4919 -0.0783
 3835SOL    HW123141   3.540   0.379   3.707  1.3470 -0.7760 -0.0703
 3835SOL    HW223142   3.440   0.353   3.808 -0.0201 -0.7209  0.8954
 3836SOL     OW23143   3.590   2.159   4.867  0.3972 -0.0351  0.1427
 3836SOL    HW123144   3.559   2.112   4.790 -0.3737 -0.7722  0.8977
 3836SOL    HW223145   3.581   2.249   4.836  0.1102 -0.4401 -0.9581
 3837SOL     OW23146   3.517   2.249   2.686  0.2947  0.1998  0.4139
 3837SOL    HW123147   3.594   2.202   2.654  1.5562  0.8943  2.4883
 3837SOL    HW223148   3.455   2.183   2.717 -0.5446  1.5957  1.7164
 3838SOL     OW23149   2.746   2.297   9.651  0.1809 -0.1646 -0.3432
 3838SOL    HW123150   2.825   2.317   9.702  0.5989  4.6390 -2.9297
 3838SOL    HW223151   2.672   2.337   9.698  2.5240  0.9832  2.3783
 3839SOL     OW23152   0.806   3.937  11.349 -0.1379  0.2897  0.2496
 3839SOL    HW123153   0.870   4.008  11.345  1.4010 -0.8985  4.0975
 3839SOL    HW223154   0.794   3.917  11.441  3.4827 -1.7669  0.2996
 3840SOL     OW23155   4.630   1.771   7.003  0.3545  0.5260 -0.3272
 3840SOL    HW123156   4.655   1.862   6.991 -1.3211  1.2323  1.4122
 3840SOL    HW223157   4.574   1.765   6.925 -0.3416  3.2226 -0.0024
 3841SOL     OW23158   3.149   2.555   4.463 -0.3510 -0.7714 -0.0757
 3841SOL    HW123159   3.130   2.615   4.536 -1.7634 -0.4543 -0.7117
 3841SOL    HW223160   3.242   2.575   4.449 -0.3250  0.2771  1.5814
 3842SOL     OW23161   0.540   4.638   5.135  0.3737  0.3416  0.7252
 3842SOL    HW123162   0.535   4.555   5.088  1.5263  0.6138  0.1342
 3842SOL    HW223163   0.634   4.656   5.144  0.8865 -0.3973 -3.2109
 3843SOL     OW23164   4.104   3.587  14.919 -0.3459  0.2420  0.1814
 3843SOL    HW123165   4.015   3.555  14.906 -0.4336 -0.0971  1.6734
 3843SOL    HW223166   4.131   3.610  14.830 -0.1283 -1.5691 -0.2184
 3844SOL     OW23167   4.630   3.156   8.343  0.6017 -0.3094  0.0047
 3844SOL    HW123168   4.590   3.087   8.291  2.1314 -1.4063  0.2739
 3844SOL    HW223169   4.635   3.108   8.426  1.8075 -0.2710 -0.0486
 3845SOL     OW23170   0.025   1.814   2.262 -0.0323 -0.6575 -0.3634
 3845SOL    HW123171   0.005   1.785   2.173  1.3986  0.4314 -1.0386
 3845SOL    HW223172   4.716   1.895   2.274  1.8506 -0.1074  3.7010
 3846SOL     OW23173   1.281   1.754   0.917 -0.1975  0.4162  0.1321
 3846SOL    HW123174   1.273   1.659   0.931  2.0803  0.0081 -1.4892
 3846SOL    HW223175   1.218   1.765   0.846  1.9953  2.3820 -1.4768
 3847SOL     OW23176   0.606   2.168  13.394 -0.2305  0.2898 -0.1799
 3847SOL    HW123177   0.648   2.159  13.308 -2.8850 -0.3030 -1.4002
 3847SOL    HW223178   0.627   2.261  13.404 -2.1614  0.7838 -0.8134
 3848SOL     OW23179   0.359   3.871   1.997  0.1442  0.3192  0.3533
 3848SOL    HW123180   0.277   3.827   1.972 -1.3234  2.7587  0.8644
 3848SOL    HW223181   0.387   3.917   1.918  0.3826  0.6479  0.6291
 3849SOL     OW23182   4.497   3.950   4.207 -0.4048  0.4393  0.3811
 3849SOL    HW123183   4.513   3.974   4.298  1.8466  0.8424 -0.1380
 3849SOL    HW223184   4.480   3.857   4.219 -0.5676  0.4170 -0.0157
 3850SOL     OW23185   2.006   1.526   6.880 -0.4467 -0.5603 -0.3476
 3850SOL    HW123186   1.952   1.447   6.871 -2.1188  0.5714 -0.1259
 3850SOL    HW223187   2.051   1.499   6.960 -0.6753 -1.0165 -0.3707
 3851SOL     OW23188   3.486   1.616   5.665 -0.2065 -0.0384  0.1892
 3851SOL    HW123189   3.406   1.669   5.675 -0.0692  0.7287 -2.7595
 3851SOL    HW223190   3.473   1.605   5.571  1.7368 -1.3226  0.0876
 3852SOL     OW23191   3.865   1.712   2.603  0.3252 -0.1572 -0.5377
 3852SOL    HW123192   3.927   1.731   2.674 -0.1021 -1.3985  0.1593
 3852SOL    HW223193   3.903   1.630   2.573 -2.1804 -1.2858 -0.5564
 3853SOL     OW23194   3.961   2.974   2.362  0.3497  0.4458  0.3933
 3853SOL    HW123195   3.950   3.064   2.330  0.4325  0.7540  1.2442
 3853SOL    HW223196   4.054   2.966   2.381  0.5928  0.6496 -0.7221
 3854SOL     OW23197   3.570   3.306   7.391  0.2447  0.0516  0.9725
 3854SOL    HW123198   3.594   3.239   7.456  1.5633 -0.8604 -0.4522
 3854SOL    HW223199   3.486   3.264   7.369  1.0176 -1.0197  0.0609
 3855SOL     OW23200   1.759   4.073   6.800 -0.0414  0.0021  0.2457
 3855SOL    HW123201   1.766   4.052   6.893 -0.9081 -0.4501  0.2050
 3855SOL    HW223202   1.682   4.022   6.776 -1.2486  1.8359  0.1913
 3856SOL     OW23203   2.931   4.580   0.146 -0.0403 -0.2124  0.3299
 3856SOL    HW123204   2.877   4.648   0.107 -1.7099 -1.4790  0.4516
 3856SOL    HW223205   2.867   4.515   0.118 -0.9588  1.1151 -0.6710
 3857SOL     OW23206   3.873   0.523   4.627  0.0131  0.3465 -0.0741
 3857SOL    HW123207   3.895   0.614   4.643  0.2210  0.3507 -0.3812
 3857SOL    HW223208   3.837   0.524   4.538  1.5686 -2.6470 -0.7607
 3858SOL     OW23209   4.126   4.525   4.632  0.0809 -0.1312  0.0277
 3858SOL    HW123210   4.124   4.547   4.725  1.3968 -1.6958  0.4333
 3858SOL    HW223211   4.032   4.528   4.616 -0.2185 -0.4107  1.7083
 3859SOL     OW23212   3.157   1.895   2.641  0.0027  0.3495  0.0076
 3859SOL    HW123213   3.155   1.883   2.546 -0.3949 -0.1837  0.0792
 3859SOL    HW223214   3.179   1.805   2.666  0.7107  0.9852  1.6703
 3860SOL     OW23215   4.420   0.890   7.837  0.3592  0.1260 -0.4539
 3860SOL    HW123216   4.455   0.932   7.758 -0.0917  2.3269  0.4951
 3860SOL    HW223217   4.326   0.906   7.830  0.5118  1.9841  1.7526
 3861SOL     OW23218   1.186   0.023   9.020  0.0387 -0.0049 -0.1768
 3861SOL    HW123219   1.168   4.673   8.989 -1.1778  0.0996  0.2327
 3861SOL    HW223220   1.117   0.079   8.985 -0.7678 -0.9670 -0.1483
 3862SOL     OW23221   0.644   4.592   6.573  0.1660  0.0649 -0.3397
 3862SOL    HW123222   0.660   4.631   6.659  1.5843  2.5699 -1.7696
 3862SOL    HW223223   0.632   4.503   6.607 -1.7752  0.0244 -1.1377
 3863SOL     OW23224   2.136   4.257  17.581 -0.8007 -0.1181  0.7088
 3863SOL    HW123225   2.194   4.196  17.626 -0.5533 -1.2448 -1.1579
 3863SOL    HW223226   2.072   4.191  17.555 -2.5544  1.2608  1.5714
 3864SOL     OW23227   3.462   4.186   3.772  0.5553 -0.4264 -0.1698
 3864SOL    HW123228   3.450   4.230   3.689  2.2851  0.3689 -0.0014
 3864SOL    HW223229   3.427   4.099   3.754  0.1491 -0.3756  0.3759
 3865SOL     OW23230   4.252   0.979   7.579  0.4350  0.5835  0.0281
 3865SOL    HW123231   4.207   0.897   7.599  2.0487 -0.7612 -1.8370
 3865SOL    HW223232   4.320   0.946   7.520  1.0130 -0.3957  1.2375
 3866SOL     OW23233   0.249   2.247  11.816  0.0738 -0.8045  0.0711
 3866SOL    HW123234   0.343   2.229  11.819  0.5929  1.8146 -1.2288
 3866SOL    HW223235   0.215   2.161  11.791 -2.6825  0.0234  0.9545
 3867SOL     OW23236   0.523   2.621  14.397  0.1981  0.4489  0.3634
 3867SOL    HW123237   0.599   2.666  14.360  0.4215 -0.4810 -0.3093
 3867SOL    HW223238   0.534   2.643  14.489 -0.7416  3.4423 -0.2710
 3868SOL     OW23239   4.528   1.095   8.764 -0.1959 -0.5244 -0.7719
 3868SOL    HW123240   4.523   1.162   8.832  1.3714  2.3870 -3.5187
 3868SOL    HW223241   4.599   1.140   8.717  1.3425 -0.3698  1.7062
 3869SOL     OW23242   0.219   2.830   4.995  0.3141 -0.3587  0.3977
 3869SOL    HW123243   0.300   2.780   4.982 -0.4867 -1.5105 -0.2355
 3869SOL    HW223244   0.180   2.801   5.078  1.3460  0.0861  1.0421
 3870SOL     OW23245   1.848   1.093   2.968  0.2127 -0.3832  1.2071
 3870SOL    HW123246   1.888   1.173   2.934  0.1952 -0.7473  0.3401
 3870SOL    HW223247   1.755   1.104   2.945  0.5778  0.3141  0.1011
 3871SOL     OW23248   2.241   2.217   3.293  0.3071 -0.2977  0.3019
 3871SOL    HW123249   2.201   2.302   3.276  0.9299 -0.4077 -1.7394
 3871SOL    HW223250   2.243   2.217   3.388  1.6564 -0.9197  0.2721
 3872SOL     OW23251   0.238   0.569   9.318  0.2880 -0.7760  0.3017
 3872SOL    HW123252   0.259   0.547   9.408  0.6016 -2.2463 -0.1264
 3872SOL    HW223253   0.305   0.527   9.264  1.8465  0.8574  0.9752
 3873SOL     OW23254   4.438   4.347   3.166 -0.7083 -0.1343  0.4070
 3873SOL    HW123255   4.406   4.377   3.251  0.4361 -0.5251  0.9699
 3873SOL    HW223256   4.481   4.264   3.184 -1.5774 -0.2356  2.0669
 3874SOL     OW23257   0.313   1.918   5.758 -0.4183  0.2428  0.3295
 3874SOL    HW123258   0.401   1.926   5.796 -0.7773 -1.7859  1.5515
 3874SOL    HW223259   0.261   1.898   5.835 -1.2348  0.5966 -0.1284
 3875SOL     OW23260   1.524   2.238   7.456  0.0099 -0.2729 -0.0771
 3875SOL    HW123261   1.491   2.228   7.367 -1.5441  2.4749  0.2064
 3875SOL    HW223262   1.442   2.249   7.505 -2.0157 -1.1012 -3.2717
 3876SOL     OW23263   2.089   4.718   5.314  0.2108  0.3383 -0.0791
 3876SOL    HW123264   2.143   0.034   5.372  0.1116 -2.2279  2.4093
 3876SOL    HW223265   2.152   4.697   5.245  1.2724 -0.1232  1.0243
 3877SOL     OW23266   2.240   3.645   8.145  0.4914  0.1795  0.7878
 3877SOL    HW123267   2.295   3.705   8.095 -0.4451  0.0227 -0.4477
 3877SOL    HW223268   2.213   3.695   8.222  0.9444  2.2616 -0.3910
 3878SOL     OW23269   0.256   0.031  11.628  0.1574  0.0980 -0.3407
 3878SOL    HW123270   0.232   4.723  11.548  1.5455  1.6544 -1.6614
 3878SOL    HW223271   0.183   0.003  11.683  0.6898 -0.9886 -0.2037
 3879SOL     OW23272   1.810   1.018   0.531  0.4587  0.2367 -0.1673
 3879SOL    HW123273   1.818   0.993   0.439  0.3376 -1.4481  0.2638
 3879SOL    HW223274   1.810   1.113   0.521  0.2087 -0.0500 -2.9004
 3880SOL     OW23275   1.952   0.851  11.380 -0.6318 -0.0128  0.1638
 3880SOL    HW123276   1.998   0.857  11.296  2.4934  0.1147  1.8580
 3880SOL    HW223277   1.912   0.764  11.375 -1.2486  0.1690  2.0729
 3881SOL     OW23278   4.456   0.187  17.036  0.5144  0.8626  0.2297
 3881SOL    HW123279   4.388   0.189  16.968 -1.0484  1.4850  1.7969
 3881SOL    HW223280   4.464   0.282  17.042  0.7419  0.8059  0.7482
 3882SOL     OW23281   0.192   2.481  16.657 -0.4913 -0.0819  0.1565
 3882SOL    HW123282   0.269   2.424  16.666 -1.5141 -1.1521  2.0803
 3882SOL    HW223283   0.152   2.461  16.742  0.6850  3.2693  1.5085
 3883SOL     OW23284   1.551   4.316   3.932 -0.5720  0.2752 -0.0784
 3883SOL    HW123285   1.516   4.244   3.984 -0.7973  0.3472 -0.1317
 3883SOL    HW223286   1.468   4.363   3.922 -0.9326 -0.3137  0.1171
 3884SOL     OW23287   4.288   0.398   4.268 -0.4295 -1.0014 -0.0954
 3884SOL    HW123288   4.198   0.429   4.258  0.1538  1.0209  0.7764
 3884SOL    HW223289   4.287   0.342   4.190  0.6728 -0.8275 -0.2394
 3885SOL     OW23290   3.112   2.884  16.739  0.0030  0.1651  0.2561
 3885SOL    HW123291   3.092   2.944  16.667  1.1535  1.5976  1.1295
 3885SOL    HW223292   3.167   2.939  16.795  0.5253  1.2033 -1.2674
 3886SOL     OW23293   1.460   2.129   0.333  0.2943  0.8017  0.0460
 3886SOL    HW123294   1.374   2.169   0.345  0.9139  2.5692 -1.3982
 3886SOL    HW223295   1.448   2.078   0.253 -1.3883  1.9559 -0.4593
 3887SOL     OW23296   3.360   1.213  12.533 -0.9966 -0.3335 -0.3813
 3887SOL    HW123297   3.423   1.285  12.539 -0.0829 -0.7935 -4.5818
 3887SOL    HW223298   3.409   1.147  12.484  1.5315  0.8177  0.6000
 3888SOL     OW23299   0.763   3.290   5.915  0.0448 -0.0935 -0.2969
 3888SOL    HW123300   0.846   3.263   5.877  0.6262  1.3117 -0.0141
 3888SOL    HW223301   0.776   3.384   5.924  0.9055 -0.3710  1.3206
 3889SOL     OW23302   0.881   0.200  10.228  0.1370  0.3438 -0.2100
 3889SOL    HW123303   0.839   0.173  10.147 -1.1518  1.6572  0.0203
 3889SOL    HW223304   0.907   0.117  10.268  0.4584  0.9215  0.7901
 3890SOL     OW23305   0.992   1.090  12.843  0.3080  0.4206 -0.0011
 3890SOL    HW123306   0.979   0.999  12.867  0.6705  0.5844  0.8501
 3890SOL    HW223307   0.900   1.115  12.846  0.3556  0.7358 -1.2427
 3891SOL     OW23308   1.664   2.794   2.228 -0.0157 -0.0351 -0.0006
 3891SOL    HW123309   1.600   2.750   2.173 -0.1694 -0.4098  0.4739
 3891SOL    HW223310   1.599   2.827   2.291 -0.9025 -2.1889  0.2076
 3892SOL     OW23311   2.242   4.346  14.241 -0.0736 -0.3760  0.1298
 3892SOL    HW123312   2.155   4.320  14.269 -0.9975 -0.2562 -2.6341
 3892SOL    HW223313   2.253   4.309  14.153  3.1887 -1.8773  1.1544
 3893SOL     OW23314   1.703   0.876   1.438  0.9720  0.4352  0.1799
 3893SOL    HW123315   1.675   0.817   1.508  0.6716  0.7304  0.3057
 3893SOL    HW223316   1.790   0.900   1.467  1.8067 -2.2774 -0.0410
 3894SOL     OW23317   1.911   2.664   3.301  0.2086  0.1920 -0.0904
 3894SOL    HW123318   1.849   2.718   3.252  0.4279 -0.7742 -1.4219
 3894SOL    HW223319   1.894   2.586   3.249 -0.0481  0.8377 -0.9733
 3895SOL     OW23320   2.062   0.153  17.220 -0.0460 -0.3354 -0.7725
 3895SOL    HW123321   2.077   0.081  17.158  0.5322 -2.0831  1.3942
 3895SOL    HW223322   2.149   0.157  17.259 -0.5801  0.4666  0.3204
 3896SOL     OW23323   1.165   1.342  14.987 -0.5893 -0.2229  0.1975
 3896SOL    HW123324   1.106   1.294  15.044 -1.0886 -1.4185 -1.3470
 3896SOL    HW223325   1.153   1.425  15.034  0.3076 -0.1321  0.2681
 3897SOL     OW23326   3.160   0.710  16.124  0.0951  0.1695  0.4441
 3897SOL    HW123327   3.254   0.708  16.143  0.5454  0.2321 -1.7360
 3897SOL    HW223328   3.155   0.680  16.033 -1.4777 -0.1070  0.6257
 3898SOL     OW23329   0.726   1.313   9.497 -0.4342 -0.1768 -0.4636
 3898SOL    HW123330   0.720   1.255   9.421 -1.1341 -1.6128  0.6957
 3898SOL    HW223331   0.644   1.360   9.482  0.4633  1.1312 -1.1994
 3899SOL     OW23332   1.879   3.660   9.174  0.3944 -0.4317  0.2448
 3899SOL    HW123333   1.936   3.584   9.171  1.8661  0.7775 -2.3516
 3899SOL    HW223334   1.794   3.623   9.150  0.7889 -0.1150 -1.6125
 3900SOL     OW23335   0.560   1.562   8.981  0.0337 -0.7272 -0.4441
 3900SOL    HW123336   0.598   1.532   9.064  0.6770 -1.7367 -1.0983
 3900SOL    HW223337   0.504   1.490   8.954 -1.3445  1.3909 -3.1733
 3901SOL     OW23338   0.327   0.697   6.800 -0.2496  0.3264 -0.6434
 3901SOL    HW123339   0.421   0.689   6.816 -0.5082  0.0845  0.7689
 3901SOL    HW223340   0.288   0.733   6.879 -2.5923  0.6822 -1.9513
 3902SOL     OW23341   1.296   0.026   4.618  0.0034 -0.0075 -0.1044
 3902SOL    HW123342   1.209   0.056   4.590 -0.4498  0.2026  1.5348
 3902SOL    HW223343   1.299   0.027   4.713  3.0746  2.9930 -0.2385
 3903SOL     OW23344   2.496   1.750   8.944  0.2508  0.0843  0.0594
 3903SOL    HW123345   2.559   1.821   8.954 -2.4324  2.6589 -1.2795
 3903SOL    HW223346   2.427   1.775   9.007  0.6183  0.9873  0.0960
 3904SOL     OW23347   2.565   3.614   5.899 -0.0489  0.3349  0.5127
 3904SOL    HW123348   2.637   3.628   5.838  0.2893 -3.0127  0.1123
 3904SOL    HW223349   2.595   3.533   5.941 -1.7889 -0.9304 -0.7046
 3905SOL     OW23350   1.497   2.637   2.084 -0.5417  0.2172 -0.0413
 3905SOL    HW123351   1.409   2.638   2.122  0.8398  3.1367  3.0788
 3905SOL    HW223352   1.485   2.556   2.035  3.0088  0.3513 -1.1493
 3906SOL     OW23353   2.815   0.871  10.000  0.2650 -0.0195 -0.4343
 3906SOL    HW123354   2.732   0.883  10.047 -0.1830  0.8433 -1.4461
 3906SOL    HW223355   2.874   0.932  10.044  1.9210 -0.4354 -2.0878
 3907SOL     OW23356   4.619   1.059  15.728 -0.0656  0.2137  0.1564
 3907SOL    HW123357   4.630   0.998  15.655  0.1720 -1.0631  1.2485
 3907SOL    HW223358   4.710   1.083  15.743  0.2292 -0.8962  0.1728
 3908SOL     OW23359   4.663   1.381  12.217 -0.7860 -0.2949  0.1371
 3908SOL    HW123360   4.575   1.357  12.247 -0.0913 -2.9228  0.1195
 3908SOL    HW223361   4.656   1.476  12.226 -3.4936 -0.4624 -0.0268
 3909SOL     OW23362   2.566   4.140   8.997  0.4361 -0.0850  0.5321
 3909SOL    HW123363   2.494   4.088   8.961  0.6454  0.7219 -1.0363
 3909SOL    HW223364   2.527   4.157   9.083 -1.6287 -1.8945 -0.0587
 3910SOL     OW23365   2.339   4.366   2.775  0.3416 -0.2066 -0.0934
 3910SOL    HW123366   2.364   4.287   2.822 -0.3020 -0.7763 -0.7205
 3910SOL    HW223367   2.364   4.439   2.833  2.8543 -0.4867 -0.8362
 3911SOL     OW23368   4.233   1.144   6.343 -0.0599  0.3624 -0.1540
 3911SOL    HW123369   4.323   1.110   6.343 -0.5921 -1.0430  0.6903
 3911SOL    HW223370   4.206   1.071   6.288 -3.4268 -0.2602  2.3427
 3912SOL     OW23371   1.347   4.102   0.833  0.7932  0.7787 -0.5503
 3912SOL    HW123372   1.295   4.111   0.753 -0.5659 -0.5681  0.1882
 3912SOL    HW223373   1.358   4.007   0.836 -0.5210  0.6928  1.5033
 3913SOL     OW23374   2.498   3.973   1.519 -0.5123 -0.4725 -0.3027
 3913SOL    HW123375   2.568   4.012   1.467 -0.0344 -1.0088 -0.0629
 3913SOL    HW223376   2.500   4.027   1.598  1.2213 -0.0657 -0.6132
 3914SOL     OW23377   1.589   3.122   4.534  0.1462 -0.2003  0.6808
 3914SOL    HW123378   1.542   3.185   4.480  1.0474 -0.0817  0.0419
 3914SOL    HW223379   1.636   3.067   4.472  2.6091  1.6850  0.8880
 3915SOL     OW23380   1.984   4.175   4.441  0.2545  0.2804 -0.0504
 3915SOL    HW123381   1.948   4.087   4.449  0.3114  0.3126  0.6240
 3915SOL    HW223382   1.973   4.208   4.352 -1.7658 -0.3529 -0.0168
 3916SOL     OW23383   3.888   2.472  15.082 -0.3477  0.1105 -0.0278
 3916SOL    HW123384   3.822   2.460  15.013 -2.0648  0.3383  1.5741
 3916SOL    HW223385   3.824   2.495  15.149 -1.4898  2.3649 -1.9130
 3917SOL     OW23386   3.749   3.935  17.697 -0.2470 -0.6520 -0.3346
 3917SOL    HW123387   3.801   3.854  17.693  0.8797  0.0014  1.1585
 3917SOL    HW223388   3.787   3.979  17.620 -0.1520  1.1506  0.7526
 3918SOL     OW23389   4.237   0.873   6.982 -0.1843  0.2151  0.1106
 3918SOL    HW123390   4.196   0.953   7.015  1.1456  1.1336 -0.4327
 3918SOL    HW223391   4.224   0.884   6.888 -1.4664 -0.5066  0.2042
 3919SOL     OW23392   4.255   2.152   4.694 -0.0492  0.0136  0.1993
 3919SOL    HW123393   4.164   2.152   4.725 -0.1016 -1.4501  0.0476
 3919SOL    HW223394   4.264   2.235   4.648  1.8976 -0.2245  0.1416
 3920SOL     OW23395   2.019   0.697   7.315 -0.1523 -0.1180  0.2036
 3920SOL    HW123396   2.003   0.603   7.324 -2.6035  0.2281 -0.4166
 3920SOL    HW223397   2.032   0.722   7.406  0.6145  0.1302  0.0224
 3921SOL     OW23398   4.053   3.060  12.977 -0.2429  0.1258  0.1267
 3921SOL    HW123399   4.041   3.138  13.031 -0.2590 -1.1184  1.9163
 3921SOL    HW223400   4.149   3.056  12.972 -0.3011  1.6478 -2.3641
 3922SOL     OW23401   1.524   2.154  10.843  0.4069  0.1031  0.0172
 3922SOL    HW123402   1.492   2.110  10.922 -2.0737 -1.8660 -2.0723
 3922SOL    HW223403   1.580   2.086  10.805 -1.6823 -0.1086 -2.7455
 3923SOL     OW23404   1.257   3.858  17.218 -0.3486  0.2864 -0.3800
 3923SOL    HW123405   1.330   3.823  17.270 -0.2603  0.4876 -0.3668
 3923SOL    HW223406   1.174   3.839  17.261 -0.6072 -0.1001 -1.0507
 3924SOL     OW23407   1.459   4.250   6.330 -0.9805  0.4829  0.2832
 3924SOL    HW123408   1.371   4.277   6.354 -1.7345 -1.9890  0.2929
 3924SOL    HW223409   1.479   4.303   6.252 -0.5459 -0.0764  0.0156
 3925SOL     OW23410   0.778   4.587   2.899  0.1669  0.8212  0.5609
 3925SOL    HW123411   0.873   4.598   2.902  0.2536  0.3563 -0.3829
 3925SOL    HW223412   0.756   4.637   2.821  0.1090 -0.8514 -0.5035
 3926SOL     OW23413   4.595   2.270   3.361  0.1302  0.1297  0.5689
 3926SOL    HW123414   4.642   2.226   3.432  1.4418  1.2020  0.3662
 3926SOL    HW223415   4.634   2.231   3.282 -0.9593 -1.7249  0.9378
 3927SOL     OW23416   0.704   3.148   9.086  0.5821  0.0495  0.0740
 3927SOL    HW123417   0.679   3.068   9.040  1.0136 -0.8786  1.4451
 3927SOL    HW223418   0.646   3.151   9.162  0.9214  1.2022  0.2974
 3928SOL     OW23419   0.681   1.655   9.358  0.2440 -0.2301  0.2059
 3928SOL    HW123420   0.585   1.662   9.361  0.2678  0.5020 -0.5778
 3928SOL    HW223421   0.707   1.738   9.318 -0.6780  0.4752  1.0545
 3929SOL     OW23422   0.180   2.067   3.613 -0.8143 -0.0422 -0.6279
 3929SOL    HW123423   0.175   2.121   3.692  1.9234 -1.8333  0.7751
 3929SOL    HW223424   0.245   2.004   3.646 -1.6156 -0.1823  0.7043
 3930SOL     OW23425   1.955   3.863   4.995  0.7998 -0.1536 -0.1457
 3930SOL    HW123426   1.882   3.903   4.949  0.6405 -1.1436 -0.7574
 3930SOL    HW223427   2.001   3.814   4.926  1.4627  0.0107  0.1724
 3931SOL     OW23428   4.277   1.892   6.849  0.1683  0.0151 -0.2118
 3931SOL    HW123429   4.371   1.900   6.835  0.5582 -0.3344  2.3472
 3931SOL    HW223430   4.257   1.800   6.833 -1.2649  0.1397  0.8258
 3932SOL     OW23431   3.413   3.668   8.987  0.0412 -0.2774  0.5245
 3932SOL    HW123432   3.416   3.597   8.923  0.2925 -0.2909  0.5521
 3932SOL    HW223433   3.330   3.710   8.967 -0.1672 -1.1362 -0.4326
 3933SOL     OW23434   4.243   1.457   7.615  0.5235  0.4280 -0.0181
 3933SOL    HW123435   4.186   1.513   7.562  0.2230  1.1310  1.0396
 3933SOL    HW223436   4.324   1.506   7.602  0.9831  0.0573  1.4037
 3934SOL     OW23437   2.909   3.058  16.112 -0.1850  0.4957  0.3147
 3934SOL    HW123438   2.992   3.018  16.141 -1.0277 -0.8262  0.9050
 3934SOL    HW223439   2.852   2.989  16.146 -0.0841  0.8675  1.2408
 3935SOL     OW23440   1.699   4.636   8.633 -0.2270 -0.6689  0.1830
 3935SOL    HW123441   1.733   4.706   8.688  1.1805 -0.4363 -0.9782
 3935SOL    HW223442   1.684   4.561   8.690 -0.0672  0.2073  1.3830
 3936SOL     OW23443   3.548   3.673   9.228 -0.6543  0.4687  0.2396
 3936SOL    HW123444   3.515   3.654   9.141  1.2656  2.0904 -0.8488
 3936SOL    HW223445   3.465   3.698   9.267 -2.6816 -3.7693 -1.4440
 3937SOL     OW23446   3.966   3.166   5.035  0.1634  0.3294  0.3761
 3937SOL    HW123447   3.890   3.107   5.042  0.8994 -0.7502 -0.9118
 3937SOL    HW223448   3.993   3.180   5.126  0.5027  3.6244 -0.2312
 3938SOL     OW23449   0.679   2.175  13.668 -0.1484  0.1345 -0.2393
 3938SOL    HW123450   0.667   2.162  13.574  0.8924  1.3781 -0.5419
 3938SOL    HW223451   0.636   2.261  13.668  1.6778  1.0489  0.1982
 3939SOL     OW23452   0.986   2.174   5.346 -0.0573  0.2426  0.3854
 3939SOL    HW123453   0.903   2.155   5.389 -0.1843  0.5071  0.2550
 3939SOL    HW223454   1.024   2.086   5.352 -0.8120 -0.1040  0.0654
 3940SOL     OW23455   3.849   2.472   1.512 -0.4855 -0.1045  0.0759
 3940SOL    HW123456   3.896   2.389   1.504 -0.3254 -0.1369  1.2987
 3940SOL    HW223457   3.913   2.523   1.562  1.0520 -3.1038  1.1793
 3941SOL     OW23458   1.703   0.737   4.754  0.1006  0.4654  0.4575
 3941SOL    HW123459   1.749   0.815   4.785 -1.1606  0.5057  2.2347
 3941SOL    HW223460   1.782   0.685   4.739  0.1283  1.2797 -2.2547
 3942SOL     OW23461   3.513   3.483   9.696  0.4734 -0.2722 -0.6393
 3942SOL    HW123462   3.510   3.522   9.783  0.3679 -1.2648 -0.2050
 3942SOL    HW223463   3.604   3.455   9.685  0.1591 -2.2141  1.7786
 3943SOL     OW23464   0.373   2.824   5.458 -0.1169 -0.0794  0.3031
 3943SOL    HW123465   0.431   2.811   5.533 -4.9018 -0.0725  3.9865
 3943SOL    HW223466   0.373   2.920   5.462 -0.8275 -0.0214 -1.0121
 3944SOL     OW23467   0.155   3.057   7.927  0.0453 -0.0283  0.1103
 3944SOL    HW123468   0.195   3.138   7.896  0.1294 -0.7737 -1.7421
 3944SOL    HW223469   0.232   3.000   7.927 -0.5640 -0.9032  3.8322
 3945SOL     OW23470   2.388   3.227   2.770  0.3526  0.0628  0.1673
 3945SOL    HW123471   2.399   3.226   2.865  0.6452 -1.6760  0.1075
 3945SOL    HW223472   2.429   3.313   2.756  1.0837 -0.1206  1.1595
 3946SOL     OW23473   0.356   0.440   7.020 -0.6811  0.0296  0.1605
 3946SOL    HW123474   0.384   0.350   7.034 -0.6011 -0.3439 -2.3426
 3946SOL    HW223475   0.282   0.427   6.961 -0.2544 -2.1825  0.0956
 3947SOL     OW23476   1.711   1.395   1.410  0.2809 -0.5299  0.4359
 3947SOL    HW123477   1.803   1.399   1.434  1.1306 -3.4313 -2.2372
 3947SOL    HW223478   1.676   1.316   1.451 -3.1304  1.3666  1.1993
 3948SOL     OW23479   4.534   3.323  12.983  0.1531  0.5177  0.0915
 3948SOL    HW123480   4.499   3.408  13.008 -1.4569  0.0979 -0.6674
 3948SOL    HW223481   4.619   3.357  12.957  1.6611 -3.3310  0.0354
 3949SOL     OW23482   1.740   1.452   9.200  0.1503  0.1002  0.8400
 3949SOL    HW123483   1.746   1.528   9.142  0.3161 -1.0275 -0.6454
 3949SOL    HW223484   1.688   1.491   9.269 -1.6446 -1.1863  0.2223
 3950SOL     OW23485   1.378   0.304  16.663  0.4346 -0.4883 -0.0555
 3950SOL    HW123486   1.461   0.321  16.707  0.8734 -0.1277 -1.0415
 3950SOL    HW223487   1.393   0.225  16.612  1.8160  0.2201 -0.7278
 3951SOL     OW23488   1.127   3.552  13.336  0.1438  0.1659  0.3548
 3951SOL    HW123489   1.175   3.625  13.296  1.0544 -0.7165 -0.1439
 3951SOL    HW223490   1.192   3.490  13.369 -0.7949 -1.7375 -1.4323
 3952SOL     OW23491   3.746   4.192   9.144 -0.1500  0.0310 -0.1468
 3952SOL    HW123492   3.790   4.262   9.193 -0.1615 -0.2980  0.3254
 3952SOL    HW223493   3.663   4.178   9.188  0.1319  1.5727  0.8987
 3953SOL     OW23494   0.366   0.256   3.258  0.0149 -0.0070 -0.1409
 3953SOL    HW123495   0.339   0.269   3.167 -1.2627  1.8416  0.5069
 3953SOL    HW223496   0.330   0.335   3.299  1.8359  0.6505  0.2148
 3954SOL     OW23497   4.094   1.083   2.717  0.0297  0.0835  0.2651
 3954SOL    HW123498   4.165   1.019   2.729 -0.0290  0.1495  0.9607
 3954SOL    HW223499   4.135   1.169   2.701 -0.1599  0.1212 -0.0183
 3955SOL     OW23500   2.291   0.282   8.560  0.1822  0.0035 -0.1330
 3955SOL    HW123501   2.331   0.199   8.532  3.1986  1.0539  1.0764
 3955SOL    HW223502   2.273   0.259   8.651  3.0113 -0.3241  0.3553
 3956SOL     OW23503   3.273   3.804   7.774  0.5343 -0.1124  0.0095
 3956SOL    HW123504   3.333   3.849   7.715  0.4878 -2.0835 -1.5530
 3956SOL    HW223505   3.212   3.765   7.711  1.9475 -2.5251  0.1141
 3957SOL     OW23506   4.714   0.456  15.967  0.3633 -0.0630  0.0976
 3957SOL    HW123507   0.067   0.435  15.957 -0.0103 -2.2661  1.3029
 3957SOL    HW223508   4.716   0.550  15.982 -2.4166 -0.2987  2.0287
 3958SOL     OW23509   3.793   0.230   5.380 -0.1588 -0.2404  0.0881
 3958SOL    HW123510   3.822   0.274   5.460 -4.3310  1.9850  0.3443
 3958SOL    HW223511   3.738   0.294   5.336 -0.5245 -0.5153  0.1388
 3959SOL     OW23512   4.720   0.346   8.506  0.4052  0.0297 -0.0563
 3959SOL    HW123513   0.047   0.408   8.539  0.4165  1.7350 -3.2819
 3959SOL    HW223514   4.685   0.327   8.593  2.8143 -0.4194  0.8216
 3960SOL     OW23515   1.755   0.263   7.109  0.0632 -0.9104  0.7590
 3960SOL    HW123516   1.666   0.291   7.130 -0.2833 -0.3147 -1.5004
 3960SOL    HW223517   1.761   0.202   7.183  0.9798  0.3141  1.6891
 3961SOL     OW23518   0.395   1.018   1.500 -0.4505 -0.3249  0.5056
 3961SOL    HW123519   0.385   0.928   1.530 -3.3930 -0.2730 -0.3058
 3961SOL    HW223520   0.409   1.059   1.586 -3.2834  1.4885  0.1057
 3962SOL     OW23521   1.316   1.510   9.183 -0.3975 -0.7007  0.1559
 3962SOL    HW123522   1.338   1.581   9.122 -0.8157 -0.6942  0.0120
 3962SOL    HW223523   1.221   1.503   9.192 -0.2934 -2.8226 -0.5274
 3963SOL     OW23524   4.169   3.743  12.376 -0.3572  0.0906 -0.1748
 3963SOL    HW123525   4.251   3.757  12.329  0.7864 -1.7481  1.2673
 3963SOL    HW223526   4.181   3.658  12.418  1.3204 -0.4184 -1.6901
 3964SOL     OW23527   0.861   0.681   2.340  0.2125  0.2251 -0.2522
 3964SOL    HW123528   0.818   0.607   2.298 -0.8197  1.2329 -0.9773
 3964SOL    HW223529   0.801   0.700   2.412 -0.3055  1.5704 -1.0266
 3965SOL     OW23530   3.001   0.303  12.977  0.6914  0.2181  0.3245
 3965SOL    HW123531   3.041   0.336  13.057  2.4125  0.2259 -0.5180
 3965SOL    HW223532   3.025   0.210  12.979 -3.4091 -0.8474  0.4085
 3966SOL     OW23533   1.005   0.913  10.268 -0.1439 -0.0245  0.0048
 3966SOL    HW123534   1.023   0.890  10.177  0.0686 -1.7305  0.4653
 3966SOL    HW223535   0.950   0.835  10.282 -0.4503  0.3622  0.9918
 3967SOL     OW23536   3.399   0.426   4.021  0.4883  0.3227  0.4063
 3967SOL    HW123537   3.357   0.491   3.965 -0.6460 -0.3994  0.4208
 3967SOL    HW223538   3.382   0.461   4.108  1.2758 -3.6667  2.1892
 3968SOL     OW23539   2.537   2.312   4.357 -0.0219  0.0715 -0.2548
 3968SOL    HW123540   2.608   2.311   4.293  1.2307  0.3130  1.1125
 3968SOL    HW223541   2.467   2.349   4.304  1.7953  0.3648 -2.4547
 3969SOL     OW23542   2.121   4.267   6.980  0.0031  0.0425 -0.4337
 3969SOL    HW123543   2.051   4.220   7.026 -0.1873  1.2166  0.4562
 3969SOL    HW223544   2.127   4.346   7.033 -1.3385  0.0854 -0.3606
 3970SOL     OW23545   0.777   4.050  15.943  0.0639 -0.4038  0.7798
 3970SOL    HW123546   0.848   4.106  15.975 -1.6526  3.0809 -1.5296
 3970SOL    HW223547   0.703   4.085  15.993 -0.9000 -0.0335 -0.8952
 3971SOL     OW23548   0.398   2.408   8.544 -0.4466 -0.3194  0.5617
 3971SOL    HW123549   0.442   2.340   8.494 -1.1931  0.0285 -0.5713
 3971SOL    HW223550   0.317   2.409   8.492  0.0253  1.0213 -0.1644
 3972SOL     OW23551   1.930   2.356   7.693  0.3746  0.2922 -0.3142
 3972SOL    HW123552   1.929   2.303   7.772 -0.2174 -0.0778 -0.5762
 3972SOL    HW223553   1.862   2.308   7.645  1.2397 -1.4573  0.1997
 3973SOL     OW23554   1.612   2.810  13.030 -0.0390  0.4805  0.7823
 3973SOL    HW123555   1.694   2.813  12.980 -0.2934  0.0562  0.3443
 3973SOL    HW223556   1.558   2.740  12.992 -2.2328  0.6862  3.5100
 3974SOL     OW23557   2.518   0.555  12.827  0.2683  0.1270  0.3952
 3974SOL    HW123558   2.585   0.567  12.894  0.7976  0.2373 -0.1511
 3974SOL    HW223559   2.440   0.524  12.872 -0.3326  4.3436  2.3102
 3975SOL     OW23560   2.869   1.579  10.775  0.0409  0.3606  0.0657
 3975SOL    HW123561   2.774   1.585  10.788  0.0558  0.8473 -0.0687
 3975SOL    HW223562   2.897   1.553  10.863 -0.2268  4.1375  1.2483
 3976SOL     OW23563   2.775   0.845  14.038 -0.3695 -0.1866 -0.2382
 3976SOL    HW123564   2.800   0.755  14.018  2.4087  1.3290 -3.5816
 3976SOL    HW223565   2.856   0.885  14.069 -0.3629  0.0445 -0.5581
 3977SOL     OW23566   3.081   2.557   6.173 -0.5673  0.2591  0.5952
 3977SOL    HW123567   3.092   2.465   6.196 -0.7806  0.4205  1.3313
 3977SOL    HW223568   3.133   2.555   6.093 -0.0686  0.9543  0.9035
 3978SOL     OW23569   0.128   1.972  11.428 -0.0385 -0.4825 -0.3194
 3978SOL    HW123570   0.214   1.963  11.388 -0.6737  0.0239 -1.8135
 3978SOL    HW223571   0.070   1.988  11.354 -0.4966 -0.0258  0.1347
 3979SOL     OW23572   4.151   1.015   5.197  0.2854  0.6132 -0.0369
 3979SOL    HW123573   4.076   0.968   5.234 -0.2600  2.0451  0.6764
 3979SOL    HW223574   4.115   1.040   5.112 -1.7244 -0.5731  0.4798
 3980SOL     OW23575   3.766   1.915   8.988 -0.3192 -0.2883  0.0132
 3980SOL    HW123576   3.759   1.856   8.913 -0.5584 -0.8740  0.4892
 3980SOL    HW223577   3.671   1.919   9.004 -0.4712 -4.0942  0.1388
 3981SOL     OW23578   3.685   1.943   4.581 -0.4833  0.0631  0.3688
 3981SOL    HW123579   3.648   1.867   4.627 -0.3083 -1.7495 -2.4968
 3981SOL    HW223580   3.770   1.909   4.554 -0.8719 -1.6093  1.2474
 3982SOL     OW23581   2.949   0.086  14.831 -0.2572  0.5263 -0.2123
 3982SOL    HW123582   2.994   0.138  14.764  0.9861  0.4724  0.5729
 3982SOL    HW223583   2.866   0.064  14.789  1.9724 -2.1567 -3.2634
 3983SOL     OW23584   1.474   2.337   5.498 -0.3716  0.4656 -0.4361
 3983SOL    HW123585   1.460   2.409   5.436  0.6988  0.9648 -0.0998
 3983SOL    HW223586   1.562   2.306   5.475 -0.9014 -0.4535 -1.2530
 3984SOL     OW23587   3.116   1.647   1.628  0.7387  0.2225 -0.4824
 3984SOL    HW123588   3.179   1.682   1.690 -2.5111  0.7243  2.5777
 3984SOL    HW223589   3.146   1.676   1.542 -2.0881  2.9921 -0.5447
 3985SOL     OW23590   3.196   0.618   5.736  0.2588  0.2847 -0.0035
 3985SOL    HW123591   3.290   0.606   5.724  0.4445  1.1435  0.6211
 3985SOL    HW223592   3.203   0.649   5.826  0.3573 -1.6221  0.6514
 3986SOL     OW23593   3.994   4.691  16.944 -0.0794  0.4907 -0.6880
 3986SOL    HW123594   3.973   0.038  16.907 -0.1780  1.6469  2.1268
 3986SOL    HW223595   3.931   4.675  17.014 -0.5024  1.3038 -0.8942
 3987SOL     OW23596   1.385   1.027  13.233  0.0602 -0.6301 -0.2360
 3987SOL    HW123597   1.329   1.085  13.180 -0.6856 -0.7639  0.3972
 3987SOL    HW223598   1.311   0.994  13.284 -0.2123 -1.4499 -1.1444
 3988SOL     OW23599   2.633   3.222   0.338  0.5778  0.2030 -0.0554
 3988SOL    HW123600   2.632   3.167   0.260 -0.3562  0.0510  0.0665
 3988SOL    HW223601   2.710   3.183   0.379  0.5593 -0.0707 -0.2817
 3989SOL     OW23602   4.609   0.390   5.672  0.1085 -0.9261  0.0332
 3989SOL    HW123603   4.519   0.400   5.640  0.3803  3.7890  0.7491
 3989SOL    HW223604   4.649   0.317   5.625 -0.2234 -1.1348  0.0742
 3990SOL     OW23605   2.836   1.915   9.660 -0.3321 -0.0118 -0.4292
 3990SOL    HW123606   2.766   1.850   9.664 -0.4974  0.0701 -1.8485
 3990SOL    HW223607   2.898   1.893   9.730  2.1563  0.7997 -2.3697
 3991SOL     OW23608   3.046   4.675   8.934  0.4660  0.3980  0.4251
 3991SOL    HW123609   3.125   4.685   8.880 -1.0127 -0.5495 -1.9075
 3991SOL    HW223610   2.984   4.721   8.877  1.3621 -1.1894 -1.8468
 3992SOL     OW23611   1.495   0.278  11.343 -0.0444  0.7693  0.5067
 3992SOL    HW123612   1.415   0.288  11.291 -0.2704 -2.2135  0.2741
 3992SOL    HW223613   1.554   0.336  11.294  1.5156 -0.1441  1.3190
 3993SOL     OW23614   3.700   3.301   2.695  0.2089 -0.2858  0.2878
 3993SOL    HW123615   3.791   3.315   2.723  0.0048  0.4903  0.5629
 3993SOL    HW223616   3.659   3.293   2.781 -2.5746 -0.0760 -1.0451
 3994SOL     OW23617   3.988   4.738  16.403 -0.3757  0.3436  0.0433
 3994SOL    HW123618   4.069   4.689  16.395 -0.5892  0.0856 -0.5615
 3994SOL    HW223619   3.988   4.727  16.498 -1.0163 -1.1285 -0.1280
 3995SOL     OW23620   2.232   3.910  10.911 -0.1777  0.2076  0.0084
 3995SOL    HW123621   2.236   3.815  10.919  3.1534  0.4170  0.5791
 3995SOL    HW223622   2.256   3.919  10.819 -1.6885 -3.1820 -0.7461
 3996SOL     OW23623   2.806   1.660   1.358  0.0018  0.2992 -0.2674
 3996SOL    HW123624   2.870   1.589   1.364 -0.4251 -0.0285  0.4064
 3996SOL    HW223625   2.731   1.629   1.408 -0.1808 -1.0684 -1.3753
 3997SOL     OW23626   1.346   2.906   7.508  0.2108  0.3897 -0.4832
 3997SOL    HW123627   1.288   2.909   7.431 -2.9957 -0.1941  1.9223
 3997SOL    HW223628   1.411   2.972   7.485 -0.0623  0.6327 -0.5577
 3998SOL     OW23629   0.340   1.470   2.911  0.1743  0.6390 -0.1412
 3998SOL    HW123630   0.347   1.515   2.996  0.0563  1.4772 -0.5687
 3998SOL    HW223631   0.358   1.538   2.846 -0.2745  1.4089  0.5370
 3999SOL     OW23632   2.118   0.353   8.973  0.0717 -0.0579  0.1139
 3999SOL    HW123633   2.077   0.288   9.031  1.1566 -0.1394  0.7868
 3999SOL    HW223634   2.095   0.440   9.006  0.3158 -0.2167  0.7114
 4000SOL     OW23635   4.419   2.712   4.144 -0.2030  0.6622  0.0963
 4000SOL    HW123636   4.355   2.783   4.149  0.3361  1.1647 -0.1028
 4000SOL    HW223637   4.370   2.655   4.084  0.7802  0.8246 -0.8612
 4001SOL     OW23638   2.056   4.728   3.405 -0.3308 -0.2653 -0.2915
 4001SOL    HW123639   2.114   4.677   3.462 -0.8854 -0.2816  0.2585
 4001SOL    HW223640   2.001   0.034   3.469  0.5842  0.6341 -0.1390
 4002SOL     OW23641   2.810   0.324   1.356  0.2034 -0.0948 -0.3201
 4002SOL    HW123642   2.821   0.232   1.378 -1.3139 -0.3743 -0.7160
 4002SOL    HW223643   2.838   0.329   1.264 -0.7865 -0.4960 -0.6560
 4003SOL     OW23644   2.558   4.058   3.179  0.3021  0.3539 -0.0728
 4003SOL    HW123645   2.523   3.972   3.205 -2.3079  1.6008  0.5859
 4003SOL    HW223646   2.652   4.044   3.190  0.4930  1.5838 -0.1883
 4004SOL     OW23647   0.804   3.653   9.511  0.1740  0.2419  0.9162
 4004SOL    HW123648   0.735   3.702   9.556  0.6786 -0.0524  2.0212
 4004SOL    HW223649   0.801   3.574   9.566  0.8729  1.2523  2.4027
 4005SOL     OW23650   3.142   2.005   1.444 -0.2592 -0.2397  0.0727
 4005SOL    HW123651   3.213   1.977   1.386 -0.0030  0.4009  0.0849
 4005SOL    HW223652   3.068   1.970   1.393 -0.0355 -0.8278  0.1568
 4006SOL     OW23653   0.947   3.842   4.187 -0.0866  0.3199 -0.4204
 4006SOL    HW123654   0.988   3.803   4.109  0.5057  0.5296 -0.2157
 4006SOL    HW223655   0.855   3.820   4.174 -0.9645  1.7820  3.4432
 4007SOL     OW23656   4.591   4.472   2.908  0.2102  0.2343 -0.0539
 4007SOL    HW123657   4.497   4.485   2.916 -0.2238 -1.5016 -2.3161
 4007SOL    HW223658   4.598   4.441   2.998 -0.9037 -0.3911 -0.1808
 4008SOL     OW23659   3.788   2.806   4.760  0.1954 -0.1544  0.9244
 4008SOL    HW123660   3.741   2.743   4.705  0.5992 -0.0371  0.4469
 4008SOL    HW223661   3.842   2.746   4.812  0.9147 -1.1443 -0.9863
 4009SOL     OW23662   2.048   2.259   4.507  0.8235  0.0675 -0.0793
 4009SOL    HW123663   2.100   2.307   4.571 -1.3922 -0.5684  2.2044
 4009SOL    HW223664   1.970   2.243   4.561  2.4619  0.0674  2.2617
 4010SOL     OW23665   2.006   0.196   6.150 -0.2761  0.1512  0.2301
 4010SOL    HW123666   2.062   0.122   6.173  0.6255  0.9148  0.5104
 4010SOL    HW223667   1.940   0.145   6.103  1.5292 -1.5004 -0.4807
 4011SOL     OW23668   3.437   4.411  12.404 -0.3853 -0.2435 -0.4826
 4011SOL    HW123669   3.501   4.409  12.333 -0.4649  0.5682 -0.5754
 4011SOL    HW223670   3.381   4.337  12.382 -0.4738 -0.3644  0.1525
 4012SOL     OW23671   2.506   3.861   8.464 -0.1985  0.1783 -0.5685
 4012SOL    HW123672   2.445   3.875   8.537  0.8331 -0.6667  0.4600
 4012SOL    HW223673   2.590   3.884   8.504 -0.5527 -0.3137  0.4639
 4013SOL     OW23674   1.315   0.662   8.311  0.5732 -0.0205 -0.7779
 4013SOL    HW123675   1.324   0.756   8.325  0.1233 -0.3508  1.7997
 4013SOL    HW223676   1.370   0.629   8.383  2.0580 -0.9487 -2.3453
 4014SOL     OW23677   0.016   1.499   1.660  0.4765  0.5007  0.7512
 4014SOL    HW123678   0.068   1.553   1.720  1.6570  0.3857 -0.1717
 4014SOL    HW223679   0.064   1.416   1.662  0.5717  0.4966 -1.8948
 4015SOL     OW23680   1.623   0.336   4.427  0.2074  0.5352  0.6124
 4015SOL    HW123681   1.674   0.308   4.351 -0.1372 -0.7817  0.8660
 4015SOL    HW223682   1.556   0.269   4.413 -0.4391  1.2316  0.3990
 4016SOL     OW23683   2.400   0.334   3.333 -0.2602 -0.3822  0.4085
 4016SOL    HW123684   2.327   0.292   3.380  0.0792 -0.2809  1.0118
 4016SOL    HW223685   2.470   0.270   3.347 -0.5348 -0.0866  3.0479
 4017SOL     OW23686   3.073   2.351   2.822 -0.3267 -0.0662  0.3028
 4017SOL    HW123687   3.062   2.358   2.917 -1.2121  2.1296  0.0278
 4017SOL    HW223688   3.088   2.440   2.792  1.5874 -0.9653 -1.4346
 4018SOL     OW23689   0.056   2.422   3.704 -0.3605 -0.0587 -0.2950
 4018SOL    HW123690   0.111   2.402   3.628 -1.0461 -3.3491  0.0559
 4018SOL    HW223691   0.113   2.471   3.763 -1.7752  1.0536  0.1518
 4019SOL     OW23692   2.686   2.150   4.945  0.2140 -0.2339  0.4211
 4019SOL    HW123693   2.754   2.092   4.910 -0.4591 -0.7426 -0.0506
 4019SOL    HW223694   2.734   2.233   4.954  0.5434 -0.3280 -0.4627
 4020SOL     OW23695   4.396   1.159   3.317 -0.3587  0.2061  0.4519
 4020SOL    HW123696   4.387   1.250   3.347  0.1894  1.0220 -1.8749
 4020SOL    HW223697   4.403   1.120   3.404 -0.6587 -0.1412  0.3185
 4021SOL     OW23698   1.546   0.534  11.933 -0.2867  0.7852  0.2114
 4021SOL    HW123699   1.600   0.515  12.010 -1.4976  1.6450  1.2892
 4021SOL    HW223700   1.484   0.599  11.968  1.3178  0.3766  3.8276
 4022SOL     OW23701   0.879   2.304  12.943  0.1692 -0.3352 -0.3893
 4022SOL    HW123702   0.969   2.303  12.909 -0.0171  1.7593 -0.9572
 4022SOL    HW223703   0.828   2.284  12.865  0.7347 -0.7808 -0.6458
 4023SOL     OW23704   1.206   1.250   5.321 -0.5153  0.2563  0.0357
 4023SOL    HW123705   1.188   1.240   5.414 -0.9245  0.4178 -0.0266
 4023SOL    HW223706   1.134   1.196   5.287 -1.5212  0.2999  2.1390
 4024SOL     OW23707   1.215   4.427  14.186  0.0323 -0.3707 -0.2019
 4024SOL    HW123708   1.289   4.483  14.162 -0.7618 -0.1946 -2.1640
 4024SOL    HW223709   1.161   4.433  14.108  0.1465  2.0095 -0.0947
 4025SOL     OW23710   0.379   3.625   8.645 -0.1440 -0.4599 -0.3020
 4025SOL    HW123711   0.361   3.534   8.619  0.5973 -0.7090  0.0498
 4025SOL    HW223712   0.474   3.625   8.630  0.3150 -2.3080  2.5743
 4026SOL     OW23713   3.802   2.995   1.906 -0.1329  0.3589 -0.3293
 4026SOL    HW123714   3.789   2.913   1.952 -0.1641  0.8476  0.5448
 4026SOL    HW223715   3.828   2.965   1.819 -2.4070  0.6901 -1.1336
 4027SOL     OW23716   1.424   0.458   6.977  0.6494 -0.5219  0.0311
 4027SOL    HW123717   1.408   0.372   7.016 -2.1457 -1.3220 -2.8638
 4027SOL    HW223718   1.469   0.435   6.896 -2.2958 -0.8562 -1.4985
 4028SOL     OW23719   1.575   4.533   0.610  0.5752 -0.7491 -0.2523
 4028SOL    HW123720   1.527   4.526   0.528 -0.0733 -1.8867  0.2236
 4028SOL    HW223721   1.501   4.531   0.671  0.2323 -1.0739 -0.6838
 4029SOL     OW23722   4.302   1.533  17.050  0.1608  0.5685  0.2027
 4029SOL    HW123723   4.229   1.470  17.051  1.2727 -0.7394 -0.3551
 4029SOL    HW223724   4.297   1.569  16.961  1.2759 -0.0149 -0.0970
 4030SOL     OW23725   2.670   4.453   1.413 -0.7292  0.2901  0.6537
 4030SOL    HW123726   2.608   4.411   1.353 -0.8220  2.9934 -1.1843
 4030SOL    HW223727   2.631   4.541   1.412  0.2247  0.7196  2.1139
 4031SOL     OW23728   0.803   4.615   3.774 -0.2260 -0.5766 -0.2886
 4031SOL    HW123729   0.709   4.596   3.782 -0.0072 -1.1093  1.1424
 4031SOL    HW223730   0.817   4.635   3.682 -0.3298  0.6955 -0.0276
 4032SOL     OW23731   1.466   4.316  15.464 -0.1745 -0.0342 -0.3397
 4032SOL    HW123732   1.559   4.306  15.484  0.5236  2.4488 -2.2974
 4032SOL    HW223733   1.431   4.367  15.538  0.9877  1.2474 -0.6673
 4033SOL     OW23734   4.560   3.554  15.671 -0.6132  0.7703  0.3906
 4033SOL    HW123735   4.606   3.588  15.594  0.4528 -0.9135  0.2763
 4033SOL    HW223736   4.594   3.464  15.672 -2.7674 -0.0580  0.0305
 4034SOL     OW23737   0.550   1.978  13.882 -0.0293 -0.0942  0.2043
 4034SOL    HW123738   0.612   2.020  13.822  0.1875 -1.8387 -0.8166
 4034SOL    HW223739   0.490   2.050  13.900 -0.4168 -0.4028  0.1482
 4035SOL     OW23740   1.048   1.481   9.191 -0.1968 -0.0823  0.0032
 4035SOL    HW123741   1.042   1.457   9.284 -0.8444 -0.0483 -0.0314
 4035SOL    HW223742   0.955   1.464   9.183 -0.2542  2.3046 -4.2831
 4036SOL     OW23743   4.603   4.378  10.681 -0.1436 -0.1402 -0.0995
 4036SOL    HW123744   4.693   4.375  10.649  0.2932 -3.8559  1.4487
 4036SOL    HW223745   4.600   4.302  10.740 -0.7273 -0.4720 -0.5499
 4037SOL     OW23746   3.662   3.567   3.741 -0.5447 -0.3239  0.0147
 4037SOL    HW123747   3.579   3.554   3.786  0.4218 -0.5257  1.7368
 4037SOL    HW223748   3.702   3.642   3.786  0.1496 -0.0076 -1.1475
 4038SOL     OW23749   3.038   0.094  14.068  0.1497 -0.1089 -0.3761
 4038SOL    HW123750   3.048   0.046  14.149 -0.5507  1.5485  0.6914
 4038SOL    HW223751   2.998   0.024  14.015 -1.7162 -0.3721  1.3776
 4039SOL     OW23752   0.655   4.338  10.363  0.0435 -0.7236 -0.1622
 4039SOL    HW123753   0.679   4.404  10.428  0.5260 -1.5239  0.4735
 4039SOL    HW223754   0.715   4.268  10.389  0.4470  0.1426  1.2331
 4040SOL     OW23755   3.269   0.608   7.885 -0.6679 -0.0555  0.0271
 4040SOL    HW123756   3.330   0.565   7.944  2.1044 -1.5732 -3.9354
 4040SOL    HW223757   3.291   0.701   7.889  0.7519 -0.4021  0.3094
 4041SOL     OW23758   2.324   2.063  15.244 -0.1516  0.8448 -0.7987
 4041SOL    HW123759   2.339   2.020  15.328 -1.0503  0.0510 -1.0361
 4041SOL    HW223760   2.288   1.997  15.184 -1.9333 -0.0625  1.2459
 4042SOL     OW23761   1.055   3.083   0.934 -0.6888  0.5468 -0.1234
 4042SOL    HW123762   1.071   3.115   0.845 -0.2328  2.2458  0.5673
 4042SOL    HW223763   0.961   3.098   0.944 -0.7107 -1.2549  2.4021
 4043SOL     OW23764   3.016   2.247   9.504 -0.7968 -0.1396 -0.4547
 4043SOL    HW123765   2.968   2.312   9.454  0.2864 -0.2739 -1.6889
 4043SOL    HW223766   2.991   2.274   9.592 -0.0420 -2.4531  0.4824
 4044SOL     OW23767   0.684   3.245  13.248 -0.5710 -0.5468 -0.6194
 4044SOL    HW123768   0.659   3.168  13.299  1.7171 -2.2076 -1.9971
 4044SOL    HW223769   0.776   3.240  13.275 -0.3521  0.5917 -1.1295
 4045SOL     OW23770   2.383   4.686  15.404  0.6188 -0.3034 -0.1387
 4045SOL    HW123771   2.428   0.026  15.373 -0.0925 -0.1344 -0.7170
 4045SOL    HW223772   2.349   4.717  15.488 -2.0359 -1.6555 -0.7310
 4046SOL     OW23773   3.918   3.971   9.896 -0.1697 -0.7613 -0.1210
 4046SOL    HW123774   3.931   3.948   9.804  1.3622 -1.0036  0.1555
 4046SOL    HW223775   3.907   4.066   9.893  0.2330 -0.6996  0.4485
 4047SOL     OW23776   0.084   3.014   9.737 -0.1693 -0.1094 -0.3520
 4047SOL    HW123777   0.066   2.924   9.711 -0.0941  0.1288 -1.2120
 4047SOL    HW223778   0.166   3.010   9.787 -0.2054  2.6585 -0.0789
 4048SOL     OW23779   3.224   3.474   9.187 -0.8951 -0.5155 -0.0738
 4048SOL    HW123780   3.216   3.565   9.214  1.3636 -0.3235 -0.0383
 4048SOL    HW223781   3.251   3.435   9.271  0.3484  1.0120  0.2350
 4049SOL     OW23782   4.383   4.233   7.528 -0.1702  0.0771 -0.3229
 4049SOL    HW123783   4.369   4.327   7.517  0.7655  0.2110 -0.3123
 4049SOL    HW223784   4.461   4.222   7.474  0.8775 -0.1539  1.2502
 4050SOL     OW23785   3.833   3.432   9.669 -0.7777  0.7005 -0.7774
 4050SOL    HW123786   3.828   3.437   9.764  2.6845 -0.7998 -0.4958
 4050SOL    HW223787   3.857   3.520   9.640 -2.2572  0.9627 -1.2354
 4051SOL     OW23788   4.109   3.254  15.326  0.3454 -0.1656 -0.4363
 4051SOL    HW123789   4.200   3.242  15.299  0.3414  0.1792 -0.6060
 4051SOL    HW223790   4.094   3.175  15.376 -1.2290 -0.3436 -1.1883
 4052SOL     OW23791   1.300   0.339  15.658  0.0323  0.0055  0.0803
 4052SOL    HW123792   1.248   0.282  15.601  1.7861  0.4954 -1.9862
 4052SOL    HW223793   1.387   0.317  15.625  0.3884 -0.6226  1.4167
 4053SOL     OW23794   2.222   3.249   6.866 -0.1572  0.1895 -0.6342
 4053SOL    HW123795   2.191   3.339   6.858 -0.1495  0.1836 -0.7276
 4053SOL    HW223796   2.315   3.264   6.847  0.1040  0.7336  1.0603
 4054SOL     OW23797   0.442   1.797   3.325 -0.5237  0.3042  0.5008
 4054SOL    HW123798   0.448   1.888   3.352  0.9536  0.5821 -0.7504
 4054SOL    HW223799   0.492   1.756   3.396 -0.9431 -2.2632 -0.6808
 4055SOL     OW23800   2.228   0.380   5.338  0.0163 -0.5164  0.1872
 4055SOL    HW123801   2.278   0.426   5.406 -0.6903 -0.0018  0.3523
 4055SOL    HW223802   2.141   0.415   5.354  0.5163  1.0860 -0.6112
 4056SOL     OW23803   3.788   2.542   0.956 -0.0028  0.9801 -0.5859
 4056SOL    HW123804   3.768   2.453   0.926  0.1307  0.9360 -0.5454
 4056SOL    HW223805   3.818   2.586   0.877  0.8511  1.3970 -0.0405
 4057SOL     OW23806   1.904   1.221  15.519 -0.2523  0.8219  0.2565
 4057SOL    HW123807   1.925   1.308  15.486  0.8538  1.3060  2.2631
 4057SOL    HW223808   1.987   1.191  15.556 -0.3247  0.7058  0.3259
 4058SOL     OW23809   1.691   1.243   8.969  0.5278  0.6059 -0.0367
 4058SOL    HW123810   1.709   1.287   8.886  1.5692 -2.2023 -1.2980
 4058SOL    HW223811   1.707   1.312   9.034  2.1461  0.0937  0.1071
 4059SOL     OW23812   2.981   4.505   8.528 -0.3059  0.0175  0.0660
 4059SOL    HW123813   2.910   4.564   8.553 -0.0701  0.1293  0.4774
 4059SOL    HW223814   2.941   4.440   8.470  0.3194  0.1870 -0.5589
 4060SOL     OW23815   4.472   1.563  11.833  0.1970 -0.0117 -0.2809
 4060SOL    HW123816   4.398   1.537  11.887 -0.8238 -0.8062 -2.0485
 4060SOL    HW223817   4.514   1.622  11.895 -0.1110 -0.3388  0.2363
 4061SOL     OW23818   3.002   4.331   9.419  0.1775 -0.1577  0.4668
 4061SOL    HW123819   3.069   4.400   9.419  1.0334 -0.9777 -0.6742
 4061SOL    HW223820   2.931   4.392   9.397 -0.8294 -2.0922 -1.6516
 4062SOL     OW23821   4.037   0.510   3.723 -0.9442  0.5269  0.3314
 4062SOL    HW123822   3.947   0.503   3.753 -1.2326  0.6269 -0.5297
 4062SOL    HW223823   4.037   0.435   3.665 -0.4254  0.0904  0.8911
 4063SOL     OW23824   3.601   4.215   6.585  0.6151 -0.0599  0.2961
 4063SOL    HW123825   3.558   4.301   6.573  0.0945 -0.0990  1.9106
 4063SOL    HW223826   3.674   4.242   6.640  0.9336 -3.8608  1.6738
 4064SOL     OW23827   0.880   1.280   5.024 -0.1348 -0.5629 -0.2711
 4064SOL    HW123828   0.968   1.263   5.059  1.2677 -0.0209 -3.5792
 4064SOL    HW223829   0.879   1.238   4.938  2.3484  1.5980 -1.3468
 4065SOL     OW23830   1.858   2.566   2.284 -0.0632  0.4639  0.2932
 4065SOL    HW123831   1.878   2.609   2.368 -0.2581 -0.3056  0.7294
 4065SOL    HW223832   1.770   2.537   2.308 -0.6606  1.0468 -1.2054
 4066SOL     OW23833   1.355   1.500  16.498  0.0931 -0.9487 -0.6745
 4066SOL    HW123834   1.306   1.543  16.567  1.4641 -1.5910  0.7057
 4066SOL    HW223835   1.408   1.434  16.544 -0.9769 -1.6361 -0.4351
 4067SOL     OW23836   3.763   2.598   5.348  0.0728  0.3738  0.0878
 4067SOL    HW123837   3.819   2.566   5.419 -1.6611  0.5699  1.5214
 4067SOL    HW223838   3.768   2.692   5.367 -1.0505  0.0360  2.0343
 4068SOL     OW23839   4.025   0.642   2.962  0.3972 -0.3242  0.0158
 4068SOL    HW123840   3.977   0.666   2.883 -0.2168  2.8888  1.3669
 4068SOL    HW223841   4.099   0.609   2.911  0.6107 -0.1205  0.1917
 4069SOL     OW23842   2.586   0.996  15.138  0.0746 -0.5153  0.2637
 4069SOL    HW123843   2.648   0.923  15.138 -1.1007 -1.5175  0.9747
 4069SOL    HW223844   2.647   1.066  15.116 -1.8148  1.1930  0.4843
 4070SOL     OW23845   1.607   0.764   6.728 -0.4390 -0.1950 -0.0637
 4070SOL    HW123846   1.628   0.825   6.657  0.4206 -1.4189 -0.8627
 4070SOL    HW223847   1.623   0.815   6.807  4.0828  0.2710 -1.2857
 4071SOL     OW23848   0.773   3.175  11.226  0.1672  0.0363  0.5205
 4071SOL    HW123849   0.847   3.200  11.282 -0.1392 -0.1279  0.9924
 4071SOL    HW223850   0.728   3.108  11.276 -0.4704 -1.2378 -1.7566
 4072SOL     OW23851   1.336   0.440   0.540  0.7640 -0.0886  0.5087
 4072SOL    HW123852   1.315   0.534   0.538  1.8993  0.1232 -1.4055
 4072SOL    HW223853   1.395   0.450   0.615 -0.6123 -1.6119  1.7998
 4073SOL     OW23854   2.461   4.117   5.782  0.2445  0.4838 -0.4678
 4073SOL    HW123855   2.492   4.047   5.840  0.4033  0.5623 -0.4595
 4073SOL    HW223856   2.432   4.062   5.708  2.6815  0.2745 -1.2673
 4074SOL     OW23857   3.565   1.115   1.457  0.9682 -0.3751  0.2539
 4074SOL    HW123858   3.650   1.092   1.419  1.1429 -0.4267  0.6764
 4074SOL    HW223859   3.573   1.210   1.463 -0.2125 -0.2158 -0.8544
 4075SOL     OW23860   1.606   2.918   1.334  0.5051  0.4218 -0.1565
 4075SOL    HW123861   1.608   3.012   1.348 -0.7428  0.4440 -0.0717
 4075SOL    HW223862   1.576   2.924   1.243  1.5891 -1.5120 -0.6263
 4076SOL     OW23863   1.025   0.780   7.693 -0.0628  0.3322  0.4021
 4076SOL    HW123864   0.936   0.803   7.667 -0.5596 -2.7052 -0.5735
 4076SOL    HW223865   1.010   0.746   7.782  0.2113 -1.7390 -0.3368
 4077SOL     OW23866   1.917   1.400   8.579  0.5587  0.1056 -0.2890
 4077SOL    HW123867   1.842   1.368   8.629  0.8028 -0.8979 -0.5711
 4077SOL    HW223868   1.870   1.452   8.514 -0.1353 -0.6475 -0.3940
 4078SOL     OW23869   3.251   1.994  16.715  0.5240  0.1450 -0.5400
 4078SOL    HW123870   3.200   1.952  16.784  3.2036 -1.2942  0.5555
 4078SOL    HW223871   3.198   1.970  16.639  1.5535  1.1699 -1.6115
 4079SOL     OW23872   1.502   1.767   2.318 -0.1843 -1.1499  0.0634
 4079SOL    HW123873   1.432   1.703   2.305 -0.4589 -0.6801 -0.7577
 4079SOL    HW223874   1.526   1.742   2.408  1.3415 -0.2697 -0.0963
 4080SOL     OW23875   3.923   0.002   5.688 -0.7571 -0.0915 -0.3730
 4080SOL    HW123876   3.854   4.717   5.627 -1.4352 -1.5184  0.9301
 4080SOL    HW223877   3.884   0.075   5.736 -0.3274 -0.0696 -0.0492
 4081SOL     OW23878   0.989   2.874  11.496 -0.7089  0.9200  0.1152
 4081SOL    HW123879   1.063   2.871  11.434 -1.5276 -2.0939 -0.7470
 4081SOL    HW223880   1.020   2.824  11.571  0.0291  1.7529  0.3630
 4082SOL     OW23881   0.257   0.065   7.561  0.2457 -0.0575 -0.1354
 4082SOL    HW123882   0.244   0.155   7.592 -3.4044 -1.4888  2.5148
 4082SOL    HW223883   0.198   0.027   7.626 -1.6621  1.8531 -0.7504
 4083SOL     OW23884   1.934   4.451  14.401  0.2626 -0.4101  0.1524
 4083SOL    HW123885   2.004   4.513  14.420  0.6776 -0.5007 -1.1264
 4083SOL    HW223886   1.900   4.480  14.317  0.4528  0.6533  0.4434
 4084SOL     OW23887   0.405   1.659   3.098 -0.0198 -0.2222  0.1608
 4084SOL    HW123888   0.420   1.734   3.040  1.1706  0.6251  1.5632
 4084SOL    HW223889   0.426   1.699   3.182  1.1699 -1.3731  0.4083
 4085SOL     OW23890   1.445   2.481   4.813 -0.0267  0.4117 -0.8468
 4085SOL    HW123891   1.532   2.443   4.799  0.1184  0.4855 -0.1632
 4085SOL    HW223892   1.468   2.572   4.793  0.0877  0.1675 -1.8098
 4086SOL     OW23893   2.722   0.110   4.199 -0.5210  0.1872  0.1274
 4086SOL    HW123894   2.676   0.034   4.234  1.4069 -0.5941  0.9693
 4086SOL    HW223895   2.777   0.063   4.136  0.5919  1.1382  0.3872
 4087SOL     OW23896   0.075   1.582   4.735  0.3286 -0.1349  0.2449
 4087SOL    HW123897   4.724   1.556   4.711  0.2592 -0.3432  0.7310
 4087SOL    HW223898   0.070   1.632   4.817 -0.3085  1.0085 -0.4772
 4088SOL     OW23899   2.597   3.664   7.716  0.6281  0.4086  0.4182
 4088SOL    HW123900   2.659   3.592   7.710 -0.9306 -0.7298 -2.0478
 4088SOL    HW223901   2.545   3.644   7.638  0.7961  0.7401  0.2209
 4089SOL     OW23902   3.364   2.153   6.734 -0.1097 -0.6248 -0.0555
 4089SOL    HW123903   3.276   2.174   6.766 -0.4663 -1.0995 -0.7170
 4089SOL    HW223904   3.415   2.167   6.814 -1.5928  3.7704  0.1577
 4090SOL     OW23905   4.521   0.726  13.791  0.0384  0.5414 -0.0065
 4090SOL    HW123906   4.534   0.652  13.731  1.1225 -0.2875  1.2511
 4090SOL    HW223907   4.532   0.800  13.732 -0.8211 -0.4545 -1.4164
 4091SOL     OW23908   0.392   1.507   1.583 -0.6865 -0.2810 -0.0084
 4091SOL    HW123909   0.329   1.566   1.626  0.4711  0.0044  1.2882
 4091SOL    HW223910   0.419   1.462   1.663 -0.3277  1.9449  1.1312
 4092SOL     OW23911   4.204   1.106   8.859  0.2472 -0.0025  0.1595
 4092SOL    HW123912   4.170   1.022   8.889  0.9488 -0.3913 -0.1476
 4092SOL    HW223913   4.288   1.105   8.906  0.9537  0.0398 -1.1107
 4093SOL     OW23914   2.587   0.901  11.710  0.2333 -0.5783  0.1773
 4093SOL    HW123915   2.501   0.895  11.668  1.5695  0.7843 -2.7686
 4093SOL    HW223916   2.646   0.861  11.646  0.7939 -1.8271  1.4632
 4094SOL     OW23917   2.399   0.077   1.887  0.0999  0.2183 -0.3352
 4094SOL    HW123918   2.305   0.085   1.872  0.2479  1.4925 -0.6710
 4094SOL    HW223919   2.405   0.101   1.979 -0.2236  1.0022 -0.5190
 4095SOL     OW23920   4.147   1.192  10.961 -0.1126 -0.2497 -0.0784
 4095SOL    HW123921   4.103   1.245  10.896  1.6277 -0.8615 -1.7589
 4095SOL    HW223922   4.113   1.241  11.036  0.0044 -1.5013  0.7989
 4096SOL     OW23923   0.337   2.425   3.098 -0.1582  0.4836 -0.4522
 4096SOL    HW123924   0.297   2.354   3.047  1.6832 -1.0734  0.2471
 4096SOL    HW223925   0.321   2.495   3.035 -0.3007 -0.3118 -1.3031
 4097SOL     OW23926   2.340   4.728   4.563  0.5051  0.3539  0.4860
 4097SOL    HW123927   2.405   4.659   4.550  1.1032  0.9155  0.4582
 4097SOL    HW223928   2.303   0.002   4.476 -1.1432  3.1013  1.5971
 4098SOL     OW23929   0.337   2.189   4.294 -0.1074  0.3634  0.3900
 4098SOL    HW123930   0.270   2.141   4.342  0.1280  0.2612  0.6171
 4098SOL    HW223931   0.375   2.246   4.360  2.6737  0.1593 -0.9864
 4099SOL     OW23932   4.176   3.685  14.678 -0.6569  0.7524 -0.4631
 4099SOL    HW123933   4.236   3.614  14.655  1.5348  2.5882 -0.3317
 4099SOL    HW223934   4.136   3.705  14.593 -1.1789  0.3908 -0.3010
 4100SOL     OW23935   3.456   4.172   7.084  0.2723  0.0742 -0.2918
 4100SOL    HW123936   3.516   4.154   7.157 -0.8278  0.9558  0.8310
 4100SOL    HW223937   3.494   4.114   7.018  2.8025  1.4042  0.0169
 4101SOL     OW23938   1.097   0.782   9.790  0.5295  0.0432 -0.7151
 4101SOL    HW123939   1.061   0.861   9.830 -1.0377 -1.6951  1.3333
 4101SOL    HW223940   1.067   0.720   9.856  0.7444 -0.2097 -0.8556
 4102SOL     OW23941   0.635   4.286   0.807 -0.5728  0.1397  0.3338
 4102SOL    HW123942   0.577   4.360   0.789  1.4013  1.8015  0.8866
 4102SOL    HW223943   0.720   4.327   0.795  0.0810  0.1407  5.0268
 4103SOL     OW23944   0.660   0.847   0.039  0.4016  0.5427 -0.4159
 4103SOL    HW123945   0.714   0.843  17.713  1.1896  0.3543  0.1340
 4103SOL    HW223946   0.573   0.814   0.017 -0.5778  1.4822  2.0400
 4104SOL     OW23947   1.388   0.554  16.528 -0.0660 -0.2463 -0.4972
 4104SOL    HW123948   1.326   0.541  16.456 -1.2305 -1.5287  0.7372
 4104SOL    HW223949   1.399   0.466  16.563  0.3618  1.5596  3.8589
 4105SOL     OW23950   4.009   3.090   3.484 -0.7536 -0.0921 -0.0190
 4105SOL    HW123951   4.011   3.100   3.389 -3.2682  0.0653 -0.0647
 4105SOL    HW223952   3.955   3.011   3.477 -1.6838  0.4917  0.5717
 4106SOL     OW23953   2.376   4.511   5.026 -0.6412  0.2666  0.4341
 4106SOL    HW123954   2.333   4.589   5.060 -0.6113  0.4622  0.0236
 4106SOL    HW223955   2.333   4.441   5.075  2.5532  0.3362  3.3573
 4107SOL     OW23956   2.475   3.515  13.671 -0.5559 -0.2400 -0.2214
 4107SOL    HW123957   2.525   3.446  13.628  2.5176  0.4222  2.3178
 4107SOL    HW223958   2.541   3.569  13.713  0.7731 -0.5965 -1.8653
 4108SOL     OW23959   2.715   1.009   7.131  0.2096  0.6869 -0.8715
 4108SOL    HW123960   2.728   1.009   7.036  1.1777 -2.3712 -0.7098
 4108SOL    HW223961   2.645   1.074   7.138  0.4838  0.9408 -0.4990
 4109SOL     OW23962   0.117   4.235   6.172  0.1346 -0.1394 -0.1345
 4109SOL    HW123963   0.053   4.302   6.197 -0.9729 -1.3467  0.2139
 4109SOL    HW223964   0.199   4.285   6.172  0.2204 -0.2812 -1.5554
 4110SOL     OW23965   4.342   1.977   9.837  0.2714 -0.2583 -0.1180
 4110SOL    HW123966   4.260   1.961   9.883 -0.8450 -0.9798 -2.3599
 4110SOL    HW223967   4.334   2.068   9.809 -1.2045 -1.2791 -3.0940
 4111SOL     OW23968   0.581   1.025   9.047  0.2697  0.3576 -0.0251
 4111SOL    HW123969   0.498   1.063   9.019 -0.3386  0.3781  1.8160
 4111SOL    HW223970   0.639   1.041   8.972  0.1153 -3.8162 -1.0235
 4112SOL     OW23971   1.749   2.550   9.274 -0.4282 -0.4191 -0.1455
 4112SOL    HW123972   1.830   2.554   9.222  0.4985 -0.3927  1.3097
 4112SOL    HW223973   1.768   2.604   9.351 -1.8307  1.1377 -0.8978
 4113SOL     OW23974   3.534   4.331  13.440 -0.2227 -0.1320  0.1488
 4113SOL    HW123975   3.483   4.378  13.374 -0.4690  1.1156  1.2420
 4113SOL    HW223976   3.623   4.339  13.406 -1.0001  2.3416 -1.3178
 4114SOL     OW23977   3.945   2.758  10.705  0.1261 -0.3698  0.7921
 4114SOL    HW123978   3.919   2.675  10.666 -1.2225  0.7577 -0.6935
 4114SOL    HW223979   3.876   2.819  10.680 -0.0729 -0.2891  1.5334
 4115SOL     OW23980   2.004   3.051   3.036 -0.4298 -0.1974  0.6227
 4115SOL    HW123981   2.051   3.005   2.966  1.3844 -0.1730  1.8421
 4115SOL    HW223982   2.039   3.139   3.048 -1.3666  0.1931  0.5542
 4116SOL     OW23983   0.880   0.638  13.730  0.1823 -0.7594 -0.7198
 4116SOL    HW123984   0.943   0.574  13.764 -0.8199 -0.8513  0.9844
 4116SOL    HW223985   0.805   0.607  13.781 -0.9298  0.5204 -1.5831
 4117SOL     OW23986   0.423   4.406   2.922  0.1577  0.2329  0.6200
 4117SOL    HW123987   0.485   4.335   2.907 -1.1344 -0.4570 -1.4259
 4117SOL    HW223988   0.462   4.448   2.999  2.1263  0.8534 -0.7006
 4118SOL     OW23989   1.802   1.724   5.885  0.0175 -0.2929  0.8002
 4118SOL    HW123990   1.867   1.784   5.922  1.2778 -2.4044  2.0080
 4118SOL    HW223991   1.722   1.777   5.879  0.2883  0.1596  1.2568
 4119SOL     OW23992   3.539   3.820   9.798 -0.3922 -0.0575 -0.1728
 4119SOL    HW123993   3.614   3.815   9.858 -0.7675 -0.8054  0.2262
 4119SOL    HW223994   3.463   3.804   9.854 -0.7684  2.4689  0.0717
 4120SOL     OW23995   3.417   3.710  13.800 -0.4984  0.2528  0.5809
 4120SOL    HW123996   3.511   3.702  13.816 -0.1159  1.4420 -1.0500
 4120SOL    HW223997   3.404   3.794  13.842 -1.9762  0.5469 -0.4685
 4121SOL     OW23998   4.597   4.417   0.422 -0.2261  0.5560 -0.3957
 4121SOL    HW123999   4.568   4.390   0.509  1.3785 -3.5639 -1.1432
 4121SOL    HW224000   4.677   4.365   0.423 -0.2189  0.4915 -2.9507
 4122SOL     OW24001   4.091   3.195  13.225 -0.2202  0.1004  0.3298
 4122SOL    HW124002   4.012   3.250  13.225 -1.2191 -1.3330  1.7005
 4122SOL    HW224003   4.163   3.254  13.204 -1.9319  1.6732 -1.0398
 4123SOL     OW24004   1.692   2.731  12.647 -0.0464  0.0774 -0.1348
 4123SOL    HW124005   1.758   2.774  12.702  0.2051  2.2807 -2.1556
 4123SOL    HW224006   1.757   2.675  12.606  1.5635  0.0880  2.3613
 4124SOL     OW24007   3.176   0.941   8.288 -0.0288  0.4466  0.2141
 4124SOL    HW124008   3.135   0.879   8.228  1.6883 -2.2976  1.9270
 4124SOL    HW224009   3.115   1.013   8.306  0.5646  0.7772  0.9192
 4125SOL     OW24010   4.085   1.578   2.954 -0.3875  0.2784 -0.2723
 4125SOL    HW124011   4.152   1.562   2.887  0.3893 -2.8418  1.2822
 4125SOL    HW224012   4.087   1.673   2.942  1.4903  0.2784  0.0374
 4126SOL     OW24013   1.190   1.505   6.539 -0.1220 -0.0611  0.4936
 4126SOL    HW124014   1.201   1.411   6.523  3.3825  0.4117  0.0413
 4126SOL    HW224015   1.274   1.552   6.537 -0.3788  0.3954  0.5964
 4127SOL     OW24016   3.781   2.333   5.014 -0.0785  0.2467 -0.4917
 4127SOL    HW124017   3.851   2.273   5.038 -1.1987 -0.4580  1.0329
 4127SOL    HW224018   3.740   2.290   4.939 -1.9954  1.0416  0.1022
 4128SOL     OW24019   0.862   1.250   5.677 -0.2309 -0.4392  0.1326
 4128SOL    HW124020   0.862   1.302   5.758  0.5510 -0.7579  0.3433
 4128SOL    HW224021   0.768   1.247   5.661 -0.1873  3.6864 -0.7296
 4129SOL     OW24022   0.709   1.000  10.389 -0.2667  0.3975 -0.4514
 4129SOL    HW124023   0.702   0.984  10.295  2.3655  0.9817 -0.7530
 4129SOL    HW224024   0.772   1.072  10.388 -0.2826  0.4050 -1.0154
 4130SOL     OW24025   4.580   2.325   6.539 -0.2527  0.4953 -0.5258
 4130SOL    HW124026   4.511   2.273   6.580 -1.1062  1.2051 -1.0627
 4130SOL    HW224027   4.658   2.272   6.559 -1.8079 -0.5023  3.0010
 4131SOL     OW24028   1.174   1.610   7.371  0.2350  0.1822 -0.1866
 4131SOL    HW124029   1.229   1.610   7.293  1.1702  2.7708  0.4839
 4131SOL    HW224030   1.137   1.698   7.364  2.4945  0.8850 -3.2246
 4132SOL     OW24031   1.401   1.044   5.207 -0.7901  0.2716 -0.6175
 4132SOL    HW124032   1.406   1.078   5.297  1.9194 -0.8591 -0.3350
 4132SOL    HW224033   1.367   0.958   5.230  3.0522 -1.1913 -0.3753
 4133SOL     OW24034   0.111   1.711   0.116 -0.0876  0.2617 -0.4103
 4133SOL    HW124035   0.069   1.763   0.047  1.1227  3.3099  1.1866
 4133SOL    HW224036   0.194   1.689   0.073 -0.4864 -1.9769 -0.0696
 4134SOL     OW24037   0.560   4.556   5.616  0.1639  0.1574  0.2895
 4134SOL    HW124038   0.534   4.605   5.538  0.2739 -1.8287 -0.9955
 4134SOL    HW224039   0.554   4.462   5.599 -0.8144 -0.1180  2.2585
 4135SOL     OW24040   2.870   3.134   2.565 -0.0873  0.5279  0.3970
 4135SOL    HW124041   2.801   3.138   2.631 -1.7261  1.0416 -1.3492
 4135SOL    HW224042   2.858   3.045   2.533  2.0409  0.0168  0.9939
 4136SOL     OW24043   3.676   2.552   7.458  0.6428 -0.0973  0.1936
 4136SOL    HW124044   3.684   2.521   7.549  1.2450 -1.0815 -0.1883
 4136SOL    HW224045   3.581   2.561   7.458  0.7877  1.3281 -0.8968
 4137SOL     OW24046   1.633   2.669   6.096  0.4151  0.2826  0.1234
 4137SOL    HW124047   1.591   2.683   6.012 -0.0986 -0.3317  0.2736
 4137SOL    HW224048   1.594   2.590   6.135  0.2717  1.0615  1.5671
 4138SOL     OW24049   0.204   4.250   9.453  0.1077 -0.2052  0.0854
 4138SOL    HW124050   0.110   4.233   9.459  0.1705 -1.1056 -1.3409
 4138SOL    HW224051   0.222   4.228   9.362  0.2576  0.9499 -0.1692
 4139SOL     OW24052   1.735   2.247   3.284 -0.3919 -0.6315 -0.5084
 4139SOL    HW124053   1.670   2.294   3.336  1.5780  1.1009  0.3679
 4139SOL    HW224054   1.812   2.287   3.323 -0.9995 -0.5310  0.5658
 4140SOL     OW24055   2.031   0.203   5.167  0.0190 -0.7051  0.4975
 4140SOL    HW124056   2.044   0.262   5.241  4.0854 -1.7748  0.5974
 4140SOL    HW224057   2.021   0.122   5.217 -0.0592 -0.7384  0.4294
 4141SOL     OW24058   3.334   2.812  10.345 -0.1045  0.4247  0.4506
 4141SOL    HW124059   3.296   2.727  10.369 -1.0883  1.1477  1.4452
 4141SOL    HW224060   3.280   2.867  10.401  1.1248 -0.4277  2.5216
 4142SOL     OW24061   3.353   3.639  15.397 -0.3218 -0.2321  0.5067
 4142SOL    HW124062   3.288   3.578  15.432  0.7723 -2.1328 -0.7378
 4142SOL    HW224063   3.423   3.578  15.373 -2.0290 -1.0287 -2.5200
 4143SOL     OW24064   1.860   2.852  12.840  0.2635 -0.3962 -0.1030
 4143SOL    HW124065   1.933   2.815  12.889  0.4745 -1.2638 -1.0872
 4143SOL    HW224066   1.880   2.946  12.843 -2.2625  0.1452 -0.0972
 4144SOL     OW24067   3.697   2.520  15.312 -0.1496  0.3545  0.1786
 4144SOL    HW124068   3.699   2.571  15.393  1.4639  0.4704  0.0720
 4144SOL    HW224069   3.613   2.478  15.331  1.2923 -1.7812  1.8270
 4145SOL     OW24070   3.966   4.406   6.052  0.0477 -0.0787  0.0023
 4145SOL    HW124071   3.877   4.426   6.024 -0.2557 -2.2449 -0.6397
 4145SOL    HW224072   3.982   4.491   6.093  0.6871  0.5124 -1.5107
 4146SOL     OW24073   1.414   1.852  15.313 -0.0160  0.0454 -0.2948
 4146SOL    HW124074   1.417   1.760  15.286 -1.1986 -0.5184  1.4387
 4146SOL    HW224075   1.386   1.897  15.234 -2.1088 -1.2739 -0.2946
 4147SOL     OW24076   2.680   4.124   2.532 -0.1236  0.2947  0.1284
 4147SOL    HW124077   2.685   4.132   2.628 -1.8569  0.7244  0.1789
 4147SOL    HW224078   2.598   4.171   2.516  0.2136  0.9751  0.4051
 4148SOL     OW24079   0.713   3.602   9.954 -0.0468  0.1987 -0.4202
 4148SOL    HW124080   0.691   3.584   9.862  0.6899 -4.4636  0.2979
 4148SOL    HW224081   0.744   3.515   9.980 -0.5214  0.6507  1.6424
 4149SOL     OW24082   0.484   1.936   5.488  0.0620  0.5754 -0.0640
 4149SOL    HW124083   0.546   1.870   5.517 -0.5011 -0.8926 -2.2375
 4149SOL    HW224084   0.442   1.968   5.568  0.1561 -0.9361  0.5958
 4150SOL     OW24085   0.190   0.216   7.054 -0.1665  0.2477  0.3067
 4150SOL    HW124086   0.249   0.159   7.103  0.0530 -0.6258 -0.9475
 4150SOL    HW224087   0.176   0.290   7.113  1.4515 -0.8618  2.0357
 4151SOL     OW24088   0.641   4.449   8.169  0.7794  0.3132 -0.1923
 4151SOL    HW124089   0.568   4.410   8.216  0.3264  0.5457 -0.7022
 4151SOL    HW224090   0.624   4.426   8.077 -3.8660  0.9836  0.4856
 4152SOL     OW24091   0.942   1.678   1.617 -0.6042  0.4635  0.5710
 4152SOL    HW124092   0.948   1.773   1.606  1.0298  0.0555 -1.9285
 4152SOL    HW224093   1.029   1.657   1.584 -1.5306  0.6371 -1.9647
 4153SOL     OW24094   2.025   4.079  16.007  0.0225  0.0745  0.5063
 4153SOL    HW124095   1.995   4.140  15.940  1.9727 -1.5415 -1.8570
 4153SOL    HW224096   1.950   4.021  15.997  1.7831 -2.0632 -0.3705
 4154SOL     OW24097   0.742   1.133   9.689  0.0847 -0.4227  0.4091
 4154SOL    HW124098   0.724   1.187   9.612 -0.9336 -1.2442  0.0701
 4154SOL    HW224099   0.836   1.149   9.694 -0.0523  0.5174 -0.0407
 4155SOL     OW24100   3.709   2.027   2.602 -0.1140  0.1579  0.1521
 4155SOL    HW124101   3.707   1.931   2.608  0.1512  0.1099 -0.4957
 4155SOL    HW224102   3.656   2.047   2.524  1.5423  3.6521 -0.0618
 4156SOL     OW24103   3.230   0.184   6.374 -0.1066  0.1638  0.0329
 4156SOL    HW124104   3.142   0.220   6.387 -0.5309 -1.4925  1.6910
 4156SOL    HW224105   3.265   0.193   6.463 -1.0425  0.9250  0.3232
 4157SOL     OW24106   4.068   1.054   4.946  0.2028  0.0765  0.2653
 4157SOL    HW124107   4.049   1.055   4.852  1.2425  3.1505  0.1077
 4157SOL    HW224108   4.088   0.962   4.964 -1.7315 -1.0638 -3.3348
 4158SOL     OW24109   2.339   4.666   9.400 -0.4334  0.0979 -0.0549
 4158SOL    HW124110   2.350   0.020   9.424 -1.0726  0.1370  0.0747
 4158SOL    HW224111   2.392   4.634   9.474 -0.7514 -1.0454 -0.3278
 4159SOL     OW24112   2.902   3.494   6.947  0.0595  0.1398 -0.0347
 4159SOL    HW124113   2.863   3.426   6.892  1.2610 -0.2942 -0.3594
 4159SOL    HW224114   2.826   3.542   6.979  0.2556 -1.0842  2.3435
 4160SOL     OW24115   1.155   4.322   6.385 -0.1841 -0.4935  0.6741
 4160SOL    HW124116   1.169   4.229   6.406  1.7134 -0.1602  0.8630
 4160SOL    HW224117   1.071   4.307   6.343 -0.0370  0.2347  0.1282
 4161SOL     OW24118   1.294   3.880   9.054  1.1955 -0.2687  0.4692
 4161SOL    HW124119   1.342   3.856   9.133  3.3441 -0.7586 -0.9906
 4161SOL    HW224120   1.211   3.911   9.090 -0.1742 -2.1051 -1.1014
 4162SOL     OW24121   1.468   2.166   8.068  0.4571  0.1736 -0.3501
 4162SOL    HW124122   1.460   2.212   7.984 -1.3785  0.4353 -0.0421
 4162SOL    HW224123   1.551   2.208   8.088  0.4299 -1.2618  2.8017
 4163SOL     OW24124   0.835   4.700   4.200 -0.2745 -0.1452 -0.0689
 4163SOL    HW124125   0.859   4.639   4.270  2.4844 -2.2330 -2.7894
 4163SOL    HW224126   0.768   4.651   4.152  0.2259 -2.4794  1.6000
 4164SOL     OW24127   3.681   4.434   7.185  0.4005  0.0095 -0.1280
 4164SOL    HW124128   3.634   4.356   7.216  0.2529  0.5592  1.0425
 4164SOL    HW224129   3.719   4.464   7.268 -0.1307  0.4885 -0.0575
 4165SOL     OW24130   1.976   2.281   7.004 -0.1349 -0.6815 -0.4497
 4165SOL    HW124131   1.883   2.294   6.984 -0.5351 -1.6362  0.8098
 4165SOL    HW224132   2.017   2.331   6.934 -1.6536 -1.9462 -2.2251
 4166SOL     OW24133   4.414   2.756   0.036 -0.6051 -0.0739 -0.1675
 4166SOL    HW124134   4.389   2.758  17.698 -0.0623  0.3629 -0.3074
 4166SOL    HW224135   4.330   2.772   0.079 -0.9690 -1.8019 -0.2361
 4167SOL     OW24136   2.080   1.268   3.242  0.5724  0.3625 -0.6748
 4167SOL    HW124137   2.096   1.178   3.214 -2.1311 -1.4878  3.5185
 4167SOL    HW224138   2.042   1.241   3.326  0.8482  0.8807 -0.3872
 4168SOL     OW24139   4.136   0.854  10.579 -0.6244  0.5254  0.5528
 4168SOL    HW124140   4.229   0.873  10.592  0.1886 -1.6652 -2.0169
 4168SOL    HW224141   4.114   0.836  10.670 -0.0169  0.2361  0.6446
 4169SOL     OW24142   0.540   2.723   6.391 -0.1243  0.1405  0.2441
 4169SOL    HW124143   0.634   2.704   6.398 -0.5439 -3.1641 -2.7447
 4169SOL    HW224144   0.541   2.760   6.303 -0.3087  2.5135  1.2456
 4170SOL     OW24145   4.465   0.358   6.623  0.1684 -0.3664  0.4099
 4170SOL    HW124146   4.408   0.433   6.638  1.3334  1.0058 -2.0783
 4170SOL    HW224147   4.491   0.381   6.534 -2.0292 -1.4061 -0.4860
 4171SOL     OW24148   2.313   0.942   7.568  0.0052  0.4238 -0.6315
 4171SOL    HW124149   2.311   0.963   7.661  1.6660  1.5944 -0.8566
 4171SOL    HW224150   2.305   0.847   7.572 -2.0112  0.6168 -0.3880
 4172SOL     OW24151   2.238   0.171   8.787 -0.2760  0.0219  0.1310
 4172SOL    HW124152   2.172   0.204   8.847 -0.2105  1.0422 -0.3540
 4172SOL    HW224153   2.313   0.188   8.845 -2.0574  2.3811  1.7176
 4173SOL     OW24154   2.003   4.698   8.937  0.0723  0.2603  0.8648
 4173SOL    HW124155   1.923   4.651   8.913  1.1497 -0.7728 -0.6958
 4173SOL    HW224156   2.040   4.695   8.848 -2.6066 -1.2540 -0.1782
 4174SOL     OW24157   3.920   3.922   6.631 -0.1644 -0.7235 -0.0716
 4174SOL    HW124158   3.841   3.944   6.582  0.6297 -0.1525 -1.0864
 4174SOL    HW224159   3.941   3.987   6.698  1.2816  1.5698 -2.7275
 4175SOL     OW24160   2.624   3.148   3.667  0.2238  0.1318  0.1778
 4175SOL    HW124161   2.544   3.196   3.686  0.8148  0.1921  2.4092
 4175SOL    HW224162   2.598   3.099   3.588  1.9232  0.1815 -0.4173
 4176SOL     OW24163   1.905   2.111   5.731 -0.0163 -0.2454  0.4717
 4176SOL    HW124164   1.909   2.172   5.658  0.7831 -1.4025 -0.4575
 4176SOL    HW224165   1.811   2.103   5.745 -0.4992  2.0716 -1.4450
 4177SOL     OW24166   1.640   4.208   9.104  0.2672 -0.0418  0.0643
 4177SOL    HW124167   1.683   4.188   9.187  1.6027  0.0386 -0.6099
 4177SOL    HW224168   1.573   4.274   9.121 -0.3739  0.1889 -3.3824
 4178SOL     OW24169   0.665   4.501  11.504  0.8052  0.5744  0.7013
 4178SOL    HW124170   0.669   4.594  11.482 -2.1770  1.1459  2.5319
 4178SOL    HW224171   0.629   4.465  11.423  3.1008 -0.2269  0.0688
 4179SOL     OW24172   3.307   3.929  17.583 -0.1591 -0.2116 -0.4469
 4179SOL    HW124173   3.284   3.978  17.503  1.4367 -0.6671 -1.1961
 4179SOL    HW224174   3.366   3.868  17.539 -0.3121 -0.2102 -0.6540
 4180SOL     OW24175   0.274   3.155   3.968  0.0342  0.4073 -0.3638
 4180SOL    HW124176   0.275   3.204   4.051 -0.1022 -0.8300  0.3759
 4180SOL    HW224177   0.270   3.065   4.000 -1.4433  1.0457  1.2871
 4181SOL     OW24178   4.646   0.781  10.303 -0.1153 -0.0610  0.1612
 4181SOL    HW124179   4.629   0.750  10.392  0.0226 -0.3107  0.0995
 4181SOL    HW224180   4.556   0.780  10.270 -0.0324  0.7794 -0.0929
 4182SOL     OW24181   4.358   3.118   9.846  0.1300 -0.6637 -0.7253
 4182SOL    HW124182   4.447   3.093   9.871  0.3019  1.7148  1.0346
 4182SOL    HW224183   4.352   3.111   9.751 -1.0090 -1.0911 -0.6303
 4183SOL     OW24184   3.015   1.352   2.147  0.4203  0.1828 -0.1542
 4183SOL    HW124185   2.985   1.275   2.196 -1.0082  0.4124 -0.6632
 4183SOL    HW224186   2.968   1.345   2.064 -1.3854 -1.2149  0.9789
 4184SOL     OW24187   0.124   2.312  14.006 -0.3417 -0.3381  0.1261
 4184SOL    HW124188   0.050   2.261  13.972 -0.1688 -1.5706  1.5977
 4184SOL    HW224189   0.082   2.363  14.075 -2.2964 -3.1877  1.0686
 4185SOL     OW24190   0.239   1.866   5.045 -0.0092  0.2897  0.1351
 4185SOL    HW124191   0.178   1.797   5.019  0.2748 -1.2463  3.5826
 4185SOL    HW224192   0.264   1.830   5.130  2.6198  0.5640 -0.5424
 4186SOL     OW24193   0.793   0.094  15.128  0.5694  0.1985  0.8530
 4186SOL    HW124194   0.704   0.061  15.142  0.0124  1.9537  1.4092
 4186SOL    HW224195   0.778   0.166  15.067 -0.2478 -1.3484 -0.7763
 4187SOL     OW24196   2.019   0.049   7.283 -0.5776  0.2340 -0.0561
 4187SOL    HW124197   1.927   0.061   7.261 -0.4383  2.2553  0.4748
 4187SOL    HW224198   2.027   4.700   7.320  2.0986 -0.2163 -1.6942
 4188SOL     OW24199   3.555   4.347  12.841 -1.3116  0.7560  0.0487
 4188SOL    HW124200   3.566   4.342  12.936  1.1735  3.1621 -0.1394
 4188SOL    HW224201   3.645   4.366  12.815 -1.0869 -1.7352 -1.0170
 4189SOL     OW24202   4.593   1.554   2.715 -0.1985 -0.5763  0.4048
 4189SOL    HW124203   4.626   1.465   2.724  0.9692 -0.5221 -3.0163
 4189SOL    HW224204   4.594   1.566   2.620  2.0782 -1.1104  0.3468
 4190SOL     OW24205   0.992   4.180   1.915  0.1963  0.0164 -0.3005
 4190SOL    HW124206   0.904   4.207   1.938  1.5254  0.9366  3.6316
 4190SOL    HW224207   1.036   4.265   1.910 -3.3002  1.7800 -0.5900
 4191SOL     OW24208   3.799   0.042  15.165  0.0226  0.8011 -0.2494
 4191SOL    HW124209   3.849   0.014  15.242 -0.0822  0.6491 -0.2371
 4191SOL    HW224210   3.721   0.053  15.219  0.6930 -0.3234  0.9617
 4192SOL     OW24211   1.934   3.570   9.584  0.2438  0.7276  0.0569
 4192SOL    HW124212   1.868   3.558   9.516 -0.3957 -0.9693  0.9666
 4192SOL    HW224213   2.009   3.565   9.524 -0.2116  1.7376 -0.5994
 4193SOL     OW24214   4.711   2.478   9.535 -0.3174  0.1889 -0.3214
 4193SOL    HW124215   4.729   2.420   9.460  0.5231  2.1435 -1.6381
 4193SOL    HW224216   4.676   2.420   9.602  0.4331 -0.8106 -0.7910
 4194SOL     OW24217   0.790   4.066   5.727 -0.1476  0.3338 -0.2976
 4194SOL    HW124218   0.814   4.093   5.638 -0.4213 -1.8062 -1.0252
 4194SOL    HW224219   0.868   4.012   5.744 -0.9904 -1.1321 -1.0765
 4195SOL     OW24220   3.953   0.546  11.201  0.0389 -0.0221 -0.4746
 4195SOL    HW124221   3.907   0.488  11.262  0.2850 -0.1498 -0.4081
 4195SOL    HW224222   3.953   0.491  11.123 -0.5330 -2.5731  1.3207
 4196SOL     OW24223   4.516   1.743  10.297  0.2057  0.1188 -0.1676
 4196SOL    HW124224   4.436   1.780  10.259  0.1318 -2.4271 -2.4475
 4196SOL    HW224225   4.550   1.825  10.334 -2.6587  1.7061 -0.9832
 4197SOL     OW24226   0.738   3.036   2.880 -0.2430  0.0209 -0.6687
 4197SOL    HW124227   0.768   3.023   2.790  0.2178  3.4363 -0.9911
 4197SOL    HW224228   0.759   2.955   2.927  0.0728  0.2081 -0.4967
 4198SOL     OW24229   2.304   0.408   1.918  0.5736 -0.0363  0.9028
 4198SOL    HW124230   2.395   0.428   1.896 -0.0191  0.9756 -0.5967
 4198SOL    HW224231   2.309   0.445   2.007  2.9315  0.9384  0.3712
 4199SOL     OW24232   0.349   3.363   8.627 -0.7121 -0.6085  0.4710
 4199SOL    HW124233   0.413   3.292   8.630 -2.6403 -2.3891 -0.4851
 4199SOL    HW224234   0.286   3.310   8.578 -1.8359  1.4250 -0.2962
 4200SOL     OW24235   4.504   1.605  13.170 -0.0658 -0.6089  0.5946
 4200SOL    HW124236   4.587   1.652  13.159 -0.1655 -0.6177 -0.2095
 4200SOL    HW224237   4.534   1.520  13.202 -0.0971 -0.0573  2.0806
 4201SOL     OW24238   3.670   4.070   2.674 -0.3425  0.8051 -0.3478
 4201SOL    HW124239   3.653   3.991   2.725  1.2147  0.7879  0.1358
 4201SOL    HW224240   3.672   4.125   2.753  1.0368 -0.4359  0.4901
 4202SOL     OW24241   4.621   4.360   0.769  0.1409 -0.0707  0.4395
 4202SOL    HW124242   4.679   4.290   0.800  0.0597  0.2083  1.2212
 4202SOL    HW224243   4.664   4.442   0.793  1.1820  0.0238 -1.7526
 4203SOL     OW24244   2.262   3.926   2.539  0.5194 -0.3457 -0.4189
 4203SOL    HW124245   2.318   3.926   2.616  0.5623 -0.7397 -0.4495
 4203SOL    HW224246   2.179   3.919   2.588 -0.6360 -0.6183 -2.4205
 4204SOL     OW24247   1.728   1.449   6.371  0.2038 -0.2943  0.3774
 4204SOL    HW124248   1.819   1.467   6.347 -0.1432  0.2757 -0.4662
 4204SOL    HW224249   1.716   1.504   6.449  1.0037 -1.2998  1.2268
 4205SOL     OW24250   3.197   0.372   8.372  0.2340 -0.1627  0.0527
 4205SOL    HW124251   3.201   0.386   8.467 -0.0316 -0.9664  0.1785
 4205SOL    HW224252   3.110   0.408   8.354  0.5800  1.4117  1.5213
 4206SOL     OW24253   4.199   0.995  13.551  0.3475 -0.1514 -0.1125
 4206SOL    HW124254   4.138   0.921  13.554  0.5238 -0.2754  0.3440
 4206SOL    HW224255   4.153   1.062  13.601 -1.2123 -1.7737  0.6611
 4207SOL     OW24256   4.719   0.932   6.254  0.0771  0.4015  0.4507
 4207SOL    HW124257   4.671   0.873   6.195  1.7842  0.9508 -1.5010
 4207SOL    HW224258   0.066   0.891   6.265 -0.3138  0.6372  4.3345
 4208SOL     OW24259   1.047   1.178  15.148  0.6400  0.0813  0.2036
 4208SOL    HW124260   0.996   1.128  15.085  1.0806 -3.3154  2.5603
 4208SOL    HW224261   1.057   1.100  15.202  0.5643  0.4685  0.7829
 4209SOL     OW24262   2.314   2.483   3.424 -0.3963  0.4383 -0.4929
 4209SOL    HW124263   2.369   2.450   3.354 -0.9303  0.0493 -0.7251
 4209SOL    HW224264   2.327   2.574   3.399  2.4329 -0.0318 -0.7404
 4210SOL     OW24265   1.098   4.703   3.187 -0.3435 -0.4880 -0.0511
 4210SOL    HW124266   1.104   4.730   3.095 -2.0524 -3.2438 -0.9539
 4210SOL    HW224267   1.190   4.721   3.207  0.3795 -2.1046 -1.8471
 4211SOL     OW24268   3.753   4.495  10.252 -0.3342 -0.4331  0.0107
 4211SOL    HW124269   3.678   4.438  10.237 -0.3904 -0.5607  0.7537
 4211SOL    HW224270   3.803   4.473  10.174 -0.8114  0.6097 -0.5940
 4212SOL     OW24271   0.636   3.530  13.247  0.6408  0.0937  0.0218
 4212SOL    HW124272   0.731   3.519  13.242  0.5421 -0.8471  0.1784
 4212SOL    HW224273   0.616   3.436  13.247 -1.4969  0.5424  0.0487
 4213SOL     OW24274   2.373   4.464   4.011 -0.2108 -0.0843  0.1680
 4213SOL    HW124275   2.300   4.415   3.974 -0.0775 -1.0111  1.1220
 4213SOL    HW224276   2.335   4.508   4.088  2.3432  0.9654  0.8354
 4214SOL     OW24277   2.284   4.339   7.369  0.2976  0.1801 -0.0605
 4214SOL    HW124278   2.361   4.333   7.313  1.1925  0.9201  1.0819
 4214SOL    HW224279   2.284   4.250   7.403 -1.2723 -1.1209 -3.4323
 4215SOL     OW24280   4.169   4.481  12.574 -0.3323  0.3705 -0.2012
 4215SOL    HW124281   4.103   4.538  12.534 -0.2207  0.7871  0.2034
 4215SOL    HW224282   4.182   4.424  12.498  0.2561  1.1560 -0.6985
 4216SOL     OW24283   0.487   4.103   6.337 -0.2550 -0.2013  0.3257
 4216SOL    HW124284   0.554   4.082   6.402 -0.1613 -0.7271  0.0597
 4216SOL    HW224285   0.418   4.151   6.382  0.9398  0.3736  1.5302
 4217SOL     OW24286   1.463   1.533   3.447  0.1126  0.3389 -0.1078
 4217SOL    HW124287   1.408   1.607   3.473  1.5378  2.5020 -3.1678
 4217SOL    HW224288   1.526   1.591   3.402  0.2608 -0.6666 -1.1881
 4218SOL     OW24289   0.850   0.943   5.050  0.0675 -0.0188  0.2258
 4218SOL    HW124290   0.765   0.902   5.066  0.1434 -0.5701 -0.7582
 4218SOL    HW224291   0.841   0.960   4.956 -0.5490 -0.7887  0.1488
 4219SOL     OW24292   0.494   0.611   2.275 -0.0443 -0.7708  0.5844
 4219SOL    HW124293   0.462   0.550   2.209  1.1843  3.1002 -3.5506
 4219SOL    HW224294   0.421   0.609   2.337 -0.9791  1.2110 -0.4473
 4220SOL     OW24295   2.345   4.460   6.201  0.4102 -0.0494 -0.2095
 4220SOL    HW124296   2.412   4.494   6.141  1.1000 -0.7779  0.1643
 4220SOL    HW224297   2.383   4.422   6.280 -0.7118  0.9306  0.8021
 4221SOL     OW24298   2.012   0.533   1.941 -0.6974 -0.2904  0.0054
 4221SOL    HW124299   1.956   0.457   1.953 -0.6425  0.1106  2.9734
 4221SOL    HW224300   2.096   0.505   1.904 -0.7328 -0.9432  0.4257
 4222SOL     OW24301   4.173   4.318  13.556 -0.0478 -0.2354 -0.2479
 4222SOL    HW124302   4.257   4.346  13.592 -0.1414  0.0810 -0.2739
 4222SOL    HW224303   4.103   4.358  13.608 -0.4927  1.1026 -1.8506
 4223SOL     OW24304   3.776   2.447   6.187 -0.1510 -0.1384  0.4507
 4223SOL    HW124305   3.692   2.439   6.233  0.7552  0.6689  2.2398
 4223SOL    HW224306   3.750   2.464   6.097  2.5304 -0.9639 -0.4460
 4224SOL     OW24307   2.936   3.337   7.860  0.5476 -0.1095 -0.1562
 4224SOL    HW124308   2.872   3.330   7.930 -2.5884 -0.0406 -3.0354
 4224SOL    HW224309   3.018   3.355   7.906  1.3910  3.8141 -3.1276
 4225SOL     OW24310   2.788   3.881   4.270 -0.1808 -0.1372  0.3268
 4225SOL    HW124311   2.833   3.842   4.195 -1.4085  0.8104 -0.8907
 4225SOL    HW224312   2.816   3.829   4.345  0.8223 -1.1757 -0.7630
 4226SOL     OW24313   0.005   0.796  12.841 -0.5052  0.0297 -0.1944
 4226SOL    HW124314   0.014   0.803  12.746  3.1265 -0.8722  0.1130
 4226SOL    HW224315   0.097   0.785  12.865 -0.8689  0.2877  1.2823
 4227SOL     OW24316   4.433   1.077   2.667  0.2422  0.2313  0.5703
 4227SOL    HW124317   4.491   1.121   2.729  1.1380  0.2325 -0.2747
 4227SOL    HW224318   4.379   1.017   2.718  0.5849 -0.5079  0.0529
 4228SOL     OW24319   1.012   0.739  17.239 -0.1032 -0.1191  0.2123
 4228SOL    HW124320   0.956   0.668  17.209 -0.4874 -0.3161  1.3886
 4228SOL    HW224321   1.023   0.714  17.331  0.9737 -4.0336 -0.9409
 4229SOL     OW24322   4.217   3.811   9.912  0.3803  0.2758  0.4721
 4229SOL    HW124323   4.267   3.814   9.830 -1.3173 -1.7731 -0.6515
 4229SOL    HW224324   4.220   3.906   9.927 -2.2619  0.6064 -1.0263
 4230SOL     OW24325   0.885   2.156  17.273 -0.0701  0.1607  0.0808
 4230SOL    HW124326   0.955   2.213  17.306  2.3803 -2.3130 -0.8539
 4230SOL    HW224327   0.817   2.222  17.262 -0.7738 -1.2306 -3.8794
 4231SOL     OW24328   0.665   1.104   2.172 -0.3907  0.2439  0.0069
 4231SOL    HW124329   0.603   1.032   2.180  0.2141 -0.2518  0.2824
 4231SOL    HW224330   0.741   1.078   2.225 -0.5573  1.0001  0.6211
 4232SOL     OW24331   0.493   4.116   2.928 -0.4034  0.3406 -0.3133
 4232SOL    HW124332   0.584   4.132   2.905  0.1096 -0.5057  1.1492
 4232SOL    HW224333   0.479   4.046   2.864  1.3851  1.4429 -1.9098
 4233SOL     OW24334   3.548   4.018   6.856  0.4795  0.0999 -0.3969
 4233SOL    HW124335   3.535   4.072   6.778  1.1111  0.2055 -0.4261
 4233SOL    HW224336   3.474   3.957   6.853  0.8663 -0.2888 -1.8725
 4234SOL     OW24337   4.661   0.994   2.948  0.2115  0.0931  0.2654
 4234SOL    HW124338   4.698   1.019   3.032 -0.7544  1.4721  0.2854
 4234SOL    HW224339   4.622   1.076   2.918  0.3260 -0.8773 -2.5626
 4235SOL     OW24340   2.810   4.161  16.343 -0.5131  0.5339 -0.4594
 4235SOL    HW124341   2.787   4.132  16.432 -3.2827  1.8591 -0.7509
 4235SOL    HW224342   2.795   4.078  16.298  1.5234 -0.5518  0.8692
 4236SOL     OW24343   4.461   2.586   5.301  0.3491  0.3053  0.2853
 4236SOL    HW124344   4.499   2.528   5.367  1.3399 -1.1330 -1.5595
 4236SOL    HW224345   4.529   2.571   5.236 -0.7454  0.2576 -0.8384
 4237SOL     OW24346   3.291   0.656   3.449  0.4170 -0.0289 -0.4238
 4237SOL    HW124347   3.287   0.654   3.353 -0.5209 -0.2557 -0.3785
 4237SOL    HW224348   3.275   0.564   3.466  0.6361  0.0987  0.4958
 4238SOL     OW24349   3.834   1.997   7.023 -0.9982  0.4257 -0.2454
 4238SOL    HW124350   3.789   2.053   6.960  0.4298 -0.0616 -1.6936
 4238SOL    HW224351   3.904   1.966   6.966  1.2366  0.1462  2.6322
 4239SOL     OW24352   1.000   1.709   8.448 -0.6463 -0.0597 -0.6400
 4239SOL    HW124353   0.942   1.736   8.519  0.9119 -2.6236  1.5449
 4239SOL    HW224354   0.977   1.771   8.378  0.5782 -0.0490 -1.0237
 4240SOL     OW24355   3.886   1.026  10.464 -0.6268  0.2062 -0.1893
 4240SOL    HW124356   3.834   1.086  10.410  1.7196  1.5994 -0.8702
 4240SOL    HW224357   3.915   1.083  10.535 -0.7950 -0.0790  0.1096
 4241SOL     OW24358   0.410   3.715   8.322 -0.6180 -0.2994 -0.3592
 4241SOL    HW124359   0.347   3.657   8.365  0.6955 -0.3552  1.4503
 4241SOL    HW224360   0.354   3.761   8.260  1.2710  1.6368 -0.6071
 4242SOL     OW24361   4.246   0.482  10.113 -0.3503 -0.6172 -0.3409
 4242SOL    HW124362   4.153   0.461  10.118 -0.7706  1.0277 -1.1336
 4242SOL    HW224363   4.286   0.403  10.150  0.0570 -1.3283 -2.3480
 4243SOL     OW24364   0.179   1.629   3.535 -0.1218 -0.2442  0.0640
 4243SOL    HW124365   0.195   1.608   3.443  1.1501 -0.5446  0.3495
 4243SOL    HW224366   0.210   1.548   3.576  0.8677  0.2907  0.3728
 4244SOL     OW24367   3.637   0.342   2.151 -0.0995 -0.1228 -0.0729
 4244SOL    HW124368   3.652   0.391   2.070  3.0164 -2.4925 -0.9126
 4244SOL    HW224369   3.714   0.286   2.149  0.4309  0.5141  1.9537
 4245SOL     OW24370   1.861   1.506   5.467  0.5075  0.3595  0.4335
 4245SOL    HW124371   1.921   1.480   5.538  1.5112 -3.1531 -1.7077
 4245SOL    HW224372   1.873   1.429   5.410 -1.3525  0.2584  0.1918
 4246SOL     OW24373   4.064   2.102   3.005  0.8002 -0.5554  0.3370
 4246SOL    HW124374   4.029   2.053   3.079  1.0500 -2.0656 -0.5524
 4246SOL    HW224375   4.114   2.029   2.969 -0.0018 -1.2740  0.6967
 4247SOL     OW24376   1.047   3.733   2.268  0.1017  0.5268 -0.3887
 4247SOL    HW124377   0.964   3.752   2.312  0.8444 -0.6499  1.5423
 4247SOL    HW224378   1.043   3.813   2.215 -0.5741  1.1342  0.5740
 4248SOL     OW24379   3.117   2.031   0.966  0.2010 -0.0339 -0.0863
 4248SOL    HW124380   3.062   1.981   0.907  1.1947  0.9778 -1.8606
 4248SOL    HW224381   3.049   2.062   1.026 -0.3289  0.6313 -1.0343
 4249SOL     OW24382   1.488   1.894   7.430 -0.2200  0.4388  0.2741
 4249SOL    HW124383   1.399   1.922   7.452 -0.5937 -0.9102  0.4584
 4249SOL    HW224384   1.519   1.976   7.391 -0.6107  0.4461 -0.0196
 4250SOL     OW24385   1.287   3.431   6.037  0.3159 -0.6183 -0.2143
 4250SOL    HW124386   1.192   3.432   6.035  0.3506  1.6620 -0.8561
 4250SOL    HW224387   1.312   3.347   6.077  0.3001  0.6972  2.6025
 4251SOL     OW24388   3.584   2.795   2.681 -0.1519 -0.0118  0.2469
 4251SOL    HW124389   3.628   2.865   2.729  0.3347  0.5723 -1.0559
 4251SOL    HW224390   3.571   2.730   2.750  0.0920  0.1421  0.4377
 4252SOL     OW24391   3.371   1.817  13.885 -0.4746 -0.3272  0.0272
 4252SOL    HW124392   3.380   1.751  13.954 -1.0015 -1.5395 -1.0799
 4252SOL    HW224393   3.277   1.818  13.868 -0.3990 -1.0530 -0.4083
 4253SOL     OW24394   0.337   3.288   1.913  0.6053  0.0563  0.2617
 4253SOL    HW124395   0.346   3.379   1.884  1.3994  0.5690  2.1072
 4253SOL    HW224396   0.293   3.305   1.996  0.9396  2.7574 -0.0996
 4254SOL     OW24397   2.348   1.122   4.966 -0.4272  0.0233  0.1191
 4254SOL    HW124398   2.301   1.111   5.049 -0.3709 -1.7596 -0.0822
 4254SOL    HW224399   2.440   1.110   4.987 -0.4827  2.1704  1.6551
 4255SOL     OW24400   2.535   3.317   8.977 -0.3595  0.3953  0.0427
 4255SOL    HW124401   2.456   3.265   8.992 -0.3393  0.1057 -0.8467
 4255SOL    HW224402   2.525   3.361   8.893 -0.2296  1.6152  0.6651
 4256SOL     OW24403   2.190   2.242   0.933  0.6153 -0.2880 -0.0307
 4256SOL    HW124404   2.103   2.202   0.933  1.3888 -1.9754 -0.4131
 4256SOL    HW224405   2.177   2.311   0.868  0.3440 -0.7668 -0.4837
 4257SOL     OW24406   0.842   2.991   8.388 -0.1358  0.1175 -0.3188
 4257SOL    HW124407   0.799   3.076   8.385 -1.7449 -0.6606  0.3506
 4257SOL    HW224408   0.933   3.019   8.391 -0.9621  2.8696 -1.3808
 4258SOL     OW24409   4.542   2.086  11.067  0.1395  0.5005 -0.2121
 4258SOL    HW124410   4.615   2.148  11.059  0.9847 -0.5226 -0.4540
 4258SOL    HW224411   4.471   2.145  11.042 -1.2309 -1.6009 -1.2485
 4259SOL     OW24412   4.513   1.314  11.398  0.0775 -0.2514  0.4371
 4259SOL    HW124413   4.467   1.236  11.368 -0.1796 -0.0972  0.4362
 4259SOL    HW224414   4.441   1.367  11.432 -1.0220 -0.7753 -1.1055
 4260SOL     OW24415   0.820   1.022   8.500  0.1246 -0.2849 -0.3123
 4260SOL    HW124416   0.893   0.985   8.548  0.5727  0.0453 -0.7411
 4260SOL    HW224417   0.759   1.057   8.565 -0.1460 -0.4203 -0.4907
 4261SOL     OW24418   0.440   1.966  16.360  0.3618 -0.1668  0.3185
 4261SOL    HW124419   0.455   1.938  16.451 -0.9448  0.3942  0.7007
 4261SOL    HW224420   0.363   1.914  16.339  0.3628  0.1954 -0.5934
 4262SOL     OW24421   0.755   3.117   4.056  0.1364  0.8357  0.6542
 4262SOL    HW124422   0.674   3.168   4.058 -1.2936 -1.4936  1.6678
 4262SOL    HW224423   0.750   3.078   3.969  1.7635  1.9302  0.0501
 4263SOL     OW24424   0.243   1.837   8.924  0.0231 -0.6357 -0.2590
 4263SOL    HW124425   0.302   1.877   8.861 -0.1981 -0.0424 -0.0834
 4263SOL    HW224426   0.178   1.905   8.935  0.1301 -0.2118 -2.2983
 4264SOL     OW24427   4.283   3.636  10.091  0.3622 -0.5908  0.7071
 4264SOL    HW124428   4.320   3.583  10.020 -1.0308 -1.2404  0.4686
 4264SOL    HW224429   4.247   3.710  10.042  0.5654 -0.7639  0.2910
 4265SOL     OW24430   1.138   1.450   5.867  0.3147 -0.2687  0.3730
 4265SOL    HW124431   1.214   1.498   5.899 -0.6333  1.3450  0.1970
 4265SOL    HW224432   1.124   1.473   5.776  0.0684 -0.8923  0.2534
 4266SOL     OW24433   1.290   0.807   5.226 -0.4624  0.3954 -0.0371
 4266SOL    HW124434   1.195   0.810   5.212 -0.2199 -3.5563 -2.3756
 4266SOL    HW224435   1.306   0.718   5.256 -3.0808  0.1771  0.7619
 4267SOL     OW24436   1.866   3.729   5.427 -0.5195  0.3002  0.6870
 4267SOL    HW124437   1.887   3.742   5.519  1.8466 -0.5901  0.2755
 4267SOL    HW224438   1.932   3.662   5.408  0.3612  0.4284  3.3305
 4268SOL     OW24439   1.940   0.501   8.018 -0.8252  0.5108  0.2544
 4268SOL    HW124440   1.918   0.437   8.087 -2.3069  0.2182 -0.4941
 4268SOL    HW224441   2.018   0.538   8.061 -0.8677 -2.5030  3.0305
 4269SOL     OW24442   1.653   2.133   0.538  0.0543  0.4532  0.7905
 4269SOL    HW124443   1.659   2.223   0.569 -2.7519  1.6957 -2.3568
 4269SOL    HW224444   1.590   2.143   0.467  1.3312 -0.2264 -0.4413
 4270SOL     OW24445   0.567   2.998   9.313  0.2570  0.3570 -0.3071
 4270SOL    HW124446   0.566   2.916   9.362 -1.3023 -0.2385 -1.3329
 4270SOL    HW224447   0.616   2.966   9.237 -0.3557 -0.6568 -0.2701
 4271SOL     OW24448   4.349   3.292   0.891  0.4701  0.3599 -0.1934
 4271SOL    HW124449   4.347   3.374   0.940 -0.1158  1.0690 -1.3956
 4271SOL    HW224450   4.427   3.254   0.932 -0.4934 -0.2861  1.0342
 4272SOL     OW24451   4.009   3.715   6.788 -0.1526 -0.4106 -0.4268
 4272SOL    HW124452   3.980   3.766   6.713  0.4449 -0.1964 -0.5082
 4272SOL    HW224453   3.941   3.648   6.795  0.6424 -1.2040 -0.2443
 4273SOL     OW24454   2.636   3.370   9.246  0.2433 -0.3545  0.4955
 4273SOL    HW124455   2.591   3.448   9.280  1.8393  1.5716 -1.8483
 4273SOL    HW224456   2.597   3.355   9.161 -1.7064  0.3135  1.2654
 4274SOL     OW24457   2.528   3.601   9.337 -0.7173  0.4313 -0.0773
 4274SOL    HW124458   2.552   3.663   9.406  1.1255 -2.7781  2.1404
 4274SOL    HW224459   2.528   3.658   9.260 -1.4118  1.5967  0.7862
 4275SOL     OW24460   3.862   1.539   7.872 -0.3238 -0.8418  0.2379
 4275SOL    HW124461   3.796   1.606   7.888  0.5269  0.0731 -0.1094
 4275SOL    HW224462   3.830   1.467   7.927 -0.7665 -1.2161 -0.5122
 4276SOL     OW24463   1.400   1.957   5.718 -0.5010  0.4197  0.1055
 4276SOL    HW124464   1.361   2.005   5.645  1.6241 -1.1336 -2.0676
 4276SOL    HW224465   1.339   1.883   5.715 -0.5921  0.5306 -0.7480
 4277SOL     OW24466   1.912   0.777   8.372  0.2179 -0.7282  0.5571
 4277SOL    HW124467   1.932   0.807   8.460  3.6230  0.6699 -0.7000
 4277SOL    HW224468   1.915   0.858   8.321 -0.2424 -1.0767 -0.0217
 4278SOL     OW24469   3.597   0.969   6.177  0.6131  0.5086  0.7834
 4278SOL    HW124470   3.632   1.055   6.154  0.5259  0.3273 -0.0390
 4278SOL    HW224471   3.517   1.000   6.221  0.6115 -0.8389  1.7271
 4279SOL     OW24472   4.408   2.516  16.357  0.2143  0.1456  0.1593
 4279SOL    HW124473   4.315   2.502  16.372  0.2974 -0.1185  0.4206
 4279SOL    HW224474   4.456   2.480  16.432  1.4378  1.6355  0.0942
 4280SOL     OW24475   1.620   1.372   2.473  0.4008 -1.0336 -0.0345
 4280SOL    HW124476   1.691   1.346   2.531  0.2600 -3.5424 -0.9905
 4280SOL    HW224477   1.559   1.298   2.470 -1.1054  0.1720  1.0310
 4281SOL     OW24478   3.923   4.605   0.224 -0.1719  0.2576 -0.2562
 4281SOL    HW124479   3.983   4.591   0.150 -0.2800 -1.6471  0.0042
 4281SOL    HW224480   3.852   4.545   0.201  0.8401 -1.2655  0.5354
 4282SOL     OW24481   4.017   4.416  16.693  0.1972  0.0110  0.3423
 4282SOL    HW124482   4.030   4.510  16.676 -0.7131 -0.2829 -1.8631
 4282SOL    HW224483   4.021   4.414  16.789  3.0697  1.4936  0.2821
 4283SOL     OW24484   2.384   4.191  17.213  0.1236 -0.3665  0.1507
 4283SOL    HW124485   2.330   4.263  17.245 -1.6982 -1.2365 -0.9764
 4283SOL    HW224486   2.388   4.202  17.118 -0.1842 -0.2393  0.1523
 4284SOL     OW24487   1.094   0.215   4.894  0.3400  0.1094  0.3678
 4284SOL    HW124488   1.150   0.186   4.966 -1.3901  0.3153  1.7738
 4284SOL    HW224489   1.152   0.279   4.851 -0.5262  0.4279 -0.3229
 4285SOL     OW24490   3.039   0.600   2.140 -0.1134 -0.7745  0.1808
 4285SOL    HW124491   3.067   0.685   2.176  2.0203 -0.2125 -2.7367
 4285SOL    HW224492   3.105   0.587   2.071 -0.4799  1.1407 -0.5529
 4286SOL     OW24493   0.076   3.521   4.187 -0.2231 -0.5648  0.1558
 4286SOL    HW124494   0.065   3.611   4.219  0.5387 -0.5982  0.5231
 4286SOL    HW224495   0.031   3.475   4.258 -1.1864 -0.4487 -0.3835
 4287SOL     OW24496   2.304   3.118   3.607 -0.3418 -0.3215  0.0305
 4287SOL    HW124497   2.374   3.060   3.576  1.3707  1.4417  0.5744
 4287SOL    HW224498   2.255   3.141   3.528 -0.7005 -3.9705 -0.8114
 4288SOL     OW24499   1.722   1.161  12.948 -0.7536  0.4341 -0.0019
 4288SOL    HW124500   1.626   1.155  12.941 -0.4936  1.0253 -3.5740
 4288SOL    HW224501   1.733   1.205  13.033 -1.7022 -0.6178  0.6815
 4289SOL     OW24502   3.514   0.128   6.096  0.0699  0.6448 -0.0065
 4289SOL    HW124503   3.592   0.099   6.048 -1.5568 -0.1435 -2.1927
 4289SOL    HW224504   3.476   0.192   6.036  0.9588  1.8819  0.7627
 4290SOL     OW24505   1.525   0.138   7.601  0.5863  0.4498 -0.4668
 4290SOL    HW124506   1.488   0.095   7.524  1.8988  0.6232 -1.1943
 4290SOL    HW224507   1.582   0.070   7.638 -0.1241 -0.2992 -0.7574
 4291SOL     OW24508   0.090   2.822   2.265  0.2685 -0.2256  0.5525
 4291SOL    HW124509   0.122   2.875   2.338 -2.5067 -0.5637  2.0065
 4291SOL    HW224510   4.733   2.824   2.273  0.1346 -0.7001 -0.7945
 4292SOL     OW24511   1.176   4.531   0.975  0.1375 -0.3953  0.0483
 4292SOL    HW124512   1.241   4.580   1.026 -0.0897 -1.6061  1.5219
 4292SOL    HW224513   1.224   4.495   0.900  2.4129  3.2133 -0.2126
 4293SOL     OW24514   0.703   0.074   7.094  0.1958  0.4421 -0.1229
 4293SOL    HW124515   0.767   0.033   7.152 -0.7296 -0.3383  0.3468
 4293SOL    HW224516   0.649   0.122   7.156 -1.0848 -1.0250 -0.1114
 4294SOL     OW24517   0.143   4.163   1.859  0.1824  0.5721  0.4332
 4294SOL    HW124518   0.096   4.140   1.940  0.8758 -0.2493  0.5932
 4294SOL    HW224519   0.073   4.147   1.796 -1.5771 -0.7439  2.7149
 4295SOL     OW24520   2.139   3.275   3.073  0.1711  0.2322 -0.4385
 4295SOL    HW124521   2.142   3.369   3.057 -0.8247  0.2035 -0.8043
 4295SOL    HW224522   2.229   3.244   3.061  0.2338  0.6877 -1.1453
 4296SOL     OW24523   4.265   1.010  15.301 -0.1842  0.9009  0.4401
 4296SOL    HW124524   4.180   1.024  15.343 -0.5525 -0.5897  0.2026
 4296SOL    HW224525   4.334   1.049  15.355  1.8979  0.1088 -1.6579
 4297SOL     OW24526   3.307   3.955   3.069  0.7498  0.2800 -0.3465
 4297SOL    HW124527   3.317   4.045   3.039  1.9077 -0.4357 -2.0569
 4297SOL    HW224528   3.267   3.912   2.994 -0.5614  0.4426  0.2588
 4298SOL     OW24529   1.899   0.151  17.461  0.4647  0.6939 -0.3020
 4298SOL    HW124530   1.962   0.085  17.490  2.0954  2.0834 -0.6938
 4298SOL    HW224531   1.940   0.174  17.378 -1.5751  2.5360 -0.7961
 4299SOL     OW24532   0.026   3.181   5.850 -0.0626  0.0109  0.2458
 4299SOL    HW124533   0.049   3.266   5.813  1.3872 -0.6152 -0.3111
 4299SOL    HW224534   0.048   3.180   5.943  0.9156 -1.6037 -0.0093
 4300SOL     OW24535   3.912   0.864   3.671 -0.1456  0.3757  1.0077
 4300SOL    HW124536   3.993   0.835   3.628 -0.7759  1.2616 -0.7679
 4300SOL    HW224537   3.881   0.917   3.597 -0.9861  1.4177  2.1139
 4301SOL     OW24538   3.480   2.336  16.787  0.1972  0.4088  0.1823
 4301SOL    HW124539   3.486   2.356  16.881  1.6858  0.3443  0.1039
 4301SOL    HW224540   3.510   2.245  16.784 -2.4530 -0.4682 -0.0182
 4302SOL     OW24541   4.235   1.394   2.157 -0.3344 -0.3038  0.2043
 4302SOL    HW124542   4.165   1.418   2.097 -0.6864 -1.3394  0.2033
 4302SOL    HW224543   4.290   1.364   2.084 -0.9131 -0.6232 -0.0988
 4303SOL     OW24544   0.380   3.407   6.691  0.2228  0.0264 -0.0920
 4303SOL    HW124545   0.323   3.339   6.654 -1.5922  1.6296 -0.2105
 4303SOL    HW224546   0.347   3.485   6.647 -0.2556  0.5278  1.1699
 4304SOL     OW24547   0.626   3.888   4.496 -0.3394 -0.0593 -0.1986
 4304SOL    HW124548   0.703   3.945   4.492 -1.2554  1.1491 -0.9558
 4304SOL    HW224549   0.561   3.942   4.450  0.8785  0.8659 -0.8396
 4305SOL     OW24550   4.230   4.610   8.744  0.5298  0.1435  0.2266
 4305SOL    HW124551   4.140   4.587   8.721  1.0525  0.7894 -2.4170
 4305SOL    HW224552   4.260   4.521   8.761  2.4186  0.7245 -0.1329
 4306SOL     OW24553   4.194   1.719  13.083  0.2206  0.2478  0.0410
 4306SOL    HW124554   4.279   1.676  13.097  0.8293  1.8207  1.1473
 4306SOL    HW224555   4.175   1.705  12.990 -1.4173  0.2900  0.3844
 4307SOL     OW24556   3.084   2.261   4.578 -0.5449 -0.0329 -0.2321
 4307SOL    HW124557   3.113   2.310   4.501 -0.0595 -2.3753 -1.5530
 4307SOL    HW224558   3.074   2.334   4.639  1.3464  0.5858 -0.6500
 4308SOL     OW24559   4.171   4.480  17.353  0.3998 -0.4668  0.1179
 4308SOL    HW124560   4.216   4.396  17.365 -1.0409 -1.5157 -1.8861
 4308SOL    HW224561   4.240   4.544  17.333 -0.1125 -0.0680 -0.3670
 4309SOL     OW24562   0.238   2.132   8.733  0.0416 -0.1747  0.2225
 4309SOL    HW124563   0.184   2.093   8.801 -1.1336 -0.0427 -0.6467
 4309SOL    HW224564   0.168   2.169   8.679 -0.7797  0.9545  2.0508
 4310SOL     OW24565   4.597   0.788   6.053  0.3055  0.1348 -0.0723
 4310SOL    HW124566   4.522   0.737   6.084  0.5477  0.1809  0.5819
 4310SOL    HW224567   4.559   0.872   6.028  1.2912  0.3917 -0.7247
 4311SOL     OW24568   2.305   0.612   3.744  0.1362 -0.3847 -0.1969
 4311SOL    HW124569   2.390   0.573   3.766  0.1356 -0.7999 -0.9187
 4311SOL    HW224570   2.240   0.551   3.779 -0.0812  0.0793  0.2046
 4312SOL     OW24571   1.612   4.447  16.430 -0.0483 -0.4686  0.2968
 4312SOL    HW124572   1.700   4.484  16.424 -0.5329  0.5404 -0.5765
 4312SOL    HW224573   1.613   4.377  16.496 -0.3109  0.4298  1.2443
 4313SOL     OW24574   3.445   0.108  17.468  0.1853  0.1152  0.8690
 4313SOL    HW124575   3.519   0.056  17.496  1.9637  1.9337 -0.4267
 4313SOL    HW224576   3.403   0.058  17.398 -4.0305  3.6020  0.8631
 4314SOL     OW24577   1.404   2.165   3.314  0.3557  0.0460 -0.2086
 4314SOL    HW124578   1.457   2.155   3.234  1.4995 -0.0965  0.5732
 4314SOL    HW224579   1.348   2.241   3.295 -0.6457 -0.2264  1.6751
 4315SOL     OW24580   1.803   3.207   4.233  0.1061 -0.0383  0.1947
 4315SOL    HW124581   1.842   3.267   4.170 -1.2530  0.8074  0.1847
 4315SOL    HW224582   1.742   3.163   4.174  1.3432  0.2731 -1.3072
 4316SOL     OW24583   0.218   3.825   7.423  0.0630 -0.2193  0.3302
 4316SOL    HW124584   0.279   3.751   7.432 -1.0860 -1.3009 -0.7358
 4316SOL    HW224585   0.278   3.899   7.424  1.0493 -1.0107  0.3056
 4317SOL     OW24586   1.705   1.855  14.600 -0.1961 -0.2254 -0.0126
 4317SOL    HW124587   1.610   1.864  14.596  0.0172  1.6049 -0.6586
 4317SOL    HW224588   1.736   1.923  14.540  0.3286 -0.8488 -0.4507
 4318SOL     OW24589   1.329   2.327   7.616 -0.2482  0.4162  0.4613
 4318SOL    HW124590   1.285   2.412   7.613  0.8734  0.9094 -2.2290
 4318SOL    HW224591   1.403   2.353   7.671  0.9220  1.0608 -1.4424
 4319SOL     OW24592   2.604   0.079   1.660 -0.4506 -0.1641 -0.6998
 4319SOL    HW124593   2.688   0.113   1.689 -1.4501  0.6002  1.2597
 4319SOL    HW224594   2.557   0.083   1.743  1.3995 -2.0821  0.4146
 4320SOL     OW24595   0.029   2.887  15.416  0.1379 -0.2890  0.2477
 4320SOL    HW124596   0.063   2.937  15.491  0.6439 -2.3763  1.3934
 4320SOL    HW224597   0.010   2.810  15.469  1.1686  0.8316  2.2899
 4321SOL     OW24598   0.215   1.539   3.232 -0.1798  0.4636  0.2775
 4321SOL    HW124599   0.255   1.610   3.182 -0.4805 -0.0318 -0.6719
 4321SOL    HW224600   0.127   1.544   3.194  0.6290  2.7063 -1.3365
 4322SOL     OW24601   3.204   3.867   1.426  0.5050  0.0679 -0.0126
 4322SOL    HW124602   3.149   3.850   1.350 -1.0056 -1.1801  1.3345
 4322SOL    HW224603   3.244   3.780   1.426  0.3918  0.0151 -1.5303
 4323SOL     OW24604   1.206   3.951   1.566 -0.3182 -0.4261  0.0955
 4323SOL    HW124605   1.125   3.970   1.613  2.0259  4.1337  2.3122
 4323SOL    HW224606   1.251   4.035   1.566 -0.0758 -0.5527  0.8195
 4324SOL     OW24607   1.980   4.509   2.527 -0.0185 -0.1080  0.2938
 4324SOL    HW124608   1.993   4.512   2.432  0.1379 -0.0452  0.3168
 4324SOL    HW224609   1.980   4.600   2.559  1.7140  0.0817 -0.2561
 4325SOL     OW24610   1.452   4.055  17.069 -0.3446 -0.5810  0.1275
 4325SOL    HW124611   1.383   3.997  17.100 -0.4871  0.5917  1.9719
 4325SOL    HW224612   1.409   4.139  17.082  0.3611 -0.4319  1.4709
 4326SOL     OW24613   0.734   0.608   0.215 -0.0039 -0.0010 -0.4928
 4326SOL    HW124614   0.741   0.703   0.208  2.4530 -0.1373  0.1460
 4326SOL    HW224615   0.677   0.591   0.140  1.6995  0.5887 -1.9107
 4327SOL     OW24616   0.902   0.717   8.845  0.1658 -0.6097 -0.1792
 4327SOL    HW124617   0.864   0.701   8.932 -0.0717 -1.4476 -0.4342
 4327SOL    HW224618   0.827   0.705   8.787  0.7034  0.7774 -1.1547
 4328SOL     OW24619   3.308   3.823   5.840 -0.2185 -0.5924  0.1544
 4328SOL    HW124620   3.292   3.918   5.838 -1.9192 -0.8452  1.3744
 4328SOL    HW224621   3.228   3.782   5.809 -0.1380 -0.7495  0.1545
 4329SOL     OW24622   3.151   3.384  15.436 -0.2159  0.0696  0.5399
 4329SOL    HW124623   3.094   3.313  15.407  1.1827  0.2172 -2.5795
 4329SOL    HW224624   3.130   3.392  15.529  0.3331 -0.4173  0.7032
 4330SOL     OW24625   1.777   0.751   3.292  0.4159 -0.3577  0.0392
 4330SOL    HW124626   1.698   0.805   3.286  0.6345 -0.1842 -1.3607
 4330SOL    HW224627   1.732   0.671   3.317  0.2180 -0.7926 -1.7406
 4331SOL     OW24628   0.654   3.634   8.625 -0.1846  0.0290  0.1459
 4331SOL    HW124629   0.731   3.589   8.661  0.5113  0.1123 -1.2529
 4331SOL    HW224630   0.692   3.722   8.628 -1.8121  0.7302  0.5106
 4332SOL     OW24631   2.247   4.488   3.027  0.0494  0.0822  0.3839
 4332SOL    HW124632   2.329   4.463   3.068 -0.0326 -1.0905 -0.1589
 4332SOL    HW224633   2.201   4.527   3.101 -0.7036 -1.0413  0.5149
 4333SOL     OW24634   0.910   4.530   2.177 -0.4966  0.3292  0.2577
 4333SOL    HW124635   0.855   4.560   2.104  0.9775  0.0783 -0.9516
 4333SOL    HW224636   0.916   4.609   2.230 -0.0900 -0.9425  2.0928
 4334SOL     OW24637   1.064   0.465  13.054  0.3718 -0.1452  0.2349
 4334SOL    HW124638   1.113   0.545  13.073  1.0721 -0.1568 -1.5699
 4334SOL    HW224639   1.044   0.484  12.963  1.6960  3.1534  0.6606
 4335SOL     OW24640   4.520   3.593   5.126 -0.0773  0.0536 -1.0408
 4335SOL    HW124641   4.612   3.567   5.135 -0.5759 -1.1872  0.4252
 4335SOL    HW224642   4.492   3.532   5.057  0.3539 -2.3938  0.9677
 4336SOL     OW24643   3.317   1.887   8.243  0.0630 -0.1044 -0.4267
 4336SOL    HW124644   3.406   1.919   8.257  0.0618 -1.0445  1.7064
 4336SOL    HW224645   3.281   1.888   8.331 -1.2538 -1.6971 -0.9404
 4337SOL     OW24646   3.221   4.290   8.295  0.1731 -0.5085 -0.1740
 4337SOL    HW124647   3.142   4.235   8.295 -0.2327  0.0590  1.2153
 4337SOL    HW224648   3.228   4.275   8.201  1.8215 -1.2075  0.0738
 4338SOL     OW24649   4.170   2.076  10.684 -0.3320  0.0301  0.1230
 4338SOL    HW124650   4.264   2.063  10.673 -0.2065  0.9416  0.1111
 4338SOL    HW224651   4.167   2.172  10.681 -1.4793  0.0573  2.1013
 4339SOL     OW24652   3.205   3.071   5.429  0.0221 -0.2506 -0.1286
 4339SOL    HW124653   3.279   3.011   5.433 -0.1749 -0.6600 -2.1564
 4339SOL    HW224654   3.255   3.142   5.469  1.2365  0.0960 -2.2221
 4340SOL     OW24655   2.155   3.950   1.041 -0.7836 -0.3539 -0.3392
 4340SOL    HW124656   2.186   3.931   0.952  0.4580 -0.8485  0.2023
 4340SOL    HW224657   2.105   3.875   1.073  1.6431 -0.1573  3.8589
 4341SOL     OW24658   0.962   2.486  15.249 -0.7029  0.1397  0.9995
 4341SOL    HW124659   0.929   2.539  15.322 -2.9372 -0.6702  0.5768
 4341SOL    HW224660   0.898   2.493  15.178  0.0370  1.2028  0.4435
 4342SOL     OW24661   1.033   1.475   0.284 -0.3409 -0.1342 -0.2572
 4342SOL    HW124662   1.025   1.532   0.361 -1.7068  0.1251 -0.5808
 4342SOL    HW224663   0.960   1.511   0.232 -1.8686 -1.5706  0.8993
 4343SOL     OW24664   3.682   0.464   5.835 -0.1297  0.0188  0.2806
 4343SOL    HW124665   3.718   0.378   5.859 -0.2341 -0.5703 -1.7153
 4343SOL    HW224666   3.718   0.522   5.902  2.2367 -0.0377 -0.9465
 4344SOL     OW24667   0.093   1.288  12.009  0.0043 -0.0377  0.2084
 4344SOL    HW124668   0.014   1.311  11.960  0.8138 -0.3770 -1.2577
 4344SOL    HW224669   0.073   1.320  12.097 -1.4120  0.3320 -0.2397
 4345SOL     OW24670   2.153   2.118   5.508 -0.0695 -0.1777  0.7606
 4345SOL    HW124671   2.138   2.109   5.414  1.5347  2.8191  0.2173
 4345SOL    HW224672   2.205   2.198   5.515  1.7350 -1.5576  3.0472
 4346SOL     OW24673   3.019   1.389   4.028  0.0386 -0.2477  0.0194
 4346SOL    HW124674   3.002   1.341   4.109  0.9244 -3.0176 -1.4483
 4346SOL    HW224675   3.049   1.324   3.965  0.3346  0.5665 -0.6846
 4347SOL     OW24676   1.527   3.080   5.265  0.4250  0.5614  0.3187
 4347SOL    HW124677   1.586   3.116   5.199 -0.7565  1.2023 -0.3993
 4347SOL    HW224678   1.591   3.076   5.336  0.5939 -0.8566  0.0785
 4348SOL     OW24679   0.101   0.438   1.873  0.0484 -0.0843 -0.2438
 4348SOL    HW124680   0.014   0.407   1.848 -0.3418 -0.5419  1.6699
 4348SOL    HW224681   0.080   0.454   1.965  1.9184 -1.7249  0.4566
 4349SOL     OW24682   4.278   2.609   6.504 -0.5369  0.0453 -0.1780
 4349SOL    HW124683   4.335   2.686   6.499  0.9159 -1.1078 -1.2569
 4349SOL    HW224684   4.194   2.656   6.507 -1.0828 -0.7634 -3.1421
 4350SOL     OW24685   4.448   4.421   5.739  0.3115  0.2303  0.0913
 4350SOL    HW124686   4.362   4.461   5.751 -1.0144 -2.3007 -0.8702
 4350SOL    HW224687   4.442   4.382   5.826 -1.4531  1.4236  0.5193
 4351SOL     OW24688   1.050   2.153  13.220  0.5227 -0.3197 -0.3166
 4351SOL    HW124689   1.127   2.154  13.277 -1.0016  1.3896  1.6930
 4351SOL    HW224690   1.091   2.189  13.141 -1.4811  0.2148 -1.1263
 4352SOL     OW24691   1.736   0.096   7.332 -0.6660  0.5099 -0.4136
 4352SOL    HW124692   1.751   0.065   7.421 -1.9675  2.1562  0.3732
 4352SOL    HW224693   1.654   0.051   7.311  0.5806 -0.2169 -3.8381
 4353SOL     OW24694   0.624   3.503   9.709  0.3815  0.1050  0.1459
 4353SOL    HW124695   0.558   3.569   9.689 -1.8935 -1.8017  1.4958
 4353SOL    HW224696   0.582   3.423   9.678  0.8454 -0.0668 -0.0497
 4354SOL     OW24697   1.205   3.606   7.491 -0.3968 -0.2643 -0.1696
 4354SOL    HW124698   1.185   3.647   7.576  0.2062  1.3455 -0.8112
 4354SOL    HW224699   1.155   3.670   7.441 -0.4762  0.0060  0.2562
 4355SOL     OW24700   3.686   4.491   8.804 -0.4579 -0.2592 -0.0969
 4355SOL    HW124701   3.592   4.476   8.792 -1.0346  3.1730  0.1921
 4355SOL    HW224702   3.682   4.536   8.889  1.8622  0.3919 -0.3241
 4356SOL     OW24703   2.911   0.604  16.167  0.3534  0.1324 -0.1413
 4356SOL    HW124704   2.935   0.562  16.250  0.5032 -0.4067 -0.4587
 4356SOL    HW224705   2.990   0.649  16.139  0.5233 -0.2830 -0.3302
 4357SOL     OW24706   1.135   2.361   9.055  0.0225 -0.1139 -0.3814
 4357SOL    HW124707   1.227   2.387   9.048  0.3528 -0.8738  1.1643
 4357SOL    HW224708   1.131   2.303   8.978 -3.8601 -0.0675 -0.2083
 4358SOL     OW24709   0.561   2.273   1.929  0.0394  0.5801  0.0599
 4358SOL    HW124710   0.613   2.260   1.850 -0.0892 -0.6236  0.1740
 4358SOL    HW224711   0.523   2.361   1.924 -0.5520  0.2892 -0.5480
 4359SOL     OW24712   1.881   1.992   3.284  0.0897  0.2449  0.4689
 4359SOL    HW124713   1.796   1.974   3.325  0.8428  0.6940  2.2078
 4359SOL    HW224714   1.862   2.084   3.265 -0.2095 -0.3499 -2.0606
 4360SOL     OW24715   0.592   4.635   7.739  0.8867  0.4487 -0.2467
 4360SOL    HW124716   0.564   4.726   7.748 -0.8099 -0.2643  1.5987
 4360SOL    HW224717   0.673   4.639   7.687  3.1989  0.1063  3.2920
 4361SOL     OW24718   2.435   4.017  16.678  0.7511  0.3850  0.6699
 4361SOL    HW124719   2.419   3.922  16.679 -0.2862  0.5483 -1.2248
 4361SOL    HW224720   2.441   4.044  16.587 -1.5695  0.7015  0.6177
 4362SOL     OW24721   2.788   4.213   3.026 -0.3870  0.1368  0.1844
 4362SOL    HW124722   2.875   4.195   3.062 -0.2673 -0.0060 -0.1777
 4362SOL    HW224723   2.754   4.277   3.088  2.8560  2.9212 -0.9253
 4363SOL     OW24724   1.551   2.410  10.811  0.3514  0.1388  0.1725
 4363SOL    HW124725   1.521   2.421  10.721  2.3222 -0.4118 -0.5599
 4363SOL    HW224726   1.545   2.315  10.826 -0.8663  0.0772 -0.7218
 4364SOL     OW24727   3.943   0.499  17.557  0.3102  0.7162  0.4797
 4364SOL    HW124728   3.883   0.529  17.626  2.6613  1.7196  2.0730
 4364SOL    HW224729   3.928   0.407  17.576 -4.4655  1.3342 -0.0544
 4365SOL     OW24730   1.063   1.764   2.508 -0.5069 -0.2729 -1.2132
 4365SOL    HW124731   1.109   1.680   2.504 -0.7637 -0.4996  0.4458
 4365SOL    HW224732   1.102   1.812   2.435  3.3058 -0.3751  0.7519
 4366SOL     OW24733   3.306   2.878   5.652 -0.4863 -0.1241  0.0935
 4366SOL    HW124734   3.339   2.797   5.612 -0.5400  0.1989 -0.6033
 4366SOL    HW224735   3.214   2.854   5.655 -0.7449  0.8449 -0.3226
 4367SOL     OW24736   4.388   4.666  17.076 -0.0631  0.2795  0.1026
 4367SOL    HW124737   4.386   4.655  17.171 -1.4592  0.7958  0.1370
 4367SOL    HW224738   4.392   0.023  17.069 -2.3984  0.3394 -0.4824
 4368SOL     OW24739   4.277   0.276  17.635  0.4047 -0.2921  0.0608
 4368SOL    HW124740   4.220   0.202  17.611  0.2214  0.2935 -1.2808
 4368SOL    HW224741   4.246   0.343  17.575  1.5148  2.3497  2.4506
 4369SOL     OW24742   3.528   1.721   1.440 -0.3838 -0.0483  0.2409
 4369SOL    HW124743   3.609   1.691   1.480 -1.3306 -0.0189  2.1849
 4369SOL    HW224744   3.516   1.657   1.369  0.5738  0.0943 -0.0420
 4370SOL     OW24745   3.264   3.739   6.465 -0.0720  0.8573 -0.7614
 4370SOL    HW124746   3.353   3.723   6.495  0.1185 -0.7052 -2.1637
 4370SOL    HW224747   3.251   3.660   6.412  1.1877  1.0686 -1.3831
 4371SOL     OW24748   2.606   2.629   9.661 -0.3238 -0.1952  0.0574
 4371SOL    HW124749   2.568   2.556   9.710  3.0107 -0.7418  1.8869
 4371SOL    HW224750   2.550   2.698   9.696  0.4559  1.3379 -1.6955
 4372SOL     OW24751   2.068   3.531  10.708 -0.5697  0.3350 -0.2315
 4372SOL    HW124752   2.094   3.577  10.628  0.4583  2.0807  1.1081
 4372SOL    HW224753   1.980   3.569  10.705 -0.7672  0.0256  1.4961
 4373SOL     OW24754   0.062   4.323   6.680  0.7061  0.3186 -0.1854
 4373SOL    HW124755   4.715   4.359   6.657  2.6360  5.1818  0.0795
 4373SOL    HW224756   0.078   4.357   6.768  0.9918  1.5177 -0.7000
 4374SOL     OW24757   2.480   4.449   3.497  0.1929 -0.0615 -0.0451
 4374SOL    HW124758   2.566   4.419   3.466  0.8370  1.5882  0.1667
 4374SOL    HW224759   2.492   4.452   3.592  0.9813 -1.4766 -0.0991
 4375SOL     OW24760   0.933   3.295  12.979  0.0098 -0.4551  0.5709
 4375SOL    HW124761   1.011   3.291  12.923  0.2565 -0.4777  0.9170
 4375SOL    HW224762   0.892   3.215  12.946 -4.2643  1.7087  0.6779
 4376SOL     OW24763   1.932   1.089   6.114  0.6150 -0.5647 -0.7735
 4376SOL    HW124764   1.960   1.070   6.204  0.5535 -2.1873 -1.0954
 4376SOL    HW224765   1.972   1.173   6.093  0.6540 -0.6730 -1.1325
 4377SOL     OW24766   0.817   0.533   7.826  0.0391 -0.1621 -0.3159
 4377SOL    HW124767   0.723   0.538   7.812  0.0903 -1.0285 -1.0471
 4377SOL    HW224768   0.842   0.495   7.741 -2.5109  0.2282 -1.2217
 4378SOL     OW24769   1.542   1.218   4.599  0.0802 -0.3882  0.5212
 4378SOL    HW124770   1.567   1.180   4.684  2.7931  0.6925  0.1700
 4378SOL    HW224771   1.549   1.312   4.616 -0.2863 -0.1845 -0.4932
 4379SOL     OW24772   1.987   0.145   9.119  0.0556  0.1597 -0.2993
 4379SOL    HW124773   1.991   0.090   9.041  1.2203  2.0324 -1.5583
 4379SOL    HW224774   1.903   0.121   9.158 -0.9307  3.9234 -0.0503
 4380SOL     OW24775   4.109   2.267   3.933 -0.8144  0.3331 -0.2857
 4380SOL    HW124776   4.073   2.182   3.908  0.3080  0.1919 -1.4064
 4380SOL    HW224777   4.195   2.264   3.892 -0.2732 -0.1322  0.8755
 4381SOL     OW24778   3.736   0.637   7.995  0.2635 -0.3188 -0.1347
 4381SOL    HW124779   3.773   0.555   7.964  1.7723  0.9735 -1.6986
 4381SOL    HW224780   3.795   0.703   7.959  2.9145 -2.1624  0.8330
 4382SOL     OW24781   1.965   0.701  14.196 -0.0469  0.2022 -0.3339
 4382SOL    HW124782   1.941   0.651  14.273  0.1237  1.7577  0.7346
 4382SOL    HW224783   2.039   0.755  14.225  1.8116 -1.3474 -2.1069
 4383SOL     OW24784   4.530   3.159   3.771 -0.0327 -0.1676 -0.3328
 4383SOL    HW124785   4.615   3.116   3.769 -1.1216 -2.3618  1.4962
 4383SOL    HW224786   4.480   3.079   3.787 -0.0858  0.0029  0.3596
 4384SOL     OW24787   3.617   0.846   3.585 -0.1693 -0.3987  0.1528
 4384SOL    HW124788   3.662   0.930   3.595 -0.0618 -0.8076  2.9794
 4384SOL    HW224789   3.620   0.836   3.490 -0.3583  1.1046 -0.0167
 4385SOL     OW24790   0.545   3.978   7.667 -0.1440  0.1058 -0.0149
 4385SOL    HW124791   0.567   3.897   7.713 -1.1520  0.1171  0.5039
 4385SOL    HW224792   0.550   4.030   7.747  1.4256 -1.6483  1.0281
 4386SOL     OW24793   0.159   3.303   8.917  0.2872 -0.3094 -0.6086
 4386SOL    HW124794   0.107   3.369   8.872 -0.0158  0.5776  1.0372
 4386SOL    HW224795   0.249   3.324   8.893  0.1588  0.5433 -0.3429
 4387SOL     OW24796   1.284   2.741   3.551 -0.0311 -0.2552 -0.1338
 4387SOL    HW124797   1.261   2.747   3.644  2.1326  1.8963  0.2670
 4387SOL    HW224798   1.239   2.661   3.525  0.4140 -0.0624 -1.4556
 4388SOL     OW24799   0.052   3.026   3.214 -0.1959 -0.4260  0.6272
 4388SOL    HW124800   0.137   2.990   3.240  0.3799 -0.7787 -1.7726
 4388SOL    HW224801   4.738   2.971   3.272 -0.0982 -0.9637  0.2139
 4389SOL     OW24802   2.457   4.261   4.450  0.3787  0.2948  0.2191
 4389SOL    HW124803   2.476   4.193   4.514 -0.1269  0.4877  0.5731
 4389SOL    HW224804   2.371   4.228   4.424  0.6071 -1.6187  1.9003
 4390SOL     OW24805   4.059   1.603  11.001 -0.1221  0.5256 -0.3098
 4390SOL    HW124806   4.054   1.692  10.967 -0.0864  0.9461  0.7834
 4390SOL    HW224807   4.149   1.604  11.034 -0.2938 -0.4900  0.2090
 4391SOL     OW24808   3.956   3.339   2.770  0.0456  0.4777 -0.0090
 4391SOL    HW124809   4.036   3.366   2.724 -0.7982  3.5686  0.3213
 4391SOL    HW224810   3.972   3.394   2.847 -1.7482  0.5008  0.3466
 4392SOL     OW24811   2.028   1.066  10.167  0.2597  0.4352  0.1860
 4392SOL    HW124812   2.112   1.040  10.205  0.8383 -0.4773 -1.7396
 4392SOL    HW224813   2.001   0.985  10.124 -0.1022 -0.2589  1.7141
 4393SOL     OW24814   3.219   3.589  13.010  0.4877 -0.5147  0.1638
 4393SOL    HW124815   3.272   3.664  12.983 -3.2895  2.7933  1.9381
 4393SOL    HW224816   3.157   3.574  12.939  2.6537 -0.0349 -1.8057
 4394SOL     OW24817   3.076   2.885   8.625  0.4355 -0.0768  0.2691
 4394SOL    HW124818   3.005   2.946   8.606  0.4436 -0.8859 -2.3084
 4394SOL    HW224819   3.089   2.891   8.720  1.9369 -2.3803  0.2318
 4395SOL     OW24820   3.346   0.705   2.316  0.0316  0.2090  0.2708
 4395SOL    HW124821   3.263   0.748   2.296 -0.3041 -0.6056 -0.1020
 4395SOL    HW224822   3.364   0.728   2.407  0.8681 -1.0434  0.4230
 4396SOL     OW24823   1.393   0.280   7.801 -0.1207 -0.0687  0.0600
 4396SOL    HW124824   1.452   0.244   7.735  0.4562 -0.0381  0.5578
 4396SOL    HW224825   1.455   0.294   7.872  1.3721  0.2334 -1.3029
 4397SOL     OW24826   4.613   2.741   9.923 -0.5086 -0.8453 -0.6217
 4397SOL    HW124827   4.699   2.737   9.963 -0.6402 -1.2025 -0.3805
 4397SOL    HW224828   4.558   2.702   9.991 -1.4173  1.7137  0.1062
 4398SOL     OW24829   1.663   3.179   5.050 -0.4065  0.1982 -0.2488
 4398SOL    HW124830   1.758   3.189   5.048 -0.3985  0.2196  0.3851
 4398SOL    HW224831   1.641   3.264   5.011  0.2653  0.5240  0.0850
 4399SOL     OW24832   1.510   0.211  15.568  0.2128  0.2020  0.0011
 4399SOL    HW124833   1.558   0.154  15.508  0.6387  0.9477 -0.3563
 4399SOL    HW224834   1.450   0.142  15.595 -1.1665  0.9527 -1.1443
 4400SOL     OW24835   4.075   2.475   4.272 -0.0779 -0.0730  0.0004
 4400SOL    HW124836   3.996   2.523   4.296 -1.4285 -2.1688 -0.2761
 4400SOL    HW224837   4.053   2.388   4.307 -4.0702  0.8362 -0.3714
 4401SOL     OW24838   2.659   4.006   6.717  0.7379  0.1164  0.1547
 4401SOL    HW124839   2.730   3.942   6.709 -0.1484 -0.8678  0.1133
 4401SOL    HW224840   2.620   3.994   6.804  1.8893 -0.8153  0.5513
 4402SOL     OW24841   4.647   4.380   2.082  0.0820  0.4136 -0.0646
 4402SOL    HW124842   4.616   4.305   2.132  1.2237 -0.3263 -0.4647
 4402SOL    HW224843   4.610   4.454   2.131  0.0173  0.1138  0.3396
 4403SOL     OW24844   0.553   3.977   8.141 -0.3336 -0.1249  0.3489
 4403SOL    HW124845   0.576   3.895   8.099  0.1383  1.3899 -2.3618
 4403SOL    HW224846   0.484   4.006   8.081 -1.1818 -0.4979  1.1427
 4404SOL     OW24847   4.118   1.180   8.383 -0.0144  0.3627 -0.3207
 4404SOL    HW124848   4.030   1.210   8.405  0.0369  0.0466  0.3143
 4404SOL    HW224849   4.121   1.094   8.424  1.1944 -0.1542 -1.4790
 4405SOL     OW24850   2.859   0.947   6.808 -0.6869  0.0832 -0.2166
 4405SOL    HW124851   2.841   0.856   6.781 -0.6481  0.3553 -1.1536
 4405SOL    HW224852   2.859   0.993   6.725 -1.3889  1.0019  0.3011
 4406SOL     OW24853   3.352   0.968   4.539  0.0960 -0.3406 -0.6071
 4406SOL    HW124854   3.353   1.063   4.545  1.5964 -0.3553 -0.4572
 4406SOL    HW224855   3.416   0.959   4.468  2.7224 -2.9835  2.0826
 4407SOL     OW24856   1.246   0.141   5.166 -0.5315  0.0842  0.2898
 4407SOL    HW124857   1.283   0.192   5.238 -0.0977 -1.6169  1.2771
 4407SOL    HW224858   1.303   0.064   5.167  0.0468  0.5066 -2.0813
 4408SOL     OW24859   3.923   3.130  16.979  0.2819 -0.4219 -0.3775
 4408SOL    HW124860   3.995   3.188  17.004 -0.1688 -0.5099  1.1165
 4408SOL    HW224861   3.919   3.145  16.885 -2.9131 -1.8096 -0.4731
 4409SOL     OW24862   3.984   4.580   0.955  0.6559  0.2451  0.2616
 4409SOL    HW124863   3.985   4.644   1.026 -1.3778 -1.1122  1.4941
 4409SOL    HW224864   4.048   4.516   0.984  0.2881  1.0080  2.7370
 4410SOL     OW24865   2.785   2.273   1.782  0.5298  0.1500 -0.4573
 4410SOL    HW124866   2.698   2.238   1.803 -0.0311  2.3316  0.8899
 4410SOL    HW224867   2.801   2.226   1.700 -0.4889  1.1726 -1.2453
 4411SOL     OW24868   0.754   0.791   9.919  0.2453  0.5168  0.3841
 4411SOL    HW124869   0.838   0.745   9.920  0.4475  0.9134  1.4938
 4411SOL    HW224870   0.693   0.719   9.901  0.8742 -0.0798  0.6236
 4412SOL     OW24871   0.404   3.704   6.207 -0.0556 -0.1903  0.0331
 4412SOL    HW124872   0.467   3.652   6.256  0.2124  0.4454  0.3534
 4412SOL    HW224873   0.320   3.674   6.242 -0.1414 -0.4640 -0.3956
 4413SOL     OW24874   4.652   1.095  11.193 -0.5683 -0.2891  0.0563
 4413SOL    HW124875   4.720   1.112  11.258 -2.2876 -0.7806  1.9832
 4413SOL    HW224876   4.579   1.074  11.251  1.8648 -1.2551  2.7654
 4414SOL     OW24877   1.930   3.105  17.342  0.1068 -0.2820 -0.7867
 4414SOL    HW124878   1.955   3.019  17.373 -0.2005 -0.3876 -0.8354
 4414SOL    HW224879   2.007   3.160  17.359  0.0787 -0.5952  0.3054
 4415SOL     OW24880   1.308   0.585   5.820  0.6638  0.2117  0.0511
 4415SOL    HW124881   1.231   0.529   5.833  0.5846  0.0949 -0.9279
 4415SOL    HW224882   1.264   0.655   5.771 -0.4105  2.1516  3.7915
 4416SOL     OW24883   2.655   0.869   4.138  0.2204 -0.9634  0.7888
 4416SOL    HW124884   2.613   0.837   4.058 -0.4118  0.5042  0.5396
 4416SOL    HW224885   2.571   0.868   4.186  0.1176  2.7785  0.6280
 4417SOL     OW24886   2.427   4.438  17.101 -0.0725  0.3676 -0.3537
 4417SOL    HW124887   2.405   4.510  17.042  1.9051  0.4284 -1.0374
 4417SOL    HW224888   2.426   4.361  17.043 -1.0784  0.9480 -1.0932
 4418SOL     OW24889   2.716   3.155   4.812  0.3430  0.1243  0.2655
 4418SOL    HW124890   2.638   3.152   4.869  0.1546  0.6175  0.0326
 4418SOL    HW224891   2.744   3.246   4.816 -3.2593  1.4050 -3.0150
 4419SOL     OW24892   3.993   2.779  11.689 -0.0000  0.3001 -0.5760
 4419SOL    HW124893   3.965   2.694  11.724  0.0127  0.2293 -0.7348
 4419SOL    HW224894   3.940   2.837  11.743  0.5547  0.1430  0.1503
 4420SOL     OW24895   1.697   1.252   8.405 -0.0689 -0.4166 -0.6392
 4420SOL    HW124896   1.620   1.293   8.444  1.1102  0.5315  0.7211
 4420SOL    HW224897   1.693   1.163   8.440  0.8502 -0.6919 -1.2262
 4421SOL     OW24898   1.021   0.983   1.691 -0.4046  0.2441  0.3448
 4421SOL    HW124899   0.978   0.966   1.775  2.2772 -0.2098  1.6425
 4421SOL    HW224900   1.086   0.914   1.687 -0.2174  0.5957 -2.5567
 4422SOL     OW24901   4.091   0.351   5.917  0.4600 -0.4483  0.3160
 4422SOL    HW124902   4.067   0.414   5.985  0.3142 -0.2912  0.1217
 4422SOL    HW224903   4.167   0.393   5.877  0.1763 -0.4386 -0.2177
 4423SOL     OW24904   4.654   0.484  14.018 -0.2534  0.4283 -0.8840
 4423SOL    HW124905   4.664   0.415  14.083  0.6631 -0.2999 -1.7894
 4423SOL    HW224906   4.628   0.426  13.946  0.1582 -2.8281  1.6236
 4424SOL     OW24907   0.024   1.437  15.077  0.4650 -0.2725 -0.4918
 4424SOL    HW124908   0.023   1.510  15.015 -0.0472 -0.5870 -0.8518
 4424SOL    HW224909   4.696   1.376  15.046 -0.2159 -0.2434  0.8930
 4425SOL     OW24910   0.188   1.436   2.037 -0.0569  0.0049 -0.3789
 4425SOL    HW124911   0.100   1.469   2.055  0.8049  1.1547  1.6228
 4425SOL    HW224912   0.205   1.373   2.107  1.3978  0.8669  0.0347
 4426SOL     OW24913   3.620   3.236   3.900 -0.1708  0.8444  0.0430
 4426SOL    HW124914   3.556   3.206   3.835 -0.9900  0.6753  0.9144
 4426SOL    HW224915   3.564   3.259   3.975 -1.3098 -1.0137 -0.2484
 4427SOL     OW24916   2.716   2.863   7.646 -0.2797 -0.1785  0.0043
 4427SOL    HW124917   2.678   2.809   7.715  1.3549 -0.2701  0.8204
 4427SOL    HW224918   2.769   2.923   7.699  0.5308 -1.4939  0.6620
 4428SOL     OW24919   0.842   0.238   6.844  0.2449 -0.0179  0.3145
 4428SOL    HW124920   0.777   0.186   6.890  1.4221 -1.2293  0.6015
 4428SOL    HW224921   0.791   0.311   6.810 -0.2957 -1.1894 -1.3534
 4429SOL     OW24922   1.131   1.384  13.173 -0.5596  0.2375  0.7152
 4429SOL    HW124923   1.059   1.428  13.218 -0.1149  0.4481  1.2260
 4429SOL    HW224924   1.188   1.459  13.159  0.4868 -0.7407 -0.3224
 4430SOL     OW24925   3.730   0.958   4.446  0.7638  0.6108  0.5214
 4430SOL    HW124926   3.756   1.050   4.448 -1.6306  1.3365 -1.4127
 4430SOL    HW224927   3.698   0.948   4.536 -1.3496  0.8716 -0.1897
 4431SOL     OW24928   1.311   1.580   5.082  0.6297  0.2285 -0.4838
 4431SOL    HW124929   1.302   1.626   4.999 -0.4865  0.0007 -0.4832
 4431SOL    HW224930   1.233   1.526   5.073  0.8861 -0.0107 -1.2208
 4432SOL     OW24931   4.648   1.602   2.441 -0.5395 -0.2981 -0.1689
 4432SOL    HW124932   4.590   1.570   2.372 -1.4249  1.4438 -0.2323
 4432SOL    HW224933   4.683   1.682   2.402  1.0219 -0.5475  0.7054
 4433SOL     OW24934   4.503   0.612   3.668 -0.0697 -0.3841  0.1320
 4433SOL    HW124935   4.494   0.688   3.724 -1.7940  0.4541 -1.2897
 4433SOL    HW224936   4.473   0.648   3.585 -1.5692  0.9584  1.2694
 4434SOL     OW24937   2.366   1.561   4.690 -0.0869 -0.0430 -0.0703
 4434SOL    HW124938   2.287   1.597   4.651  0.7863  1.7965 -0.1215
 4434SOL    HW224939   2.394   1.634   4.746 -0.0167  0.3700 -0.6512
 4435SOL     OW24940   0.760   4.285   3.527 -0.0020  0.0469  0.3430
 4435SOL    HW124941   0.780   4.354   3.464  2.2066  0.4991  1.5445
 4435SOL    HW224942   0.668   4.272   3.501  0.4455 -1.8633 -0.3119
 4436SOL     OW24943   4.263   0.201  15.156 -0.4510  0.7632  0.3923
 4436SOL    HW124944   4.187   0.257  15.170  0.0330  1.7632 -1.0282
 4436SOL    HW224945   4.233   0.120  15.197  1.6475 -0.3673 -0.2584
 4437SOL     OW24946   1.040   1.909   1.277  0.1917  0.2913 -0.2079
 4437SOL    HW124947   0.972   1.866   1.226  0.2670 -0.3612  0.2358
 4437SOL    HW224948   1.122   1.868   1.249  1.7467  1.4458  2.6261
 4438SOL     OW24949   1.269   1.451   2.013  0.5951  0.2301  0.0556
 4438SOL    HW124950   1.331   1.419   1.948  0.8271  1.9302 -0.5643
 4438SOL    HW224951   1.237   1.533   1.977 -0.6919 -0.7185 -0.9260
 4439SOL     OW24952   3.297   3.563   4.799  0.4962 -0.1186  0.1327
 4439SOL    HW124953   3.316   3.533   4.888 -1.9371 -1.1642  0.3069
 4439SOL    HW224954   3.386   3.586   4.771  1.4402 -2.2575  1.3432
 4440SOL     OW24955   3.623   2.659  15.814  0.2265  0.2764 -0.1966
 4440SOL    HW124956   3.686   2.599  15.854 -2.8234 -1.7805  1.5177
 4440SOL    HW224957   3.580   2.690  15.893  4.2936  0.9800  1.7302
 4441SOL     OW24958   4.350   3.973   8.336 -0.3462 -0.1615 -0.4037
 4441SOL    HW124959   4.340   4.053   8.388  2.0094 -0.2856  0.2422
 4441SOL    HW224960   4.445   3.969   8.323 -0.4018  0.5620 -1.0393
 4442SOL     OW24961   4.125   3.202   5.971 -0.2405 -0.6687 -0.4428
 4442SOL    HW124962   4.149   3.287   5.935 -0.8969 -0.5474 -0.5866
 4442SOL    HW224963   4.173   3.151   5.906 -0.7663 -1.6490 -0.0603
 4443SOL     OW24964   3.765   4.116  15.304  0.0691 -0.0498  0.0096
 4443SOL    HW124965   3.739   4.095  15.214  2.2065 -0.0705 -0.6034
 4443SOL    HW224966   3.840   4.057  15.293 -0.5262 -1.0305  1.3094
 4444SOL     OW24967   0.975   3.491   5.413  0.1364  0.2292 -0.0699
 4444SOL    HW124968   1.034   3.484   5.488  2.4217  2.3904 -1.6980
 4444SOL    HW224969   0.970   3.583   5.389 -0.9358 -0.1851 -1.4176
 4445SOL     OW24970   4.072   0.415   6.733 -0.4624  0.4509 -0.1850
 4445SOL    HW124971   4.088   0.328   6.769  3.6758  1.0380 -0.5969
 4445SOL    HW224972   3.983   0.427   6.764 -0.7741 -1.8099 -0.2061
 4446SOL     OW24973   2.318   1.329   1.754 -0.2972  0.4444  0.1885
 4446SOL    HW124974   2.403   1.362   1.724 -0.3121 -1.5454 -2.0139
 4446SOL    HW224975   2.265   1.331   1.675  0.0666 -1.9100 -0.1275
 4447SOL     OW24976   0.532   3.753   7.860 -0.3145  0.1584 -0.3975
 4447SOL    HW124977   0.472   3.791   7.924 -0.8018 -1.1704 -0.0687
 4447SOL    HW224978   0.538   3.666   7.899 -0.6712 -0.9346 -2.8116
 4448SOL     OW24979   0.311   2.679  17.430  0.1290  0.0799 -0.5881
 4448SOL    HW124980   0.221   2.664  17.457  0.6925 -1.3778  0.4697
 4448SOL    HW224981   0.363   2.624  17.488  1.7119  1.2120 -0.9146
 4449SOL     OW24982   0.538   2.337   3.263 -0.2371  0.3676  0.1461
 4449SOL    HW124983   0.451   2.357   3.230  0.2120 -0.6571 -1.6026
 4449SOL    HW224984   0.534   2.382   3.348 -2.1838  0.8602 -0.2127
 4450SOL     OW24985   3.375   2.678  14.479 -0.3428  0.0458 -0.4269
 4450SOL    HW124986   3.358   2.661  14.572 -1.1233 -0.0855 -0.5912
 4450SOL    HW224987   3.466   2.649  14.484 -0.4904 -0.4056 -0.3407
 4451SOL     OW24988   3.571   2.606   4.608  0.1016  0.2547  0.1048
 4451SOL    HW124989   3.497   2.651   4.648  1.1379  0.9628  1.2099
 4451SOL    HW224990   3.562   2.616   4.513 -0.5366 -1.4227 -0.0069
 4452SOL     OW24991   2.648   0.949   5.824  0.2487  0.4903 -0.1551
 4452SOL    HW124992   2.644   0.949   5.919  1.7578 -2.3243 -0.0909
 4452SOL    HW224993   2.558   0.958   5.791 -0.4393 -0.2878  1.5332
 4453SOL     OW24994   4.337   4.504   7.130 -0.1147  0.2349 -0.2419
 4453SOL    HW124995   4.369   4.416   7.151 -1.6824 -0.0975  0.7538
 4453SOL    HW224996   4.304   4.472   7.045 -0.0980 -1.3947  0.3712
 4454SOL     OW24997   0.498   1.108   5.120 -0.4205  0.5080 -0.7252
 4454SOL    HW124998   0.541   1.168   5.182  1.0864 -2.1169  0.7474
 4454SOL    HW224999   0.493   1.169   5.046 -0.1193  0.6309 -0.6467
 4455SOL     OW25000   4.656   1.323  10.250  0.3533 -0.1228  0.2576
 4455SOL    HW125001   4.622   1.248  10.299 -1.1999  0.2235 -0.3166
 4455SOL    HW225002   4.649   1.295  10.159 -2.0670  0.6631  0.2197
 4456SOL     OW25003   2.212   2.475   5.115 -0.0420 -0.2535 -0.6417
 4456SOL    HW125004   2.297   2.443   5.084  1.0133 -0.5101  2.5071
 4456SOL    HW225005   2.155   2.447   5.044 -0.0728  0.9877 -1.1179
 4457SOL     OW25006   2.260   1.635  14.091 -0.0853  0.1038  0.4692
 4457SOL    HW125007   2.306   1.557  14.059 -0.4346 -0.7812  2.0888
 4457SOL    HW225008   2.248   1.621  14.185 -3.8063  0.6820  0.0876
 4458SOL     OW25009   0.585   0.090   7.499 -0.3388  0.0445 -0.4052
 4458SOL    HW125010   0.491   0.078   7.507 -0.2497  0.3400  1.1203
 4458SOL    HW225011   0.595   0.132   7.585  1.5368 -1.1410 -0.0387
 4459SOL     OW25012   2.047   0.322  16.989  0.3080  0.5623 -0.1137
 4459SOL    HW125013   2.086   0.384  17.051  0.1224  0.5678 -0.0002
 4459SOL    HW225014   2.027   0.257  17.057  2.6648 -0.7858 -0.7284
 4460SOL     OW25015   1.850   3.793   3.663 -0.1482 -0.3223 -0.8875
 4460SOL    HW125016   1.796   3.828   3.593  2.9009 -1.3009 -3.7266
 4460SOL    HW225017   1.832   3.855   3.734  2.6915 -0.6424  0.1485
 4461SOL     OW25018   0.134   0.017   7.807  0.4732 -0.6019 -0.2503
 4461SOL    HW125019   0.062   0.079   7.808  0.3321 -0.7530 -1.2146
 4461SOL    HW225020   0.133   4.728   7.899  1.7046 -0.5142 -0.2042
 4462SOL     OW25021   4.572   1.042   4.623 -0.0603  0.8284  0.4691
 4462SOL    HW125022   4.583   1.040   4.528  0.0950  1.4541  0.4722
 4462SOL    HW225023   4.649   0.989   4.645 -1.4742 -1.1985  0.5244
 4463SOL     OW25024   4.276   4.371   1.964  0.5598  0.0128  0.2550
 4463SOL    HW125025   4.255   4.464   1.971 -0.9417 -0.3328  0.1660
 4463SOL    HW225026   4.253   4.336   2.049  1.4878  0.0828  0.5380
 4464SOL     OW25027   3.866   3.613   7.958 -0.0768  0.2803 -0.3770
 4464SOL    HW125028   3.943   3.607   8.014 -0.3911 -0.9790 -0.0824
 4464SOL    HW225029   3.820   3.692   7.984  0.8761  0.3079  1.2276
 4465SOL     OW25030   3.548   1.283   8.951 -0.3582 -0.2764  0.3156
 4465SOL    HW125031   3.465   1.285   8.903 -0.0616 -0.2279 -0.2019
 4465SOL    HW225032   3.516   1.234   9.027 -1.2418 -0.9897 -0.5044
 4466SOL     OW25033   1.522   0.312  10.726  0.2272  0.1861  0.2170
 4466SOL    HW125034   1.472   0.235  10.750  0.4413  0.2158  0.7567
 4466SOL    HW225035   1.503   0.374  10.797  0.7612 -0.4436  0.9008
 4467SOL     OW25036   0.385   0.976  11.435 -0.3997 -0.0122  0.2928
 4467SOL    HW125037   0.478   0.959  11.453 -0.6901 -1.9962 -0.0589
 4467SOL    HW225038   0.347   1.011  11.515  0.2608 -0.5773  0.8582
 4468SOL     OW25039   4.103   1.676   7.433 -0.4701  0.6131 -0.3867
 4468SOL    HW125040   4.026   1.732   7.442  0.7757  2.3562 -0.5156
 4468SOL    HW225041   4.179   1.735   7.433  1.1299 -1.4495  2.5365
 4469SOL     OW25042   0.847   3.474  12.642 -0.6245  0.0003 -0.1201
 4469SOL    HW125043   0.879   3.540  12.702 -0.5515  0.3207 -0.5097
 4469SOL    HW225044   0.908   3.400  12.649  0.1691  0.8014  1.2083
 4470SOL     OW25045   1.330   3.153   5.675  0.8484  0.3380 -0.1681
 4470SOL    HW125046   1.355   3.245   5.684 -1.6413  0.9712  0.1383
 4470SOL    HW225047   1.397   3.125   5.613 -0.3326  1.8554 -2.1152
 4471SOL     OW25048   3.322   0.119   5.853 -0.4039 -0.6447  0.1019
 4471SOL    HW125049   3.278   0.203   5.843  1.0011  0.0448 -0.2144
 4471SOL    HW225050   3.249   0.059   5.837  1.0841 -1.9322 -1.8230
 4472SOL     OW25051   2.679   3.266   8.455  0.2475  0.0227 -0.7560
 4472SOL    HW125052   2.617   3.216   8.508  1.8109 -0.3386  0.7441
 4472SOL    HW225053   2.636   3.308   8.380 -2.1056  1.4433  1.3851
 4473SOL     OW25054   3.286   2.361   3.245  0.7822  0.5585 -0.1590
 4473SOL    HW125055   3.325   2.448   3.239 -0.7583  1.0235 -3.1966
 4473SOL    HW225056   3.360   2.313   3.208  0.3110 -3.1486  3.7365
 4474SOL     OW25057   1.047   4.480  12.299  0.0924  0.3710 -0.0257
 4474SOL    HW125058   1.006   4.510  12.380 -0.4928 -2.8663  0.8603
 4474SOL    HW225059   1.086   4.563  12.269  2.1594 -0.1782  1.1877
 4475SOL     OW25060   0.595   2.401   8.726 -0.1632  0.1320 -0.1528
 4475SOL    HW125061   0.565   2.457   8.797  0.6330 -2.3250  2.1375
 4475SOL    HW225062   0.538   2.436   8.657 -0.8732  2.6872  1.7723
 4476SOL     OW25063   2.274   2.893   5.997 -0.0024 -0.2400 -0.4037
 4476SOL    HW125064   2.324   2.957   5.945 -0.4513  1.0662  0.7798
 4476SOL    HW225065   2.343   2.870   6.059 -0.9344 -0.1947  0.6594
 4477SOL     OW25066   3.730   2.375   8.012 -0.1826 -0.5293 -0.0031
 4477SOL    HW125067   3.654   2.384   8.071 -0.3653  1.6854 -0.5680
 4477SOL    HW225068   3.703   2.312   7.945 -2.3599  0.8276 -0.4107
 4478SOL     OW25069   0.390   0.429   5.404 -0.6564 -0.3900 -0.1798
 4478SOL    HW125070   0.385   0.449   5.311  2.1731  2.3681  0.2603
 4478SOL    HW225071   0.359   0.339   5.407  0.4206 -0.6959  1.3806
 4479SOL     OW25072   0.790   0.244   4.453 -0.2447  0.1721 -0.1917
 4479SOL    HW125073   0.751   0.179   4.512  2.2401  1.1066  2.4742
 4479SOL    HW225074   0.739   0.223   4.375  0.8842  1.2343 -1.2174
 4480SOL     OW25075   2.621   0.449  11.507 -0.4634  0.3241  0.1273
 4480SOL    HW125076   2.659   0.494  11.583  1.9744 -0.4278 -0.6385
 4480SOL    HW225077   2.659   0.500  11.436 -0.6245 -1.7016 -1.3972
 4481SOL     OW25078   2.936   3.885  16.756  0.0815 -0.1094  0.3196
 4481SOL    HW125079   3.003   3.845  16.811 -0.2271 -0.8759  0.1324
 4481SOL    HW225080   2.884   3.806  16.745  2.0390 -1.1633 -1.3017
 4482SOL     OW25081   3.324   4.469  10.421  0.4172 -0.1855 -0.0324
 4482SOL    HW125082   3.359   4.390  10.462 -0.3359 -0.7122 -0.4094
 4482SOL    HW225083   3.283   4.427  10.345 -0.3754  0.1450  0.2107
 4483SOL     OW25084   4.311   4.278   6.645  0.5790 -0.6238 -0.9499
 4483SOL    HW125085   4.383   4.304   6.702 -2.4676  0.9052  2.2038
 4483SOL    HW225086   4.296   4.360   6.600 -0.6745 -0.3131  0.0210
 4484SOL     OW25087   1.708   4.320  14.069  0.5137  0.0539  0.4373
 4484SOL    HW125088   1.690   4.317  13.975 -0.5507  0.1487  0.6467
 4484SOL    HW225089   1.681   4.229  14.084  1.6314 -0.3934 -0.2222
 4485SOL     OW25090   0.106   2.005   8.281 -0.0330  0.2966 -0.6421
 4485SOL    HW125091   0.104   1.925   8.229  0.0301  1.1887 -2.0247
 4485SOL    HW225092   0.014   2.014   8.307 -0.7454  1.0016 -3.4096
 4486SOL     OW25093   0.331   3.571   8.909  0.0853  0.8545  0.4067
 4486SOL    HW125094   0.346   3.616   8.827 -0.2413 -1.5620 -0.9828
 4486SOL    HW225095   0.236   3.579   8.918  0.0829  0.8838  0.3526
 4487SOL     OW25096   3.758   3.451   4.727 -0.2837  0.4112  0.1749
 4487SOL    HW125097   3.687   3.506   4.758 -0.3388  0.4099  0.0526
 4487SOL    HW225098   3.716   3.365   4.731  0.5121  0.0335  0.4855
 4488SOL     OW25099   1.289   2.318   5.254  0.1643  0.1099  0.4429
 4488SOL    HW125100   1.286   2.270   5.171  2.0754  0.7907 -0.0145
 4488SOL    HW225101   1.206   2.298   5.298  0.1179  0.5071  0.5383
 4489SOL     OW25102   1.336   2.757   8.808  0.1665 -0.3608 -0.0951
 4489SOL    HW125103   1.340   2.718   8.895 -0.7073  1.7982  0.9099
 4489SOL    HW225104   1.285   2.693   8.758 -1.1277  0.0517  0.7158
 4490SOL     OW25105   3.291   2.568   2.949  0.0779  0.5071  0.4464
 4490SOL    HW125106   3.343   2.496   2.914  0.2016 -0.0779  1.8157
 4490SOL    HW225107   3.334   2.580   3.034  1.8912 -1.3388 -0.2066
 4491SOL     OW25108   1.822   0.694   6.114  0.1198 -0.8463  0.0204
 4491SOL    HW125109   1.771   0.648   6.180  0.1912  2.5362  2.4209
 4491SOL    HW225110   1.759   0.761   6.085  1.3778 -0.6058 -2.1213
 4492SOL     OW25111   2.887   4.207   7.752  0.1719 -0.3703  0.1128
 4492SOL    HW125112   2.959   4.143   7.753  0.2472 -0.2928 -0.2981
 4492SOL    HW225113   2.903   4.256   7.832 -2.0304 -0.1131  0.3849
 4493SOL     OW25114   2.778   2.361   4.230 -0.4050 -0.4208 -0.6222
 4493SOL    HW125115   2.840   2.403   4.170 -1.8134 -0.3559 -2.0296
 4493SOL    HW225116   2.792   2.414   4.309 -2.5854  0.0545 -0.5583
 4494SOL     OW25117   1.781   4.465  15.707  0.4017 -0.2400  0.3978
 4494SOL    HW125118   1.821   4.543  15.669 -0.6645  0.7193  1.2464
 4494SOL    HW225119   1.705   4.505  15.749 -0.6810 -1.1388 -0.6807
 4495SOL     OW25120   3.316   3.364  11.104  0.3740 -0.1495 -0.1722
 4495SOL    HW125121   3.365   3.337  11.182 -0.1483 -1.6963 -0.3744
 4495SOL    HW225122   3.336   3.457  11.097 -0.8992  0.1967  1.0015
 4496SOL     OW25123   3.061   0.958   4.440  0.3352  0.3568  0.0302
 4496SOL    HW125124   3.015   0.885   4.398  0.4033  1.2051 -1.5073
 4496SOL    HW225125   3.127   0.996   4.382  1.7592 -0.9198  0.7981
 4497SOL     OW25126   2.901   1.216   1.581  0.1863  0.0028  0.7673
 4497SOL    HW125127   2.989   1.247   1.603  0.2816  1.1376 -1.2472
 4497SOL    HW225128   2.881   1.276   1.510  0.8051 -1.5182 -0.6794
 4498SOL     OW25129   2.304   1.274   8.762  0.0460 -0.2254 -0.5846
 4498SOL    HW125130   2.313   1.367   8.744 -1.8359  0.3870  1.6567
 4498SOL    HW225131   2.288   1.271   8.856  1.6615  0.0821 -0.2983
 4499SOL     OW25132   1.689   4.721   3.155  0.3096  0.2087 -0.2173
 4499SOL    HW125133   1.762   4.697   3.098  0.9922 -1.1787  1.2375
 4499SOL    HW225134   1.705   0.076   3.158 -0.5395  0.3481 -0.0778
 4500SOL     OW25135   0.728   1.825   1.861 -0.2490 -0.0086  0.4427
 4500SOL    HW125136   0.777   1.862   1.935 -0.5283 -1.4511  1.3333
 4500SOL    HW225137   0.798   1.785   1.809  1.7566  1.7076  1.8156
 4501SOL     OW25138   0.773   1.019   3.762  0.0101 -0.2337 -0.2985
 4501SOL    HW125139   0.732   0.937   3.734  1.3041 -0.2418 -2.2055
 4501SOL    HW225140   0.859   0.979   3.778 -0.5816 -1.7865 -0.9537
 4502SOL     OW25141   0.654   1.048   1.876 -0.1618 -0.2532 -0.0773
 4502SOL    HW125142   0.734   1.089   1.843  1.1335 -3.2142 -0.5875
 4502SOL    HW225143   0.656   1.073   1.968 -1.2504 -2.2852  0.5065
 4503SOL     OW25144   1.669   0.974   7.362 -0.1083  0.5270  0.5797
 4503SOL    HW125145   1.678   0.954   7.455  0.0613  1.9741  0.8827
 4503SOL    HW225146   1.578   1.006   7.360 -0.2416  0.0947 -0.0435
 4504SOL     OW25147   1.271   0.581  11.052 -0.2475 -0.2472  0.6217
 4504SOL    HW125148   1.216   0.634  10.993 -1.7157 -0.8890  1.4128
 4504SOL    HW225149   1.258   0.618  11.139  1.3770  0.9011  0.3726
 4505SOL     OW25150   3.869   0.171  14.563  0.7960 -0.3815  0.5312
 4505SOL    HW125151   3.843   0.220  14.642  1.5235 -0.2795  0.7024
 4505SOL    HW225152   3.814   0.092  14.570  0.5869 -0.0600  2.6678
 4506SOL     OW25153   4.309   4.637   6.046 -0.3055 -1.0317  0.0747
 4506SOL    HW125154   4.272   4.615   5.961  0.1176 -0.0329 -0.3700
 4506SOL    HW225155   4.368   4.562   6.055 -0.7499 -1.6287 -1.8684
 4507SOL     OW25156   1.064   0.260   7.530 -0.3412  0.0970 -0.0422
 4507SOL    HW125157   1.105   0.338   7.566  0.9089 -1.2967  1.5748
 4507SOL    HW225158   1.099   0.269   7.442  0.7357  1.8193  0.5706
 4508SOL     OW25159   0.942   2.448   4.685  0.2538  0.7576 -0.0363
 4508SOL    HW125160   0.952   2.536   4.721  1.8619  1.4754 -2.2465
 4508SOL    HW225161   0.962   2.396   4.763  0.4758  0.2992 -0.3962
 4509SOL     OW25162   2.551   4.574   0.949  0.3524 -0.3995 -0.2254
 4509SOL    HW125163   2.544   4.560   0.855  0.4443 -0.6327 -0.1977
 4509SOL    HW225164   2.622   4.513   0.970  1.6368  1.3558  0.6933
 4510SOL     OW25165   1.138   2.648   8.646 -0.1338 -0.0443  0.7372
 4510SOL    HW125166   1.069   2.709   8.674  0.9981  1.5421  0.0713
 4510SOL    HW225167   1.129   2.637   8.551 -0.8641  0.4666  0.7464
 4511SOL     OW25168   0.904   4.229   6.244  0.0039 -0.2258  0.3297
 4511SOL    HW125169   0.917   4.143   6.204 -0.5892 -1.3991  2.6665
 4511SOL    HW225170   0.890   4.203   6.335 -0.9372  0.8464  0.4810
 4512SOL     OW25171   1.647   0.665  16.636  0.0872 -0.6490  0.2621
 4512SOL    HW125172   1.664   0.632  16.548 -0.6877 -2.2804  0.7216
 4512SOL    HW225173   1.574   0.724  16.622  1.8581  0.9875 -2.1198
 4513SOL     OW25174   3.354   4.082   9.607  0.2286  0.3882  0.3683
 4513SOL    HW125175   3.385   4.011   9.551 -0.1938  0.0012  0.6246
 4513SOL    HW225176   3.277   4.103   9.554 -1.0358 -1.7734  1.3612
 4514SOL     OW25177   2.556   3.784  17.648 -0.7199  0.1455  0.1481
 4514SOL    HW125178   2.632   3.798  17.704 -1.6301 -0.4236  1.5132
 4514SOL    HW225179   2.491   3.847  17.680 -0.2989  0.4324  0.4479
 4515SOL     OW25180   0.355   3.204   5.857  0.2346 -0.0065 -0.0138
 4515SOL    HW125181   0.418   3.243   5.796  0.6661  0.2105  0.5786
 4515SOL    HW225182   0.315   3.137   5.800  0.5198 -0.4160  0.2646
 4516SOL     OW25183   2.697   2.816   0.444  0.2360  0.6999 -0.3009
 4516SOL    HW125184   2.733   2.885   0.388  1.3392  0.3489 -0.0137
 4516SOL    HW225185   2.690   2.745   0.381 -1.4857  0.0513  0.6422
 4517SOL     OW25186   0.971   2.871   9.607  0.5526  0.1458  0.7053
 4517SOL    HW125187   1.066   2.860   9.596  0.1609 -1.7459 -0.6008
 4517SOL    HW225188   0.947   2.809   9.539  1.2647  1.1465 -0.4658
 4518SOL     OW25189   1.844   3.369  13.274 -0.5193  0.1639  0.0615
 4518SOL    HW125190   1.850   3.357  13.179  1.5326 -1.3071  0.3870
 4518SOL    HW225191   1.818   3.462  13.280  2.7089  1.1012 -0.6396
 4519SOL     OW25192   1.284   2.983   6.563 -0.0777  0.1171  0.5341
 4519SOL    HW125193   1.221   3.024   6.503  0.4364 -0.1972 -0.2172
 4519SOL    HW225194   1.258   3.025   6.644 -2.0351 -1.9825  0.9938
 4520SOL     OW25195   3.886   1.082  16.510  0.2305 -0.1783  0.6714
 4520SOL    HW125196   3.816   1.082  16.444  2.3464  1.6550 -1.5525
 4520SOL    HW225197   3.855   1.057  16.597 -1.0827  1.2586  0.6152
 4521SOL     OW25198   4.350   3.768   3.365 -0.0784 -0.7453 -0.9082
 4521SOL    HW125199   4.270   3.803   3.326  0.0529 -0.8178 -1.2392
 4521SOL    HW225200   4.318   3.681   3.387  0.5278 -0.3544  1.5658
 4522SOL     OW25201   3.255   4.219   7.664  0.4758  0.2432  0.1762
 4522SOL    HW125202   3.346   4.236   7.689  0.6866 -0.6872  0.0676
 4522SOL    HW225203   3.213   4.275   7.729  0.0139  0.2227 -0.1070
 4523SOL     OW25204   3.354   0.395   2.426 -0.0917  0.1916  0.0532
 4523SOL    HW125205   3.380   0.329   2.490 -2.2645 -0.1769  0.5366
 4523SOL    HW225206   3.264   0.417   2.449 -0.8332  0.0600 -2.6588
 4524SOL     OW25207   1.321   0.589  11.546  0.6227 -0.6190  0.3600
 4524SOL    HW125208   1.399   0.550  11.584  1.6097  0.0671 -0.9730
 4524SOL    HW225209   1.333   0.680  11.571 -0.6305  0.5486 -3.3345
 4525SOL     OW25210   4.264   3.040   4.361 -0.4384  0.2750 -0.1759
 4525SOL    HW125211   4.314   2.966   4.397  0.3102  0.9208  0.1076
 4525SOL    HW225212   4.225   3.070   4.443 -1.3047 -1.4834  0.0435
 4526SOL     OW25213   1.766   0.244  10.607  0.5997  0.4018  0.4294
 4526SOL    HW125214   1.706   0.312  10.638  0.5454  1.2734 -1.6306
 4526SOL    HW225215   1.713   0.165  10.621  1.1820 -0.0276  0.1767
 4527SOL     OW25216   0.946   3.821   8.069  0.0525  0.2883  0.1420
 4527SOL    HW125217   0.866   3.772   8.089 -0.3060  1.2958  1.1587
 4527SOL    HW225218   0.919   3.882   8.001  0.7099 -1.2185 -1.4681
 4528SOL     OW25219   3.989   4.087   9.071  0.1307  0.0838 -0.4844
 4528SOL    HW125220   3.992   3.998   9.035  2.7543  0.2920 -0.7869
 4528SOL    HW225221   3.895   4.108   9.069  0.4724  2.0112  3.7546
 4529SOL     OW25222   0.829   1.586   1.355  0.0837 -0.1152 -0.0842
 4529SOL    HW125223   0.830   1.629   1.270  0.6418  0.4018  0.1950
 4529SOL    HW225224   0.831   1.657   1.418 -0.9326 -0.1354 -0.0183
 4530SOL     OW25225   1.826   1.280   9.916  0.0097 -0.7145 -0.5479
 4530SOL    HW125226   1.919   1.300   9.904  0.3565 -1.6742  0.5650
 4530SOL    HW225227   1.825   1.191   9.950 -0.0305 -0.1780  0.8807
 4531SOL     OW25228   3.952   3.322   5.686  0.1562 -0.0888  0.7608
 4531SOL    HW125229   3.903   3.363   5.757  0.1567  0.2622  0.5616
 4531SOL    HW225230   3.905   3.238   5.692  0.9073 -0.7460 -2.3564
 4532SOL     OW25231   0.143   0.195  11.113  0.1534  0.7236  0.4222
 4532SOL    HW125232   0.122   0.270  11.056  0.3753 -0.5574 -1.3335
 4532SOL    HW225233   0.236   0.215  11.122 -0.6170  3.7820  1.6800
 4533SOL     OW25234   2.806   1.859   2.244  0.1291 -0.1029 -0.0819
 4533SOL    HW125235   2.877   1.922   2.261  1.2996 -0.5883 -3.1582
 4533SOL    HW225236   2.800   1.874   2.149 -1.3489 -1.3751 -0.1741
 4534SOL     OW25237   3.851   0.457   5.593  0.5286 -0.0417  0.0255
 4534SOL    HW125238   3.781   0.504   5.548 -0.7227 -1.0441  0.9597
 4534SOL    HW225239   3.812   0.446   5.679 -1.1644 -0.9725 -0.8656
 4535SOL     OW25240   1.053   4.163   8.094 -0.1960 -0.2895 -0.3912
 4535SOL    HW125241   0.958   4.167   8.106 -0.3192  0.1720 -1.5364
 4535SOL    HW225242   1.060   4.177   7.999  2.1858 -1.9556 -0.4690
 4536SOL     OW25243   4.298   1.809   0.035 -0.1738  0.4053  0.4653
 4536SOL    HW125244   4.357   1.777  17.720  1.4867 -1.1385  2.6231
 4536SOL    HW225245   4.367   1.841   0.093  1.0461 -1.5830  0.1359
 4537SOL     OW25246   4.163   4.466  16.976 -0.0812 -0.0299 -0.2939
 4537SOL    HW125247   4.131   4.556  16.981  1.3094  0.1804  5.4434
 4537SOL    HW225248   4.248   4.473  17.021  0.3570  1.8695 -1.4198
 4538SOL     OW25249   0.434   0.487  12.355  0.1313  0.1493 -0.0322
 4538SOL    HW125250   0.451   0.429  12.280  2.1717  0.6848  0.0223
 4538SOL    HW225251   0.397   0.560  12.306  1.2444  0.7185 -0.0155
 4539SOL     OW25252   4.400   1.288  17.355 -0.0332  0.0681 -0.5117
 4539SOL    HW125253   4.372   1.313  17.443  2.2420 -0.5023  0.3932
 4539SOL    HW225254   4.319   1.301  17.306 -0.7898 -0.5200  0.5708
 4540SOL     OW25255   2.698   2.221   2.058  0.3878 -0.1486  0.5452
 4540SOL    HW125256   2.639   2.149   2.078 -0.8105  0.8610  0.6041
 4540SOL    HW225257   2.754   2.187   1.988 -0.2238  0.9094 -0.4437
 4541SOL     OW25258   4.156   1.903   3.422 -0.4079  0.0601  0.3489
 4541SOL    HW125259   4.155   1.943   3.509  0.3733  2.3167 -0.6732
 4541SOL    HW225260   4.199   1.818   3.434  1.1994  0.6939 -0.9172
 4542SOL     OW25261   0.160   3.686   4.640 -0.1896  0.0768 -0.4298
 4542SOL    HW125262   0.070   3.716   4.649  0.4305  1.4006  1.3105
 4542SOL    HW225263   0.191   3.680   4.730  0.6536  1.3577 -0.6263
 4543SOL     OW25264   4.597   2.171   5.819 -0.0637  0.0654 -0.0359
 4543SOL    HW125265   4.501   2.166   5.817  0.0302 -2.1549  1.0955
 4543SOL    HW225266   4.611   2.260   5.852 -1.1445  0.1752  0.1149
 4544SOL     OW25267   0.818   0.348  12.596 -0.2544 -0.0452  0.0862
 4544SOL    HW125268   0.803   0.254  12.602 -2.8670  0.4173  0.7488
 4544SOL    HW225269   0.728   0.377  12.615  0.1903  1.4718 -0.1448
 4545SOL     OW25270   1.111   1.861   6.634  0.0574 -0.2047 -0.3252
 4545SOL    HW125271   1.108   1.780   6.685  0.4616 -1.2646 -1.9646
 4545SOL    HW225272   1.017   1.877   6.628  0.1645  1.7557  3.5050
 4546SOL     OW25273   3.837   1.239   1.154  0.3395  0.0097 -0.6412
 4546SOL    HW125274   3.847   1.300   1.080 -1.2528  0.2561 -0.6477
 4546SOL    HW225275   3.853   1.300   1.226  0.9539 -1.0814  0.1318
 4547SOL     OW25276   0.522   2.136   2.742  0.2517 -0.3079  0.2911
 4547SOL    HW125277   0.553   2.131   2.832  0.0460 -0.8639  0.3291
 4547SOL    HW225278   0.429   2.120   2.759  0.8957 -1.9299  2.2102
 4548SOL     OW25279   1.199   1.014   3.963 -0.0739  0.3988 -0.4289
 4548SOL    HW125280   1.253   1.013   4.043 -0.9085  0.7336  0.1425
 4548SOL    HW225281   1.124   1.069   3.983 -1.6797 -1.8926 -0.1752
 4549SOL     OW25282   1.457   4.679   7.363 -0.2563  0.8095  0.2037
 4549SOL    HW125283   1.361   4.674   7.361 -0.2620  1.6626 -1.2079
 4549SOL    HW225284   1.480   4.598   7.409 -0.6997 -0.2228 -1.3994
 4550SOL     OW25285   2.192   0.318   4.678 -0.1701 -0.3954  0.0752
 4550SOL    HW125286   2.219   0.378   4.608 -0.2883 -2.3477 -1.6630
 4550SOL    HW225287   2.271   0.264   4.690  0.6354  0.6405 -0.5588
 4551SOL     OW25288   0.319   1.772  13.959 -0.1190 -0.5816  0.0481
 4551SOL    HW125289   0.312   1.790  14.053 -0.5181  1.4582 -0.3678
 4551SOL    HW225290   0.272   1.690  13.943 -0.4191 -0.4531  0.2751
 4552SOL     OW25291   3.534   1.520   1.255  0.0512  0.0006  0.1059
 4552SOL    HW125292   3.602   1.553   1.196 -1.5922 -0.3480 -1.9454
 4552SOL    HW225293   3.591   1.465   1.310 -2.8087 -1.6480  1.4142
 4553SOL     OW25294   4.141   4.086  13.460  0.3236 -0.2789  0.0013
 4553SOL    HW125295   4.166   4.169  13.502 -2.6384  0.2054  0.7785
 4553SOL    HW225296   4.226   4.048  13.439 -0.0396  0.5940 -2.9574
 4554SOL     OW25297   0.327   2.717   7.476 -0.2810  0.4754  0.2272
 4554SOL    HW125298   0.382   2.796   7.472  1.0531 -0.4612  0.0721
 4554SOL    HW225299   0.398   2.653   7.478  0.7219  1.6080  1.5247
 4555SOL     OW25300   3.132   4.707   3.183 -0.1783  0.6861 -0.3850
 4555SOL    HW125301   3.217   0.012   3.178 -0.5414  1.4323 -0.0277
 4555SOL    HW225302   3.068   0.039   3.176  0.0463  1.0138  0.7369
 4556SOL     OW25303   1.325   1.293   2.282 -0.6318  0.0118 -0.4409
 4556SOL    HW125304   1.356   1.204   2.298  0.2010  0.0705 -1.6890
 4556SOL    HW225305   1.381   1.320   2.209  0.7437  1.2802  1.0677
 4557SOL     OW25306   1.058   1.530   3.822  0.2968  0.1141  0.1414
 4557SOL    HW125307   0.962   1.540   3.817  0.3858  1.6798  1.4700
 4557SOL    HW225308   1.073   1.485   3.739  1.2187 -0.6420  0.7174
 4558SOL     OW25309   3.342   3.280   5.593  0.1141  0.3467  0.0306
 4558SOL    HW125310   3.318   3.369   5.617 -1.8035 -0.0048 -0.5551
 4558SOL    HW225311   3.327   3.225   5.670 -0.6745 -0.5312 -0.7546
 4559SOL     OW25312   3.975   4.202   2.027 -0.4460  0.2538 -0.0033
 4559SOL    HW125313   4.005   4.232   1.941 -1.2669 -0.8112 -0.6721
 4559SOL    HW225314   4.013   4.116   2.043  3.6678  1.5661 -2.8338
 4560SOL     OW25315   3.517   1.690   6.303 -0.1049 -0.0495 -0.1129
 4560SOL    HW125316   3.453   1.751   6.266  0.8957  0.9806 -0.1433
 4560SOL    HW225317   3.595   1.742   6.320  0.3023 -0.4841 -0.6737
 4561SOL     OW25318   3.399   4.087   5.563 -0.3097 -0.0455  0.2165
 4561SOL    HW125319   3.408   4.182   5.560 -2.6854  0.1417 -1.1920
 4561SOL    HW225320   3.457   4.076   5.638 -0.4966  0.9992  0.5079
 4562SOL     OW25321   1.901   1.273   0.495 -0.1882  0.0727  0.2448
 4562SOL    HW125322   1.876   1.332   0.424  0.8635 -0.2817 -0.4220
 4562SOL    HW225323   1.877   1.328   0.569  1.3564  0.3932  0.5142
 4563SOL     OW25324   0.925   2.705   4.729  0.2252  0.1708  0.1968
 4563SOL    HW125325   0.927   2.800   4.714 -0.2573  0.2202  0.4612
 4563SOL    HW225326   0.873   2.698   4.809 -0.5015 -2.3237 -0.5011
 4564SOL     OW25327   3.988   2.947  12.458 -0.5796  0.2078 -0.4358
 4564SOL    HW125328   4.007   2.940  12.365 -0.3052  1.6343 -0.4885
 4564SOL    HW225329   3.894   2.932  12.463 -0.1570 -2.2093 -0.1168
 4565SOL     OW25330   1.557   4.554   5.008  0.8241 -0.6778  0.0878
 4565SOL    HW125331   1.641   4.587   5.039  0.1951  0.6459  0.3724
 4565SOL    HW225332   1.556   4.576   4.915 -1.1766 -2.1196 -0.2297
 4566SOL     OW25333   0.172   2.575   6.992 -0.4485 -0.1290  0.2150
 4566SOL    HW125334   0.227   2.530   7.056 -0.6353 -0.0630  0.4243
 4566SOL    HW225335   0.215   2.568   6.907  1.7015  2.9773  1.0403
 4567SOL     OW25336   0.989   1.458  15.614 -0.0557  0.4412  0.4389
 4567SOL    HW125337   0.956   1.522  15.676 -0.5802 -0.4687  1.0879
 4567SOL    HW225338   1.039   1.508  15.549 -1.5815 -0.1686 -1.1812
 4568SOL     OW25339   4.588   2.651   2.633 -0.1542  0.5798  0.4496
 4568SOL    HW125340   4.668   2.690   2.596 -0.0243 -0.8318 -0.7618
 4568SOL    HW225341   4.621   2.645   2.723 -0.9285  1.1647  0.7704
 4569SOL     OW25342   3.459   2.921   4.252  0.5229 -0.3401  0.1062
 4569SOL    HW125343   3.382   2.966   4.218  0.1041  0.3564  2.0255
 4569SOL    HW225344   3.512   2.921   4.172 -0.6017  0.1956 -0.6296
 4570SOL     OW25345   3.633   3.262  14.452 -0.2668 -0.1257  0.0421
 4570SOL    HW125346   3.570   3.325  14.487  0.7234 -0.0436  1.6661
 4570SOL    HW225347   3.697   3.323  14.415  2.1209 -2.4967  0.2950
 4571SOL     OW25348   1.077   3.748   3.668  0.2828 -0.0603  0.8309
 4571SOL    HW125349   1.060   3.658   3.640  0.1160  0.6287 -1.3229
 4571SOL    HW225350   1.011   3.793   3.616  0.0712 -1.1671  0.1306
 4572SOL     OW25351   0.403   0.316   6.123  0.1850 -0.3313  0.0724
 4572SOL    HW125352   0.315   0.285   6.143 -0.3790  0.5814 -0.9704
 4572SOL    HW225353   0.403   0.320   6.027 -0.5190 -0.0623  0.0785
 4573SOL     OW25354   2.249   2.482   4.659  0.0716  0.6582 -0.5085
 4573SOL    HW125355   2.295   2.512   4.580 -1.9405  1.9145 -1.2051
 4573SOL    HW225356   2.324   2.481   4.718  0.2569 -0.8542 -0.7795
 4574SOL     OW25357   2.657   0.688   3.672  0.1138  0.0115 -0.0302
 4574SOL    HW125358   2.704   0.726   3.598  1.9273  1.1509  1.7231
 4574SOL    HW225359   2.656   0.595   3.649 -0.9055 -0.5055  2.1135
 4575SOL     OW25360   3.967   0.714  16.634 -0.5798  0.4075 -0.2198
 4575SOL    HW125361   3.925   0.759  16.708 -0.6211  0.2213 -0.1291
 4575SOL    HW225362   3.896   0.707  16.571 -0.5799  0.1774 -0.1945
 4576SOL     OW25363   3.056   1.075   2.369 -0.3775  0.8543 -0.4891
 4576SOL    HW125364   3.137   1.123   2.355  0.7721 -1.7492 -2.7168
 4576SOL    HW225365   3.005   1.145   2.410  3.8356  1.1718  4.2350
 4577SOL     OW25366   1.897   0.692   7.825 -0.0405 -0.2459 -0.4181
 4577SOL    HW125367   1.821   0.658   7.777 -1.3540  2.3225 -0.1196
 4577SOL    HW225368   1.910   0.624   7.892  0.3480 -0.3983 -0.6477
 4578SOL     OW25369   3.803   3.725   8.704 -0.0252  0.5642 -0.6298
 4578SOL    HW125370   3.739   3.654   8.707  0.6911 -0.1091 -1.1170
 4578SOL    HW225371   3.817   3.727   8.798 -0.2240 -4.6977 -0.4693
 4579SOL     OW25372   3.428   1.900   4.432 -0.6874  0.2552  0.0320
 4579SOL    HW125373   3.391   1.941   4.510 -2.2672  1.6696 -1.4665
 4579SOL    HW225374   3.520   1.915   4.454 -0.3893 -3.0482  1.0608
 4580SOL     OW25375   3.441   3.137   3.726 -0.3123  0.2930  0.1136
 4580SOL    HW125376   3.395   3.158   3.644  2.8752 -0.4418 -1.8758
 4580SOL    HW225377   3.416   3.046   3.740 -0.4531  0.2746 -0.2374
 4581SOL     OW25378   3.641   2.545  17.283  0.0121  0.6629  0.2425
 4581SOL    HW125379   3.632   2.462  17.329  0.2762 -0.4341 -1.7050
 4581SOL    HW225380   3.569   2.542  17.220  1.4799  0.8269 -1.4497
 4582SOL     OW25381   2.767   0.388   2.469  0.5926 -0.2757 -0.3430
 4582SOL    HW125382   2.696   0.449   2.489  1.2436  0.9216 -1.6798
 4582SOL    HW225383   2.740   0.300   2.497 -0.9835  0.8515  1.6830
 4583SOL     OW25384   2.778   2.758   2.028  0.3240 -0.1193 -0.1552
 4583SOL    HW125385   2.799   2.820   1.958  0.4121  0.9088  0.7784
 4583SOL    HW225386   2.812   2.676   1.994  0.2516  0.7287 -2.2615
 4584SOL     OW25387   1.098   0.095  11.106  0.3197  0.5574  0.0436
 4584SOL    HW125388   1.144   0.023  11.063  1.5128  0.2235  1.8623
 4584SOL    HW225389   1.159   0.169  11.119 -0.6145  1.6782 -1.9839
 4585SOL     OW25390   3.470   3.230  17.226  0.1969  0.1758 -0.5209
 4585SOL    HW125391   3.545   3.282  17.199  0.3087 -0.2489 -1.0392
 4585SOL    HW225392   3.509   3.142  17.224 -0.0944  0.0826 -2.3286
 4586SOL     OW25393   2.422   3.901  15.208  0.2787 -0.1483 -0.2259
 4586SOL    HW125394   2.441   3.855  15.290 -0.9573  0.4823  0.4078
 4586SOL    HW225395   2.332   3.869  15.214  0.9296 -2.1059 -0.7960
 4587SOL     OW25396   3.579   1.437   3.754  0.5358 -0.3947 -0.4544
 4587SOL    HW125397   3.582   1.529   3.781  0.2412  0.1739 -2.3062
 4587SOL    HW225398   3.656   1.409   3.802  1.2249  3.5615  0.6753
 4588SOL     OW25399   4.418   3.355  13.691  0.1675  0.0708  0.2248
 4588SOL    HW125400   4.490   3.375  13.630  3.0696  0.3489  3.7099
 4588SOL    HW225401   4.380   3.275  13.655 -0.9027  0.6340  0.0926
 4589SOL     OW25402   3.204   1.511   2.544  0.0562 -0.0511 -0.4860
 4589SOL    HW125403   3.274   1.499   2.607 -0.7616 -2.3255 -0.0000
 4589SOL    HW225404   3.136   1.534   2.607  0.8680 -2.8882  1.4354
 4590SOL     OW25405   4.332   4.182   5.874  0.0404  0.7085  0.0018
 4590SOL    HW125406   4.334   4.087   5.885  0.2830  0.4457 -2.2735
 4590SOL    HW225407   4.343   4.199   5.967  2.3203 -0.6742 -0.0088
 4591SOL     OW25408   1.638   0.942   8.907  0.5219  0.4719  0.8605
 4591SOL    HW125409   1.722   0.909   8.878  0.8062  0.0639  2.1576
 4591SOL    HW225410   1.649   1.036   8.890 -0.6721  0.2856 -0.9967
 4592SOL     OW25411   2.453   2.939   9.184  0.5078 -0.0699 -0.6499
 4592SOL    HW125412   2.548   2.927   9.186  0.3571 -1.1590  0.1016
 4592SOL    HW225413   2.423   2.888   9.109  1.2156 -0.8255 -0.4148
 4593SOL     OW25414   3.157   0.826   5.199 -0.1407 -0.4336  0.6568
 4593SOL    HW125415   3.247   0.795   5.193  0.8032  2.4480  0.0868
 4593SOL    HW225416   3.122   0.786   5.279  0.3930 -0.7083  0.7560
 4594SOL     OW25417   3.860   3.226   1.992 -0.1341 -0.1829  0.4986
 4594SOL    HW125418   3.953   3.221   1.970 -1.1439 -0.3005 -3.6579
 4594SOL    HW225419   3.843   3.137   1.962  2.1977 -0.6562  0.5983
 4595SOL     OW25420   4.263   0.196  16.850  0.5148  0.1669 -0.4995
 4595SOL    HW125421   4.304   0.179  16.765  2.0609 -1.5010  0.5709
 4595SOL    HW225422   4.261   0.111  16.895  1.0891 -0.1084 -0.9943
 4596SOL     OW25423   3.759   1.300  12.064 -0.3852  0.0207 -0.7830
 4596SOL    HW125424   3.802   1.258  11.989 -3.1998 -2.6023 -0.9656
 4596SOL    HW225425   3.673   1.259  12.070  0.3719 -1.3196  0.7782
 4597SOL     OW25426   2.736   0.834   0.579  0.1207 -0.1623  0.6467
 4597SOL    HW125427   2.799   0.778   0.534 -0.1397 -0.4755  0.6776
 4597SOL    HW225428   2.671   0.765   0.593 -1.9410  2.0011  1.7814
 4598SOL     OW25429   0.527   3.239   5.655 -0.0445 -0.5791 -0.1822
 4598SOL    HW125430   0.616   3.249   5.622 -0.4171  2.6567 -0.2815
 4598SOL    HW225431   0.489   3.314   5.607  1.0119 -0.9457 -1.5663
 4599SOL     OW25432   2.191   3.357   3.984  0.4024  0.3078 -0.0373
 4599SOL    HW125433   2.260   3.324   3.927 -0.0878  2.0923 -1.6846
 4599SOL    HW225434   2.239   3.435   4.010  1.9735 -0.9813  0.8675
 4600SOL     OW25435   1.021   0.064  16.322 -0.6971  0.6016  0.4678
 4600SOL    HW125436   1.056   0.011  16.251 -0.7090  1.3248 -0.0871
 4600SOL    HW225437   1.033   0.152  16.286  0.8531 -0.0371 -0.5502
 4601SOL     OW25438   3.662   3.873   3.297 -0.2838  0.4961  0.1776
 4601SOL    HW125439   3.667   3.962   3.262  2.7916 -0.2354 -1.2896
 4601SOL    HW225440   3.712   3.886   3.377  0.6594 -0.6838 -0.2081
 4602SOL     OW25441   2.108   0.537  17.132 -0.1953 -0.1959 -0.0464
 4602SOL    HW125442   2.043   0.606  17.140  1.8742  1.4468  2.7632
 4602SOL    HW225443   2.191   0.583  17.118 -1.2866  1.5125 -0.8193
 4603SOL     OW25444   2.137   4.025   0.285 -0.3306  0.2465  0.2571
 4603SOL    HW125445   2.108   3.933   0.288 -2.3569  0.8506 -0.4532
 4603SOL    HW225446   2.122   4.060   0.372  1.0737 -0.0440  0.6137
 4604SOL     OW25447   1.863   2.855   4.130  0.7347  0.4428 -0.3256
 4604SOL    HW125448   1.890   2.837   4.220 -1.9245  0.6711  0.5120
 4604SOL    HW225449   1.877   2.769   4.088 -0.9361 -0.7457  1.5593
 4605SOL     OW25450   2.158   1.236   4.286 -0.0783 -0.3690 -0.2849
 4605SOL    HW125451   2.172   1.145   4.314  2.7105  0.3658  0.6504
 4605SOL    HW225452   2.082   1.220   4.229 -1.1747 -1.1355  1.3652
 4606SOL     OW25453   0.583   3.013   3.236  0.0315  0.8023  0.2338
 4606SOL    HW125454   0.581   3.058   3.151  0.4311 -0.6212 -0.5356
 4606SOL    HW225455   0.623   2.933   3.203  1.8227  1.4822  0.7379
 4607SOL     OW25456   2.110   3.680   0.885  0.1243  0.4024  0.0784
 4607SOL    HW125457   2.166   3.673   0.963 -1.2507  0.7446  1.1133
 4607SOL    HW225458   2.170   3.729   0.830  0.6431  0.5361  0.7587
 4608SOL     OW25459   4.720   2.037  11.934  0.3307  0.8164  0.1840
 4608SOL    HW125460   0.019   2.040  11.846  1.2074 -1.4068  0.4871
 4608SOL    HW225461   4.655   2.107  11.921 -0.7791 -0.7237 -2.5493
 4609SOL     OW25462   4.509   2.355  10.980 -0.6230 -0.0571 -0.1383
 4609SOL    HW125463   4.519   2.437  10.933 -0.3739  0.3876  0.6950
 4609SOL    HW225464   4.500   2.384  11.071  1.3729 -2.8415  0.9372
 4610SOL     OW25465   2.910   1.822   3.249  0.1660  0.0530 -0.2442
 4610SOL    HW125466   2.831   1.857   3.289  0.3936 -1.0210  1.1563
 4610SOL    HW225467   2.933   1.757   3.315 -2.6404  0.1381  0.8201
 4611SOL     OW25468   0.578   0.580  14.191  0.3660 -0.2954 -0.4911
 4611SOL    HW125469   0.494   0.598  14.148 -0.7265  0.5370  1.9479
 4611SOL    HW225470   0.561   0.489  14.216 -2.2500 -0.0750 -1.4662
 4612SOL     OW25471   3.308   3.056   2.875  0.2422 -0.4155 -0.1313
 4612SOL    HW125472   3.232   3.014   2.836  0.0285  1.4827 -1.7716
 4612SOL    HW225473   3.377   3.020   2.820 -0.7964  1.7804 -2.9106
 4613SOL     OW25474   4.231   1.579  16.036 -0.0168  0.2759  0.1512
 4613SOL    HW125475   4.282   1.518  16.088  1.5348  0.3128 -1.3583
 4613SOL    HW225476   4.279   1.584  15.954 -0.9496  0.8445 -0.3705
 4614SOL     OW25477   2.680   1.499   8.913 -0.0500  0.5655  0.0133
 4614SOL    HW125478   2.749   1.497   8.978  0.0089 -3.1880 -0.1771
 4614SOL    HW225479   2.655   1.591   8.905 -1.7511  0.2683  1.9946
 4615SOL     OW25480   1.126   0.652   2.263  0.5212 -0.1651  0.3093
 4615SOL    HW125481   1.042   0.647   2.309  0.4106  2.0991  0.3554
 4615SOL    HW225482   1.124   0.740   2.227  5.5547  0.1265  0.7250
 4616SOL     OW25483   0.594   1.163   5.619  0.0230 -0.6866  0.0802
 4616SOL    HW125484   0.561   1.093   5.675  0.5037 -1.1072 -0.1649
 4616SOL    HW225485   0.522   1.227   5.624 -1.4594 -2.5006  2.0707
 4617SOL     OW25486   3.333   1.136   2.515 -0.7192  0.5415  0.0206
 4617SOL    HW125487   3.301   1.202   2.452 -1.1203 -1.1125 -1.5210
 4617SOL    HW225488   3.422   1.161   2.538  0.6673 -1.3416 -3.2622
 4618SOL     OW25489   3.826   3.549  12.035 -0.0177  0.1129 -0.3184
 4618SOL    HW125490   3.834   3.516  12.125  1.2575  1.0104 -0.0959
 4618SOL    HW225491   3.913   3.531  11.999  0.1510  0.5861 -0.1547
 4619SOL     OW25492   1.696   1.918   0.742  0.0136  0.2486  0.6303
 4619SOL    HW125493   1.752   1.851   0.703 -0.4266 -0.4854  1.2583
 4619SOL    HW225494   1.672   1.970   0.666 -0.1070 -1.7122 -0.6667
 4620SOL     OW25495   3.437   3.288   4.221  0.2566  0.7452  0.2942
 4620SOL    HW125496   3.370   3.291   4.289 -2.7337 -1.7291 -2.5367
 4620SOL    HW225497   3.417   3.361   4.162 -0.5608  1.1379  1.0477
 4621SOL     OW25498   0.323   3.989   5.941 -0.2401 -0.2129 -0.0223
 4621SOL    HW125499   0.372   3.938   6.004  1.0264 -1.5132 -2.0542
 4621SOL    HW225500   0.380   4.066   5.944 -1.0324  0.3708  0.0897
 4622SOL     OW25501   2.578   2.726   4.272  0.0775 -0.0638 -0.5554
 4622SOL    HW125502   2.557   2.691   4.186  0.4303 -0.0913 -0.6306
 4622SOL    HW225503   2.600   2.816   4.250 -0.9574  0.5850  1.0818
 4623SOL     OW25504   0.203   3.741   9.854 -0.1705  0.1444  0.6289
 4623SOL    HW125505   0.236   3.696   9.776 -1.2447  0.0754  0.2175
 4623SOL    HW225506   0.209   3.830   9.820 -0.2410  0.3322  1.1133
 4624SOL     OW25507   0.795   0.252   2.597  0.2305  0.1985  0.1507
 4624SOL    HW125508   0.792   0.320   2.529  1.7397  1.1059  1.0130
 4624SOL    HW225509   0.795   0.299   2.680  2.5886  0.7892 -0.1831
 4625SOL     OW25510   1.764   2.747   8.345 -0.3197  0.1401 -0.1359
 4625SOL    HW125511   1.852   2.780   8.331  0.3847 -1.5389  0.2788
 4625SOL    HW225512   1.773   2.710   8.433 -1.6875 -0.2345 -0.1458
 4626SOL     OW25513   0.723   4.562   8.697 -0.3163 -0.2210  0.3582
 4626SOL    HW125514   0.722   4.503   8.622 -0.8325 -0.0106  0.1998
 4626SOL    HW225515   0.783   4.523   8.761  1.3786 -2.0676 -2.3994
 4627SOL     OW25516   4.353   3.698   4.602  0.1429  0.5083 -0.1444
 4627SOL    HW125517   4.310   3.638   4.541  1.5701  0.0968 -0.7668
 4627SOL    HW225518   4.320   3.780   4.567  0.1215 -0.4714 -2.4103
 4628SOL     OW25519   0.228   4.381   5.741  0.3547 -0.3163  0.1095
 4628SOL    HW125520   0.292   4.428   5.794 -0.1679  1.7220 -1.0902
 4628SOL    HW225521   0.181   4.454   5.702 -0.7333 -0.9208  0.2778
 4629SOL     OW25522   4.381   0.816  17.220 -0.1289 -0.0805 -0.0005
 4629SOL    HW125523   4.359   0.829  17.313  3.0326  0.1557  0.7142
 4629SOL    HW225524   4.314   0.753  17.193  1.4566 -1.2913 -1.0856
 4630SOL     OW25525   0.193   2.685   4.215 -0.4210 -0.2240 -0.1806
 4630SOL    HW125526   0.191   2.694   4.310  0.4060  1.7791 -0.3696
 4630SOL    HW225527   0.211   2.591   4.212 -0.5446 -0.2624  0.2600
 4631SOL     OW25528   2.189   2.050   5.189 -0.0095 -0.3975 -0.7594
 4631SOL    HW125529   2.249   2.122   5.209 -2.2345  1.3790 -0.4417
 4631SOL    HW225530   2.112   2.103   5.167  0.9419  1.4172  0.2566
 4632SOL     OW25531   3.588   0.231   8.400 -0.3237  0.6962  0.5812
 4632SOL    HW125532   3.511   0.267   8.356 -0.0409  0.3288 -0.2081
 4632SOL    HW225533   3.568   0.236   8.494 -2.8872 -3.4907  0.2178
 4633SOL     OW25534   4.024   3.682   6.378 -0.3686  0.0170  0.0083
 4633SOL    HW125535   4.067   3.764   6.405  2.0247 -1.8138  1.6919
 4633SOL    HW225536   4.090   3.642   6.322  1.6244 -0.2241  2.5566
 4634SOL     OW25537   0.789   3.299   2.507 -0.3082  0.3112 -0.2757
 4634SOL    HW125538   0.807   3.208   2.485  0.2081  0.7411 -1.7008
 4634SOL    HW225539   0.837   3.333   2.431 -0.0068 -1.3021 -0.8109
 4635SOL     OW25540   3.508   1.883   1.663  0.0013  0.2221 -0.4580
 4635SOL    HW125541   3.584   1.867   1.720 -0.2995  1.9382  0.4054
 4635SOL    HW225542   3.517   1.819   1.592 -0.4164  0.1053 -0.4032
 4636SOL     OW25543   2.886   3.938   2.050  0.0305 -0.7142 -0.4559
 4636SOL    HW125544   2.850   3.951   2.138  0.4716  2.8326 -0.8247
 4636SOL    HW225545   2.807   3.953   1.999  0.8353 -0.7800 -1.7206
 4637SOL     OW25546   3.376   1.909   1.316  0.1411 -0.4654 -0.4016
 4637SOL    HW125547   3.323   1.853   1.260  0.2218  0.5669 -1.5065
 4637SOL    HW225548   3.432   1.844   1.359  0.4798 -0.7804 -1.3218
 4638SOL     OW25549   3.206   1.850   7.700 -0.4682  0.2246  0.2175
 4638SOL    HW125550   3.143   1.857   7.628  2.2812  1.1310 -2.1182
 4638SOL    HW225551   3.164   1.894   7.773  0.3134 -1.4282  1.6632
 4639SOL     OW25552   0.468   4.543   2.046 -0.3747 -0.8955  0.4747
 4639SOL    HW125553   0.554   4.514   2.075 -0.4938 -0.6832  1.0372
 4639SOL    HW225554   0.451   4.631   2.079  0.6674 -0.9166  1.0739
 4640SOL     OW25555   0.102   2.833  14.990  0.8528 -0.4136  0.0966
 4640SOL    HW125556   0.125   2.848  15.082  1.3031 -3.4180  0.4738
 4640SOL    HW225557   0.161   2.897  14.949  1.8515 -1.1206  0.4105
 4641SOL     OW25558   0.058   3.029   8.954  0.8071  0.6933  0.8558
 4641SOL    HW125559   0.094   3.115   8.973  1.8609  0.5393 -0.4137
 4641SOL    HW225560   0.096   2.973   9.022 -1.7977 -0.2286  1.5589
 4642SOL     OW25561   1.121   4.040  14.861  0.0046 -0.0252 -0.5890
 4642SOL    HW125562   1.139   4.134  14.858 -1.0373  0.1664 -0.6218
 4642SOL    HW225563   1.198   4.015  14.809  0.9816  1.3558  0.2119
 4643SOL     OW25564   4.365   4.186  17.119  0.1921  0.1893 -0.1121
 4643SOL    HW125565   4.307   4.144  17.182  0.0726  0.9995  0.3237
 4643SOL    HW225566   4.341   4.153  17.032  1.8555  0.0966 -0.5431
 4644SOL     OW25567   4.187   1.259   7.215  0.4521  0.3269  0.2086
 4644SOL    HW125568   4.206   1.241   7.306 -0.4239  0.1032  0.3395
 4644SOL    HW225569   4.267   1.231   7.171  0.3329  1.5581 -0.8086
 4645SOL     OW25570   3.168   2.184  14.115 -0.3504 -0.3095 -0.1793
 4645SOL    HW125571   3.142   2.250  14.179  1.2032 -1.4330  1.6119
 4645SOL    HW225572   3.212   2.237  14.049 -0.6469  0.4612  0.2501
 4646SOL     OW25573   1.999   2.483   5.947 -0.0598 -0.0409  0.0774
 4646SOL    HW125574   2.056   2.550   5.909  0.6701 -1.6564 -1.6991
 4646SOL    HW225575   2.066   2.417   5.966  0.4874  0.3440 -0.5262
 4647SOL     OW25576   3.657   1.807   8.739  0.0734  0.2322 -0.5448
 4647SOL    HW125577   3.621   1.889   8.704 -0.8365  1.9052  4.2441
 4647SOL    HW225578   3.641   1.737   8.675 -2.2272  0.0118  0.2772
 4648SOL     OW25579   0.461   0.789   2.571 -0.0306  0.1855 -0.6682
 4648SOL    HW125580   0.371   0.758   2.563  0.1945 -0.5859 -0.1812
 4648SOL    HW225581   0.468   0.855   2.502 -1.6646 -2.0299 -2.9543
 4649SOL     OW25582   4.004   3.608   7.722 -0.1362 -0.9012 -0.4181
 4649SOL    HW125583   4.035   3.697   7.707 -1.9211 -0.4777 -1.5447
 4649SOL    HW225584   3.967   3.614   7.810  1.8419  1.1868  0.2741
 4650SOL     OW25585   1.802   2.188  17.501 -0.1804 -0.2286 -0.2016
 4650SOL    HW125586   1.867   2.126  17.470  2.1838  2.1430  0.0798
 4650SOL    HW225587   1.790   2.160  17.592  0.9441 -1.0965 -0.3321
 4651SOL     OW25588   3.086   3.849   6.783  0.2656  0.2691  0.2108
 4651SOL    HW125589   3.026   3.924   6.782  0.1624  0.1980  0.8617
 4651SOL    HW225590   3.162   3.886   6.739  0.6790 -0.9600 -0.0757
 4652SOL     OW25591   2.933   3.690   6.116  0.1767  0.1059  0.4267
 4652SOL    HW125592   3.021   3.727   6.117  0.5169 -0.7563  3.1635
 4652SOL    HW225593   2.926   3.669   6.023  1.4269 -2.4226  0.8999
 4653SOL     OW25594   0.484   4.029  15.891 -0.3903 -0.4719  0.2941
 4653SOL    HW125595   0.415   4.071  15.944 -0.3341  1.6988 -1.3546
 4653SOL    HW225596   0.458   4.041  15.800 -0.1784 -2.1926  0.0063
 4654SOL     OW25597   2.142   0.358   5.683 -0.2685 -0.2928 -0.4187
 4654SOL    HW125598   2.057   0.343   5.725  0.5313 -1.8137  0.6866
 4654SOL    HW225599   2.144   0.451   5.661 -0.3601 -0.2219 -0.1353
 4655SOL     OW25600   1.857   3.052   3.264  0.6769 -0.1581  0.0409
 4655SOL    HW125601   1.907   3.060   3.183  0.1438  1.9171 -0.0780
 4655SOL    HW225602   1.877   3.133   3.310 -2.4565  0.1675  0.8113
 4656SOL     OW25603   0.664   4.614   0.640 -0.4693  0.4374 -0.2762
 4656SOL    HW125604   0.572   4.597   0.663 -0.3773 -0.3098 -0.4336
 4656SOL    HW225605   0.709   4.615   0.724  2.3597  2.3087 -1.8161
 4657SOL     OW25606   1.611   3.589   9.137  0.5026 -0.9415  0.1795
 4657SOL    HW125607   1.576   3.533   9.206 -0.2254 -1.0083 -0.2438
 4657SOL    HW225608   1.587   3.527   9.069  0.4219 -0.7823  0.0640
 4658SOL     OW25609   3.987   1.613   3.213 -0.3899  0.7024  0.0590
 4658SOL    HW125610   4.014   1.583   3.126 -1.3115 -0.3242  0.1323
 4658SOL    HW225611   3.983   1.708   3.210 -3.1350  0.5801  0.1493
 4659SOL     OW25612   0.304   4.715  13.573 -0.3351 -0.5082 -0.3001
 4659SOL    HW125613   0.389   4.672  13.579  0.0573  0.4618  1.0460
 4659SOL    HW225614   0.313   0.043  13.640  0.2595  0.3237 -1.2094
 4660SOL     OW25615   4.426   2.816   3.745 -0.1107  0.2141  0.6394
 4660SOL    HW125616   4.364   2.840   3.676 -0.9367  0.4090  1.4414
 4660SOL    HW225617   4.406   2.879   3.814  0.1443 -0.8442  1.6837
 4661SOL     OW25618   1.153   1.226  10.360  0.2319  0.0538  0.0995
 4661SOL    HW125619   1.157   1.284  10.284 -1.1530 -1.1585 -0.8916
 4661SOL    HW225620   1.229   1.171  10.346 -0.1830 -1.2301  2.7997
 4662SOL     OW25621   4.445   1.107   2.108  0.6388  0.0666 -0.3051
 4662SOL    HW125622   4.359   1.078   2.137  0.9745 -1.8292 -1.2181
 4662SOL    HW225623   4.487   1.119   2.193 -0.9814 -2.2036  0.8092
 4663SOL     OW25624   1.625   2.597  12.004  0.4194  0.0359  0.1124
 4663SOL    HW125625   1.579   2.656  12.063 -1.3594 -1.4821  0.2341
 4663SOL    HW225626   1.563   2.525  11.998 -1.0772  1.2328  1.3738
 4664SOL     OW25627   2.755   0.539   4.859  0.2066  0.3493 -0.2204
 4664SOL    HW125628   2.773   0.610   4.922  1.8814 -1.1233  0.9529
 4664SOL    HW225629   2.722   0.582   4.781  1.4598  0.9082 -0.4448
 4665SOL     OW25630   0.188   0.833   3.132 -0.0711  0.3844 -0.2625
 4665SOL    HW125631   0.154   0.754   3.175 -0.4473  1.3607  1.2226
 4665SOL    HW225632   0.140   0.902   3.176  2.7639  0.9405  1.9743
 4666SOL     OW25633   3.919   3.706  11.032 -0.2669 -0.0257 -0.2568
 4666SOL    HW125634   3.895   3.620  11.066 -1.0114  0.1161 -0.4375
 4666SOL    HW225635   3.997   3.735  11.080  0.4804  1.0939 -2.1609
 4667SOL     OW25636   3.884   2.754   2.754 -0.3568 -0.1424  0.4437
 4667SOL    HW125637   3.822   2.826   2.767  1.4785  1.2037  1.6723
 4667SOL    HW225638   3.863   2.702   2.677  3.0624 -1.7715  0.6132
 4668SOL     OW25639   2.873   4.659   7.790  0.3500 -0.6703 -0.1377
 4668SOL    HW125640   2.800   4.678   7.849  1.2159  2.7540 -0.1950
 4668SOL    HW225641   2.945   4.656   7.852  0.7124  0.2149 -0.5217
 4669SOL     OW25642   0.459   0.131  11.476 -0.3349 -0.4268  0.0192
 4669SOL    HW125643   0.393   0.112  11.543  1.3854  2.0993  2.4019
 4669SOL    HW225644   0.526   0.063  11.478  0.8657  0.8411  2.6695
 4670SOL     OW25645   3.566   0.876   5.467 -0.1320  0.1620 -0.9858
 4670SOL    HW125646   3.547   0.923   5.386 -1.2536  1.3850 -0.0157
 4670SOL    HW225647   3.485   0.870   5.517 -0.3570  2.6535 -1.0533
 4671SOL     OW25648   3.750   0.409   1.899 -0.4552  0.1150  0.3568
 4671SOL    HW125649   3.840   0.387   1.920 -0.7093  0.7219  2.1012
 4671SOL    HW225650   3.741   0.377   1.809 -0.6346 -1.1588  0.8403
 4672SOL     OW25651   2.255   2.149  17.460  0.2818  0.9143  0.3186
 4672SOL    HW125652   2.270   2.180  17.550  2.5952  0.5774  0.0439
 4672SOL    HW225653   2.160   2.159  17.455  0.4188  0.1280 -3.4269
 4673SOL     OW25654   4.498   4.087   3.156  0.0656  0.8403 -0.5970
 4673SOL    HW125655   4.426   4.053   3.209 -0.7649  1.3233 -1.4175
 4673SOL    HW225656   4.503   4.023   3.085  0.9173  1.0189 -0.6931
 4674SOL     OW25657   0.843   1.704   6.009 -0.1209  0.2212 -0.0008
 4674SOL    HW125658   0.856   1.798   6.026  1.3706 -0.1449  0.9034
 4674SOL    HW225659   0.907   1.661   6.066  0.6763  0.0643 -1.0130
 4675SOL     OW25660   1.605   1.802   2.062  0.0663 -0.1024  0.1745
 4675SOL    HW125661   1.516   1.780   2.037  0.3773  0.5710 -1.4816
 4675SOL    HW225662   1.579   1.809   2.154 -0.6075 -1.3546  0.0769
 4676SOL     OW25663   2.401   0.716   1.643 -0.1045 -0.4506  0.0880
 4676SOL    HW125664   2.435   0.750   1.726  2.0286 -3.3708  0.3814
 4676SOL    HW225665   2.439   0.630   1.627 -0.9092 -1.1603  1.9981
 4677SOL     OW25666   0.880   4.082   4.448  0.4876  0.4124 -0.1998
 4677SOL    HW125667   0.821   4.125   4.386  4.4172 -1.0958 -4.9915
 4677SOL    HW225668   0.964   4.087   4.402  1.0944  0.1740  0.8775
 4678SOL     OW25669   4.661   4.549   6.687 -0.0797  0.0269  0.0711
 4678SOL    HW125670   4.620   4.634   6.699 -0.2267 -0.5193  3.3577
 4678SOL    HW225671   4.732   4.558   6.750 -1.0134  1.0515  0.9520
 4679SOL     OW25672   4.002   0.907   5.818  0.4743  0.4169  0.1945
 4679SOL    HW125673   3.936   0.876   5.756  1.5542 -0.1613 -0.6817
 4679SOL    HW225674   4.007   1.000   5.795 -0.9237  0.3596 -0.3068
 4680SOL     OW25675   1.329   3.134  13.853 -0.3655 -0.1675 -0.1833
 4680SOL    HW125676   1.308   3.160  13.943 -1.4093 -1.5368 -0.0439
 4680SOL    HW225677   1.408   3.083  13.869 -0.3092 -0.1502 -0.3998
 4681SOL     OW25678   3.767   2.557  14.002  0.0635 -0.4033  0.1637
 4681SOL    HW125679   3.818   2.551  13.921  1.8268 -0.2608  1.2543
 4681SOL    HW225680   3.712   2.480  14.000  0.0696 -0.4167  0.4569
 4682SOL     OW25681   0.120   1.446   7.922 -0.2261 -0.4202  0.3404
 4682SOL    HW125682   0.087   1.379   7.982 -1.5960 -0.9299 -1.0047
 4682SOL    HW225683   0.065   1.521   7.945  0.2622  0.2053 -0.5407
 4683SOL     OW25684   1.776   2.638   8.586 -0.6922 -0.1274  0.7093
 4683SOL    HW125685   1.775   2.560   8.641 -1.8130  0.1546  1.0992
 4683SOL    HW225686   1.703   2.688   8.623 -1.7241 -0.1120 -1.3239
 4684SOL     OW25687   1.612   1.910   5.946 -0.2305  0.4092 -0.3657
 4684SOL    HW125688   1.532   1.864   5.918 -0.7310  1.8337 -1.3038
 4684SOL    HW225689   1.583   1.999   5.966 -3.2352 -0.7435  0.4052
 4685SOL     OW25690   4.689   2.092   5.327  0.2864  0.0929  0.7235
 4685SOL    HW125691   4.700   2.137   5.243  1.1507  1.7191  1.7120
 4685SOL    HW225692   4.675   2.001   5.302 -2.3259  0.9986 -1.1875
 4686SOL     OW25693   0.670   1.904   1.279  0.6325  0.5924  0.3011
 4686SOL    HW125694   0.647   1.815   1.306 -0.7454  1.0941  0.7502
 4686SOL    HW225695   0.648   1.903   1.186  0.3569 -0.5537  0.3752
 4687SOL     OW25696   3.250   1.692   2.895 -0.5627 -1.1043 -0.1869
 4687SOL    HW125697   3.247   1.638   2.974  1.7717 -1.0055 -0.0233
 4687SOL    HW225698   3.172   1.662   2.849 -0.2621  0.0587 -1.4483
 4688SOL     OW25699   2.615   1.160  12.370  0.3647  0.0311 -0.1343
 4688SOL    HW125700   2.579   1.163  12.281  1.4023 -0.3161 -0.5683
 4688SOL    HW225701   2.621   1.066  12.385 -2.3618 -0.3141 -1.3297
 4689SOL     OW25702   3.765   3.525  14.573 -0.4315 -0.1388 -0.4718
 4689SOL    HW125703   3.839   3.479  14.535 -1.2773 -0.6145 -1.5731
 4689SOL    HW225704   3.760   3.484  14.659  0.6725  1.2774  0.2822
 4690SOL     OW25705   3.556   4.347   9.031  0.4029 -0.1205 -0.2833
 4690SOL    HW125706   3.516   4.320   8.948  1.4850 -0.4018 -0.7231
 4690SOL    HW225707   3.618   4.275   9.044 -2.0179 -2.0952  0.0629
 4691SOL     OW25708   0.614   3.401  12.924 -0.2256  0.2126  0.4021
 4691SOL    HW125709   0.678   3.350  12.974 -0.3395 -2.9185 -2.6737
 4691SOL    HW225710   0.651   3.488  12.941  0.8739 -0.1321 -0.2460
 4692SOL     OW25711   4.667   0.834   6.811 -0.3213  0.4761 -0.0806
 4692SOL    HW125712   4.645   0.813   6.720  1.1117 -1.5255  0.0390
 4692SOL    HW225713   4.605   0.781   6.859  0.4890  1.1659  1.7258
 4693SOL     OW25714   0.811   1.248   1.791  0.3226 -0.8173  0.3026
 4693SOL    HW125715   0.876   1.272   1.857  2.2799 -1.3390 -1.4488
 4693SOL    HW225716   0.774   1.331   1.762  0.0662 -0.9313  0.2976
 4694SOL     OW25717   1.896   3.982   2.401  0.5386 -0.0997 -0.3308
 4694SOL    HW125718   1.815   3.947   2.436  1.4735  1.1985  3.2026
 4694SOL    HW225719   1.937   3.901   2.372  0.3881  0.1500 -1.2444
 4695SOL     OW25720   4.249   1.503  10.648 -0.1941 -0.3725  0.3678
 4695SOL    HW125721   4.315   1.476  10.584  1.9593  2.1344  1.5001
 4695SOL    HW225722   4.277   1.595  10.657 -0.3556 -0.1436 -1.4969
 4696SOL     OW25723   0.476   4.238   3.473  0.0507 -0.2414  0.2589
 4696SOL    HW125724   0.423   4.198   3.404  2.2315  0.1888 -1.6682
 4696SOL    HW225725   0.410   4.285   3.524 -0.1591  2.0098 -2.0956
 4697SOL     OW25726   3.287   3.538   5.673 -0.4595 -0.0516 -0.2211
 4697SOL    HW125727   3.342   3.540   5.751  0.3018 -1.1058 -0.7331
 4697SOL    HW225728   3.216   3.588   5.712  0.5436  0.7165  0.6049
 4698SOL     OW25729   4.407   3.250   7.806 -0.4773  0.4086 -0.4271
 4698SOL    HW125730   4.411   3.284   7.895 -0.3241  0.7065 -0.5479
 4698SOL    HW225731   4.418   3.328   7.752  0.0214  0.0496 -0.8607
 4699SOL     OW25732   0.172   4.714   4.947 -0.6724  0.4594 -0.0473
 4699SOL    HW125733   0.162   0.070   4.958 -0.2694  0.5279 -0.2539
 4699SOL    HW225734   0.083   4.683   4.959 -0.3369 -0.0540  1.1750
 4700SOL     OW25735   3.273   0.262   8.908 -0.0873  0.6476  0.2399
 4700SOL    HW125736   3.279   0.167   8.905 -0.7507  0.6008  0.6100
 4700SOL    HW225737   3.225   0.277   8.989 -2.5751  0.5384 -1.2315
 4701SOL     OW25738   0.147   4.487   1.014 -0.0560  0.3355 -0.6892
 4701SOL    HW125739   0.076   4.535   0.973  0.8395  1.7678 -0.5530
 4701SOL    HW225740   0.167   4.430   0.940 -0.7676 -1.3473  0.4196
 4702SOL     OW25741   3.444   3.001  17.523  0.2726 -0.2133 -0.5256
 4702SOL    HW125742   3.467   2.928  17.465 -0.3138 -0.2411 -0.7257
 4702SOL    HW225743   3.374   2.968  17.579  1.1935 -0.3851  0.5015
 4703SOL     OW25744   4.242   2.773   7.765 -0.4099 -0.2036  0.5246
 4703SOL    HW125745   4.172   2.766   7.830  0.2565  0.1036  1.2763
 4703SOL    HW225746   4.312   2.719   7.801 -0.5662 -0.2814  0.7164
 4704SOL     OW25747   0.707   4.268   3.989 -0.3444 -0.0221  0.2707
 4704SOL    HW125748   0.654   4.285   3.911  0.6447 -0.9089 -0.6073
 4704SOL    HW225749   0.767   4.207   3.945  1.4581  1.4038  0.7193
 4705SOL     OW25750   4.203   2.603   5.392  0.2868 -0.2702  0.1752
 4705SOL    HW125751   4.289   2.584   5.354  0.3687 -0.0386  0.2400
 4705SOL    HW225752   4.146   2.611   5.315 -0.3461 -1.1892  0.5525
 4706SOL     OW25753   0.936   0.183   0.221 -0.1969  0.1935  0.8385
 4706SOL    HW125754   0.940   0.088   0.229 -0.3269  0.2904  2.0955
 4706SOL    HW225755   0.861   0.193   0.162  0.1036  0.1275  0.4521
 4707SOL     OW25756   3.506   2.293   0.696  0.5681  0.1232  1.0284
 4707SOL    HW125757   3.460   2.257   0.771  1.2500  1.2511  1.9777
 4707SOL    HW225758   3.452   2.263   0.622  0.1134 -1.0714  1.8339
 4708SOL     OW25759   3.382   1.927   2.964 -0.3815 -0.0507 -0.1966
 4708SOL    HW125760   3.368   1.995   2.899  0.3606 -0.5976 -0.9329
 4708SOL    HW225761   3.335   1.852   2.927 -2.1706 -0.0754  2.1120
 4709SOL     OW25762   0.250   1.043   9.242 -0.0750  0.7078  0.1714
 4709SOL    HW125763   0.169   1.014   9.284  1.4822  0.9622  3.3853
 4709SOL    HW225764   0.309   1.046   9.318  2.1188 -1.6068 -1.4760
 4710SOL     OW25765   4.718   2.735   9.681  0.9259 -0.7610 -0.5310
 4710SOL    HW125766   4.696   2.699   9.767 -0.1691 -0.5457 -0.7220
 4710SOL    HW225767   4.727   2.653   9.634  0.9687 -1.0081 -0.0955
 4711SOL     OW25768   1.988   1.038  15.050  0.6941 -0.3464 -0.2304
 4711SOL    HW125769   1.928   1.098  15.095 -0.7403 -1.6354 -0.4282
 4711SOL    HW225770   2.024   1.092  14.979  1.8965 -1.0399 -0.1492
 4712SOL     OW25771   3.092   1.623   2.199 -0.0711  0.2647  0.0895
 4712SOL    HW125772   3.170   1.622   2.144 -0.5884  1.4614 -0.6503
 4712SOL    HW225773   3.058   1.533   2.191  0.1796  0.1316  0.5142
 4713SOL     OW25774   2.563   0.438   3.555 -0.3223  0.7674  0.0800
 4713SOL    HW125775   2.489   0.417   3.498  0.5862  0.1557 -0.8650
 4713SOL    HW225776   2.636   0.382   3.529  1.2435  2.1386  1.5046
 4714SOL     OW25777   0.765   4.427   0.448  0.4174 -0.3141 -0.2550
 4714SOL    HW125778   0.716   4.345   0.445  2.9786 -1.8700 -0.1741
 4714SOL    HW225779   0.697   4.491   0.469 -0.8043 -1.3417 -1.0756
 4715SOL     OW25780   2.992   3.654   9.718 -0.7602 -0.3033  0.6585
 4715SOL    HW125781   3.043   3.585   9.761  1.0378 -0.2258 -1.3476
 4715SOL    HW225782   3.046   3.677   9.643 -1.7046  0.5256  0.2370
 4716SOL     OW25783   2.211   4.444   4.464  0.2718  0.0352  0.2633
 4716SOL    HW125784   2.167   4.359   4.475  0.5677 -0.3219 -1.4238
 4716SOL    HW225785   2.303   4.422   4.482  0.6116  1.2332 -0.0534
 4717SOL     OW25786   2.624   3.474   4.897  0.3539  0.1777  0.3453
 4717SOL    HW125787   2.573   3.413   4.951  0.2847  0.7598  0.9389
 4717SOL    HW225788   2.683   3.505   4.966 -0.9932  1.4882  0.8873
 4718SOL     OW25789   1.836   2.023   6.770  0.2571 -0.0754  0.1678
 4718SOL    HW125790   1.841   2.111   6.734 -1.1763 -0.8026 -1.8185
 4718SOL    HW225791   1.926   1.991   6.765  0.6925  1.3370 -0.9973
 4719SOL     OW25792   2.328   4.363  10.821  0.0993  0.1427  0.6591
 4719SOL    HW125793   2.239   4.398  10.833 -0.0069  0.4038 -0.9821
 4719SOL    HW225794   2.360   4.426  10.757  1.5832 -1.9166 -0.6122
 4720SOL     OW25795   0.856   0.360   3.361 -0.4501 -0.1758 -0.2162
 4720SOL    HW125796   0.889   0.397   3.443  0.3337 -3.0381  0.7485
 4720SOL    HW225797   0.776   0.409   3.344  1.0096  2.7517  1.3580
 4721SOL     OW25798   0.339   4.403   6.797  0.5155  0.1072  0.0028
 4721SOL    HW125799   0.362   4.420   6.889  0.6400 -1.8901  0.3383
 4721SOL    HW225800   0.284   4.480   6.781  1.2448  1.1801  2.5786
 4722SOL     OW25801   4.487   4.279   9.845  0.2255 -0.5789  0.1058
 4722SOL    HW125802   4.548   4.205   9.842 -0.0620 -0.8200  0.1501
 4722SOL    HW225803   4.509   4.325   9.926 -0.7989 -1.2114  0.7464
 4723SOL     OW25804   4.434   1.744   5.538 -0.4061 -0.3182 -0.3146
 4723SOL    HW125805   4.529   1.755   5.540 -0.1482 -2.5479 -0.5500
 4723SOL    HW225806   4.405   1.796   5.613 -1.6012  0.0735 -1.0615
 4724SOL     OW25807   0.214   3.049   3.520  0.4089  0.2267 -0.1659
 4724SOL    HW125808   0.207   3.145   3.513  0.7947  0.5124  3.7142
 4724SOL    HW225809   0.236   3.017   3.432 -3.4835  0.9582 -1.4175
 4725SOL     OW25810   0.851   0.566  14.098 -0.3605 -0.5779  0.0953
 4725SOL    HW125811   0.937   0.562  14.057 -0.7232 -1.0270 -0.6332
 4725SOL    HW225812   0.850   0.659  14.123 -0.2141  0.3942 -3.4931
 4726SOL     OW25813   4.623   2.306  13.341  0.4254  0.2646  0.1716
 4726SOL    HW125814   4.565   2.368  13.386 -0.1729 -1.0894  1.2946
 4726SOL    HW225815   4.614   2.326  13.248  0.4332  2.6557  0.7079
 4727SOL     OW25816   2.293   0.132   9.885 -0.4416  0.0596 -0.3376
 4727SOL    HW125817   2.272   0.211   9.835  1.9038  1.0728  0.2525
 4727SOL    HW225818   2.226   0.143   9.953 -1.1335 -2.7052 -0.5906
 4728SOL     OW25819   2.952   3.023  10.284  0.1358 -0.2359 -0.6516
 4728SOL    HW125820   2.902   2.954  10.328 -1.7300  2.4096  1.3379
 4728SOL    HW225821   2.903   3.104  10.295  0.6216 -0.0645  0.2210
 4729SOL     OW25822   3.934   3.326   6.121  0.2602 -0.2785 -0.0826
 4729SOL    HW125823   3.988   3.273   6.063  0.1771 -1.2248  0.7132
 4729SOL    HW225824   3.889   3.378   6.054  1.0991  0.6187  0.0451
 4730SOL     OW25825   4.079   2.351   9.767  0.0184 -0.0883  0.0129
 4730SOL    HW125826   4.034   2.306   9.695  1.3460  1.6284 -1.8947
 4730SOL    HW225827   4.126   2.416   9.714  1.1421 -0.2025  0.8876
 4731SOL     OW25828   1.610   4.151   3.117 -0.1371  0.3720  0.5675
 4731SOL    HW125829   1.570   4.205   3.049  2.5088  0.8499 -0.6421
 4731SOL    HW225830   1.561   4.070   3.101 -0.7711  0.3798  2.5190
 4732SOL     OW25831   0.582   2.181   7.101 -0.0234  0.0455 -0.4395
 4732SOL    HW125832   0.539   2.161   7.184 -0.2018  2.8796  0.1720
 4732SOL    HW225833   0.620   2.098   7.075 -2.8073 -1.8489  1.4892
 4733SOL     OW25834   3.668   1.964   3.478 -0.4886 -1.0992  0.4398
 4733SOL    HW125835   3.693   1.963   3.571 -0.0640  2.3613  0.3695
 4733SOL    HW225836   3.732   2.030   3.450 -1.2082 -0.6080 -0.0386
 4734SOL     OW25837   3.289   2.247   9.437 -0.0302 -0.0221 -0.2744
 4734SOL    HW125838   3.285   2.342   9.424 -2.4190  0.1438  1.7140
 4734SOL    HW225839   3.209   2.226   9.484  0.9229  3.0773  2.7954
 4735SOL     OW25840   2.903   2.237  13.995 -0.5734 -0.3566  0.2377
 4735SOL    HW125841   2.930   2.315  13.947  0.1179  0.5661  2.1420
 4735SOL    HW225842   2.819   2.270  14.027 -0.2699  0.4616  0.1725
 4736SOL     OW25843   2.676   1.226   2.708  0.3539 -0.1048 -0.0061
 4736SOL    HW125844   2.658   1.319   2.719 -2.0058 -1.0294  4.3355
 4736SOL    HW225845   2.590   1.185   2.723  0.5541 -0.5598 -0.0993
 4737SOL     OW25846   0.691   0.116   8.494 -0.5214  0.2742 -0.0229
 4737SOL    HW125847   0.610   0.071   8.516  0.4781 -1.0665  0.9450
 4737SOL    HW225848   0.751   0.059   8.544 -0.0774  0.5997 -0.1857
 4738SOL     OW25849   4.292   3.211   8.272 -0.9026 -0.2611  0.0356
 4738SOL    HW125850   4.250   3.278   8.326  0.0962 -0.2693  0.8429
 4738SOL    HW225851   4.315   3.147   8.340  3.2726  1.4671  0.2213
 4739SOL     OW25852   0.740   2.320   6.249 -0.5854  0.0375  0.0423
 4739SOL    HW125853   0.759   2.410   6.222  1.4680 -0.8832 -1.6539
 4739SOL    HW225854   0.746   2.271   6.166  2.3951  2.4254 -1.1709
 4740SOL     OW25855   3.815   4.715   5.424  0.4208 -0.2496 -0.2809
 4740SOL    HW125856   3.822   4.660   5.346 -0.9613  0.6552 -1.0402
 4740SOL    HW225857   3.820   0.068   5.399  1.0075  0.2304  1.5585
 4741SOL     OW25858   2.348   4.305   1.909  0.4918 -0.1813  0.3242
 4741SOL    HW125859   2.369   4.327   2.000 -0.5878  0.0529  0.5075
 4741SOL    HW225860   2.361   4.388   1.863  0.0408 -0.4582 -0.3030
 4742SOL     OW25861   1.909   0.988   8.868  0.3983 -0.1077  0.3590
 4742SOL    HW125862   1.899   1.026   8.955  1.5293  4.2038 -1.3904
 4742SOL    HW225863   1.970   1.045   8.820  0.3268  1.0424  1.6625
 4743SOL     OW25864   2.387   4.144   2.954  0.5078  0.7383 -0.2650
 4743SOL    HW125865   2.454   4.140   3.022 -0.5746  1.4410  0.8463
 4743SOL    HW225866   2.389   4.053   2.923  0.8842  0.9121 -0.7539
 4744SOL     OW25867   0.923   2.046  12.056 -0.1201 -0.4059  0.5707
 4744SOL    HW125868   0.961   2.094  11.983 -0.1493 -2.2779 -0.6644
 4744SOL    HW225869   0.967   2.074  12.136  0.8397  3.8246 -1.4603
 4745SOL     OW25870   1.480   0.777   8.699 -0.1890  0.2122 -0.7399
 4745SOL    HW125871   1.541   0.813   8.764 -1.7151  0.5235  0.5337
 4745SOL    HW225872   1.514   0.688   8.700  1.7727  0.9755  0.0908
 4746SOL     OW25873   1.144   1.362   5.062 -0.3987 -0.7579 -0.2003
 4746SOL    HW125874   1.191   1.287   5.024 -0.6748  0.0444 -2.1311
 4746SOL    HW225875   1.162   1.353   5.156  0.8638 -0.1360 -0.3883
 4747SOL     OW25876   1.580   2.118   9.743  0.2415  0.2260  0.2687
 4747SOL    HW125877   1.512   2.083   9.685  0.6588  0.9097 -0.6319
 4747SOL    HW225878   1.603   2.195   9.690  0.6821 -0.1423 -0.0725
 4748SOL     OW25879   2.866   1.654   5.362 -0.2643  0.3743 -0.7494
 4748SOL    HW125880   2.803   1.604   5.413 -1.1418  1.3717 -0.8509
 4748SOL    HW225881   2.828   1.655   5.274 -2.4160 -0.2601  0.1813
 4749SOL     OW25882   4.487   2.499   3.284  0.2957  0.1603  0.1080
 4749SOL    HW125883   4.540   2.424   3.311 -0.4450 -0.5045 -0.2721
 4749SOL    HW225884   4.429   2.459   3.218  0.3730 -1.6095  1.1115
 4750SOL     OW25885   1.263   0.938   8.408  0.3823  0.5026  0.2419
 4750SOL    HW125886   1.272   1.032   8.392  2.4902  0.5939  2.1428
 4750SOL    HW225887   1.218   0.926   8.491  1.9668  3.3185  1.4905
 4751SOL     OW25888   0.507   4.477   4.925 -0.1632  0.1344  0.1993
 4751SOL    HW125889   0.446   4.403   4.927  0.8357 -0.7334 -2.1001
 4751SOL    HW225890   0.584   4.423   4.907 -0.0131  0.9396 -1.5089
 4752SOL     OW25891   3.946   0.089   7.104 -0.2789  0.7258  0.0683
 4752SOL    HW125892   4.001   0.047   7.170  1.9327  1.2987 -1.4142
 4752SOL    HW225893   3.898   0.010   7.079  1.3644  0.2397 -1.5011
 4753SOL     OW25894   0.873   2.166  16.523 -1.0390 -0.1991  0.2185
 4753SOL    HW125895   0.943   2.122  16.475 -1.4092 -1.0464  0.4536
 4753SOL    HW225896   0.910   2.254  16.531  1.5142 -1.3282  0.7751
 4754SOL     OW25897   3.757   0.648   2.519  0.0250  0.5108  0.5119
 4754SOL    HW125898   3.830   0.667   2.459  0.8521 -0.3873  1.2372
 4754SOL    HW225899   3.719   0.574   2.472  2.1607 -1.3215  1.6369
 4755SOL     OW25900   1.282   2.036  12.036 -0.1598  0.7043  0.0524
 4755SOL    HW125901   1.313   2.055  11.948  0.4116 -0.4064  0.0136
 4755SOL    HW225902   1.291   1.941  12.036 -1.4756  0.5755  0.2415
 4756SOL     OW25903   1.545   4.421   2.463 -0.0864 -0.2724  0.3339
 4756SOL    HW125904   1.466   4.426   2.517 -0.3764  1.8219 -0.3074
 4756SOL    HW225905   1.585   4.507   2.477 -0.9144 -0.0129  1.0470
 4757SOL     OW25906   0.463   1.332   3.863 -0.0647 -0.3056 -0.2164
 4757SOL    HW125907   0.453   1.332   3.958  1.5183 -0.9796 -0.0475
 4757SOL    HW225908   0.515   1.411   3.858  0.8373 -0.9545 -1.2377
 4758SOL     OW25909   1.903   0.969   2.669  0.3915  0.4298  0.5057
 4758SOL    HW125910   1.986   0.941   2.709  0.1261  1.2514  1.6311
 4758SOL    HW225911   1.918   0.925   2.585 -1.3020 -1.3496  1.1171
 4759SOL     OW25912   4.351   1.124  11.281  0.2176  0.0029 -0.3384
 4759SOL    HW125913   4.286   1.108  11.350  0.5633  0.3026  0.0627
 4759SOL    HW225914   4.322   1.068  11.210  2.0158 -0.1235 -0.9769
 4760SOL     OW25915   0.484   3.317   8.944 -0.0494 -0.4279 -0.5005
 4760SOL    HW125916   0.447   3.400   8.915  0.8859  0.0498 -0.3391
 4760SOL    HW225917   0.522   3.280   8.864 -1.3769 -0.4398 -1.1287
 4761SOL     OW25918   2.824   0.332   3.548 -0.2580  0.3927 -0.1980
 4761SOL    HW125919   2.883   0.272   3.593 -0.6021 -0.8905 -1.4614
 4761SOL    HW225920   2.876   0.395   3.498  1.3803 -2.2189 -1.7723
 4762SOL     OW25921   0.242   0.778   2.847  0.0974  0.0635  0.2927
 4762SOL    HW125922   0.314   0.835   2.874 -0.0352 -0.3938  1.6114
 4762SOL    HW225923   0.233   0.733   2.931  0.6614  0.5344  0.6093
 4763SOL     OW25924   0.298   0.756   4.605 -0.0537 -0.1629 -0.1617
 4763SOL    HW125925   0.355   0.822   4.645 -0.3950  0.8936 -1.4195
 4763SOL    HW225926   0.295   0.705   4.686  0.1677 -0.9759 -0.6719
 4764SOL     OW25927   4.070   3.423   9.905 -0.3495 -0.0089  0.1862
 4764SOL    HW125928   4.036   3.350   9.852  1.8753 -2.2967  1.9046
 4764SOL    HW225929   4.064   3.375   9.987 -4.4168  1.7019  0.9048
 4765SOL     OW25930   1.835   1.878   8.229 -0.0905  0.1168  0.3954
 4765SOL    HW125931   1.886   1.836   8.160 -1.2071 -0.5660 -0.0103
 4765SOL    HW225932   1.745   1.858   8.204  0.4899  0.2831 -1.9188
 4766SOL     OW25933   2.776   1.914   3.752  0.6340  0.4720 -1.0217
 4766SOL    HW125934   2.746   1.973   3.820 -0.4791 -1.8503  0.5141
 4766SOL    HW225935   2.777   1.966   3.671 -1.2364 -0.8202 -1.8635
 4767SOL     OW25936   0.778   4.093   8.107  0.1269  0.4322 -0.1141
 4767SOL    HW125937   0.795   4.053   8.022 -1.4169 -1.3275  0.4121
 4767SOL    HW225938   0.690   4.056   8.109  1.3399 -2.5471 -2.1668
 4768SOL     OW25939   0.780   1.635   3.773 -0.3495 -0.1612  0.3185
 4768SOL    HW125940   0.691   1.605   3.759 -0.4039 -0.4677  1.2959
 4768SOL    HW225941   0.768   1.706   3.836 -1.8032 -1.1681  1.1689
 4769SOL     OW25942   0.943   0.811   8.363  0.2726  0.0374 -0.1956
 4769SOL    HW125943   0.888   0.864   8.420  2.0070 -0.5590  2.0737
 4769SOL    HW225944   1.025   0.860   8.367  1.3074 -1.7281  0.4141
 4770SOL     OW25945   2.742   0.484   8.521  0.1337  0.7213 -0.0740
 4770SOL    HW125946   2.663   0.531   8.495  0.0430  1.0745  0.8467
 4770SOL    HW225947   2.766   0.519   8.606 -0.1846 -1.7614  1.0456
 4771SOL     OW25948   2.965   2.869   6.134 -0.5107 -0.0603 -0.1307
 4771SOL    HW125949   2.962   2.797   6.198 -2.7694 -0.3658 -0.5806
 4771SOL    HW225950   3.004   2.939   6.186 -1.7529  0.9269 -0.5523
 4772SOL     OW25951   1.710   1.786   6.754 -0.6072 -0.3467  0.1261
 4772SOL    HW125952   1.741   1.876   6.759  1.9800 -1.3042  1.2374
 4772SOL    HW225953   1.732   1.763   6.844 -1.6502 -1.2216  0.1559
 4773SOL     OW25954   4.294   2.292  14.731 -0.1707 -0.5316  0.0336
 4773SOL    HW125955   4.258   2.205  14.749 -2.5929  1.0331  2.8233
 4773SOL    HW225956   4.366   2.276  14.670  0.0681 -0.2152  0.2277
 4774SOL     OW25957   0.025   2.617   6.505  0.0574  0.0793 -0.0028
 4774SOL    HW125958   4.712   2.581   6.433  3.7401 -0.9593 -2.1195
 4774SOL    HW225959   0.108   2.581   6.473  0.6390  0.3466  1.2054
 4775SOL     OW25960   1.623   2.908  10.578  0.0993  0.2763 -0.0676
 4775SOL    HW125961   1.676   2.843  10.532  0.1848  0.8019 -0.7272
 4775SOL    HW225962   1.601   2.864  10.659 -0.5191  0.6305 -0.0444
 4776SOL     OW25963   0.094   1.450  13.570  0.3855 -0.3632 -0.1800
 4776SOL    HW125964   0.073   1.501  13.648  2.8007 -0.4364  0.5241
 4776SOL    HW225965   0.079   1.506  13.494 -2.7343 -0.9471  0.0373
 4777SOL     OW25966   0.690   1.032   4.548  0.0224  0.0332  0.5141
 4777SOL    HW125967   0.685   1.098   4.479  1.7391  0.3978  0.7369
 4777SOL    HW225968   0.682   0.951   4.498  2.1444  0.2698 -0.1778
 4778SOL     OW25969   3.839   0.485  10.377 -0.0892 -0.0524  0.0333
 4778SOL    HW125970   3.842   0.580  10.390 -0.3007 -0.0131 -0.2083
 4778SOL    HW225971   3.885   0.476  10.294  0.3189 -1.5909  0.4245
 4779SOL     OW25972   1.447   0.166  16.278 -0.2018 -0.6120 -0.4395
 4779SOL    HW125973   1.366   0.205  16.244 -0.9982 -0.9045  1.1459
 4779SOL    HW225974   1.427   0.074  16.297 -0.1395 -0.4083  0.6064
 4780SOL     OW25975   0.184   3.230   2.615  0.1964 -0.5508 -0.0981
 4780SOL    HW125976   0.150   3.311   2.577  0.6669  1.1979  3.2685
 4780SOL    HW225977   0.271   3.258   2.642  0.3697 -0.2801 -0.9082
 4781SOL     OW25978   1.994   2.597   4.271  0.3983 -0.0673  0.0102
 4781SOL    HW125979   2.057   2.667   4.288 -0.1871  0.5870 -0.5024
 4781SOL    HW225980   2.022   2.555   4.189  0.6109  0.9326 -0.4334
 4782SOL     OW25981   2.973   4.705   8.210 -0.4109  0.0083  0.0617
 4782SOL    HW125982   2.924   4.626   8.185  0.6943 -0.9128  0.7674
 4782SOL    HW225983   3.048   4.694   8.150  2.5717  3.6672  3.1248
 4783SOL     OW25984   3.488   0.531   9.624  0.3188 -0.5266 -0.6052
 4783SOL    HW125985   3.471   0.437   9.612  1.1599 -1.0571  2.3213
 4783SOL    HW225986   3.434   0.560   9.698  0.4184 -0.7540 -0.4413
 4784SOL     OW25987   0.486   1.393  13.122 -0.3338  0.3666 -0.4106
 4784SOL    HW125988   0.467   1.384  13.215  0.8325 -0.9178 -0.2941
 4784SOL    HW225989   0.573   1.432  13.110  0.1317 -0.2993  0.7728
 4785SOL     OW25990   3.043   1.566   2.781  0.3917 -0.2309  0.2667
 4785SOL    HW125991   2.968   1.626   2.776  0.4806 -0.2418 -1.1391
 4785SOL    HW225992   3.003   1.479   2.777  1.1747 -0.6189  1.0026
 4786SOL     OW25993   0.957   3.691   3.928  0.4998 -0.1167  0.4164
 4786SOL    HW125994   0.876   3.662   3.884  0.1116  2.0007 -0.2828
 4786SOL    HW225995   1.004   3.726   3.853  0.0273  0.9992  0.6433
 4787SOL     OW25996   4.095   0.286  12.419  0.5007 -0.1646 -0.0561
 4787SOL    HW125997   4.111   0.353  12.485  2.1361 -1.8317  1.2281
 4787SOL    HW225998   4.175   0.301  12.370 -1.5498  2.3554 -2.6728
 4788SOL     OW25999   1.600   1.096   9.202  0.0391 -0.5799  0.0242
 4788SOL    HW126000   1.667   1.109   9.136 -2.1513  3.3526 -1.4400
 4788SOL    HW226001   1.639   1.147   9.273  0.7153  0.8945 -1.4039
 4789SOL     OW26002   2.881   0.846  13.621  0.3200  0.5813  0.7176
 4789SOL    HW126003   2.850   0.928  13.659 -3.3203  0.5015 -2.0816
 4789SOL    HW226004   2.838   0.839  13.536  0.3695 -1.6124  0.8764
 4790SOL     OW26005   4.419   4.609   8.025  0.2855  0.4618 -0.4402
 4790SOL    HW126006   4.345   4.662   8.055  0.3605 -0.5114  1.4674
 4790SOL    HW226007   4.479   4.657   8.083  1.4728 -0.9498 -0.5032
 4791SOL     OW26008   1.004   1.416   9.444  1.2595  0.0469 -0.1507
 4791SOL    HW126009   1.042   1.343   9.494 -1.4947 -1.2370  0.1025
 4791SOL    HW226010   0.922   1.407   9.494  0.3857  2.8492 -1.0793
 4792SOL     OW26011   2.608   1.729  16.447  0.0318 -0.4937 -0.3105
 4792SOL    HW126012   2.515   1.726  16.470 -0.3012  0.4306 -1.5660
 4792SOL    HW226013   2.608   1.712  16.353 -0.4505  1.6280 -0.6925
 4793SOL     OW26014   0.156   4.439   3.438  0.1891  0.3019 -0.3107
 4793SOL    HW126015   0.219   4.465   3.371  1.2648  1.8849  1.3183
 4793SOL    HW226016   0.182   4.503   3.504  2.0263 -0.2802 -0.4817
 4794SOL     OW26017   3.365   4.364   5.573 -0.0058 -0.5836 -0.1628
 4794SOL    HW126018   3.298   4.392   5.512  0.7360  2.2465  0.3009
 4794SOL    HW226019   3.323   4.371   5.659 -2.7847  1.2874 -1.7136
 4795SOL     OW26020   1.891   3.749   2.757 -0.0480  0.4222 -0.1447
 4795SOL    HW126021   1.841   3.669   2.743  0.0497 -0.0379  2.1559
 4795SOL    HW226022   1.847   3.783   2.836  0.6043 -1.0887  0.8608
 4796SOL     OW26023   2.920   4.365   3.717 -0.2156  0.1704  0.3038
 4796SOL    HW126024   2.975   4.359   3.794  0.0233 -2.8570 -0.1059
 4796SOL    HW226025   2.987   4.381   3.651  1.5060 -4.6386  0.9404
 4797SOL     OW26026   1.284   2.291   4.986 -0.1456 -0.5436  0.0444
 4797SOL    HW126027   1.335   2.369   4.961 -1.4187  0.7955  1.6707
 4797SOL    HW226028   1.339   2.223   4.947  2.0984  1.7748 -0.8798
 4798SOL     OW26029   2.389   1.074  14.942  0.7983  0.2495  0.2218
 4798SOL    HW126030   2.386   1.003  14.878  1.0065 -0.5287  1.0734
 4798SOL    HW226031   2.457   1.044  15.003  0.8996  1.8399  0.8902
 4799SOL     OW26032   1.224   4.414   8.565 -0.2070 -0.2149  0.5555
 4799SOL    HW126033   1.212   4.350   8.495  0.7198  0.9287 -0.6468
 4799SOL    HW226034   1.293   4.471   8.531  0.2653 -1.6931 -0.9489
 4800SOL     OW26035   0.528   2.391   5.980  0.0883 -0.0318 -0.0073
 4800SOL    HW126036   0.475   2.471   5.976 -0.6087 -0.5017 -0.0657
 4800SOL    HW226037   0.471   2.327   5.938  1.2380 -0.5610 -0.7663
 4801SOL     OW26038   3.360   2.722   1.888 -0.5236 -0.0050 -0.0582
 4801SOL    HW126039   3.322   2.811   1.884  4.0761  1.8885 -1.1613
 4801SOL    HW226040   3.278   2.680   1.916 -0.9519  1.5559  1.0524
 4802SOL     OW26041   2.051   0.088  13.804 -0.4128 -0.3586  0.0670
 4802SOL    HW126042   2.099   0.008  13.826  0.3729  0.1363  0.2030
 4802SOL    HW226043   1.968   0.073  13.849 -0.2912 -0.3130  0.3117
 4803SOL     OW26044   1.677   0.859  16.819 -0.1831  1.2292  0.2822
 4803SOL    HW126045   1.669   0.806  16.899 -0.8611 -0.4975 -0.9333
 4803SOL    HW226046   1.719   0.797  16.759  0.1828  0.7446  1.0324
 4804SOL     OW26047   0.862   1.994   6.362 -0.2897  0.2380  0.0081
 4804SOL    HW126048   0.835   2.058   6.428  1.7396 -0.0510  1.0899
 4804SOL    HW226049   0.842   1.911   6.405  0.9371  0.7616  1.5930
 4805SOL     OW26050   0.276   4.031   9.278 -0.3433 -0.0312 -0.2640
 4805SOL    HW126051   0.273   3.939   9.252  0.0562  0.6093 -2.6037
 4805SOL    HW226052   0.207   4.052   9.215 -0.1605  1.5612  0.0545
 4806SOL     OW26053   3.013   1.674   3.471 -0.4147 -0.5469  1.0135
 4806SOL    HW126054   3.001   1.694   3.563  2.4185  0.3632  1.1733
 4806SOL    HW226055   3.102   1.640   3.479 -0.1463 -0.1398 -0.1728
 4807SOL     OW26056   1.008   4.519  14.405  0.0066 -0.5082  0.4524
 4807SOL    HW126057   1.080   4.507  14.343  0.2950 -1.0919  0.8921
 4807SOL    HW226058   1.056   4.525  14.488  3.1351  0.5063 -1.4326
 4808SOL     OW26059   0.363   4.381   0.613  0.0347 -0.1109  0.5831
 4808SOL    HW126060   0.292   4.432   0.574 -0.1742 -0.4386  0.5365
 4808SOL    HW226061   0.374   4.415   0.702  0.2887  4.1024 -1.0860
 4809SOL     OW26062   1.469   2.759  13.841  0.3902 -0.0480 -0.6702
 4809SOL    HW126063   1.436   2.796  13.923  2.3431  1.2636 -0.4564
 4809SOL    HW226064   1.405   2.689  13.828  0.9867 -0.3254 -2.1409
 4810SOL     OW26065   3.204   4.384   2.078  0.6286 -0.6922  0.3411
 4810SOL    HW126066   3.121   4.341   2.097 -0.3635  1.1586  0.1047
 4810SOL    HW226067   3.260   4.307   2.065 -0.0692 -1.2250  0.5148
 4811SOL     OW26068   2.791   4.313   0.676  0.0568 -0.0315  0.3930
 4811SOL    HW126069   2.713   4.282   0.721 -0.1280 -2.5446 -1.6274
 4811SOL    HW226070   2.860   4.249   0.695 -1.8267 -2.6533 -1.6107
 4812SOL     OW26071   3.448   0.821   6.510 -0.6999  0.1570  0.2426
 4812SOL    HW126072   3.454   0.726   6.521  2.7328  0.7648  3.4270
 4812SOL    HW226073   3.379   0.834   6.576  0.7433 -0.0573  1.8015
 4813SOL     OW26074   2.133   4.496   5.866  0.1227 -0.8107  0.3747
 4813SOL    HW126075   2.046   4.467   5.892 -1.0083  2.1191 -0.2220
 4813SOL    HW226076   2.184   4.426   5.907  1.2036 -1.0486 -1.3762
 4814SOL     OW26077   1.661   0.815  11.511  0.3527 -0.3457  0.3283
 4814SOL    HW126078   1.599   0.887  11.505  2.3711  1.2904 -0.6518
 4814SOL    HW226079   1.611   0.762  11.573  0.7588 -1.5730 -0.3806
 4815SOL     OW26080   3.635   2.037   8.046 -0.6789 -0.5896  0.0382
 4815SOL    HW126081   3.718   2.008   8.008 -0.3838 -0.5558  0.6525
 4815SOL    HW226082   3.604   2.098   7.979  0.5841  1.1119  1.0102
 4816SOL     OW26083   3.276   3.404   2.943 -0.5526 -0.7453 -0.7746
 4816SOL    HW126084   3.257   3.460   2.868 -0.3372 -0.5533 -0.6837
 4816SOL    HW226085   3.369   3.390   2.926 -0.5712  0.5948 -1.9443
 4817SOL     OW26086   4.478   0.436   3.026 -0.1223  0.8737  0.4401
 4817SOL    HW126087   4.474   0.492   3.104 -0.1146  0.3797  0.7936
 4817SOL    HW226088   4.561   0.390   3.037  0.1287  1.5533  1.4663
 4818SOL     OW26089   4.413   3.882   5.853 -0.4165 -0.7477 -0.3003
 4818SOL    HW126090   4.483   3.916   5.798 -0.7787  0.8983  0.2581
 4818SOL    HW226091   4.436   3.909   5.942 -0.6948 -1.8818  0.1180
 4819SOL     OW26092   0.718   4.076   3.756  0.4587 -0.1059 -0.0276
 4819SOL    HW126093   0.647   4.139   3.742  0.7564  0.2987  0.2884
 4819SOL    HW226094   0.779   4.107   3.689 -0.4006  0.0528 -0.7413
 4820SOL     OW26095   3.193   3.016   9.739  0.1900 -0.7490 -0.0645
 4820SOL    HW126096   3.226   3.104   9.757  1.0130 -0.8704 -0.9859
 4820SOL    HW226097   3.144   3.016   9.821 -1.2553 -3.4197 -0.9443
 4821SOL     OW26098   4.561   2.114   4.178  0.0226  0.2135 -0.2972
 4821SOL    HW126099   4.560   2.158   4.093  1.6134  2.8606  1.0625
 4821SOL    HW226100   4.503   2.039   4.163 -0.8951  1.1777 -1.5176
 4822SOL     OW26101   3.143   3.268   1.287 -0.2665  0.3054  0.4615
 4822SOL    HW126102   3.053   3.295   1.271 -0.2680  0.1018  0.1226
 4822SOL    HW226103   3.171   3.271   1.195  2.5143 -0.9151  1.2830
 4823SOL     OW26104   2.898   4.591  13.927  0.2523 -0.3249 -0.1328
 4823SOL    HW126105   2.869   4.504  13.901 -1.2561  0.2869 -0.4739
 4823SOL    HW226106   2.948   4.615  13.849  2.0633 -2.3915  0.3880
 4824SOL     OW26107   2.719   3.941  13.474  0.2415  0.5310 -0.1028
 4824SOL    HW126108   2.674   3.933  13.558  1.3306  2.7710  0.6904
 4824SOL    HW226109   2.803   3.895  13.487  0.3907  0.5909 -0.8706
 4825SOL     OW26110   1.442   3.311  16.120  0.1385  0.7910 -0.0337
 4825SOL    HW126111   1.434   3.274  16.032 -1.8136  0.5437  0.2501
 4825SOL    HW226112   1.400   3.396  16.107  0.1775  0.6598 -1.0123
 4826SOL     OW26113   0.209   1.784   7.136  0.6976  0.2609 -0.0487
 4826SOL    HW126114   0.234   1.789   7.044 -1.2826  0.1268 -0.6023
 4826SOL    HW226115   0.148   1.857   7.132 -1.2454 -1.2949  1.0948
 4827SOL     OW26116   0.295   2.431   1.705  0.9813 -0.2473  0.0978
 4827SOL    HW126117   0.235   2.502   1.683  0.9076 -0.6161 -0.8783
 4827SOL    HW226118   0.265   2.359   1.650 -1.3502  2.4385 -2.1322
 4828SOL     OW26119   1.534   1.074  11.478 -0.0722 -0.1333  0.2219
 4828SOL    HW126120   1.510   1.079  11.571 -0.0938  0.0167  0.2088
 4828SOL    HW226121   1.448   1.076  11.435 -0.4134 -0.8720  0.8661
 4829SOL     OW26122   3.638   3.084   1.485  0.3178  0.3619 -0.0417
 4829SOL    HW126123   3.721   3.132   1.484  0.3450  0.3058 -1.0205
 4829SOL    HW226124   3.615   3.095   1.577 -1.3341  0.3048 -0.4623
 4830SOL     OW26125   2.908   2.787   4.202  0.3238 -0.3481  0.8630
 4830SOL    HW126126   2.845   2.859   4.199 -0.5910 -1.1687  0.1784
 4830SOL    HW226127   2.894   2.736   4.122  1.1778 -1.3923  1.3891
 4831SOL     OW26128   4.269   4.025   6.687 -0.2010 -0.0814 -0.2617
 4831SOL    HW126129   4.272   4.119   6.669  0.0741 -0.2865 -1.3328
 4831SOL    HW226130   4.275   4.022   6.782 -2.0757 -0.3765 -0.1604
 4832SOL     OW26131   4.200   2.385   7.531  0.3957  0.8293  0.0788
 4832SOL    HW126132   4.204   2.359   7.440 -1.0605  0.9162 -0.0089
 4832SOL    HW226133   4.235   2.474   7.525 -0.6085  1.1076 -1.4492
 4833SOL     OW26134   3.712   0.406   4.231 -0.0044  0.7493 -0.4460
 4833SOL    HW126135   3.679   0.487   4.270 -1.3209  0.1017 -0.2111
 4833SOL    HW226136   3.658   0.346   4.282  0.7107  0.6241  0.1566
 4834SOL     OW26137   0.385   0.285  15.076 -0.1490 -0.2294 -0.5028
 4834SOL    HW126138   0.449   0.278  15.146  0.9950  0.2271 -1.5092
 4834SOL    HW226139   0.312   0.235  15.115  0.8237  0.4266  2.1338
 4835SOL     OW26140   3.126   2.090   7.501  0.5780  0.0376  0.6639
 4835SOL    HW126141   3.170   2.147   7.565 -1.3147  0.1684  1.8315
 4835SOL    HW226142   3.046   2.139   7.481  0.0708  0.6464  4.2040
 4836SOL     OW26143   2.822   0.984   5.270  0.9919 -0.8384 -0.4096
 4836SOL    HW126144   2.869   1.018   5.194  0.7896 -2.0600 -1.0917
 4836SOL    HW226145   2.883   1.013   5.338 -0.5295 -2.4718  1.6543
 4837SOL     OW26146   0.262   3.330   3.761 -0.2283  0.0964  0.0043
 4837SOL    HW126147   0.225   3.408   3.803 -0.8656  0.3549 -1.0368
 4837SOL    HW226148   0.263   3.281   3.843  1.7760 -1.2681 -0.8427
 4838SOL     OW26149   1.055   3.272  12.678 -0.4068  0.0767 -0.3337
 4838SOL    HW126150   1.088   3.183  12.688 -1.7778 -0.6377 -2.2786
 4838SOL    HW226151   1.128   3.324  12.711 -0.8886 -0.2767  1.2833
 4839SOL     OW26152   2.315   0.442  10.522  0.1876  0.0817  0.1186
 4839SOL    HW126153   2.340   0.394  10.443  2.0130  1.1953  0.0176
 4839SOL    HW226154   2.279   0.372  10.575 -1.5385  0.0237 -1.1325
 4840SOL     OW26155   1.541   3.020  17.724  0.6864 -0.0560  0.2197
 4840SOL    HW126156   1.617   3.031  17.668  0.1792  0.6417 -0.3328
 4840SOL    HW226157   1.498   2.940  17.693 -1.3308  0.4967  1.5493
 4841SOL     OW26158   0.623   0.465   2.504  0.3327 -0.0374  0.2360
 4841SOL    HW126159   0.549   0.502   2.552  0.9993 -1.1286  2.1243
 4841SOL    HW226160   0.600   0.488   2.414  0.6770  0.1158  0.1873
 4842SOL     OW26161   1.641   0.830   9.334  0.2275 -0.0566 -0.1882
 4842SOL    HW126162   1.553   0.791   9.333 -0.0985  0.7159 -0.9552
 4842SOL    HW226163   1.614   0.912   9.293 -1.7120 -0.6879 -0.2009
 4843SOL     OW26164   2.774   1.062   4.326  0.2046  0.5598 -0.3376
 4843SOL    HW126165   2.703   1.098   4.273  0.2774 -1.5685 -1.8992
 4843SOL    HW226166   2.767   1.124   4.399 -1.3186 -0.4968  0.4313
 4844SOL     OW26167   3.977   2.806   9.121 -0.5207  1.0141  0.4342
 4844SOL    HW126168   3.996   2.847   9.205  1.4130 -1.0873  1.0402
 4844SOL    HW226169   3.888   2.841   9.115 -0.8757 -0.1316 -0.9739
 4845SOL     OW26170   3.914   1.949   5.582  0.6383  0.4572  0.5997
 4845SOL    HW126171   3.947   2.030   5.543  3.6076 -1.3234 -0.5452
 4845SOL    HW226172   3.832   1.984   5.617 -1.0856 -2.1742 -0.8492
 4846SOL     OW26173   4.219   0.424  11.657 -0.3009 -0.1049 -0.0270
 4846SOL    HW126174   4.126   0.410  11.676 -0.6361  1.4032 -0.6043
 4846SOL    HW226175   4.211   0.445  11.564  0.7196  0.3554 -0.0124
 4847SOL     OW26176   3.348   2.131   1.626  0.6346 -1.0224 -0.3096
 4847SOL    HW126177   3.281   2.118   1.558 -0.9207 -3.5903  1.6646
 4847SOL    HW226178   3.387   2.044   1.618  0.1336 -1.5277  2.6638
 4848SOL     OW26179   4.650   1.504   9.553  0.0068  0.4489 -0.2749
 4848SOL    HW126180   4.626   1.427   9.502  0.4075 -0.0052  0.2231
 4848SOL    HW226181   4.566   1.550   9.560 -0.0455  0.1385  1.0812
 4849SOL     OW26182   1.437   0.135   4.394  0.0931  0.2158  0.5000
 4849SOL    HW126183   1.417   0.100   4.481  0.1862 -1.3231 -0.0962
 4849SOL    HW226184   1.388   0.073   4.340 -0.5693  1.3904 -0.2323
 4850SOL     OW26185   0.797   3.147   0.950  0.4718 -0.0377 -0.2495
 4850SOL    HW126186   0.819   3.237   0.974 -0.0461 -0.1515  0.6626
 4850SOL    HW226187   0.702   3.149   0.960  0.6550 -1.7567  1.6791
 4851SOL     OW26188   1.298   3.026   8.868  0.7601 -0.2223 -0.1480
 4851SOL    HW126189   1.236   3.039   8.796 -1.2591  1.8886  1.9726
 4851SOL    HW226190   1.316   2.934   8.852 -2.6268 -1.0549  0.9474
 4852SOL     OW26191   0.963   4.261   9.451 -0.1481  0.5139  0.5109
 4852SOL    HW126192   1.005   4.181   9.480 -1.0613 -1.5071 -3.7011
 4852SOL    HW226193   0.874   4.247   9.483 -1.6122  2.2940 -2.6930
 4853SOL     OW26194   4.043   1.074   3.301 -0.1689  0.1714 -0.6086
 4853SOL    HW126195   4.058   0.993   3.251 -0.8602  1.2051 -2.5138
 4853SOL    HW226196   4.026   1.127   3.223  0.0691  0.3458 -0.5410
 4854SOL     OW26197   4.221   1.065  12.647 -0.5443 -0.4736 -0.2896
 4854SOL    HW126198   4.314   1.043  12.637 -0.6001 -0.6044 -0.5112
 4854SOL    HW226199   4.223   1.136  12.713  0.2722 -0.5712 -0.2030
 4855SOL     OW26200   2.627   2.174   6.935 -0.1615  0.5669  0.3656
 4855SOL    HW126201   2.616   2.116   6.859  1.7916  1.3930 -0.5326
 4855SOL    HW226202   2.542   2.147   6.971 -0.8510 -0.4075 -2.0135
 4856SOL     OW26203   2.728   4.012   8.513 -0.2945 -0.4512 -0.1874
 4856SOL    HW126204   2.814   4.022   8.474  0.0336  3.0346  1.4886
 4856SOL    HW226205   2.702   4.093   8.557  0.8405 -1.1507  1.7872
 4857SOL     OW26206   0.796   0.534   6.031  0.1675 -0.2013 -0.2955
 4857SOL    HW126207   0.766   0.621   6.058 -3.0555 -1.6789  0.8583
 4857SOL    HW226208   0.737   0.474   6.077 -0.0846 -0.5290 -1.0499
 4858SOL     OW26209   0.007   1.903   9.513  0.4181  0.1348  0.2821
 4858SOL    HW126210   4.682   1.843   9.550 -1.6462  1.4798 -1.1353
 4858SOL    HW226211   0.055   1.840   9.459 -1.1313  0.4816 -1.4903
 4859SOL     OW26212   4.185   4.421   7.946  0.0511 -0.2497 -0.2556
 4859SOL    HW126213   4.265   4.460   7.981 -0.0860 -1.1143  1.0267
 4859SOL    HW226214   4.133   4.501   7.946 -0.0747 -0.3304 -0.2669
 4860SOL     OW26215   0.262   3.632   5.627 -0.5458  0.0959  0.0636
 4860SOL    HW126216   0.306   3.655   5.709 -1.4735  1.9815  0.0503
 4860SOL    HW226217   0.205   3.708   5.614 -2.9069 -1.9836 -1.7557
 4861SOL     OW26218   3.755   2.729  17.111 -0.4687  0.3744 -0.1010
 4861SOL    HW126219   3.803   2.676  17.046 -0.4196  0.5310 -0.1918
 4861SOL    HW226220   3.754   2.681  17.194 -1.1752 -1.4401 -1.1487
 4862SOL     OW26221   1.638   3.645   5.288  0.3429  0.4262 -0.6970
 4862SOL    HW126222   1.673   3.576   5.232 -1.6740 -1.3134  0.1859
 4862SOL    HW226223   1.722   3.687   5.307  0.4852  0.3367 -1.1229
 4863SOL     OW26224   2.924   2.049  16.076 -0.2326 -0.5831 -0.3939
 4863SOL    HW126225   2.930   1.957  16.050 -0.2635 -0.8820  0.6565
 4863SOL    HW226226   2.895   2.028  16.165  2.1341  1.4810  0.8652
 4864SOL     OW26227   3.555   1.415  15.359 -0.0016  0.0312  0.1172
 4864SOL    HW126228   3.523   1.504  15.372 -0.4582 -0.3924  1.9792
 4864SOL    HW226229   3.558   1.419  15.264 -2.1521  0.6789  0.0807
 4865SOL     OW26230   1.229   3.685   1.552  0.0928  0.3065  0.1289
 4865SOL    HW126231   1.226   3.779   1.567 -0.3665  0.5945 -1.7782
 4865SOL    HW226232   1.277   3.680   1.470 -0.0466  0.3858  0.0440
 4866SOL     OW26233   4.258   2.564  10.041  0.3817  0.1508 -0.2796
 4866SOL    HW126234   4.299   2.644  10.076  2.0026 -1.3175  1.1772
 4866SOL    HW226235   4.316   2.504  10.087 -0.3996 -0.0335  0.4438
 4867SOL     OW26236   2.844   3.565   2.234 -0.3356 -0.0299 -0.0042
 4867SOL    HW126237   2.900   3.534   2.304 -0.7222  0.2566  0.4283
 4867SOL    HW226238   2.856   3.495   2.170 -0.4565 -3.3870  3.7356
 4868SOL     OW26239   2.527   1.207   7.129  0.7761 -0.3722 -0.5483
 4868SOL    HW126240   2.442   1.232   7.165  1.6519 -1.1973  2.0400
 4868SOL    HW226241   2.572   1.286   7.102 -0.2023  0.0857 -0.8469
 4869SOL     OW26242   1.414   0.088  15.949  0.4473  0.3390  0.3564
 4869SOL    HW126243   1.484   0.080  16.014 -0.0443  0.7087  0.9387
 4869SOL    HW226244   1.456   0.149  15.888  0.7120  0.0634  0.2628
 4870SOL     OW26245   1.119   4.312  12.768  0.0759  0.2258  0.5690
 4870SOL    HW126246   1.129   4.289  12.676  1.0944  1.8364  0.2720
 4870SOL    HW226247   1.178   4.384  12.792 -0.7520  0.9126  0.5499
 4871SOL     OW26248   1.894   1.716   4.328 -0.1155 -0.0100  0.7359
 4871SOL    HW126249   1.914   1.623   4.328  0.3488  0.0886  0.6970
 4871SOL    HW226250   1.962   1.746   4.267  0.1887 -1.5617  0.3189
 4872SOL     OW26251   4.679   3.535  15.388 -0.6539 -0.7258 -0.1080
 4872SOL    HW126252   0.012   3.482  15.354 -0.2462 -0.6724  0.6580
 4872SOL    HW226253   4.614   3.505  15.325 -1.2197 -0.7761  0.5047
 4873SOL     OW26254   0.312   1.907   4.657  0.3227 -0.7714  0.4570
 4873SOL    HW126255   0.274   1.830   4.700 -3.2705  0.8160  0.1095
 4873SOL    HW226256   0.350   1.950   4.734  0.8502  0.2335 -0.3657
 4874SOL     OW26257   3.055   3.456   3.771  0.6146 -0.6188 -0.3705
 4874SOL    HW126258   2.995   3.382   3.778 -0.0198 -0.0856 -0.2403
 4874SOL    HW226259   3.078   3.453   3.678 -0.7777 -1.0186 -0.6944
 4875SOL     OW26260   1.151   1.870   9.919 -0.1318  0.2829 -0.1021
 4875SOL    HW126261   1.200   1.906   9.993 -1.0083 -2.4075  1.7691
 4875SOL    HW226262   1.100   1.802   9.961 -2.1532  1.1177 -1.2272
 4876SOL     OW26263   1.397   4.654   5.231 -0.0962 -0.1770  0.4275
 4876SOL    HW126264   1.449   4.612   5.163  2.4003  0.7439  1.7489
 4876SOL    HW226265   1.468   4.682   5.290 -1.1436  3.0966  0.1529
 4877SOL     OW26266   1.438   1.329   6.023  0.3187 -0.6523  0.3416
 4877SOL    HW126267   1.504   1.285   6.077  0.7107 -0.0022  0.3872
 4877SOL    HW226268   1.490   1.367   5.952 -1.6780  0.1655 -0.6691
 4878SOL     OW26269   2.440   0.050   3.182  0.3098  0.6766  0.4006
 4878SOL    HW126270   2.512   4.727   3.190 -1.1105 -0.7239  2.4037
 4878SOL    HW226271   2.437   0.083   3.272  0.7355 -1.9678  1.3606
 4879SOL     OW26272   3.222   1.289  10.665  0.3940 -0.0151  0.7699
 4879SOL    HW126273   3.272   1.346  10.606 -0.7398 -0.9893 -1.1294
 4879SOL    HW226274   3.282   1.283  10.739 -0.3732 -2.2767  1.2093
 4880SOL     OW26275   3.228   2.924   7.198 -0.2512  0.0182 -0.1788
 4880SOL    HW126276   3.308   2.900   7.153  1.0338 -0.2273  2.2227
 4880SOL    HW226277   3.214   2.859   7.267 -1.4974  2.1476  1.5933
 4881SOL     OW26278   3.443   4.380   8.753 -0.2335 -0.2609 -0.3018
 4881SOL    HW126279   3.385   4.311   8.786 -0.5861 -0.6584 -1.7419
 4881SOL    HW226280   3.433   4.350   8.662 -1.9612  1.2956 -0.6401
 4882SOL     OW26281   4.054   4.316   8.563  0.1000  0.1418 -0.7588
 4882SOL    HW126282   4.045   4.227   8.599 -2.1489  0.0568 -1.5013
 4882SOL    HW226283   4.020   4.372   8.633 -0.8555 -1.9493  0.4564
 4883SOL     OW26284   1.320   0.830   2.557  0.7773  0.0075 -0.3846
 4883SOL    HW126285   1.285   0.755   2.605 -1.6922  1.4590  0.0672
 4883SOL    HW226286   1.367   0.879   2.625 -0.9468  1.5126 -0.2962
 4884SOL     OW26287   4.183   0.637  17.152 -0.0679  0.0204 -0.2914
 4884SOL    HW126288   4.103   0.663  17.197  0.4721  1.5348 -0.2160
 4884SOL    HW226289   4.151   0.572  17.089  2.2957  0.0785 -1.5627
 4885SOL     OW26290   1.914   4.353   6.002  0.3083 -0.3967  0.1567
 4885SOL    HW126291   1.979   4.365   6.070  0.0649  2.8923 -0.1758
 4885SOL    HW226292   1.879   4.267   6.024  0.1081 -0.9664 -2.3770
 4886SOL     OW26293   2.764   4.183  14.784 -0.3568 -0.0834  0.0675
 4886SOL    HW126294   2.791   4.145  14.700  0.7572 -0.8077  0.7505
 4886SOL    HW226295   2.703   4.119  14.821 -3.7477  2.1581 -1.6381
 4887SOL     OW26296   3.898   3.313   7.913  0.9278 -0.5143 -0.1475
 4887SOL    HW126297   3.896   3.409   7.910  0.7157 -0.4856  0.7407
 4887SOL    HW226298   3.980   3.289   7.871  0.3198  0.0575 -1.6363
 4888SOL     OW26299   1.909   0.052   3.623 -0.1919  0.1861  0.3179
 4888SOL    HW126300   1.939   4.715   3.674 -2.0839 -0.7778 -0.0094
 4888SOL    HW226301   1.819   0.036   3.595  0.1884 -1.7795  0.2393
 4889SOL     OW26302   0.468   3.015   2.665  0.0574  0.2199 -0.0445
 4889SOL    HW126303   0.467   3.110   2.678 -1.3066  0.2663 -0.4208
 4889SOL    HW226304   0.558   2.985   2.675  0.1109  0.4240  0.0673
 4890SOL     OW26305   4.594   2.601   7.340 -0.3899 -0.2054  0.0248
 4890SOL    HW126306   4.594   2.650   7.422  0.1703  1.4967 -0.9974
 4890SOL    HW226307   4.606   2.667   7.271  0.1785  0.0443  0.3575
 4891SOL     OW26308   2.133   3.467  16.271  0.5801 -0.0021 -0.1473
 4891SOL    HW126309   2.083   3.466  16.190  0.0968  0.7517  0.1381
 4891SOL    HW226310   2.174   3.554  16.275  0.3375 -0.0406  3.1916
 4892SOL     OW26311   3.464   2.798  12.500  0.9286  0.8179  0.5452
 4892SOL    HW126312   3.376   2.770  12.523  0.7162  0.8426 -0.2512
 4892SOL    HW226313   3.516   2.759  12.570  1.5216 -0.4174 -0.5855
 4893SOL     OW26314   3.098   2.782   3.284  0.1031  0.5670 -0.2627
 4893SOL    HW126315   3.174   2.837   3.270  2.3553 -2.8547 -1.3565
 4893SOL    HW226316   3.128   2.715   3.345  4.7715  0.3635 -2.8678
 4894SOL     OW26317   2.691   0.937   7.396 -0.1680  0.1145 -0.1644
 4894SOL    HW126318   2.671   0.845   7.377  1.1713 -0.1242 -0.4521
 4894SOL    HW226319   2.689   0.970   7.307  0.3474  0.1835 -0.1486
 4895SOL     OW26320   4.578   2.143  12.581 -0.4332  0.3759  0.5064
 4895SOL    HW126321   4.640   2.186  12.639  2.2119 -0.7298 -1.4636
 4895SOL    HW226322   4.638   2.119  12.510  0.6158 -1.1127  1.8953
 4896SOL     OW26323   2.980   3.932   0.982  0.3940 -0.1791  0.0470
 4896SOL    HW126324   2.997   4.019   0.946 -1.9867 -0.1768 -1.0987
 4896SOL    HW226325   2.934   3.891   0.909  1.3745 -0.1003 -0.6171
 4897SOL     OW26326   2.910   4.342   8.016 -0.5014 -0.6728 -0.0742
 4897SOL    HW126327   2.847   4.400   8.060  1.7933 -0.8736  3.4485
 4897SOL    HW226328   2.983   4.399   7.991  0.4565 -0.2365  3.7212
 4898SOL     OW26329   2.896   1.636   7.815 -0.0584  0.0547  0.5047
 4898SOL    HW126330   2.839   1.562   7.794 -1.6265  1.3253  0.2487
 4898SOL    HW226331   2.982   1.597   7.801  0.1558 -0.0987  2.2533
 4899SOL     OW26332   3.494   2.924   7.737 -0.3066  0.0358 -0.1732
 4899SOL    HW126333   3.414   2.905   7.786  0.9344 -0.4559  1.6724
 4899SOL    HW226334   3.545   2.947   7.815 -0.3206  0.3733 -0.2647
 4900SOL     OW26335   2.387   4.142   7.510 -0.2879 -1.3091  0.0899
 4900SOL    HW126336   2.331   4.119   7.584 -0.4109  0.0294  0.4223
 4900SOL    HW226337   2.435   4.062   7.488  0.6869 -0.9611  0.9296
 4901SOL     OW26338   0.376   1.402   7.938  0.4678 -0.3913  0.1509
 4901SOL    HW126339   0.294   1.448   7.920 -1.2203 -2.6821  1.9059
 4901SOL    HW226340   0.346   1.324   7.984  2.2020 -0.8448  0.5292
 4902SOL     OW26341   4.286   2.239  12.505 -0.1151  0.5267 -0.2810
 4902SOL    HW126342   4.206   2.264  12.551 -0.8777  2.1204 -2.5180
 4902SOL    HW226343   4.318   2.325  12.480  1.5297  0.0017 -0.0508
 4903SOL     OW26344   0.437   1.634   7.603  0.1138 -0.1973  0.6338
 4903SOL    HW126345   0.385   1.695   7.656  0.1400 -0.2301  0.6977
 4903SOL    HW226346   0.524   1.672   7.620  0.0584  0.8049 -1.2908
 4904SOL     OW26347   0.355   1.105   3.739  0.5453 -0.5437 -0.3241
 4904SOL    HW126348   0.412   1.041   3.782  1.5992  0.0312 -0.8758
 4904SOL    HW226349   0.374   1.176   3.799  0.8064  1.1634 -2.4281
 4905SOL     OW26350   1.141   3.519   5.625 -0.0802 -0.1679  0.2969
 4905SOL    HW126351   1.229   3.486   5.642 -0.0678  0.1771  0.8795
 4905SOL    HW226352   1.121   3.563   5.707  1.0298  0.3895  0.2630
 4906SOL     OW26353   2.260   2.444   9.227 -0.5417 -0.2039 -0.5443
 4906SOL    HW126354   2.181   2.392   9.210 -1.6031  1.1984  0.1888
 4906SOL    HW226355   2.306   2.429   9.144 -2.4049 -3.3634 -1.0209
 4907SOL     OW26356   3.624   4.579   6.943 -0.1454  0.6230  0.4214
 4907SOL    HW126357   3.714   4.577   6.911  0.2202  2.1910  1.3339
 4907SOL    HW226358   3.637   4.575   7.038  1.6720  1.7237  0.2000
 4908SOL     OW26359   2.355   2.431   1.782 -0.3397 -0.7268 -0.6435
 4908SOL    HW126360   2.404   2.381   1.717 -0.3827 -2.6773  0.8367
 4908SOL    HW226361   2.333   2.507   1.727 -2.5704 -0.9063 -0.0255
 4909SOL     OW26362   1.238   2.676   6.445 -0.0033 -0.0775  0.0443
 4909SOL    HW126363   1.251   2.771   6.453  1.1519 -0.2949  0.7476
 4909SOL    HW226364   1.172   2.673   6.514  0.7905 -0.2030  0.8114
 4910SOL     OW26365   1.125   2.168   8.246  0.2190  0.8217  0.1783
 4910SOL    HW126366   1.129   2.085   8.198  1.0245  1.0183 -0.0969
 4910SOL    HW226367   1.030   2.177   8.246  0.2377  1.0122  1.7697
 4911SOL     OW26368   0.803   1.527  10.508  0.5151 -0.2718  0.3984
 4911SOL    HW126369   0.871   1.530  10.441  1.1730 -2.2921  0.9924
 4911SOL    HW226370   0.859   1.521  10.586  0.0343  0.0541  0.7689
 4912SOL     OW26371   4.170   1.452   0.524 -0.6502  0.3954 -0.4731
 4912SOL    HW126372   4.255   1.452   0.569 -0.4550  2.5571 -0.8374
 4912SOL    HW226373   4.121   1.388   0.575 -0.1897  0.5376  0.1453
 4913SOL     OW26374   2.906   3.262   9.241  0.3868  0.0247 -0.3736
 4913SOL    HW126375   2.841   3.317   9.198  1.2628  2.1715  1.0435
 4913SOL    HW226376   2.932   3.204   9.169 -0.2224 -0.0126 -0.5692
 4914SOL     OW26377   0.711   4.261   4.283  0.4821  0.1570  0.1208
 4914SOL    HW126378   0.634   4.207   4.267 -1.0093  2.3790 -0.1845
 4914SOL    HW226379   0.727   4.286   4.192  1.7526  3.5359  1.2755
 4915SOL     OW26380   2.532   4.682   1.404 -0.4711  0.1592  0.4437
 4915SOL    HW126381   2.479   4.694   1.483 -1.0632  0.2239  0.0353
 4915SOL    HW226382   2.591   0.019   1.408 -0.6973  0.3928 -0.7011
 4916SOL     OW26383   4.158   1.932  17.585 -0.1011 -0.3169 -0.0403
 4916SOL    HW126384   4.205   2.015  17.580 -1.7448  0.6878  0.9862
 4916SOL    HW226385   4.218   1.865  17.617 -0.2036 -2.1378 -3.7271
 4917SOL     OW26386   2.238   3.513   6.882 -0.0396  0.6128  0.0088
 4917SOL    HW126387   2.223   3.606   6.867 -0.5515  0.3311 -1.1771
 4917SOL    HW226388   2.283   3.523   6.966 -0.5738  0.3195  0.3255
 4918SOL     OW26389   2.994   2.251   3.565  0.1002  0.2726 -0.2394
 4918SOL    HW126390   2.914   2.202   3.545 -0.5078  0.7325  1.0783
 4918SOL    HW226391   3.062   2.185   3.557 -0.0932  0.1444 -0.8333
 4919SOL     OW26392   2.041   3.338   7.902  0.1555  0.4036 -0.3764
 4919SOL    HW126393   2.105   3.374   7.964  0.1880  0.6357 -0.5415
 4919SOL    HW226394   1.961   3.356   7.951  0.6212  1.7029 -0.0832
 4920SOL     OW26395   2.483   1.494   7.763  0.2355 -0.0904 -1.0589
 4920SOL    HW126396   2.389   1.481   7.776  0.4399 -1.3892 -0.8893
 4920SOL    HW226397   2.526   1.471   7.845  0.0498  0.0436 -0.9246
 4921SOL     OW26398   2.560   4.721   8.815  0.0260 -0.4300 -0.3099
 4921SOL    HW126399   2.514   0.053   8.858  0.1305 -2.1544  2.6024
 4921SOL    HW226400   2.526   4.646   8.865  0.2236 -0.3810 -0.1025
 4922SOL     OW26401   1.360   0.505  15.874  0.0080  0.0553 -0.1182
 4922SOL    HW126402   1.321   0.587  15.843  0.2879  1.3866  3.0187
 4922SOL    HW226403   1.339   0.445  15.802  2.0095  1.3213 -1.7439
 4923SOL     OW26404   4.321   3.612   6.061 -0.1719  0.0345  0.3860
 4923SOL    HW126405   4.373   3.538   6.094 -1.4680 -0.1504  1.9708
 4923SOL    HW226406   4.326   3.685   6.122 -2.1621  0.1008  0.4580
 4924SOL     OW26407   3.924   3.713  12.262  0.2778  0.2934 -0.6493
 4924SOL    HW126408   4.008   3.728  12.306 -1.4703  0.5420  2.6091
 4924SOL    HW226409   3.948   3.671  12.180  0.5742 -1.7224  0.4822
 4925SOL     OW26410   3.627   2.249   3.250  0.2751 -0.1649  0.3452
 4925SOL    HW126411   3.651   2.226   3.160 -0.4982 -1.9699  0.5996
 4925SOL    HW226412   3.689   2.192   3.295 -0.0610 -2.2282 -1.8314
 4926SOL     OW26413   2.433   2.475   7.511  0.0866 -0.3122  0.0786
 4926SOL    HW126414   2.434   2.571   7.513  0.3542 -0.3331  1.1293
 4926SOL    HW226415   2.353   2.471   7.564  0.9899  1.2651  1.5827
 4927SOL     OW26416   0.103   3.970   4.836  0.1470 -0.0814  0.9081
 4927SOL    HW126417   0.066   3.926   4.912  1.2892 -2.4293  0.0919
 4927SOL    HW226418   0.113   4.060   4.867  0.5367 -0.1431  0.9658
 4928SOL     OW26419   0.329   1.487  17.120  0.1482 -0.0783  0.1667
 4928SOL    HW126420   0.397   1.453  17.062  1.0465 -0.4712  1.4701
 4928SOL    HW226421   0.286   1.565  17.084  3.0933  1.2847 -0.3582
 4929SOL     OW26422   1.584   0.254   2.928 -0.3531 -0.0526 -0.0104
 4929SOL    HW126423   1.639   0.271   3.004 -0.2620 -0.6724  0.0616
 4929SOL    HW226424   1.640   0.197   2.875  2.1349  3.0961 -0.7981
 4930SOL     OW26425   1.670   4.278   0.873  0.4717  0.1732  0.3431
 4930SOL    HW126426   1.754   4.234   0.888 -0.0857 -1.3342 -0.8979
 4930SOL    HW226427   1.701   4.367   0.860  2.4129 -0.6149 -0.5078
 4931SOL     OW26428   4.058   1.191  15.958 -0.0867  0.4821 -0.6874
 4931SOL    HW126429   4.021   1.164  16.042  0.4097  1.6151 -0.1125
 4931SOL    HW226430   4.004   1.136  15.900 -1.1414 -0.8643  1.5612
 4932SOL     OW26431   1.251   4.347   3.053  0.0808 -0.4992 -0.0925
 4932SOL    HW126432   1.329   4.401   3.038  0.2888 -0.5849  0.6993
 4932SOL    HW226433   1.282   4.270   3.004  2.5316  0.6124 -0.3073
 4933SOL     OW26434   3.251   2.617  13.501  0.5520 -0.5073  0.5415
 4933SOL    HW126435   3.225   2.581  13.585 -0.7799  1.0516  0.7984
 4933SOL    HW226436   3.283   2.704  13.527 -0.9252  0.9092 -2.3723
 4934SOL     OW26437   2.825   1.240   2.487 -0.1600  0.3229 -0.9076
 4934SOL    HW126438   2.842   1.325   2.529 -0.4787  0.3897 -0.9157
 4934SOL    HW226439   2.758   1.210   2.548 -0.1509 -0.2180 -1.1641
 4935SOL     OW26440   4.282   2.465   4.435  0.1935 -0.3551 -0.1508
 4935SOL    HW126441   4.222   2.398   4.468 -0.7266 -0.7121 -2.5402
 4935SOL    HW226442   4.216   2.502   4.376  0.3717  2.2026  1.2653
 4936SOL     OW26443   4.509   0.648  12.863 -0.4272  0.3264  0.1539
 4936SOL    HW126444   4.593   0.690  12.845 -0.2328  0.3220  1.0510
 4936SOL    HW226445   4.516   0.574  12.803 -0.0028  0.6851 -0.2458
 4937SOL     OW26446   0.462   1.317   8.872 -0.5036 -0.5348 -0.6343
 4937SOL    HW126447   0.416   1.236   8.893  3.6686 -2.5606  0.6518
 4937SOL    HW226448   0.551   1.285   8.881  0.4750  2.5247  0.7542
 4938SOL     OW26449   2.761   4.413   3.198 -0.4975  0.1521  0.2612
 4938SOL    HW126450   2.722   4.383   3.280  1.0336  1.0340  1.2929
 4938SOL    HW226451   2.853   4.406   3.221 -0.4056  0.1551 -0.0988
 4939SOL     OW26452   3.063   1.556  17.106 -0.1157  0.2214  0.5505
 4939SOL    HW126453   3.107   1.551  17.191 -0.1737  0.8168  0.6155
 4939SOL    HW226454   2.976   1.587  17.128 -0.9453 -1.1277 -0.8499
 4940SOL     OW26455   2.534   1.899   1.589  0.7270  0.0337  0.0492
 4940SOL    HW126456   2.492   1.957   1.525  0.5752  0.7843  0.8381
 4940SOL    HW226457   2.545   1.954   1.667 -1.5378  0.4410  0.0981
 4941SOL     OW26458   1.417   2.117   4.810  0.2937  0.0908  0.5868
 4941SOL    HW126459   1.464   2.034   4.797 -2.3293 -1.2255 -0.4053
 4941SOL    HW226460   1.389   2.130   4.720  0.4754  0.2018  0.5448
 4942SOL     OW26461   3.885   2.585   4.956  0.1663  0.2361  0.5721
 4942SOL    HW126462   3.976   2.563   4.935 -0.0804  0.8172 -1.1306
 4942SOL    HW226463   3.837   2.503   4.946 -1.5359  1.4311 -1.0846
 4943SOL     OW26464   2.147   0.817   7.809 -0.5750  0.4804  0.0866
 4943SOL    HW126465   2.141   0.839   7.902  1.9928 -2.4492  0.9323
 4943SOL    HW226466   2.064   0.770   7.801  0.2300 -0.2257 -3.9107
 4944SOL     OW26467   0.595   3.860   3.876 -0.3719 -0.5668  0.1813
 4944SOL    HW126468   0.630   3.812   3.800  0.2520  0.0014  0.1077
 4944SOL    HW226469   0.623   3.941   3.834 -1.6618 -0.3671 -0.2971
 4945SOL     OW26470   3.205   2.610   9.068 -0.2383 -0.2625  0.4572
 4945SOL    HW126471   3.132   2.575   9.120  0.8762  0.0099  2.1971
 4945SOL    HW226472   3.272   2.600   9.136 -1.0012 -0.5144  1.1911
 4946SOL     OW26473   2.614   2.076   7.838 -0.3442 -0.6534 -1.0330
 4946SOL    HW126474   2.692   2.081   7.783  1.0794  0.2203  1.0753
 4946SOL    HW226475   2.610   1.980   7.838  1.1358 -0.7196 -0.5484
 4947SOL     OW26476   0.104   0.057   3.299  0.5686  0.4111  0.1180
 4947SOL    HW126477   0.102   4.727   3.233  0.3576 -1.0635  1.6350
 4947SOL    HW226478   0.199   0.073   3.303  0.2080  2.2669  1.1680
 4948SOL     OW26479   0.839   0.756  10.781  0.0321 -0.1519 -0.1642
 4948SOL    HW126480   0.758   0.802  10.762 -0.1390 -0.8110 -1.0355
 4948SOL    HW226481   0.899   0.786  10.713 -2.3776  3.2658 -0.7776
 4949SOL     OW26482   3.356   3.440  15.040 -0.1867  0.1561  0.3742
 4949SOL    HW126483   3.293   3.501  15.078 -0.9832 -0.0225 -0.6549
 4949SOL    HW226484   3.394   3.385  15.109  1.2406  0.9986  0.2469
 4950SOL     OW26485   2.376   3.793   3.662  0.1210 -0.1404  0.4597
 4950SOL    HW126486   2.308   3.858   3.646 -0.1388 -1.2617 -2.9966
 4950SOL    HW226487   2.407   3.811   3.751  1.3325 -1.7855  0.3761
 4951SOL     OW26488   2.546   4.506   7.076 -0.4697  0.1722  0.2607
 4951SOL    HW126489   2.548   4.545   7.163  1.9722 -0.6345  0.5740
 4951SOL    HW226490   2.545   4.412   7.095 -0.7151 -0.2940 -2.1075
 4952SOL     OW26491   2.871   0.684   1.641 -0.2738 -0.2521 -0.0514
 4952SOL    HW126492   2.966   0.691   1.640 -0.3237  0.2543 -1.0757
 4952SOL    HW226493   2.836   0.768   1.670 -0.6096 -0.4018 -0.0203
 4953SOL     OW26494   2.268   3.679  13.617 -0.3383  0.2837 -0.1718
 4953SOL    HW126495   2.343   3.621  13.612  0.3980  1.2276 -0.0399
 4953SOL    HW226496   2.294   3.759  13.571  0.3999  0.2153  0.1344
 4954SOL     OW26497   2.464   3.966   2.713  0.1879 -0.2351 -0.2205
 4954SOL    HW126498   2.463   4.046   2.660  1.6509  1.8526  2.8908
 4954SOL    HW226499   2.558   3.968   2.734 -0.2320  0.6845  1.4882
 4955SOL     OW26500   3.125   2.887  11.581 -0.1270  0.4468 -0.9828
 4955SOL    HW126501   3.160   2.941  11.651 -0.0185 -0.0306 -0.6740
 4955SOL    HW226502   3.072   2.950  11.531 -0.3571  1.0990  0.0910
 4956SOL     OW26503   1.235   3.667  17.000  0.8159 -0.0796 -0.1031
 4956SOL    HW126504   1.185   3.703  17.074 -0.8309  0.7236 -1.5956
 4956SOL    HW226505   1.326   3.696  17.009  0.7503  0.5194 -1.4446
 4957SOL     OW26506   1.427   1.281   6.971  0.2657 -0.5176  0.0668
 4957SOL    HW126507   1.481   1.347   7.014  1.3844 -0.9921 -0.6187
 4957SOL    HW226508   1.407   1.222   7.044 -2.5697 -2.4796 -2.2976
 4958SOL     OW26509   4.319   2.530   8.491  0.4095 -0.3915 -0.2399
 4958SOL    HW126510   4.232   2.502   8.463  0.2087  1.0281 -0.9951
 4958SOL    HW226511   4.329   2.492   8.578 -1.4267  0.7656  0.4642
 4959SOL     OW26512   1.985   1.442  15.053  0.1175  0.2834  0.1474
 4959SOL    HW126513   1.901   1.483  15.035 -0.3478 -0.5990  0.3266
 4959SOL    HW226514   2.001   1.372  14.990  0.8244  2.1813 -1.7646
 4960SOL     OW26515   0.005   1.072  15.450  0.5257  0.2999 -0.0606
 4960SOL    HW126516   4.701   0.997  15.492  0.0291  0.4582 -0.2878
 4960SOL    HW226517   4.719   1.143  15.509 -1.9399  0.7352 -1.6562
 4961SOL     OW26518   0.152   3.868   2.434  0.2485 -0.2050 -0.3237
 4961SOL    HW126519   0.107   3.818   2.502 -0.0036  2.8648  1.7282
 4961SOL    HW226520   0.195   3.930   2.492  0.3041  0.9401 -1.5929
 4962SOL     OW26521   2.299   2.226   4.098  0.5873 -0.4269 -0.2072
 4962SOL    HW126522   2.390   2.255   4.094  0.2836  0.5453 -0.0765
 4962SOL    HW226523   2.271   2.278   4.173 -0.5550  0.4609 -1.2445
 4963SOL     OW26524   1.815   2.792   6.996 -0.2700 -0.4455 -0.5877
 4963SOL    HW126525   1.747   2.743   6.948 -1.5085  0.4974  0.2061
 4963SOL    HW226526   1.798   2.872   6.946  1.1829  0.5129  0.4930
 4964SOL     OW26527   1.498   4.156   7.750  0.3069  0.7745 -0.6137
 4964SOL    HW126528   1.544   4.079   7.786 -0.3572  0.2681 -0.8421
 4964SOL    HW226529   1.538   4.143   7.664 -1.1763  1.5686 -1.4076
 4965SOL     OW26530   0.872   2.736   8.006 -0.0924 -0.1403 -0.3883
 4965SOL    HW126531   0.939   2.686   7.958 -0.7275 -0.8180 -0.5641
 4965SOL    HW226532   0.923   2.763   8.083 -0.6324  1.2370 -0.5248
 4966SOL     OW26533   2.721   2.516   6.356  0.8111 -0.0635  0.3457
 4966SOL    HW126534   2.785   2.461   6.401  0.9605 -0.1608  0.0073
 4966SOL    HW226535   2.693   2.585   6.417  0.1118 -0.8734  0.9349
 4967SOL     OW26536   2.388   0.422   6.176 -0.6196  0.3696 -0.1773
 4967SOL    HW126537   2.298   0.423   6.144 -0.4184  0.8116 -0.7350
 4967SOL    HW226538   2.428   0.452   6.094 -0.2028 -0.7363 -0.3755
 4968SOL     OW26539   2.439   2.741   7.498  0.5030 -0.3658 -0.0113
 4968SOL    HW126540   2.413   2.800   7.569 -1.2814  1.7860 -2.4605
 4968SOL    HW226541   2.467   2.815   7.444 -1.8973  0.0829 -0.6296
 4969SOL     OW26542   1.473   4.327   4.637  0.8554  0.0261 -0.5948
 4969SOL    HW126543   1.402   4.341   4.575 -0.1687 -1.9464  0.1249
 4969SOL    HW226544   1.445   4.247   4.681 -2.0093  0.0367 -2.4102
 4970SOL     OW26545   3.056   0.346  13.268  0.4475 -0.3293  0.0126
 4970SOL    HW126546   3.137   0.377  13.227 -0.0540  2.9496  1.5029
 4970SOL    HW226547   3.003   0.425  13.256 -2.0179 -1.6287  2.4467
 4971SOL     OW26548   2.493   3.828  15.453 -0.8624  0.3767  0.3071
 4971SOL    HW126549   2.458   3.767  15.518 -0.3074  1.2882  1.4505
 4971SOL    HW226550   2.508   3.911  15.497  0.6522 -0.1616  0.8264
 4972SOL     OW26551   0.318   1.268  17.421  0.5096  0.4128 -0.2618
 4972SOL    HW126552   0.289   1.231  17.337  0.5683  1.8094 -0.9054
 4972SOL    HW226553   0.354   1.193  17.467  1.3222  0.0252 -1.5258
 4973SOL     OW26554   4.583   3.753   6.420 -0.5220 -0.3568  0.0093
 4973SOL    HW126555   4.520   3.685   6.397  1.9759 -2.8747  0.5667
 4973SOL    HW226556   4.546   3.803   6.493 -0.9633 -0.7613  0.0585
 4974SOL     OW26557   3.704   3.131   2.488 -0.1742  0.1127  0.2518
 4974SOL    HW126558   3.713   3.189   2.564  0.1371 -0.2767  0.5125
 4974SOL    HW226559   3.766   3.062   2.511  2.6484  3.4330  2.6832
 4975SOL     OW26560   1.478   0.730   3.850  0.0847  0.2440  0.0782
 4975SOL    HW126561   1.436   0.809   3.818  1.3448  0.1068 -1.8805
 4975SOL    HW226562   1.561   0.733   3.804  0.4583 -1.2362  0.6589
 4976SOL     OW26563   1.565   3.164   1.860 -0.1631  0.0151  0.3473
 4976SOL    HW126564   1.494   3.104   1.882 -1.4155  1.7753  1.1501
 4976SOL    HW226565   1.606   3.197   1.940 -0.4572 -3.9147  2.1257
 4977SOL     OW26566   0.664   3.406   6.724 -0.8933 -0.5959  0.1032
 4977SOL    HW126567   0.688   3.394   6.632  0.5129  1.0425  0.2451
 4977SOL    HW226568   0.569   3.394   6.729 -0.9617  0.0077  0.2775
 4978SOL     OW26569   4.064   4.133  17.038  0.5431 -0.1695 -0.4594
 4978SOL    HW126570   4.075   4.104  16.948  1.1065  1.2697 -0.8413
 4978SOL    HW226571   4.062   4.226  17.016  1.7776 -0.2071 -0.7086
 4979SOL     OW26572   4.293   0.538   6.683  0.6868  0.0443 -0.4748
 4979SOL    HW126573   4.208   0.499   6.704  1.0329 -0.3087  0.2783
 4979SOL    HW226574   4.271   0.580   6.600  0.2405  2.7555  1.0250
 4980SOL     OW26575   3.948   4.211   7.122  0.0795  0.1011 -0.0642
 4980SOL    HW126576   3.928   4.305   7.123 -0.2156  0.0441 -1.0074
 4980SOL    HW226577   3.890   4.182   7.052 -0.2725  0.5256  0.0432
 4981SOL     OW26578   1.599   2.635   6.517 -0.5263 -0.0789  0.2899
 4981SOL    HW126579   1.584   2.591   6.434  0.8393 -1.7896  0.9563
 4981SOL    HW226580   1.602   2.725   6.485 -2.0265  0.3705  1.3495
 4982SOL     OW26581   2.518   0.651   0.566 -0.1564 -0.0450  0.2028
 4982SOL    HW126582   2.514   0.563   0.604 -1.2470  0.1915  0.6455
 4982SOL    HW226583   2.446   0.640   0.503  1.3231 -2.1391 -1.1097
 4983SOL     OW26584   2.399   0.398   5.067  0.3962 -0.4066 -0.2663
 4983SOL    HW126585   2.355   0.362   5.144 -0.5836  1.1412 -0.1064
 4983SOL    HW226586   2.434   0.478   5.105  0.2014  0.1175 -1.2052
 4984SOL     OW26587   0.580   0.851   5.089  0.4169  0.1679  0.4761
 4984SOL    HW126588   0.570   0.837   4.994  2.8425  0.0449  0.2345
 4984SOL    HW226589   0.560   0.944   5.096 -1.7332 -0.2207 -0.5840
 4985SOL     OW26590   0.063   3.021   2.040  0.6884 -0.2973  0.0860
 4985SOL    HW126591   0.067   3.100   2.094  1.4167 -1.0154  1.0895
 4985SOL    HW226592   0.074   2.963   2.115 -0.7895 -0.2503  0.3515
 4986SOL     OW26593   4.103   2.480   2.649 -0.2794  0.1706  0.5691
 4986SOL    HW126594   4.164   2.553   2.660  1.0861 -1.0119  0.9856
 4986SOL    HW226595   4.070   2.464   2.737 -2.5555  0.7829 -0.1778
 4987SOL     OW26596   1.516   4.123   9.535  0.4304 -0.1771  0.3744
 4987SOL    HW126597   1.509   4.175   9.615  2.6683 -1.0519  1.1560
 4987SOL    HW226598   1.579   4.173   9.484  0.3639 -0.3573  0.1163
 4988SOL     OW26599   2.225   1.051   7.319  0.0749  0.0337  0.1259
 4988SOL    HW126600   2.250   1.015   7.404 -0.6824  0.2895  0.4617
 4988SOL    HW226601   2.193   0.980   7.264 -0.1816 -0.9686  1.5683
 4989SOL     OW26602   1.832   3.417   4.403  0.1403  0.1976 -0.0452
 4989SOL    HW126603   1.801   3.347   4.345  0.5211  0.0604 -0.0861
 4989SOL    HW226604   1.912   3.436   4.353 -0.2582  0.7575 -0.4675
 4990SOL     OW26605   3.389   3.465   3.758 -0.3825 -0.3441 -0.2135
 4990SOL    HW126606   3.324   3.429   3.699  0.3451 -3.3938  0.8316
 4990SOL    HW226607   3.379   3.399   3.827  0.9099 -0.1948  0.1265
 4991SOL     OW26608   4.230   3.301  12.326 -0.0089  0.3110  0.2057
 4991SOL    HW126609   4.284   3.375  12.355  1.2027 -0.2313 -0.6454
 4991SOL    HW226610   4.188   3.275  12.407 -0.5703 -0.5696 -0.3739
 4992SOL     OW26611   0.328   2.781   8.516 -0.0456 -0.1067  0.2150
 4992SOL    HW126612   0.418   2.754   8.532 -0.5152 -1.6321  0.2767
 4992SOL    HW226613   0.293   2.772   8.605 -2.0607 -0.8219 -0.6528
 4993SOL     OW26614   2.448   0.471   2.586 -0.6802  0.4582  0.8295
 4993SOL    HW126615   2.442   0.447   2.493 -0.8526 -0.2338  1.0272
 4993SOL    HW226616   2.524   0.530   2.583 -0.3626 -0.0703 -2.4552
 4994SOL     OW26617   2.109   2.347   7.448 -0.1244  0.4540  0.1311
 4994SOL    HW126618   2.043   2.411   7.424  0.3770 -0.1206 -2.7728
 4994SOL    HW226619   2.142   2.396   7.523 -2.8256  2.1875  0.1859
 4995SOL     OW26620   1.372   2.052   2.337  0.6931 -0.5129  0.2622
 4995SOL    HW126621   1.369   2.052   2.432  0.4402 -0.2250  0.2536
 4995SOL    HW226622   1.424   1.974   2.316 -0.7253 -0.9057 -1.8118
 4996SOL     OW26623   3.662   3.816  10.625  0.3386  0.3913 -0.0687
 4996SOL    HW126624   3.711   3.887  10.584  0.6318 -0.8743 -1.9230
 4996SOL    HW226625   3.569   3.827  10.604  0.1612 -1.8878 -0.5419
 4997SOL     OW26626   1.436   2.132  12.240 -0.0935  0.5802 -0.2931
 4997SOL    HW126627   1.386   2.209  12.266  0.6319  0.9810 -0.0983
 4997SOL    HW226628   1.381   2.093  12.172  1.0015 -1.9630  0.2651
 4998SOL     OW26629   2.744   2.120   2.494  0.0035  0.0580  0.1775
 4998SOL    HW126630   2.805   2.122   2.420  3.4991 -0.2557  3.0393
 4998SOL    HW226631   2.798   2.129   2.572 -0.0424  0.6777  0.1340
 4999SOL     OW26632   1.704   3.602  13.362 -0.5285 -0.4828  0.3873
 4999SOL    HW126633   1.615   3.631  13.342  0.0399  0.1900 -1.1478
 4999SOL    HW226634   1.708   3.567  13.451 -1.0239  0.6963  0.8648
 5000SOL     OW26635   0.833   0.317   5.746 -0.1434  0.1523  0.2598
 5000SOL    HW126636   0.802   0.246   5.690 -2.6602  2.2126 -0.9617
 5000SOL    HW226637   0.769   0.316   5.817 -0.1519 -0.6733  0.2452
 5001SOL     OW26638   1.218   3.781   8.716  0.3439  0.4276  0.1897
 5001SOL    HW126639   1.127   3.794   8.741  0.7361 -0.6185  2.1622
 5001SOL    HW226640   1.235   3.852   8.654 -1.3098  0.1463 -0.5745
 5002SOL     OW26641   1.749   3.869   7.382 -0.3592  0.6057  0.5110
 5002SOL    HW126642   1.666   3.825   7.394  0.6130 -1.4218 -0.2048
 5002SOL    HW226643   1.815   3.803   7.404 -0.7645 -0.3703 -1.1760
 5003SOL     OW26644   0.376   2.183  10.849 -0.3397 -0.0052 -0.5218
 5003SOL    HW126645   0.461   2.226  10.840  0.5873 -2.2556 -2.3278
 5003SOL    HW226646   0.326   2.233  10.785  0.7327  1.1113 -0.4943
 5004SOL     OW26647   2.602   3.900   0.775  0.2871 -0.2204  0.3559
 5004SOL    HW126648   2.568   3.989   0.779  2.4566  0.5310  2.7664
 5004SOL    HW226649   2.606   3.895   0.680 -1.7921 -2.3148  0.3741
 5005SOL     OW26650   2.461   3.140   6.549  0.1068  0.1132 -0.4603
 5005SOL    HW126651   2.528   3.129   6.481 -0.0178  0.5162 -0.6484
 5005SOL    HW226652   2.387   3.151   6.489 -0.7523  2.4276  1.0523
 5006SOL     OW26653   0.049   3.492   2.623  0.0242 -0.3269 -0.0267
 5006SOL    HW126654   0.064   3.587   2.621 -0.2794 -0.2566  1.1142
 5006SOL    HW226655   4.694   3.496   2.603 -0.1410 -0.8492  0.6556
 5007SOL     OW26656   4.414   0.875   5.132 -0.3899  0.2977  0.3765
 5007SOL    HW126657   4.371   0.851   5.050  0.5154  2.9437 -0.8782
 5007SOL    HW226658   4.340   0.912   5.180 -3.1777 -2.5126 -1.8354
 5008SOL     OW26659   1.997   2.497   8.479  0.1213 -0.0778 -0.2637
 5008SOL    HW126660   1.910   2.535   8.489 -0.8635 -1.9660 -1.5752
 5008SOL    HW226661   1.974   2.407   8.499  0.5487 -0.6789 -2.4200
 5009SOL     OW26662   3.694   3.525   8.344  0.0389 -0.1238  0.2949
 5009SOL    HW126663   3.623   3.558   8.290 -1.4901 -0.2054  2.2488
 5009SOL    HW226664   3.721   3.442   8.307 -0.6610 -0.3682  0.3403
 5010SOL     OW26665   3.656   1.880   5.821 -0.4860  0.5716  0.4052
 5010SOL    HW126666   3.674   1.920   5.736 -0.8163 -1.6597 -0.7306
 5010SOL    HW226667   3.698   1.796   5.806 -2.3467 -0.1057 -1.0754
 5011SOL     OW26668   4.722   1.666   8.718 -0.7326 -0.3390 -0.4508
 5011SOL    HW126669   0.076   1.657   8.697 -0.5010  1.2374 -0.1192
 5011SOL    HW226670   4.715   1.751   8.761 -1.2267  0.0284 -1.2548
 5012SOL     OW26671   0.152   1.239   1.612 -0.4661 -0.4264 -0.0113
 5012SOL    HW126672   0.192   1.190   1.684  4.6297  2.9316 -0.6188
 5012SOL    HW226673   0.191   1.200   1.534 -2.3030  1.8725 -2.0683
 5013SOL     OW26674   3.313   0.000   3.899  0.0345  0.0241 -0.1311
 5013SOL    HW126675   3.281   0.089   3.882  2.8286  0.9822 -0.5454
 5013SOL    HW226676   3.385   0.011   3.962 -1.5616 -2.0356  2.0360
 5014SOL     OW26677   1.599   1.909   4.844 -0.2900 -0.8522 -0.3421
 5014SOL    HW126678   1.637   1.859   4.771 -1.5749 -1.2686 -0.7238
 5014SOL    HW226679   1.682   1.948   4.871  0.6396 -1.6989 -2.0105
 5015SOL     OW26680   0.074   4.365   7.740 -0.3055 -0.1137  0.1743
 5015SOL    HW126681   4.736   4.404   7.781 -0.5571 -1.9107  1.4634
 5015SOL    HW226682   0.066   4.273   7.768  3.4824  0.0672  1.8647
 5016SOL     OW26683   3.471   4.147   4.544  0.7403 -0.2247 -0.4106
 5016SOL    HW126684   3.419   4.139   4.624  2.3766 -0.7297  0.6118
 5016SOL    HW226685   3.427   4.077   4.496  2.4474 -1.3880 -0.2841
 5017SOL     OW26686   1.204   4.580   6.405 -0.2699 -0.1446  0.5483
 5017SOL    HW126687   1.120   4.624   6.416 -0.6279 -1.1692  2.0347
 5017SOL    HW226688   1.173   4.490   6.392 -0.3968 -0.0937  0.5010
 5018SOL     OW26689   0.160   0.473   6.865 -0.1453 -1.0233 -0.3170
 5018SOL    HW126690   0.110   0.404   6.821  2.4653 -3.0288 -0.1248
 5018SOL    HW226691   0.147   0.550   6.809 -0.8997  0.4126  1.8402
 5019SOL     OW26692   3.345   1.780   8.901 -0.5543  0.2566  0.7690
 5019SOL    HW126693   3.419   1.773   8.961  0.2712 -1.8676 -0.5118
 5019SOL    HW226694   3.274   1.766   8.963 -1.6476  1.1669 -0.2794
 5020SOL     OW26695   1.749   2.971   9.051 -0.1754  0.2997 -0.1433
 5020SOL    HW126696   1.677   3.034   9.041 -1.8966 -1.4715  0.9391
 5020SOL    HW226697   1.765   2.947   8.960 -0.4515  1.2037 -0.4260
 5021SOL     OW26698   2.742   3.070   6.981  0.4349 -0.1222  0.3075
 5021SOL    HW126699   2.828   3.031   6.992  1.3990  0.8948 -3.6538
 5021SOL    HW226700   2.700   2.987   6.957 -0.2011  0.4092 -0.4273
 5022SOL     OW26701   3.675   2.153   6.269 -0.2266 -0.4696  0.3088
 5022SOL    HW126702   3.726   2.217   6.219  0.4257 -0.7616  0.6144
 5022SOL    HW226703   3.669   2.200   6.352  0.3600  1.8990 -0.9874
 5023SOL     OW26704   1.582   0.649   7.398  0.1659 -0.5974 -0.0279
 5023SOL    HW126705   1.595   0.635   7.492  1.5218 -0.5729 -0.2177
 5023SOL    HW226706   1.487   0.664   7.397  0.2384 -0.0206  1.8239
 5024SOL     OW26707   4.030   4.347   6.465 -0.1062  0.1843 -0.0164
 5024SOL    HW126708   4.028   4.299   6.382  0.8300 -2.5216  1.5249
 5024SOL    HW226709   3.937   4.369   6.464 -0.2124 -0.3331 -1.1868
 5025SOL     OW26710   0.507   1.702  10.562 -0.5088  0.0860  0.3525
 5025SOL    HW126711   0.481   1.746  10.643  2.1927 -0.9815  1.8268
 5025SOL    HW226712   0.526   1.611  10.587  1.8787  0.4748 -0.0575
 5026SOL     OW26713   2.907   3.689   3.631 -0.2955 -0.0016  0.0665
 5026SOL    HW126714   2.842   3.629   3.667  1.0269 -0.4817  1.6351
 5026SOL    HW226715   2.858   3.771   3.629 -0.9347 -0.3909 -0.2205
 5027SOL     OW26716   4.169   1.377   8.771 -0.0585  0.3068 -0.3321
 5027SOL    HW126717   4.102   1.397   8.836  1.0990  0.1359  0.9256
 5027SOL    HW226718   4.178   1.283   8.790  3.7058  0.6115 -0.6343
 5028SOL     OW26719   0.266   3.480   8.042 -0.2678 -0.2322 -0.5483
 5028SOL    HW126720   0.299   3.416   8.104 -0.6134 -0.9252 -1.0835
 5028SOL    HW226721   0.272   3.430   7.960  1.8864  0.9176 -1.1000
 5029SOL     OW26722   0.636   0.811   9.203  0.0528  0.0042  0.2620
 5029SOL    HW126723   0.656   0.890   9.153 -0.6555  0.2727  0.3992
 5029SOL    HW226724   0.658   0.849   9.288  0.8969 -0.5547  0.2912
 5030SOL     OW26725   1.065   0.860   6.947 -0.0682 -0.5101  0.3109
 5030SOL    HW126726   1.090   0.837   7.037  1.1085 -1.7850 -0.3438
 5030SOL    HW226727   0.975   0.888   6.966  0.3464 -0.1657  1.7784
 5031SOL     OW26728   0.978   0.327  16.247 -0.1830 -0.2164  0.2879
 5031SOL    HW126729   1.029   0.399  16.211 -1.7076  1.7339  2.0700
 5031SOL    HW226730   0.886   0.349  16.232 -0.4667  0.0344  2.4078
 5032SOL     OW26731   1.565   3.746   5.909 -0.0736  0.3240 -0.4305
 5032SOL    HW126732   1.474   3.730   5.882  0.5162  0.6481 -2.5394
 5032SOL    HW226733   1.615   3.682   5.859  0.4815  0.5653 -0.1875
 5033SOL     OW26734   3.793   1.518  15.239  0.2532  0.7320 -0.0315
 5033SOL    HW126735   3.765   1.443  15.292  1.3783  0.8827  0.7593
 5033SOL    HW226736   3.748   1.499  15.156 -0.8330  2.4836  0.1602
 5034SOL     OW26737   2.473   1.728  10.633 -0.3962 -0.5181  0.0882
 5034SOL    HW126738   2.448   1.733  10.541  0.0003  1.5777  0.0892
 5034SOL    HW226739   2.394   1.711  10.684 -0.3968 -0.0148  0.2547
 5035SOL     OW26740   2.608   3.319  10.489 -0.1784 -0.3489  0.1022
 5035SOL    HW126741   2.512   3.322  10.483 -0.3324 -2.0191  1.6355
 5035SOL    HW226742   2.631   3.410  10.470  1.2639 -1.1715 -2.1110
 5036SOL     OW26743   1.433   0.224   9.412 -0.0373  0.4089 -0.6590
 5036SOL    HW126744   1.370   0.154   9.428 -0.1968  0.5770 -0.5330
 5036SOL    HW226745   1.461   0.205   9.323 -0.9934 -1.5779 -0.5194
 5037SOL     OW26746   3.304   1.005   1.459  0.4552  0.1996  0.0691
 5037SOL    HW126747   3.379   1.064   1.461  0.9084 -0.3331 -0.7755
 5037SOL    HW226748   3.343   0.918   1.471 -1.0437 -0.2773  1.3534
 5038SOL     OW26749   3.831   2.588  13.716 -0.3076 -1.0492  0.0784
 5038SOL    HW126750   3.893   2.655  13.745 -1.6514 -0.4658  1.6046
 5038SOL    HW226751   3.887   2.549  13.650  0.7420  0.8259 -0.1536
 5039SOL     OW26752   2.889   2.566   7.142 -0.1267 -0.9120  0.2188
 5039SOL    HW126753   2.854   2.477   7.142 -1.1020 -0.5266  0.2578
 5039SOL    HW226754   2.808   2.615   7.157  0.1781 -0.3475  0.0398
 5040SOL     OW26755   3.912   4.488   4.328 -0.7852 -0.0465 -0.2904
 5040SOL    HW126756   3.881   4.429   4.259  3.0979 -2.5376  0.0975
 5040SOL    HW226757   3.994   4.444   4.349 -1.3057 -1.5627 -1.4019
 5041SOL     OW26758   4.126   3.460   3.790 -0.0487  0.5087  0.2367
 5041SOL    HW126759   4.217   3.430   3.796  0.0892  1.0333  0.6973
 5041SOL    HW226760   4.118   3.441   3.883 -0.5937  0.2907  0.1525
 5042SOL     OW26761   1.746   3.202   7.387 -0.1147  0.2441  0.8604
 5042SOL    HW126762   1.793   3.246   7.316 -1.2396  1.3275  0.7796
 5042SOL    HW226763   1.657   3.236   7.373 -1.9215 -5.0368 -0.3765
 5043SOL     OW26764   3.725   2.871   9.060  0.0695 -0.3268  0.0091
 5043SOL    HW126765   3.670   2.821   8.999 -0.4092  2.5403 -1.9248
 5043SOL    HW226766   3.699   2.959   9.033  2.5014  0.5409  0.5419
 5044SOL     OW26767   2.250   3.686   9.383 -0.4725 -0.1687  0.0482
 5044SOL    HW126768   2.341   3.655   9.385 -0.4610 -0.1485 -0.1482
 5044SOL    HW226769   2.228   3.641   9.301 -0.9398  1.7952 -0.9099
 5045SOL     OW26770   3.754   2.884   5.159 -0.3208 -0.3698 -0.3052
 5045SOL    HW126771   3.793   2.849   5.239 -0.4493 -0.4033 -0.2555
 5045SOL    HW226772   3.723   2.972   5.181 -2.2437 -0.8742 -0.9870
 5046SOL     OW26773   3.526   4.348  10.212 -0.2077  0.0354 -0.3020
 5046SOL    HW126774   3.430   4.354  10.210 -0.4658 -3.2739  1.7281
 5046SOL    HW226775   3.530   4.256  10.185  1.8227  0.9947 -3.2786
 5047SOL     OW26776   1.681   1.277   3.130  0.4487 -0.3140 -0.0020
 5047SOL    HW126777   1.684   1.349   3.193  1.0619  0.2300 -0.6617
 5047SOL    HW226778   1.685   1.202   3.190  0.6779 -0.6993 -0.4999
 5048SOL     OW26779   3.110   3.597   6.824  0.4090  0.7173 -0.7640
 5048SOL    HW126780   3.107   3.692   6.816  1.0984  0.7681 -0.3761
 5048SOL    HW226781   3.033   3.572   6.875  0.8736 -0.3127 -0.5576
 5049SOL     OW26782   3.195   2.735   3.923 -0.8585 -0.2289  0.5620
 5049SOL    HW126783   3.154   2.748   3.837 -1.0063 -1.0653  0.5062
 5049SOL    HW226784   3.226   2.646   3.904  0.3353  0.5766 -1.2864
 5050SOL     OW26785   4.165   3.778   5.853  0.0910 -0.3755  0.0596
 5050SOL    HW126786   4.250   3.782   5.896 -0.6682  1.6799  1.3926
 5050SOL    HW226787   4.204   3.783   5.766 -0.2165 -1.0667 -0.1236
 5051SOL     OW26788   0.255   1.096  12.703  0.3011 -0.0536  0.5470
 5051SOL    HW126789   0.219   1.068  12.619 -0.9696 -0.0098  1.0898
 5051SOL    HW226790   0.185   1.079  12.765 -0.5659 -1.1649 -0.7642
 5052SOL     OW26791   0.454   1.344  13.383 -0.3694 -0.1320  0.1985
 5052SOL    HW126792   0.406   1.319  13.462  1.4695  0.2912  1.4761
 5052SOL    HW226793   0.503   1.420  13.414 -0.5506  0.2787 -0.5157
 5053SOL     OW26794   3.090   1.101   5.854 -0.2385 -0.1351 -0.3631
 5053SOL    HW126795   3.028   1.049   5.802 -1.4958  0.2579  0.7204
 5053SOL    HW226796   3.067   1.065   5.940 -2.0313  0.5285 -0.5524
 5054SOL     OW26797   1.746   1.404   3.713 -0.0170  0.2012 -0.5252
 5054SOL    HW126798   1.662   1.359   3.704  0.3213 -0.5292 -0.0005
 5054SOL    HW226799   1.801   1.340   3.668  0.5463  0.4987 -0.2602
 5055SOL     OW26800   1.272   3.816  16.710 -0.3718 -0.1230  0.0566
 5055SOL    HW126801   1.341   3.876  16.739  1.9886 -1.7307 -2.3084
 5055SOL    HW226802   1.325   3.772  16.644 -1.4095 -1.0726 -0.1484
 5056SOL     OW26803   1.073   4.277   3.274 -0.0678 -0.0760 -0.2305
 5056SOL    HW126804   1.101   4.187   3.256 -2.1602 -1.2307  2.2212
 5056SOL    HW226805   1.142   4.320   3.224  1.4532 -2.2680 -0.0043
 5057SOL     OW26806   0.302   3.031  15.227 -0.0023 -0.0458  0.0812
 5057SOL    HW126807   0.307   2.941  15.196  0.8174  0.6823 -1.8988
 5057SOL    HW226808   0.286   3.022  15.321 -0.3719  0.0041  0.0224
 5058SOL     OW26809   2.378   0.172   7.988 -0.5148  0.5092 -0.4263
 5058SOL    HW126810   2.332   0.137   7.912 -1.4034  1.8141 -0.4858
 5058SOL    HW226811   2.381   0.266   7.971  1.1515  0.2498 -1.6204
 5059SOL     OW26812   3.843   4.642   3.656 -0.0916 -0.2840  0.6656
 5059SOL    HW126813   3.781   4.570   3.658 -0.7662  0.3131  0.9888
 5059SOL    HW226814   3.786   4.710   3.693  0.5524  0.3485  0.5047
 5060SOL     OW26815   4.536   3.780   8.532  0.3491  0.6663  0.1670
 5060SOL    HW126816   4.523   3.833   8.454 -0.9105 -0.5700 -0.4731
 5060SOL    HW226817   4.613   3.822   8.570 -0.3279 -0.8369  3.2345
 5061SOL     OW26818   2.722   0.658   1.320  0.0982  0.0396 -0.1192
 5061SOL    HW126819   2.652   0.609   1.276 -0.2142  0.4495 -0.0782
 5061SOL    HW226820   2.669   0.701   1.387  1.0250  0.8879  0.0626
 5062SOL     OW26821   4.546   0.824   2.275  0.1633  0.1740 -0.0782
 5062SOL    HW126822   4.567   0.842   2.366  3.6912 -1.0179 -0.6402
 5062SOL    HW226823   4.501   0.903   2.246  0.1209  0.6696  1.3671
 5063SOL     OW26824   4.427   1.989   3.619  0.4177 -0.5676  0.4290
 5063SOL    HW126825   4.516   1.982   3.584  0.1812 -1.8028  0.0881
 5063SOL    HW226826   4.411   2.065   3.563  0.3239 -0.6826  0.2982
 5064SOL     OW26827   3.584   2.192   5.314  0.1718 -0.1064  0.4952
 5064SOL    HW126828   3.581   2.287   5.326  2.7132  0.2744 -1.7708
 5064SOL    HW226829   3.575   2.178   5.220 -0.9664  0.6999  0.4917
 5065SOL     OW26830   4.226   3.937   3.728 -0.3008 -0.0954  0.1080
 5065SOL    HW126831   4.291   3.977   3.786  0.4687 -1.6880  0.3462
 5065SOL    HW226832   4.286   3.895   3.667 -1.1235  1.4604 -1.7804
 5066SOL     OW26833   3.423   4.481   3.122  0.4036  0.0141 -0.2471
 5066SOL    HW126834   3.420   4.513   3.213  0.5183 -0.1411 -0.1873
 5066SOL    HW226835   3.503   4.514   3.082 -0.8046  0.1411 -2.5425
 5067SOL     OW26836   4.256   1.371   8.509  0.1729 -0.1345 -0.2858
 5067SOL    HW126837   4.225   1.369   8.599  2.0513 -0.3029  0.3520
 5067SOL    HW226838   4.205   1.310   8.456 -0.1188  0.7164 -0.9807
 5068SOL     OW26839   0.557   1.791   2.663  0.5213 -0.0474  0.1396
 5068SOL    HW126840   0.555   1.859   2.596  0.3603 -2.3237 -2.1754
 5068SOL    HW226841   0.646   1.757   2.652  0.3016 -0.3671 -0.6340
 5069SOL     OW26842   1.936   0.402   7.442 -0.4888  0.1991 -0.2026
 5069SOL    HW126843   1.930   0.397   7.346 -1.6701 -0.5972 -0.0936
 5069SOL    HW226844   1.842   0.408   7.461 -0.4590 -0.1068  0.0348
 5070SOL     OW26845   3.503   3.204  14.846 -0.2469  0.0397 -0.3122
 5070SOL    HW126846   3.496   3.158  14.762  0.2170  0.0445 -0.3551
 5070SOL    HW226847   3.479   3.291  14.814 -3.9189 -0.4442  1.1636
 5071SOL     OW26848   1.216   1.484   5.592  0.0072  0.1461  0.7366
 5071SOL    HW126849   1.148   1.534   5.547  0.6416  0.8378  0.5532
 5071SOL    HW226850   1.237   1.423   5.521  0.7906  1.7378 -0.3907
 5072SOL     OW26851   1.535   3.503   6.185  0.3787 -0.3733  0.0838
 5072SOL    HW126852   1.488   3.522   6.267 -2.3763 -1.5107 -1.2097
 5072SOL    HW226853   1.463   3.484   6.124 -0.4272  0.7027  0.6977
 5073SOL     OW26854   3.396   3.893  15.313  0.3801 -0.2257  0.1837
 5073SOL    HW126855   3.385   3.854  15.227  1.7546  1.4101 -0.7316
 5073SOL    HW226856   3.382   3.822  15.375  1.7906  0.1625  0.9564
 5074SOL     OW26857   0.532   3.422   3.686 -0.6362  0.2001 -0.0551
 5074SOL    HW126858   0.464   3.365   3.721 -0.4697 -0.0890 -0.2022
 5074SOL    HW226859   0.483   3.459   3.612 -1.6954  0.1429  0.6119
 5075SOL     OW26860   0.462   1.602   2.163  0.1345 -0.0043  0.1263
 5075SOL    HW126861   0.449   1.585   2.069 -0.4300 -2.3632  0.6276
 5075SOL    HW226862   0.554   1.580   2.173  0.6869  1.4812 -1.7247
 5076SOL     OW26863   0.274   4.196   3.300  0.3930  1.4164  0.0194
 5076SOL    HW126864   0.185   4.166   3.319 -0.0888  2.1826 -1.1061
 5076SOL    HW226865   0.283   4.183   3.206 -0.9703 -0.8599  0.1939
 5077SOL     OW26866   4.700   0.322   6.169 -0.2694 -0.2091 -0.0022
 5077SOL    HW126867   4.726   0.414   6.169  1.2403 -0.6357 -1.7465
 5077SOL    HW226868   4.721   0.291   6.081 -1.1966 -0.0935 -0.2666
 5078SOL     OW26869   2.779   0.335   5.056 -0.1120 -0.5384 -0.1520
 5078SOL    HW126870   2.817   0.373   5.135 -0.0029 -1.9605  0.4893
 5078SOL    HW226871   2.768   0.413   5.002 -2.3779 -1.0799 -0.4702
 5079SOL     OW26872   4.072   4.444   3.985 -0.2712 -0.5421 -0.2277
 5079SOL    HW126873   4.065   4.426   3.891 -0.3040  3.0547 -0.9070
 5079SOL    HW226874   3.978   4.442   4.001 -0.5813  1.0998 -1.8285
 5080SOL     OW26875   2.796   3.594   6.322  0.1359  0.3347 -0.1291
 5080SOL    HW126876   2.841   3.651   6.260  1.1168 -0.7696 -0.4400
 5080SOL    HW226877   2.810   3.643   6.404  0.9347  0.6654 -0.4600
 5081SOL     OW26878   0.045   3.135  15.220 -0.1308 -0.5024  0.4008
 5081SOL    HW126879   0.136   3.104  15.220  0.1941  0.4374  0.8419
 5081SOL    HW226880   4.733   3.069  15.267  0.5888 -0.9443  0.5709
 5082SOL     OW26881   2.394   3.699   7.922  0.0683 -0.2127  0.2866
 5082SOL    HW126882   2.474   3.664   7.882 -1.6469 -3.5493 -0.1684
 5082SOL    HW226883   2.384   3.786   7.882 -0.2211 -0.5033 -0.2617
 5083SOL     OW26884   2.398   4.234  16.928 -0.1036  0.0370  0.3387
 5083SOL    HW126885   2.444   4.158  16.892  1.1088  1.0191 -0.1770
 5083SOL    HW226886   2.327   4.224  16.865 -1.2806  0.6111  1.5735
 5084SOL     OW26887   3.037   3.145   3.720 -0.3131  0.5382 -0.3514
 5084SOL    HW126888   3.043   3.154   3.624  0.1409 -0.3971 -0.4015
 5084SOL    HW226889   3.085   3.064   3.733 -1.1252  0.3546  1.3630
 5085SOL     OW26890   0.852   4.018   9.565 -0.4845  0.3017 -0.7585
 5085SOL    HW126891   0.918   3.952   9.586 -0.6827  0.6112  0.8282
 5085SOL    HW226892   0.801   4.013   9.646 -0.0894  0.0493 -0.5271
 5086SOL     OW26893   0.476   0.307   0.087 -0.3102  0.1274 -0.2304
 5086SOL    HW126894   0.558   0.276   0.124  0.4505  0.7490 -1.3865
 5086SOL    HW226895   0.501   0.399   0.078  3.5138 -0.7147  1.8310
 5087SOL     OW26896   3.295   1.823   1.792  0.2058  0.4318  0.2385
 5087SOL    HW126897   3.369   1.847   1.736 -0.3050 -0.7244 -0.9296
 5087SOL    HW226898   3.314   1.855   1.881  1.1944 -0.7580  0.4581
 5088SOL     OW26899   3.103   3.167   3.422 -0.3254  0.4579  0.6528
 5088SOL    HW126900   3.118   3.160   3.327 -1.0359 -3.3666  0.8376
 5088SOL    HW226901   3.029   3.228   3.424 -0.8894 -0.1699 -0.7003
 5089SOL     OW26902   0.067   2.575   1.684  0.2856  0.1654  0.0929
 5089SOL    HW126903   0.049   2.631   1.760 -0.7849 -0.0401 -0.0031
 5089SOL    HW226904   4.720   2.577   1.643 -0.9984  0.3534  2.7349
 5090SOL     OW26905   0.989   3.708  13.942  0.2361 -0.4366 -0.0605
 5090SOL    HW126906   0.937   3.654  14.002  0.2481  1.8521  2.0278
 5090SOL    HW226907   0.993   3.796  13.979 -0.1315 -0.6673  0.5396
 5091SOL     OW26908   2.150   1.722   5.599  0.2417  0.1699  0.1104
 5091SOL    HW126909   2.148   1.812   5.632  0.3953  1.0264 -2.2003
 5091SOL    HW226910   2.141   1.728   5.504 -0.4289  1.2122  0.2447
 5092SOL     OW26911   3.588   2.977  17.080  0.4076  0.4416 -0.1304
 5092SOL    HW126912   3.544   2.955  16.999  2.8501  2.7044 -2.0781
 5092SOL    HW226913   3.680   2.959  17.059  0.0055 -2.5204  0.6570
 5093SOL     OW26914   2.980   0.957   1.114  0.3548 -0.7196  0.2889
 5093SOL    HW126915   3.045   1.015   1.152  0.3636 -0.6543  0.1739
 5093SOL    HW226916   3.049   0.902   1.076  1.0303  0.1638  0.2564
 5094SOL     OW26917   4.413   4.625   9.550  0.0421 -0.5215 -0.2192
 5094SOL    HW126918   4.414   4.718   9.525  2.1267 -0.0581  1.5682
 5094SOL    HW226919   4.377   4.587   9.470 -1.1069  1.2281 -0.5249
 5095SOL     OW26920   1.226   4.550  16.145  0.6286  0.1146 -0.0119
 5095SOL    HW126921   1.295   4.606  16.180  1.2611  0.0106 -1.0902
 5095SOL    HW226922   1.275   4.477  16.106  2.1302  0.7253  0.7385
 5096SOL     OW26923   2.102   3.080   5.823 -0.0086 -0.0802  0.3015
 5096SOL    HW126924   2.165   3.040   5.883 -1.1926 -0.2166  1.4684
 5096SOL    HW226925   2.078   3.003   5.772 -0.9485  1.4908 -1.5919
 5097SOL     OW26926   1.702   3.381  14.026  0.4600  0.3027  0.0973
 5097SOL    HW126927   1.619   3.388  14.073  0.0212 -0.5531 -0.5570
 5097SOL    HW226928   1.758   3.399  14.102  2.0039  0.9492 -1.1852
 5098SOL     OW26929   1.007   1.125   6.416 -0.1288  0.7194  0.8144
 5098SOL    HW126930   1.079   1.158   6.470  0.8220 -1.1454  0.6785
 5098SOL    HW226931   1.013   1.034   6.445 -0.0630 -0.4727 -2.9719
 5099SOL     OW26932   0.894   3.448   4.181 -0.2596  0.4069 -0.9906
 5099SOL    HW126933   0.979   3.481   4.151 -0.9621  1.0571 -2.2669
 5099SOL    HW226934   0.840   3.462   4.103  0.5912  0.0818 -1.6395
 5100SOL     OW26935   2.083   0.290   4.312  0.3531 -0.1779  1.0939
 5100SOL    HW126936   2.004   0.327   4.350  0.3561 -0.0745  0.9999
 5100SOL    HW226937   2.120   0.367   4.268 -2.8782  0.2421 -0.8585
 5101SOL     OW26938   3.626   4.014   2.051  0.1442 -0.6560 -0.2987
 5101SOL    HW126939   3.697   3.955   2.078  0.3469  1.3646  3.6743
 5101SOL    HW226940   3.550   3.956   2.058 -0.0604 -0.3884 -0.2846
 5102SOL     OW26941   0.395   0.351   1.589 -0.0696  0.2135 -0.1089
 5102SOL    HW126942   0.374   0.372   1.499  1.3552 -0.6073 -0.6452
 5102SOL    HW226943   0.329   0.283   1.605 -0.2753 -0.3055 -3.1445
 5103SOL     OW26944   1.321   3.859   3.709  0.5198  0.5577 -0.0356
 5103SOL    HW126945   1.335   3.911   3.630  3.4850  0.9198  0.7334
 5103SOL    HW226946   1.228   3.834   3.707  0.2756  1.5390 -1.0434
 5104SOL     OW26947   2.817   4.273   6.366  0.2723 -0.1473  0.1071
 5104SOL    HW126948   2.778   4.351   6.327  1.6908  0.5257  0.0124
 5104SOL    HW226949   2.815   4.294   6.459 -0.1404 -2.2168  0.5686
 5105SOL     OW26950   2.320   0.018   1.599 -0.5502 -0.0364  0.2687
 5105SOL    HW126951   2.333   0.110   1.622  0.4361 -0.7067  2.3404
 5105SOL    HW226952   2.226   0.006   1.587 -0.0498 -0.7164 -2.9529
 5106SOL     OW26953   3.953   0.159  11.059  0.0524 -0.4236 -0.0540
 5106SOL    HW126954   3.944   0.223  10.988 -0.5740  2.0824  2.2826
 5106SOL    HW226955   3.908   0.196  11.135  1.8338  2.1858 -0.2922
 5107SOL     OW26956   3.599   0.584   6.258  0.4402 -0.3268 -0.0146
 5107SOL    HW126957   3.517   0.618   6.220  1.2478  0.8812 -0.6888
 5107SOL    HW226958   3.574   0.492   6.262  0.0782 -0.2827 -1.0775
 5108SOL     OW26959   3.395   1.176   7.447  0.0255  1.2083 -0.5763
 5108SOL    HW126960   3.465   1.131   7.401  1.5529  1.8582  1.1152
 5108SOL    HW226961   3.435   1.263   7.451 -1.3625  1.8473 -0.5739
 5109SOL     OW26962   4.381   4.383   0.643  0.2148  0.5696  0.0033
 5109SOL    HW126963   4.466   4.368   0.686 -0.3916  0.1517  1.0439
 5109SOL    HW226964   4.347   4.296   0.659  1.5173 -0.1432 -1.0700
 5110SOL     OW26965   1.133   3.118   9.087  0.1829  0.6262  0.4451
 5110SOL    HW126966   1.222   3.102   9.059 -0.1525  0.2359 -0.3726
 5110SOL    HW226967   1.117   3.044   9.146  0.9229 -0.1293 -0.3229
 5111SOL     OW26968   2.650   4.592   2.786  0.0708  0.0258 -0.5979
 5111SOL    HW126969   2.679   4.643   2.862 -2.8843 -0.0652  0.5956
 5111SOL    HW226970   2.588   4.536   2.833  2.0623 -2.2971 -0.7633
 5112SOL     OW26971   1.242   2.432   5.729  0.4548 -0.1685  0.1888
 5112SOL    HW126972   1.277   2.350   5.764 -1.9601 -0.4736  1.9000
 5112SOL    HW226973   1.265   2.497   5.796 -0.3583 -0.1630  0.4632
 5113SOL     OW26974   2.326   3.435   7.929  0.2031 -0.2826 -0.0261
 5113SOL    HW126975   2.341   3.529   7.941  1.7431 -0.5525  0.2765
 5113SOL    HW226976   2.416   3.403   7.925  0.3084  0.4195 -3.4991
 5114SOL     OW26977   3.871   1.753   7.153 -0.4096  0.1736 -0.5818
 5114SOL    HW126978   3.966   1.754   7.152 -0.4322 -2.6323 -3.0178
 5114SOL    HW226979   3.848   1.844   7.131  2.4890  0.6312 -1.6245
 5115SOL     OW26980   3.809   3.428  16.710  0.2232  0.3694  0.5480
 5115SOL    HW126981   3.790   3.489  16.638  1.7678  0.6777  0.3942
 5115SOL    HW226982   3.897   3.463  16.728 -0.7001  1.6737  2.5473
 5116SOL     OW26983   1.207   0.896  14.721 -0.3445  0.0062 -0.1546
 5116SOL    HW126984   1.160   0.979  14.712  0.2956  0.3144 -0.6404
 5116SOL    HW226985   1.292   0.936  14.739 -0.9787  1.2453  0.0936
 5117SOL     OW26986   2.653   2.090   4.157 -0.1416 -0.0375  0.5483
 5117SOL    HW126987   2.680   2.067   4.246  1.1484  0.0388  0.1673
 5117SOL    HW226988   2.710   2.166   4.149 -0.9427  0.3354 -1.6268
 5118SOL     OW26989   3.935   4.320   2.295 -0.5791 -0.1734  0.0521
 5118SOL    HW126990   3.923   4.285   2.207  2.8099 -1.2287  0.0255
 5118SOL    HW226991   3.849   4.362   2.301 -1.0726 -1.3737  1.3198
 5119SOL     OW26992   3.492   0.950   4.204 -0.7865 -0.3352  0.0719
 5119SOL    HW126993   3.509   1.020   4.267  0.5581 -1.2625  0.7350
 5119SOL    HW226994   3.557   0.885   4.231 -1.0011  0.0034  1.3826
 5120SOL     OW26995   4.524   4.520  16.821  0.1798 -0.2326  0.4058
 5120SOL    HW126996   4.605   4.477  16.793 -1.0821 -1.5064 -1.2725
 5120SOL    HW226997   4.525   4.524  16.917  0.6359  1.2241  0.3376
 5121SOL     OW26998   0.918   3.954   2.072 -0.0214  0.0969  0.3518
 5121SOL    HW126999   0.844   3.908   2.031  0.3155  2.2954 -2.7691
 5121SOL    HW227000   0.938   4.028   2.014  1.5193 -1.2088 -0.8021
 5122SOL     OW27001   2.851   0.106   2.093 -0.1310 -0.3147  0.0927
 5122SOL    HW127002   2.936   0.144   2.073 -0.5749  0.0693 -1.0646
 5122SOL    HW227003   2.832   0.070   2.006  0.4030 -0.6316  0.1058
 5123SOL     OW27004   1.545   3.454   0.593  0.7010  0.2584 -0.2405
 5123SOL    HW127005   1.592   3.394   0.534 -0.8319  0.3547 -1.5698
 5123SOL    HW227006   1.466   3.472   0.542 -0.9157 -2.6756  1.2675
 5124SOL     OW27007   1.223   3.532   2.558  0.1303  0.7228  0.1758
 5124SOL    HW127008   1.281   3.555   2.631  2.9740 -0.7454 -1.6295
 5124SOL    HW227009   1.262   3.569   2.479 -0.1188  1.6000  0.4662
 5125SOL     OW27010   2.313   2.677   8.780 -0.1564 -0.2702 -0.3392
 5125SOL    HW127011   2.220   2.699   8.770 -0.2075 -0.4641 -0.2743
 5125SOL    HW227012   2.308   2.601   8.837  3.1519 -1.5176 -1.7037
 5126SOL     OW27013   4.372   2.269   9.797  0.0661 -0.3865 -0.3411
 5126SOL    HW127014   4.326   2.251   9.879 -2.3891 -0.1466 -1.6435
 5126SOL    HW227015   4.302   2.298   9.738  0.6081  1.7547  0.0835
 5127SOL     OW27016   3.892   0.275   4.810  0.3624 -0.4043 -0.0480
 5127SOL    HW127017   3.875   0.344   4.746  0.5760  2.1386  2.6720
 5127SOL    HW227018   3.920   0.209   4.747  0.0290 -0.0175 -0.5993
 5128SOL     OW27019   0.930   2.671   9.271  0.1890 -0.7976  0.4423
 5128SOL    HW127020   0.941   2.685   9.177  0.4738 -0.7475  0.4831
 5128SOL    HW227021   0.984   2.595   9.292  1.6133 -0.2944 -1.3457
 5129SOL     OW27022   2.484   0.432   5.917 -0.9204 -0.3633 -0.0536
 5129SOL    HW127023   2.437   0.361   5.873  0.9105 -1.7422  0.2104
 5129SOL    HW227024   2.483   0.497   5.847 -1.8665  0.0590  0.3429
 5130SOL     OW27025   3.198   3.574   1.400 -0.1879 -0.4749  0.2645
 5130SOL    HW127026   3.133   3.605   1.336  1.7818 -0.5217 -1.7467
 5130SOL    HW227027   3.237   3.498   1.358 -2.3535 -2.2403  1.4500
 5131SOL     OW27028   2.742   4.268   0.292 -0.2369  0.3295  0.1708
 5131SOL    HW127029   2.760   4.342   0.350  0.6180 -0.1230  0.4832
 5131SOL    HW227030   2.752   4.317   0.210  0.5962  1.9899  1.2578
 5132SOL     OW27031   1.738   2.111   8.373  0.1531 -0.1949  0.0703
 5132SOL    HW127032   1.709   2.173   8.305 -0.3951  0.6699  1.0857
 5132SOL    HW227033   1.763   2.039   8.316  1.5987  0.3665 -0.0022
 5133SOL     OW27034   3.069   3.469   9.950  0.0663  0.2143  0.1291
 5133SOL    HW127035   3.072   3.374   9.955 -1.0347  0.1282 -0.6937
 5133SOL    HW227036   2.977   3.490   9.935 -0.4012 -0.3941  2.1735
 5134SOL     OW27037   4.475   3.180   5.969  0.1351  0.5801 -0.0898
 5134SOL    HW127038   4.535   3.122   6.015 -0.4797  0.6862  0.8518
 5134SOL    HW227039   4.526   3.218   5.897 -0.4728  0.1002 -0.7821
 5135SOL     OW27040   0.600   2.528   7.148 -0.2951  0.1488 -0.6028
 5135SOL    HW127041   0.549   2.467   7.094  0.9046 -1.5028  0.1318
 5135SOL    HW227042   0.686   2.487   7.146  0.0251  0.8353 -0.6976
 5136SOL     OW27043   0.729   3.760   9.253  0.6780  0.3918 -0.6569
 5136SOL    HW127044   0.637   3.738   9.266  1.3160 -1.1494  1.3144
 5136SOL    HW227045   0.771   3.708   9.322  0.2960 -0.8780 -1.3888
 5137SOL     OW27046   1.649   1.260   6.186  0.5840  0.1786 -0.2807
 5137SOL    HW127047   1.660   1.307   6.268 -1.5071 -1.3113  0.8447
 5137SOL    HW227048   1.713   1.188   6.186  0.2788 -0.0918  1.1958
 5138SOL     OW27049   1.076   2.205   2.741 -0.1369 -0.0017  0.1997
 5138SOL    HW127050   1.160   2.224   2.699 -0.2123 -1.5014 -0.6565
 5138SOL    HW227051   1.020   2.190   2.664 -0.8075  0.8049  0.5333
 5139SOL     OW27052   2.356   0.754   3.205 -1.0329 -0.1680  0.4081
 5139SOL    HW127053   2.444   0.792   3.214 -1.2579  0.8621 -1.6650
 5139SOL    HW227054   2.321   0.752   3.294 -0.5150 -1.9290  0.5654
 5140SOL     OW27055   1.796   4.495   9.156 -0.3651 -0.2887 -0.3212
 5140SOL    HW127056   1.739   4.475   9.230 -2.7037  0.8509 -1.8128
 5140SOL    HW227057   1.868   4.436   9.180 -0.5192 -0.5328 -0.4551
 5141SOL     OW27058   0.662   4.485   9.585 -0.0310  0.1551  0.3014
 5141SOL    HW127059   0.567   4.499   9.591 -0.2874 -1.0541 -0.9716
 5141SOL    HW227060   0.664   4.426   9.510  1.2526 -0.2886  0.6900
 5142SOL     OW27061   0.008   1.245   7.682  0.0017  0.3900  0.0895
 5142SOL    HW127062   0.084   1.300   7.663  1.0022 -1.7068 -2.0146
 5142SOL    HW227063   0.063   1.169   7.702 -0.1393  1.0516  2.9493
 5143SOL     OW27064   1.866   2.873   8.083  0.3837 -0.1447 -0.2087
 5143SOL    HW127065   1.803   2.945   8.090 -0.0190 -0.6328  1.1953
 5143SOL    HW227066   1.816   2.800   8.046  0.9548 -0.4902 -0.2928
 5144SOL     OW27067   4.266   4.129   4.234  0.6110 -0.3608  0.6731
 5144SOL    HW127068   4.321   4.069   4.284  0.2987 -2.4448 -1.5239
 5144SOL    HW227069   4.317   4.126   4.153  1.5496  2.0304  1.1626
 5145SOL     OW27070   1.722   2.074   3.813  0.2281 -0.9003  0.4912
 5145SOL    HW127071   1.717   2.163   3.848 -0.6401 -0.4318 -0.8297
 5145SOL    HW227072   1.797   2.041   3.863  0.6703 -0.1877  0.3071
 5146SOL     OW27073   3.652   1.282   4.563  0.1292 -0.4135  0.0303
 5146SOL    HW127074   3.745   1.277   4.538  0.4141 -2.5532  1.5647
 5146SOL    HW227075   3.630   1.372   4.539  2.7360  0.4359  0.8079
 5147SOL     OW27076   4.530   4.271   9.366  0.0181 -0.2688 -0.8818
 5147SOL    HW127077   4.486   4.289   9.449  0.6635  0.2694 -0.6572
 5147SOL    HW227078   4.538   4.357   9.325 -0.2224 -0.2828 -0.9571
 5148SOL     OW27079   1.649   0.610   7.030  0.1821 -0.6285 -0.7127
 5148SOL    HW127080   1.685   0.573   6.949 -0.2416 -0.9857 -0.7327
 5148SOL    HW227081   1.563   0.570   7.027 -0.7962  1.3967  0.3629
 5149SOL     OW27082   1.096   0.583   3.080 -0.1772  0.3132  0.8527
 5149SOL    HW127083   1.008   0.572   3.117 -0.7488  1.1945 -0.2285
 5149SOL    HW227084   1.123   0.645   3.147 -2.6680  2.7176 -0.3647
 5150SOL     OW27085   2.513   2.705   5.672 -0.0037  0.3127 -0.4693
 5150SOL    HW127086   2.548   2.674   5.756 -0.8376  0.2410 -0.1551
 5150SOL    HW227087   2.438   2.647   5.660  0.1869  0.2270 -1.2233
 5151SOL     OW27088   3.518   2.990   6.046 -0.5488 -0.2517 -0.1599
 5151SOL    HW127089   3.465   3.070   6.047 -0.3693 -0.1685  1.5869
 5151SOL    HW227090   3.600   3.029   6.015 -0.6014 -0.1667 -0.1931
 5152SOL     OW27091   2.532   1.974  11.443 -0.1834 -0.3052  0.2161
 5152SOL    HW127092   2.481   1.895  11.424  2.2153 -1.3680 -1.7894
 5152SOL    HW227093   2.524   1.984  11.538 -0.6281  0.8278  0.0527
 5153SOL     OW27094   4.336   0.926   2.876 -0.3359  0.0658 -0.4375
 5153SOL    HW127095   4.328   0.834   2.904  0.3518  0.2218  0.2612
 5153SOL    HW227096   4.383   0.965   2.949  0.1080 -0.7292 -0.3032
 5154SOL     OW27097   4.681   2.600  10.999  0.1162  0.0248  0.2392
 5154SOL    HW127098   4.733   2.545  11.057 -0.9951 -0.3711  0.8722
 5154SOL    HW227099   0.001   2.662  10.955 -0.7215  1.1900  0.7466
 5155SOL     OW27100   0.344   1.054   7.627 -0.3477  0.3223  0.1643
 5155SOL    HW127101   0.282   1.041   7.699 -3.9649 -2.2962 -3.4326
 5155SOL    HW227102   0.405   1.122   7.656  0.7992 -0.4956 -0.3740
 5156SOL     OW27103   2.761   1.504  12.157 -0.4652  0.0409 -0.1325
 5156SOL    HW127104   2.708   1.442  12.206 -1.1064 -0.3981 -1.3648
 5156SOL    HW227105   2.725   1.592  12.168  1.9559  1.0280 -0.1235
 5157SOL     OW27106   4.054   4.138   5.482 -0.4407 -0.4991 -0.1867
 5157SOL    HW127107   4.108   4.090   5.420  0.0706 -0.0633 -0.0711
 5157SOL    HW227108   4.115   4.208   5.501  0.4748 -2.0916  2.7437
 5158SOL     OW27109   0.787   0.246   0.616 -0.1801  0.2739  0.6058
 5158SOL    HW127110   0.802   0.306   0.542  0.6331 -0.1073  0.4704
 5158SOL    HW227111   0.775   0.307   0.689 -1.7366 -0.3368  0.8699
 5159SOL     OW27112   3.704   3.514  12.895  0.1839  0.0981 -0.0400
 5159SOL    HW127113   3.769   3.584  12.904 -1.6005  1.7933 -0.2999
 5159SOL    HW227114   3.707   3.493  12.989  0.7874  0.2689 -0.0158
 5160SOL     OW27115   0.493   1.398   9.406  0.3992  0.3730 -0.5552
 5160SOL    HW127116   0.434   1.364   9.339 -0.5205 -4.0647  2.4757
 5160SOL    HW227117   0.483   1.493   9.398  0.0590  0.7080  3.5815
 5161SOL     OW27118   2.784   3.173  11.606 -0.3375 -0.2058 -0.1071
 5161SOL    HW127119   2.779   3.110  11.534  0.6216 -1.0334  0.5427
 5161SOL    HW227120   2.809   3.103  11.667 -0.9576 -0.4420 -0.1184
 5162SOL     OW27121   0.790   3.555   5.975  0.2242  0.6197 -0.0742
 5162SOL    HW127122   0.739   3.586   6.049  0.8348  1.3111  0.0527
 5162SOL    HW227123   0.746   3.593   5.899 -0.4160 -3.5896 -1.8237
 5163SOL     OW27124   2.966   2.425   5.469  0.0617  0.1040  0.1569
 5163SOL    HW127125   3.014   2.342   5.463 -0.4614 -0.1085 -1.0406
 5163SOL    HW227126   3.026   2.487   5.429 -1.2193  1.0562 -0.2833
 5164SOL     OW27127   2.309   2.654   1.660  0.0088  0.1605  0.6571
 5164SOL    HW127128   2.243   2.721   1.642 -0.9586 -1.3297 -1.4561
 5164SOL    HW227129   2.356   2.706   1.724  1.5780 -0.4061 -0.0197
 5165SOL     OW27130   2.588   1.640   0.772  0.1954 -0.0814 -0.2345
 5165SOL    HW127131   2.564   1.565   0.828  0.8159 -1.3671 -1.6764
 5165SOL    HW227132   2.536   1.713   0.803 -0.9648 -1.3813  0.8758
 5166SOL     OW27133   4.478   0.160  14.998 -0.2624 -0.4738 -0.2495
 5166SOL    HW127134   4.390   0.172  15.034  0.0938 -0.4159  0.6106
 5166SOL    HW227135   4.470   0.067  14.977  0.0544 -0.5477 -0.0459
 5167SOL     OW27136   2.678   2.434  15.806 -0.0348 -0.4525  0.0004
 5167SOL    HW127137   2.615   2.466  15.870 -0.2160 -2.0743  0.6356
 5167SOL    HW227138   2.651   2.343  15.817 -0.2044 -0.4528 -0.4071
 5168SOL     OW27139   0.529   2.496  14.092 -0.0152 -0.0867 -0.7336
 5168SOL    HW127140   0.492   2.459  14.172  0.8188 -1.1508 -0.8402
 5168SOL    HW227141   0.456   2.548  14.057 -0.4356 -0.0122  0.2425
 5169SOL     OW27142   1.753   3.029   1.645 -0.5705 -0.4485 -0.7289
 5169SOL    HW127143   1.691   3.003   1.713 -2.3233 -0.6798 -2.3971
 5169SOL    HW227144   1.791   3.111   1.676  0.0434 -0.7983 -0.5446
 5170SOL     OW27145   2.394   3.682   2.756 -0.1742 -0.4247 -0.1344
 5170SOL    HW127146   2.449   3.617   2.713 -0.2707 -0.6319  0.0591
 5170SOL    HW227147   2.409   3.756   2.696 -0.3078 -0.1503  0.1673
 5171SOL     OW27148   3.353   4.506   2.824 -0.0529  0.5520  0.1703
 5171SOL    HW127149   3.335   4.513   2.918  0.9914 -2.3146  0.5680
 5171SOL    HW227150   3.298   4.581   2.801  1.5507  1.8942  0.7335
 5172SOL     OW27151   4.385   4.733   7.281  0.3015  0.2594 -0.6045
 5172SOL    HW127152   4.344   4.663   7.229  1.0346  1.6298 -3.0227
 5172SOL    HW227153   4.475   4.739   7.248  0.6070 -0.1182  0.1499
 5173SOL     OW27154   2.481   0.649   5.130 -0.1780  0.0037 -0.2016
 5173SOL    HW127155   2.392   0.681   5.144  0.1265  0.3268  0.9880
 5173SOL    HW227156   2.541   0.695   5.189  1.9635 -0.5238 -1.9328
 5174SOL     OW27157   2.246   2.684   8.423 -0.2078  0.2965  0.0491
 5174SOL    HW127158   2.192   2.618   8.467 -0.0294  0.0020 -0.1745
 5174SOL    HW227159   2.335   2.666   8.455  0.1297  1.4006 -0.2502
 5175SOL     OW27160   3.715   4.735   4.744  0.0916  0.0483  0.0128
 5175SOL    HW127161   3.773   4.669   4.706 -1.4430 -0.3115 -1.7094
 5175SOL    HW227162   3.656   4.737   4.669 -0.8662  0.9541  0.7864
 5176SOL     OW27163   3.208   1.794   1.151  0.2192 -0.2473  0.0792
 5176SOL    HW127164   3.146   1.848   1.101  0.5657 -1.1504 -1.3230
 5176SOL    HW227165   3.167   1.708   1.158 -0.3886  0.0864  0.5677
 5177SOL     OW27166   0.029   2.319   8.925 -0.1201  0.2913  0.3860
 5177SOL    HW127167   0.089   2.393   8.929  1.2685 -0.7731 -0.5543
 5177SOL    HW227168   4.688   2.359   8.889 -2.7468 -2.7228  2.8148
 5178SOL     OW27169   1.345   3.539  15.089 -0.0609  0.3306 -0.2185
 5178SOL    HW127170   1.272   3.582  15.133  0.0797  0.8727 -0.5204
 5178SOL    HW227171   1.336   3.564  14.997 -1.9695  2.3304  0.4962
 5179SOL     OW27172   2.458   1.779  10.353 -0.3467 -0.0613 -0.6820
 5179SOL    HW127173   2.483   1.751  10.265 -0.8876 -0.8001 -0.5987
 5179SOL    HW227174   2.433   1.868  10.327 -2.1143 -0.3024  0.2035
 5180SOL     OW27175   4.034   4.087   2.879 -0.1259  0.5351  0.7901
 5180SOL    HW127176   4.101   4.026   2.851 -2.3945 -1.5736 -0.0574
 5180SOL    HW227177   3.965   4.027   2.907 -0.7062  1.2355  0.8925
 5181SOL     OW27178   1.802   4.571  14.196  0.1089 -0.5207  0.0867
 5181SOL    HW127179   1.807   4.638  14.129 -1.3646  0.2116  0.7148
 5181SOL    HW227180   1.774   4.493  14.149 -1.8561  1.0791 -1.3690
 5182SOL     OW27181   1.004   0.023  13.403  0.2790  0.1026  0.0221
 5182SOL    HW127182   1.030   0.089  13.339  0.1880  1.0353  0.9414
 5182SOL    HW227183   1.085   0.015  13.453  0.7201 -1.9798 -1.0241
 5183SOL     OW27184   4.461   3.955  15.696 -0.4737 -0.1933 -0.1252
 5183SOL    HW127185   4.531   3.913  15.645  0.2413  0.8404  0.0203
 5183SOL    HW227186   4.399   3.885  15.719  0.0516 -0.5344  0.2564
 5184SOL     OW27187   1.286   0.595   6.712 -0.4279 -0.3535 -0.0285
 5184SOL    HW127188   1.379   0.595   6.734 -1.0383 -1.7049  2.5502
 5184SOL    HW227189   1.287   0.538   6.636 -0.6369 -1.1560  0.5700
 5185SOL     OW27190   2.778   2.083   3.532  0.1086  0.2372 -0.0239
 5185SOL    HW127191   2.700   2.139   3.535  0.2403  0.4369 -0.3626
 5185SOL    HW227192   2.759   2.018   3.464 -0.6573 -0.1395  0.5508
 5186SOL     OW27193   2.892   2.579  15.929 -0.4089  0.5541  0.5018
 5186SOL    HW127194   2.821   2.529  15.889 -1.6855  0.8683  2.3533
 5186SOL    HW227195   2.839   2.634  15.987 -0.4634 -0.3127  1.2733
 5187SOL     OW27196   2.168   2.843   6.383  0.3494  0.2165 -0.2159
 5187SOL    HW127197   2.095   2.861   6.443  1.0248 -1.2209  1.0590
 5187SOL    HW227198   2.129   2.780   6.322  1.4712 -0.9461  0.2667
 5188SOL     OW27199   1.008   4.275   3.708  0.2016  0.2263  0.1769
 5188SOL    HW127200   1.025   4.364   3.676 -3.2884  0.2828 -1.4896
 5188SOL    HW227201   0.929   4.271   3.655  0.4238  1.1144 -0.2296
 5189SOL     OW27202   1.686   0.588   5.708  0.7305 -0.3474 -0.0410
 5189SOL    HW127203   1.770   0.630   5.690  0.6699 -1.0946 -2.1142
 5189SOL    HW227204   1.626   0.660   5.689  0.5100  0.3342  3.2033
 5190SOL     OW27205   3.770   1.793   9.317 -0.1664  0.3360 -0.6676
 5190SOL    HW127206   3.793   1.795   9.410 -0.8064 -0.2843 -0.4925
 5190SOL    HW227207   3.766   1.887   9.303 -1.0212  0.5681  1.1776
 5191SOL     OW27208   0.927   0.739   4.371  0.3922 -0.9295 -0.1828
 5191SOL    HW127209   0.926   0.689   4.452 -1.3599  1.4593  1.2544
 5191SOL    HW227210   1.017   0.725   4.339  0.4857  0.6067 -0.5643
 5192SOL     OW27211   3.834   3.630   7.217  0.0741 -0.4962  0.2363
 5192SOL    HW127212   3.768   3.565   7.194 -1.2505  0.7507  0.4912
 5192SOL    HW227213   3.845   3.606   7.309 -3.0431 -1.4731  0.3521
 5193SOL     OW27214   4.679   2.298   7.579 -0.4545 -0.0021  0.1266
 5193SOL    HW127215   4.661   2.293   7.673 -0.8514  1.8499  0.1494
 5193SOL    HW227216   4.588   2.294   7.549 -0.6085 -0.5981  0.6726
 5194SOL     OW27217   0.981   4.700   5.531 -0.2194  0.2745 -0.0003
 5194SOL    HW127218   0.960   4.622   5.479 -0.5081  0.6398 -0.4328
 5194SOL    HW227219   1.065   4.728   5.494 -0.5671 -0.8849 -1.7010
 5195SOL     OW27220   4.268   2.642   8.017 -0.0733  0.6395 -0.5067
 5195SOL    HW127221   4.221   2.593   7.949  1.2157  0.7331 -1.4713
 5195SOL    HW227222   4.300   2.570   8.071  0.8281  1.5840  0.2008
 5196SOL     OW27223   2.588   0.744  15.896 -0.2959  0.1191 -0.1589
 5196SOL    HW127224   2.495   0.738  15.877 -0.0373 -0.5137 -1.2210
 5196SOL    HW227225   2.588   0.806  15.969  3.2305 -1.1096  0.8976
 5197SOL     OW27226   1.404   3.674  11.740 -0.0823 -0.3208  0.2963
 5197SOL    HW127227   1.362   3.729  11.674 -0.9292  0.7812  1.7377
 5197SOL    HW227228   1.367   3.718  11.817 -0.1868  0.9952 -0.5010
 5198SOL     OW27229   3.406   0.630   4.844 -0.7203  0.1174 -0.2714
 5198SOL    HW127230   3.428   0.546   4.804  1.1539  0.7359 -0.5655
 5198SOL    HW227231   3.311   0.633   4.833 -0.6296  0.8601 -0.8578
 5199SOL     OW27232   4.399   2.894  11.459  0.4856 -0.0448  0.0340
 5199SOL    HW127233   4.372   2.920  11.372 -0.7499  1.3370  0.8322
 5199SOL    HW227234   4.317   2.904  11.506  0.2851 -0.3344 -0.2566
 5200SOL     OW27235   0.421   3.039   9.854  0.2486 -0.6241  0.2008
 5200SOL    HW127236   0.452   2.951   9.875 -0.0972 -0.8971 -0.4082
 5200SOL    HW227237   0.431   3.097   9.930  0.3813 -0.9774  0.4517
 5201SOL     OW27238   0.726   0.753   2.000 -0.3417  0.0416  0.1157
 5201SOL    HW127239   0.673   0.829   1.978 -1.2716 -1.4677 -2.8684
 5201SOL    HW227240   0.814   0.785   1.979  0.9162 -1.4707  3.1973
 5202SOL     OW27241   0.101   2.082   7.865 -0.0998  0.2574 -0.1702
 5202SOL    HW127242   0.124   2.122   7.948 -0.8773  2.3884 -0.9936
 5202SOL    HW227243   0.011   2.115   7.860 -0.5696 -0.6851  2.3422
 5203SOL     OW27244   2.074   1.538   3.504  0.8445  0.1066 -0.0037
 5203SOL    HW127245   2.097   1.600   3.574  0.7561  0.6730 -0.4724
 5203SOL    HW227246   2.154   1.488   3.490  1.3630  1.0324 -0.3772
 5204SOL     OW27247   1.166   0.611   0.744 -0.4819 -0.2298  0.1572
 5204SOL    HW127248   1.152   0.517   0.757 -1.0109 -0.3237 -1.0968
 5204SOL    HW227249   1.235   0.620   0.810 -0.9592 -0.9741  0.7737
 5205SOL     OW27250   0.736   1.240   7.030 -0.5039 -0.6961  0.6171
 5205SOL    HW127251   0.680   1.318   7.034 -1.4180 -1.3649  0.7588
 5205SOL    HW227252   0.770   1.243   7.119 -0.9461  1.6671  0.7174
 5206SOL     OW27253   1.443   2.056  11.818 -0.2224  0.8945  0.3763
 5206SOL    HW127254   1.491   2.049  11.734 -1.5053  3.6325 -0.5745
 5206SOL    HW227255   1.367   2.106  11.788 -1.1753 -0.5406  0.4073
 5207SOL     OW27256   3.302   4.373   7.166  0.0620  0.0405 -0.0953
 5207SOL    HW127257   3.245   4.338   7.235 -1.6546  1.6384 -0.6980
 5207SOL    HW227258   3.340   4.291   7.135  1.3051  1.2431 -1.7177
 5208SOL     OW27259   2.007   0.788   6.632 -0.4169  0.4522  0.8399
 5208SOL    HW127260   2.069   0.751   6.569 -1.6857 -1.4247  0.6861
 5208SOL    HW227261   1.945   0.818   6.565  0.0257 -0.5137 -0.0222
 5209SOL     OW27262   4.048   3.421   0.964  0.4416 -0.4642 -0.2992
 5209SOL    HW127263   4.066   3.402   0.872 -0.6603  0.9959 -0.8252
 5209SOL    HW227264   3.979   3.356   0.978 -1.4740  1.7431  0.5847
 5210SOL     OW27265   1.347   3.403   9.019 -1.1429 -0.2155  0.0308
 5210SOL    HW127266   1.321   3.455   9.094  0.2653 -2.9042  2.3843
 5210SOL    HW227267   1.296   3.451   8.954  0.1110  0.7479 -0.2242
 5211SOL     OW27268   4.732   1.964   5.726 -0.1277 -0.8705  0.3981
 5211SOL    HW127269   4.665   2.032   5.735 -1.6413 -2.4780  1.2587
 5211SOL    HW227270   4.709   1.921   5.808 -2.2137 -1.5152 -0.5125
 5212SOL     OW27271   1.064   1.633   2.222 -0.1402  0.1155  0.4424
 5212SOL    HW127272   1.153   1.602   2.204 -0.0624 -0.3914  1.6961
 5212SOL    HW227273   1.066   1.728   2.217  1.6028  0.0340 -0.5822
 5213SOL     OW27274   0.211   0.822   4.059 -0.1658  0.6061  0.4836
 5213SOL    HW127275   0.274   0.819   4.131  2.0950  1.3694 -1.5000
 5213SOL    HW227276   0.133   0.796   4.108 -0.1871 -0.5140 -0.1406
 5214SOL     OW27277   2.240   2.831   3.968 -0.1963  0.0264  0.3633
 5214SOL    HW127278   2.168   2.782   3.927  2.3804 -2.8741 -0.6902
 5214SOL    HW227279   2.268   2.887   3.895  2.0195 -1.7322 -0.1494
 5215SOL     OW27280   4.349   0.829   6.417 -0.4266  0.2701  0.0481
 5215SOL    HW127281   4.332   0.735   6.425 -0.4733  0.3189  0.5264
 5215SOL    HW227282   4.331   0.833   6.323 -0.0737 -0.4898 -0.0569
 5216SOL     OW27283   3.613   2.271   4.011 -0.1810 -0.9065  0.1577
 5216SOL    HW127284   3.701   2.306   4.023 -0.2852 -1.0596  1.3237
 5216SOL    HW227285   3.561   2.340   3.971  1.5761  0.4353  0.1809
 5217SOL     OW27286   1.495   3.322   4.348 -0.0678  0.5083 -0.7225
 5217SOL    HW127287   1.547   3.371   4.285  2.4496 -1.0272  0.1672
 5217SOL    HW227288   1.406   3.322   4.312 -0.5826  0.9715  0.5267
 5218SOL     OW27289   4.064   3.489  14.011  0.4675  0.2360  0.4312
 5218SOL    HW127290   4.119   3.486  14.090  1.1140  2.0730  0.0607
 5218SOL    HW227291   4.128   3.529  13.952 -0.9651  1.2834 -0.3969
 5219SOL     OW27292   3.941   0.623  12.213  0.2533 -0.2763 -0.2576
 5219SOL    HW127293   3.855   0.658  12.187 -0.6236 -0.1041  2.8348
 5219SOL    HW227294   3.910   0.548  12.264  0.0514 -1.1558 -1.6873
 5220SOL     OW27295   3.005   4.097   0.719  0.8787  0.3717  0.6896
 5220SOL    HW127296   3.088   4.143   0.706  0.0859  0.9844 -2.0794
 5220SOL    HW227297   3.034   4.006   0.708  0.2912  0.3773 -0.8103
 5221SOL     OW27298   2.061   1.396   5.216  0.1031  0.1173 -0.4954
 5221SOL    HW127299   1.987   1.347   5.251  0.3677 -0.2942 -0.5091
 5221SOL    HW227300   2.030   1.487   5.217 -0.7934 -0.2145  1.2804
 5222SOL     OW27301   4.541   0.101  17.530  0.3736  0.4567  0.0246
 5222SOL    HW127302   4.469   0.154  17.564  1.9964  1.5980  1.6512
 5222SOL    HW227303   4.604   0.103  17.602  0.4080  1.2142 -0.0257
 5223SOL     OW27304   0.159   0.517   7.378  0.5624 -0.2893 -0.6991
 5223SOL    HW127305   0.210   0.533   7.298  1.3178 -0.2914 -0.2120
 5223SOL    HW227306   0.070   0.529   7.346  1.3920 -0.4670 -3.1066
 5224SOL     OW27307   0.284   4.503  13.938 -0.2255 -0.2663  0.4990
 5224SOL    HW127308   0.263   4.583  13.984  0.6833  0.8670 -1.0319
 5224SOL    HW227309   0.371   4.478  13.971 -0.1460 -0.1920  0.3480
 5225SOL     OW27310   2.326   1.860   3.995  0.3390  0.0377 -0.6293
 5225SOL    HW127311   2.387   1.786   3.989 -1.0653 -1.1758  0.2736
 5225SOL    HW227312   2.351   1.896   4.080 -0.4313  0.8967 -0.7645
 5226SOL     OW27313   0.391   0.041   0.789  0.0466  0.0315 -0.1732
 5226SOL    HW127314   0.305   0.045   0.748 -0.3704 -1.0836  0.6220
 5226SOL    HW227315   0.438   0.117   0.754  1.4294 -2.2166 -3.2256
 5227SOL     OW27316   2.052   2.643   8.082  0.1101  0.0950 -0.0749
 5227SOL    HW127317   1.974   2.697   8.095  0.8817  1.0919  0.4149
 5227SOL    HW227318   2.134   2.689   8.102  0.4285  0.6198 -2.5068
 5228SOL     OW27319   0.048   4.114  16.503 -0.3270 -0.0234 -0.1067
 5228SOL    HW127320   4.729   4.177  16.459  0.9634  1.1062 -0.1525
 5228SOL    HW227321   0.038   4.039  16.444 -3.7105 -1.1240  1.8673
 5229SOL     OW27322   2.739   1.977   4.438 -0.1559 -0.0924  0.0916
 5229SOL    HW127323   2.796   1.917   4.390 -0.0904 -0.0478  0.1146
 5229SOL    HW227324   2.784   2.001   4.518  0.0360 -1.4390  0.3805
 5230SOL     OW27325   1.520   2.483   2.891  0.7966  0.7576 -0.0157
 5230SOL    HW127326   1.540   2.401   2.846 -0.3987  0.2741  0.3455
 5230SOL    HW227327   1.614   2.494   2.909  0.1229 -0.8280  4.4180
 5231SOL     OW27328   1.478   2.716   5.052 -0.1592  0.5477 -0.0693
 5231SOL    HW127329   1.443   2.682   4.970 -0.5608  1.8702 -0.4415
 5231SOL    HW227330   1.516   2.795   5.014  0.4000 -0.3117 -1.3023
 5232SOL     OW27331   2.775   1.369   1.278  0.5224  0.9401  0.2760
 5232SOL    HW127332   2.774   1.299   1.212 -0.1586  2.4454 -1.3117
 5232SOL    HW227333   2.869   1.387   1.284  0.1342  2.3476  1.9525
 5233SOL     OW27334   2.780   0.376   9.604  0.4637 -0.2875  0.2287
 5233SOL    HW127335   2.831   0.307   9.560  0.1234  0.3336 -1.1487
 5233SOL    HW227336   2.703   0.319   9.609 -0.0139  0.3484  0.0392
 5234SOL     OW27337   2.398   1.790   8.640 -0.0020  0.2642 -0.1073
 5234SOL    HW127338   2.377   1.843   8.563  0.8195  1.6698  0.6338
 5234SOL    HW227339   2.378   1.853   8.710 -0.0783 -0.8037  0.8305
 5235SOL     OW27340   1.084   0.649   4.814  0.1654 -0.4416  0.4642
 5235SOL    HW127341   1.136   0.568   4.820  1.9013  0.7465  1.3829
 5235SOL    HW227342   1.067   0.671   4.905  0.1837  2.4882 -0.2287
 5236SOL     OW27343   1.023   4.211  15.131  0.3112 -0.0078  0.0309
 5236SOL    HW127344   0.937   4.170  15.129 -0.3784  1.4889 -0.8298
 5236SOL    HW227345   1.035   4.233  15.038 -1.2080  0.6281 -0.0191
 5237SOL     OW27346   0.028   2.347   9.295 -0.0557 -0.0715 -0.6363
 5237SOL    HW127347   0.095   2.294   9.253 -0.9862 -2.7510  1.2888
 5237SOL    HW227348   0.037   2.420   9.233 -0.7927 -0.5980 -1.3717
 5238SOL     OW27349   1.001   0.536  15.807 -0.1216  0.3798 -0.2280
 5238SOL    HW127350   1.005   0.479  15.884  1.1935  2.6795  1.3730
 5238SOL    HW227351   0.961   0.483  15.738 -2.6844  3.2655 -0.9428
 5239SOL     OW27352   2.379   2.948  16.517  0.0536  0.5482 -0.2164
 5239SOL    HW127353   2.348   2.980  16.432  1.7588 -2.1704 -1.8312
 5239SOL    HW227354   2.317   2.996  16.572  0.1909 -0.0252  0.4305
 5240SOL     OW27355   1.328   4.737   4.901  0.3024  0.5015  0.0679
 5240SOL    HW127356   1.416   4.706   4.883 -1.0590 -2.3313 -1.6975
 5240SOL    HW227357   1.356   0.081   4.941  1.3259 -0.8611  2.1634
 5241SOL     OW27358   0.227   4.570   2.214 -0.3918  0.3460  0.1846
 5241SOL    HW127359   0.316   4.555   2.246 -0.2824 -3.2668 -1.9056
 5241SOL    HW227360   0.179   4.541   2.291 -1.0687  1.4896  0.2010
 5242SOL     OW27361   1.170   3.993   3.342 -0.8051  0.3897  0.4808
 5242SOL    HW127362   1.167   4.026   3.432  2.9162  1.6945  0.1098
 5242SOL    HW227363   1.078   3.968   3.335 -0.6985 -1.0121  3.8825
 5243SOL     OW27364   3.738   0.290   9.650  0.1431  0.6870  0.9244
 5243SOL    HW127365   3.656   0.246   9.671  0.0621 -0.9384 -2.7618
 5243SOL    HW227366   3.758   0.262   9.560 -0.1592  3.5957 -0.0529
 5244SOL     OW27367   1.341   1.129   9.345  0.6219 -0.4073 -0.0823
 5244SOL    HW127368   1.300   1.122   9.431 -0.8778  1.3634 -0.6620
 5244SOL    HW227369   1.433   1.140   9.368  0.4932  0.4495  0.0085
 5245SOL     OW27370   4.414   4.201   8.165  0.3459 -0.2011 -0.0018
 5245SOL    HW127371   4.472   4.274   8.183  1.0572 -0.4719 -1.1743
 5245SOL    HW227372   4.347   4.206   8.233 -1.0964  0.4405 -1.4486
 5246SOL     OW27373   0.938   0.418   8.395  0.5495 -0.4608  0.0095
 5246SOL    HW127374   0.851   0.379   8.406 -0.0444  0.7783 -0.3417
 5246SOL    HW227375   0.961   0.454   8.481 -0.6090 -1.5585  0.7975
 5247SOL     OW27376   1.616   2.675  10.721 -0.2477  0.0957 -0.7628
 5247SOL    HW127377   1.654   2.602  10.769 -1.0672 -0.5952 -1.1615
 5247SOL    HW227378   1.555   2.621  10.671 -0.0563 -1.9220  1.1380
 5248SOL     OW27379   3.289   3.727  14.573 -0.0441  0.5617 -0.2833
 5248SOL    HW127380   3.211   3.779  14.591  0.4118  0.3348  2.3339
 5248SOL    HW227381   3.329   3.758  14.492  0.3639  1.4190  0.2472
 5249SOL     OW27382   0.912   3.820  13.191 -0.0805  0.4186  0.1138
 5249SOL    HW127383   0.903   3.762  13.267 -2.2790  0.8000  0.1211
 5249SOL    HW227384   0.860   3.894  13.221 -1.0268 -0.5623  0.9031
 5250SOL     OW27385   2.050   4.558  14.011  0.3434  0.0828 -0.2954
 5250SOL    HW127386   2.043   4.481  14.068 -1.7610 -0.6383 -1.5136
 5250SOL    HW227387   1.990   4.530  13.941  3.0981 -4.4895 -0.8653
 5251SOL     OW27388   3.468   0.978   8.195 -0.1302 -0.2450  0.2502
 5251SOL    HW127389   3.549   0.931   8.214 -0.8503 -1.4066  0.3924
 5251SOL    HW227390   3.396   0.918   8.209  0.0017  0.0995  2.4516
 5252SOL     OW27391   4.065   4.572   9.178  0.1839 -0.3479 -0.0704
 5252SOL    HW127392   4.079   4.499   9.118 -0.5247 -0.3401 -0.2359
 5252SOL    HW227393   3.987   4.614   9.142  0.6436  1.5400  1.1306
 5253SOL     OW27394   1.635   1.777   4.065 -0.8078  0.1971 -0.1248
 5253SOL    HW127395   1.559   1.775   4.124 -0.0709 -0.2201  0.8095
 5253SOL    HW227396   1.627   1.696   4.014  1.0416 -0.4160  0.5676
 5254SOL     OW27397   2.949   0.553   3.439  0.5773 -0.5311  0.0436
 5254SOL    HW127398   2.906   0.638   3.433  2.9993  0.6612 -0.3049
 5254SOL    HW227399   3.014   0.559   3.369 -1.0646 -1.1055 -1.5132
 5255SOL     OW27400   2.709   2.461   5.463 -0.3080 -0.0620 -0.5699
 5255SOL    HW127401   2.706   2.544   5.415 -0.7058  0.0763 -0.3056
 5255SOL    HW227402   2.801   2.449   5.487 -0.3218 -0.2072 -0.5903
 5256SOL     OW27403   2.237   4.467   8.588  0.3385 -0.0049  0.1859
 5256SOL    HW127404   2.260   4.513   8.507  0.0229 -0.5376 -0.2061
 5256SOL    HW227405   2.178   4.525   8.636 -0.2831  0.2595 -0.8895
 5257SOL     OW27406   0.441   3.443   5.168  0.0222  0.5452  0.2251
 5257SOL    HW127407   0.397   3.433   5.084  2.5455 -1.3539 -0.8411
 5257SOL    HW227408   0.397   3.372   5.214 -0.7169 -0.4254 -1.9849
 5258SOL     OW27409   0.972   0.580   9.936  0.2508  0.2236  0.2155
 5258SOL    HW127410   0.899   0.519   9.939  1.0947 -0.8008  0.0873
 5258SOL    HW227411   1.040   0.519   9.962  2.0218  1.3722 -1.6788
 5259SOL     OW27412   3.447   3.907   4.003 -0.2008  0.4439  0.0695
 5259SOL    HW127413   3.531   3.864   4.017 -0.6432  0.1649  1.8209
 5259SOL    HW227414   3.387   3.861   4.062 -1.1577  0.4970 -0.8521
 5260SOL     OW27415   3.100   3.512   5.095  0.4849 -0.5053 -0.2171
 5260SOL    HW127416   3.188   3.524   5.060  0.8322 -2.8682 -0.1209
 5260SOL    HW227417   3.053   3.546   5.019 -1.4727 -2.3274  0.1891
 5261SOL     OW27418   2.305   2.932   5.132  0.5441 -0.0903 -0.1783
 5261SOL    HW127419   2.253   2.954   5.209  0.0424 -1.9593  0.0055
 5261SOL    HW227420   2.386   2.981   5.148 -0.1717  1.2190 -0.5867
 5262SOL     OW27421   2.241   3.243   5.660  0.1193  0.2197 -0.4848
 5262SOL    HW127422   2.207   3.224   5.748  0.0188  1.4762 -0.2584
 5262SOL    HW227423   2.262   3.153   5.635 -1.2362  0.1910 -1.5066
 5263SOL     OW27424   2.635   0.278   2.054 -0.2981 -0.2121  0.2746
 5263SOL    HW127425   2.585   0.206   2.091  1.5879 -2.2138 -1.0826
 5263SOL    HW227426   2.722   0.238   2.067  0.5589  1.9913  1.3872
 5264SOL     OW27427   2.353   3.055   4.155  0.2468  0.2159  0.2378
 5264SOL    HW127428   2.265   3.065   4.117 -0.0722 -1.8137  0.4572
 5264SOL    HW227429   2.391   2.996   4.090 -2.2448  0.3785 -1.3769
 5265SOL     OW27430   2.621   0.042   8.024 -0.1551 -0.4166  0.0613
 5265SOL    HW127431   2.693   0.102   8.040 -1.2030  0.8285  0.0637
 5265SOL    HW227432   2.543   0.097   8.028 -0.2681 -0.6302  0.7844
 5266SOL     OW27433   1.517   0.062   1.569  0.5704 -0.1255 -0.1373
 5266SOL    HW127434   1.569   0.119   1.626  0.6513 -0.3423  0.0050
 5266SOL    HW227435   1.560   0.088   1.488 -1.5893  2.5939 -0.4223
 5267SOL     OW27436   1.896   0.048   2.993  0.2777  0.5129 -0.1307
 5267SOL    HW127437   1.977   0.020   3.034  0.9251  1.7884 -0.5523
 5267SOL    HW227438   1.914   0.136   2.959  1.7502  1.2635  2.6103
 5268SOL     OW27439   2.668   0.046   2.566  0.9955  0.7494  0.1297
 5268SOL    HW127440   2.693   4.732   2.491 -0.6027 -0.0433  0.1509
 5268SOL    HW227441   2.650   4.721   2.635 -1.9404  2.4955  0.9635
 5269SOL     OW27442   0.965   2.133   9.109 -0.0281  0.2933 -0.6421
 5269SOL    HW127443   1.040   2.108   9.163 -1.3385 -1.9377  0.1627
 5269SOL    HW227444   0.934   2.204   9.165  0.4888 -0.5415  0.7250
 5270SOL     OW27445   0.503   3.609   9.108  0.2857  0.1595  0.6175
 5270SOL    HW127446   0.465   3.608   9.020  0.8954 -2.5184  0.3714
 5270SOL    HW227447   0.422   3.590   9.155 -0.3234 -0.9944 -0.8920
 5271SOL     OW27448   2.768   2.116   5.550 -0.3003  0.0895  0.1407
 5271SOL    HW127449   2.731   2.070   5.626 -2.0136 -0.4419 -1.0281
 5271SOL    HW227450   2.829   2.179   5.589 -3.0101  2.0145  1.2426
 5272SOL     OW27451   4.331   2.992   3.925  0.5445  0.5498  0.1817
 5272SOL    HW127452   4.252   3.041   3.901 -1.9763 -2.1277  2.9869
 5272SOL    HW227453   4.290   2.956   4.004 -1.4142 -0.9566 -1.5071
 5273SOL     OW27454   1.089   2.682  16.688 -0.4341  0.4248  0.0610
 5273SOL    HW127455   1.033   2.693  16.611  0.3765 -3.5505 -1.1229
 5273SOL    HW227456   1.179   2.672  16.656 -0.1769  1.2333  0.5368
 5274SOL     OW27457   1.027   2.305   3.738 -0.0577  0.0731  0.1488
 5274SOL    HW127458   1.116   2.304   3.773 -0.6214  1.4293  1.5533
 5274SOL    HW227459   1.022   2.394   3.772  1.7373  0.3187 -0.2223
 5275SOL     OW27460   0.794   1.173   8.194  0.5280  0.2895 -0.3485
 5275SOL    HW127461   0.822   1.099   8.248 -1.1416 -1.2230 -1.5282
 5275SOL    HW227462   0.869   1.184   8.135  0.5515  0.9560 -0.1940
 5276SOL     OW27463   0.718   3.659   8.109  0.4021 -0.1019  0.0588
 5276SOL    HW127464   0.675   3.602   8.045  1.1996 -1.9252  1.1246
 5276SOL    HW227465   0.689   3.624   8.193  0.1778  0.5954  0.2663
 5277SOL     OW27466   0.572   0.258  17.184  0.0043 -0.4375 -0.0161
 5277SOL    HW127467   0.640   0.290  17.124  0.9883 -0.3957  1.1303
 5277SOL    HW227468   0.629   0.239  17.258  1.9202 -1.1508 -1.6566
 5278SOL     OW27469   2.446   3.781   5.583  0.0360  0.7193  0.6188
 5278SOL    HW127470   2.491   3.709   5.628 -0.7971  0.6596  1.3613
 5278SOL    HW227471   2.375   3.792   5.647  0.1628  0.9911  0.7119
 5279SOL     OW27472   0.582   3.855  13.073 -0.0357  0.2127  0.0783
 5279SOL    HW127473   0.620   3.774  13.038  3.1993  0.7088  2.4508
 5279SOL    HW227474   0.652   3.913  13.043 -1.8473  1.5918 -1.4660
 5280SOL     OW27475   3.630   2.534   8.697  0.2630 -0.2553  0.8194
 5280SOL    HW127476   3.725   2.524   8.687 -0.1210 -2.2284 -1.0151
 5280SOL    HW227477   3.620   2.619   8.739 -0.1048 -0.9130  2.0934
 5281SOL     OW27478   2.156   2.594  14.714 -0.4398 -0.0594 -0.0457
 5281SOL    HW127479   2.238   2.599  14.764 -1.5942 -0.4488  1.8829
 5281SOL    HW227480   2.162   2.503  14.684 -4.8096  0.1617 -1.5181
 5282SOL     OW27481   1.931   0.989  11.837 -0.2102  0.0165 -0.2455
 5282SOL    HW127482   1.890   1.054  11.894 -0.4604 -0.0300 -0.3717
 5282SOL    HW227483   1.865   0.920  11.844 -0.1172  0.2639  2.8006
 5283SOL     OW27484   1.018   1.597   8.189  0.5147 -0.0875  0.3174
 5283SOL    HW127485   0.982   1.686   8.196 -1.3313 -0.9139  1.3387
 5283SOL    HW227486   0.963   1.555   8.255  1.4166 -0.5749  0.7427
 5284SOL     OW27487   3.177   4.514   5.056 -0.0556 -0.1017  0.1228
 5284SOL    HW127488   3.147   4.424   5.068 -1.7684  0.5091  0.4897
 5284SOL    HW227489   3.094   4.560   5.042 -0.0736 -1.0361 -2.9636
 5285SOL     OW27490   1.595   3.419   1.685  0.1192 -0.0485  0.2288
 5285SOL    HW127491   1.635   3.384   1.604  0.7987 -0.6603  0.8217
 5285SOL    HW227492   1.582   3.337   1.732 -1.0452  1.0947  1.8672
 5286SOL     OW27493   2.164   3.985   3.682  0.1888 -0.2397 -0.5999
 5286SOL    HW127494   2.077   4.000   3.646  0.3302 -1.5337 -1.4635
 5286SOL    HW227495   2.138   3.981   3.774 -0.9367  0.1604 -0.8999
 5287SOL     OW27496   2.514   0.769  10.614  0.4670 -0.0875  0.3285
 5287SOL    HW127497   2.516   0.798  10.523  1.0011  0.3612  0.4822
 5287SOL    HW227498   2.559   0.685  10.608 -0.8952 -0.6615 -1.9676
 5288SOL     OW27499   2.033   2.083   3.822  0.0162 -0.4512  0.9188
 5288SOL    HW127500   2.124   2.059   3.803  0.2642 -1.0853  2.9052
 5288SOL    HW227501   1.990   1.997   3.824  0.9760 -0.9292  1.2212
 5289SOL     OW27502   2.331   1.827   8.300  0.0410  0.3010  0.0779
 5289SOL    HW127503   2.321   1.779   8.218  0.6869  1.9754 -0.9703
 5289SOL    HW227504   2.426   1.815   8.305  0.2870  2.0064 -0.4897
 5290SOL     OW27505   1.145   3.753   7.698 -0.5988 -0.2902  0.3331
 5290SOL    HW127506   1.180   3.839   7.721 -0.5888 -0.3061  0.3772
 5290SOL    HW227507   1.051   3.768   7.686 -0.9042 -0.9496  1.9450
 5291SOL     OW27508   3.932   0.491  16.818 -0.1498 -0.4165 -0.5170
 5291SOL    HW127509   3.953   0.541  16.739  0.7883 -1.1704 -0.7436
 5291SOL    HW227510   3.838   0.509  16.819  0.0286  0.7139 -3.3497
 5292SOL     OW27511   2.424   4.634   2.313 -0.4762 -0.6069  0.2640
 5292SOL    HW127512   2.348   4.641   2.371 -0.5056 -1.1938  0.3040
 5292SOL    HW227513   2.490   4.603   2.375  1.8366 -1.1819 -2.4871
 5293SOL     OW27514   2.880   0.489   6.410  0.3883 -0.0155  0.2844
 5293SOL    HW127515   2.854   0.543   6.485  0.7335 -2.1541  1.9302
 5293SOL    HW227516   2.892   0.401   6.444 -0.5810  0.9493  3.1079
 5294SOL     OW27517   2.289   1.270   9.035  0.1754 -0.1955  0.2880
 5294SOL    HW127518   2.244   1.241   9.115 -0.9070 -2.0995 -1.0236
 5294SOL    HW227519   2.329   1.350   9.070  1.1318 -1.2507  1.6302
 5295SOL     OW27520   4.379   0.623   2.473 -0.1847 -0.2133 -0.6260
 5295SOL    HW127521   4.432   0.699   2.496 -1.0791  0.1263  0.3095
 5295SOL    HW227522   4.321   0.661   2.407 -2.6333 -1.7934  0.6314
 5296SOL     OW27523   1.979   0.754   1.186  0.4778  0.5105 -0.5668
 5296SOL    HW127524   2.074   0.738   1.185  0.3741 -0.0776 -0.8105
 5296SOL    HW227525   1.986   0.813   1.111 -0.4088 -0.2287 -1.2225
 5297SOL     OW27526   1.050   1.581   3.263 -0.0231 -0.4793 -0.4265
 5297SOL    HW127527   1.110   1.645   3.225 -0.2138  0.0111  0.0986
 5297SOL    HW227528   1.024   1.537   3.182 -0.4256 -0.4117 -0.3348
 5298SOL     OW27529   4.307   4.516   0.277 -0.0932 -0.0504 -0.3356
 5298SOL    HW127530   4.394   4.480   0.294 -0.7014 -1.7989 -0.9902
 5298SOL    HW227531   4.289   4.497   0.185  0.8167  0.1682 -0.5627
 5299SOL     OW27532   1.190   4.222   7.230  0.1983  0.1674 -0.2292
 5299SOL    HW127533   1.283   4.203   7.236 -0.1420 -1.3747  0.2932
 5299SOL    HW227534   1.177   4.215   7.135  1.0585 -0.7507 -0.2792
 5300SOL     OW27535   1.569   2.154   8.956 -0.1592  0.3452  0.0406
 5300SOL    HW127536   1.585   2.247   8.969  1.5588  0.0283  0.2440
 5300SOL    HW227537   1.478   2.145   8.984 -0.4534  0.9561 -0.7071
 5301SOL     OW27538   4.247   4.624  16.400  0.4769 -0.1415 -0.3100
 5301SOL    HW127539   4.313   4.642  16.333  0.0042  0.7444 -0.5251
 5301SOL    HW227540   4.288   4.629  16.486 -1.4963 -3.0816  0.8313
 5302SOL     OW27541   4.012   0.078   4.654 -0.1163  0.0219 -0.2458
 5302SOL    HW127542   3.969   0.053   4.573 -1.1164  0.9899  0.0028
 5302SOL    HW227543   4.099   0.099   4.619 -0.7426 -0.5977 -2.1705
 5303SOL     OW27544   4.026   1.821   2.789  0.1501 -0.6485  0.6598
 5303SOL    HW127545   3.953   1.852   2.843 -0.4375  1.4644 -1.3689
 5303SOL    HW227546   4.067   1.903   2.764  1.3351 -1.4681 -0.0597
 5304SOL     OW27547   2.808   2.061  11.575  0.0978  0.3235  0.2074
 5304SOL    HW127548   2.740   2.027  11.633  1.0151 -0.0848  1.0362
 5304SOL    HW227549   2.819   1.996  11.506 -0.0627 -1.2594  1.6661
 5305SOL     OW27550   2.694   4.126  12.455 -0.2663  0.1445 -0.0963
 5305SOL    HW127551   2.626   4.076  12.409 -0.2889  0.6597 -0.6260
 5305SOL    HW227552   2.764   4.062  12.446 -0.0331  0.4693 -0.6667
 5306SOL     OW27553   2.331   0.107   3.694 -0.2358  0.1190  0.1065
 5306SOL    HW127554   2.267   0.097   3.765  0.5138 -0.2428  0.7401
 5306SOL    HW227555   2.401   0.126   3.757  1.5327  0.8320 -2.1137
 5307SOL     OW27556   2.572   0.096   7.628 -0.0013 -0.4769 -0.7593
 5307SOL    HW127557   2.621   0.024   7.668  0.8912  0.1972 -0.6419
 5307SOL    HW227558   2.601   0.085   7.537  2.2459  2.8200 -0.4724
 5308SOL     OW27559   1.503   2.357   4.077  0.3318 -0.3757  0.0213
 5308SOL    HW127560   1.498   2.395   4.165  0.9034  0.5390 -0.3371
 5308SOL    HW227561   1.504   2.262   4.090 -1.7394 -0.3682  0.1217
 5309SOL     OW27562   3.837   0.530   6.083  0.1226  0.1390 -0.2703
 5309SOL    HW127563   3.885   0.479   6.148 -1.5444 -1.7373 -0.5255
 5309SOL    HW227564   3.760   0.555   6.136  0.6262  0.6674  0.2211
 5310SOL     OW27565   3.016   1.734   3.774 -0.0013  0.1340  0.3516
 5310SOL    HW127566   2.964   1.814   3.768  1.9298  1.3353 -0.4324
 5310SOL    HW227567   2.956   1.666   3.803 -0.6596  0.9907  1.0254
 5311SOL     OW27568   1.796   2.477   2.849  0.1501  0.7486 -0.5778
 5311SOL    HW127569   1.871   2.455   2.793  0.9155  1.9379 -0.0295
 5311SOL    HW227570   1.840   2.542   2.904 -0.6985  1.1492 -0.3795
 5312SOL     OW27571   1.311   0.192   8.222  0.3232  0.1541 -0.5332
 5312SOL    HW127572   1.272   0.184   8.309  0.7174  0.9156 -0.2894
 5312SOL    HW227573   1.334   0.284   8.214 -0.6765  0.5095  0.7422
 5313SOL     OW27574   0.708   3.393   6.413  0.0795 -0.4416 -0.5033
 5313SOL    HW127575   0.625   3.403   6.367 -0.2292  0.8288  0.3111
 5313SOL    HW227576   0.770   3.415   6.344  0.2396  3.6345  0.8829
 5314SOL     OW27577   1.057   4.728   1.733 -0.6433  0.5730 -0.2353
 5314SOL    HW127578   0.998   4.661   1.699 -1.4023  2.2012 -2.1470
 5314SOL    HW227579   1.118   4.732   1.659 -1.3935 -1.2306 -0.9620
 5315SOL     OW27580   0.607   2.561   6.761 -0.0819 -0.1305 -0.0136
 5315SOL    HW127581   0.615   2.475   6.803 -1.1461  0.6274  1.7307
 5315SOL    HW227582   0.515   2.574   6.783 -0.8175 -0.3939 -2.9269
 5316SOL     OW27583   4.251   1.789  10.559  0.1015 -0.2492  0.0131
 5316SOL    HW127584   4.171   1.835  10.534 -0.7890 -0.4962  2.3824
 5316SOL    HW227585   4.288   1.788  10.471 -0.4264  1.9279 -0.2429
 5317SOL     OW27586   1.090   0.255   3.281  0.0930 -0.4822  0.6123
 5317SOL    HW127587   1.016   0.283   3.334 -1.9581 -0.6936 -2.1464
 5317SOL    HW227588   1.078   0.160   3.287  1.2058 -0.5080  2.2035
 5318SOL     OW27589   2.227   0.682   6.486 -0.4604  0.8368 -0.3378
 5318SOL    HW127590   2.175   0.693   6.407 -0.2391  0.5985 -0.5191
 5318SOL    HW227591   2.293   0.615   6.466  0.3576  1.6468 -0.3854
 5319SOL     OW27592   3.610   1.352  15.093 -0.6456 -0.7687  0.0867
 5319SOL    HW127593   3.561   1.360  15.011 -0.6711  0.1168  0.1846
 5319SOL    HW227594   3.604   1.261  15.123 -0.9559 -1.2431 -1.4599
 5320SOL     OW27595   1.477   3.184   2.532  0.4051 -0.5750 -0.4171
 5320SOL    HW127596   1.508   3.199   2.442 -1.2251  0.0991 -0.8660
 5320SOL    HW227597   1.533   3.116   2.568 -1.1786 -0.7355  1.7159
 5321SOL     OW27598   0.214   0.766   8.549 -0.0242 -0.4280 -0.3840
 5321SOL    HW127599   0.188   0.686   8.504  2.1453 -1.9099  0.9709
 5321SOL    HW227600   0.221   0.743   8.642 -0.3839 -1.2378 -0.5565
 5322SOL     OW27601   2.120   1.971  17.201 -0.6398 -0.1668  0.3866
 5322SOL    HW127602   2.078   2.038  17.255 -1.4577  2.0906 -3.0674
 5322SOL    HW227603   2.141   1.906  17.268  0.9176  1.8988  1.8814
 5323SOL     OW27604   1.096   3.230   4.746 -0.5313  0.3898 -0.3521
 5323SOL    HW127605   1.065   3.249   4.834 -1.6832  0.5186 -0.7917
 5323SOL    HW227606   1.018   3.253   4.696 -1.0839  1.9615  1.2176
 5324SOL     OW27607   0.132   0.593   7.104  0.9135  0.0676 -0.2655
 5324SOL    HW127608   0.146   0.545   7.023  1.8653 -2.4493  1.3788
 5324SOL    HW227609   0.172   0.677   7.080  0.9889  0.0809 -0.0939
 5325SOL     OW27610   1.604   3.503   5.515 -0.1685 -0.8055  0.3796
 5325SOL    HW127611   1.618   3.561   5.440 -0.2410 -0.5519  0.5616
 5325SOL    HW227612   1.546   3.436   5.479  0.8460 -1.3094 -0.2928
 5326SOL     OW27613   2.293   4.557   6.888  0.7677  0.2923  0.1122
 5326SOL    HW127614   2.270   4.639   6.931  1.1105  1.4791 -1.9593
 5326SOL    HW227615   2.349   4.513   6.952  1.0684 -2.2051 -1.8913
 5327SOL     OW27616   1.163   4.414   5.982 -0.3668  0.3107  0.3267
 5327SOL    HW127617   1.119   4.479   5.927  0.9040 -0.6855 -1.8546
 5327SOL    HW227618   1.134   4.437   6.070  1.7924  0.2547  1.0323
 5328SOL     OW27619   0.581   0.815   7.884 -0.0149 -0.1623  0.3046
 5328SOL    HW127620   0.616   0.796   7.797 -0.3175  0.4883  0.0408
 5328SOL    HW227621   0.542   0.897   7.854  2.6719  0.8881 -0.3722
 5329SOL     OW27622   0.936   3.414   8.400 -0.2175 -0.2446  0.6104
 5329SOL    HW127623   0.986   3.491   8.374 -1.3344  0.8203  1.6753
 5329SOL    HW227624   0.956   3.422   8.493  2.4373 -0.8068  0.1000
 5330SOL     OW27625   0.817   1.538   5.175 -0.7037 -0.1796 -0.4830
 5330SOL    HW127626   0.827   1.492   5.092 -0.4140  0.3361 -0.7355
 5330SOL    HW227627   0.870   1.481   5.230 -0.3478 -1.3619 -2.0534
 5331SOL     OW27628   0.908   3.095   7.798 -0.4331 -0.0362 -0.1492
 5331SOL    HW127629   0.953   3.054   7.872  1.3694 -0.2105 -1.3439
 5331SOL    HW227630   0.988   3.119   7.751 -0.3053 -0.1413  0.0115
 5332SOL     OW27631   3.792   4.437  15.723  0.6433  0.2114 -0.1442
 5332SOL    HW127632   3.755   4.491  15.652 -0.0487  0.8873  0.7214
 5332SOL    HW227633   3.868   4.391  15.687  1.1724  0.0088  1.2274
 5333SOL     OW27634   0.747   0.849   6.125  1.1577 -0.3170 -1.1671
 5333SOL    HW127635   0.735   0.919   6.061  0.1516 -0.1937 -0.8395
 5333SOL    HW227636   0.832   0.880   6.155  0.1925 -0.7616  1.9972
 5334SOL     OW27637   2.311   3.188   7.142  0.0218  0.3915  0.0630
 5334SOL    HW127638   2.242   3.122   7.148 -0.3460  0.6920 -0.9485
 5334SOL    HW227639   2.300   3.215   7.051  1.3128 -0.8496 -0.4737
 5335SOL     OW27640   4.242   3.174   0.101 -0.2039  0.1780 -0.1690
 5335SOL    HW127641   4.250   3.126   0.184 -1.5879 -2.6548 -1.6561
 5335SOL    HW227642   4.151   3.158   0.076  0.8929 -0.3358 -3.7809
 5336SOL     OW27643   2.234   2.130   2.446 -0.3295 -0.6620 -0.5478
 5336SOL    HW127644   2.256   2.037   2.460  1.6611 -0.3654 -1.7005
 5336SOL    HW227645   2.200   2.131   2.357  1.8703  0.8763 -1.3572
 5337SOL     OW27646   0.279   2.354   3.508  0.1149 -0.3514 -0.5125
 5337SOL    HW127647   0.366   2.353   3.549 -0.9362 -1.7324  1.6834
 5337SOL    HW227648   0.265   2.261   3.491 -0.1278 -0.2706 -0.7497
 5338SOL     OW27649   4.017   2.941   9.678 -0.0345 -0.2454 -0.6763
 5338SOL    HW127650   4.080   2.871   9.696  0.5096 -0.2404 -2.5626
 5338SOL    HW227651   3.939   2.902   9.716  0.6123 -0.7345  0.1657
 5339SOL     OW27652   1.298   4.632   7.894  1.3212  0.2075 -0.4839
 5339SOL    HW127653   1.391   4.649   7.878  0.4321  3.3682 -2.3623
 5339SOL    HW227654   1.286   4.636   7.988  2.2103 -1.3355 -0.2989
 5340SOL     OW27655   3.118   4.170   4.493  0.1878  0.6961  0.1166
 5340SOL    HW127656   3.144   4.191   4.582 -0.4066  1.5890  0.0840
 5340SOL    HW227657   3.027   4.199   4.490  0.9284  3.2997  2.9516
 5341SOL     OW27658   2.451   4.618   5.455 -0.2769  0.0122 -0.4860
 5341SOL    HW127659   2.411   4.698   5.422 -2.0748 -0.3557  0.7933
 5341SOL    HW227660   2.448   4.638   5.549 -3.4379  1.4104 -0.9054
 5342SOL     OW27661   1.650   2.152  14.247  0.5944  0.1830  0.1980
 5342SOL    HW127662   1.712   2.145  14.174  0.0247 -1.4883 -0.1265
 5342SOL    HW227663   1.573   2.169  14.194  0.2955  0.2633  0.6632
 5343SOL     OW27664   1.119   3.536   8.951 -0.0893  0.2746 -0.3723
 5343SOL    HW127665   1.074   3.618   8.972 -1.9325 -0.9189  0.3041
 5343SOL    HW227666   1.092   3.465   9.009  0.6583  0.1943 -0.1277
 5344SOL     OW27667   0.033   4.407   9.720  0.4576 -0.4978 -0.2342
 5344SOL    HW127668   0.006   4.330   9.671  0.0298 -1.2131  1.1284
 5344SOL    HW227669   4.693   4.441   9.763  0.1435  0.2653 -1.4183
 5345SOL     OW27670   4.248   3.656   6.658  0.0747 -0.7799 -0.6754
 5345SOL    HW127671   4.320   3.661   6.721  0.0464  1.3192 -0.7992
 5345SOL    HW227672   4.174   3.675   6.716  0.7845  2.3732 -0.7551
 5346SOL     OW27673   3.319   2.257   6.472  0.1745 -0.8382 -0.0634
 5346SOL    HW127674   3.295   2.180   6.422 -0.0525 -0.4438 -0.5612
 5346SOL    HW227675   3.362   2.211   6.544 -0.0242  2.3673  2.1228
 5347SOL     OW27676   0.257   1.119   1.096  0.1104 -0.1709 -0.0965
 5347SOL    HW127677   0.243   1.210   1.068 -1.1115  0.1222  1.4610
 5347SOL    HW227678   0.229   1.127   1.187  1.8744  0.9838  0.3404
 5348SOL     OW27679   3.710   4.512   7.663  0.5503 -0.1583  0.1689
 5348SOL    HW127680   3.801   4.543   7.667  0.4173  0.0271  1.9259
 5348SOL    HW227681   3.703   4.513   7.568 -1.2478  2.4988  0.3428
 5349SOL     OW27682   0.755   4.465  15.974  0.2212  0.2567  0.0950
 5349SOL    HW127683   0.723   4.398  16.034  1.8967 -0.1951  0.4909
 5349SOL    HW227684   0.727   4.428  15.890  0.5586 -0.0556  0.1215
 5350SOL     OW27685   0.277   2.903   4.062 -0.1254 -0.4694 -0.1175
 5350SOL    HW127686   0.353   2.857   4.028 -0.1192 -2.2944  2.3297
 5350SOL    HW227687   0.238   2.829   4.109 -1.1766 -0.6044 -1.1930
 5351SOL     OW27688   0.911   1.315   3.217  0.3736 -0.1848 -0.2241
 5351SOL    HW127689   0.984   1.254   3.205  0.6844  0.1695 -0.1027
 5351SOL    HW227690   0.871   1.315   3.130  0.6734 -2.5721 -0.3623
 5352SOL     OW27691   3.314   1.579   4.594 -0.5532  0.2284 -0.0958
 5352SOL    HW127692   3.245   1.525   4.556 -0.8651  0.0970  0.6660
 5352SOL    HW227693   3.292   1.563   4.685 -0.3705  0.7419  0.0418
 5353SOL     OW27694   4.317   1.323   7.860 -0.2053  0.4012  0.3282
 5353SOL    HW127695   4.258   1.359   7.927 -1.1157 -1.2165  0.4055
 5353SOL    HW227696   4.302   1.384   7.788 -4.0362 -0.2413  0.5482
 5354SOL     OW27697   3.082   3.158   0.632 -0.1638 -0.2872  0.0982
 5354SOL    HW127698   3.051   3.231   0.685 -1.5216 -0.8532  0.0895
 5354SOL    HW227699   3.112   3.100   0.703  0.2910  0.0511  0.1796
 5355SOL     OW27700   4.220   0.489  17.458 -0.5721 -0.4979  0.5104
 5355SOL    HW127701   4.130   0.488  17.491 -0.2705 -1.2045  1.3167
 5355SOL    HW227702   4.201   0.539  17.379  0.9116  0.9019  1.0203
 5356SOL     OW27703   2.095   1.800  12.657 -0.7416 -0.4056 -0.0273
 5356SOL    HW127704   2.022   1.862  12.653  1.5584  2.2377 -0.7987
 5356SOL    HW227705   2.155   1.852  12.711 -0.4742 -1.2367  0.4645
 5357SOL     OW27706   2.323   2.618   7.864  0.6422 -0.5911  0.1257
 5357SOL    HW127707   2.313   2.664   7.947  0.1231 -0.5825  0.0585
 5357SOL    HW227708   2.379   2.681   7.819 -1.9828  0.1077 -2.2015
 5358SOL     OW27709   2.025   1.576   8.200 -0.0828  0.1559 -0.0842
 5358SOL    HW127710   1.938   1.539   8.185 -1.4522  3.2950  0.1016
 5358SOL    HW227711   2.015   1.658   8.151  0.4650 -0.8633 -1.8797
 5359SOL     OW27712   2.250   3.847  15.787 -0.0402 -0.3003  0.6071
 5359SOL    HW127713   2.290   3.787  15.724  0.7566  0.3173  0.5208
 5359SOL    HW227714   2.183   3.789  15.824  0.1056 -0.7068  0.2291
 5360SOL     OW27715   1.970   1.370   5.687 -0.2482 -0.0106  0.4602
 5360SOL    HW127716   1.982   1.275   5.677 -0.7424 -0.1864  1.5505
 5360SOL    HW227717   1.909   1.387   5.758 -0.6246  0.2551  0.0741
 5361SOL     OW27718   3.934   4.623  10.993  0.3434  0.0209 -0.5374
 5361SOL    HW127719   3.924   4.717  11.006 -2.7525 -0.5529  1.3411
 5361SOL    HW227720   3.954   4.593  11.082  0.6977  1.4310 -0.1408
 5362SOL     OW27721   2.929   1.111   5.063  0.3719  0.5547 -0.2252
 5362SOL    HW127722   2.943   1.199   5.028  1.4375  0.6446  0.4167
 5362SOL    HW227723   2.947   1.054   4.989 -1.2441  1.4835 -1.3181
 5363SOL     OW27724   4.234   0.101   3.568  0.3919 -0.4255 -0.2925
 5363SOL    HW127725   4.145   0.126   3.545  0.4908  0.0252 -0.1922
 5363SOL    HW227726   4.263   0.184   3.606 -0.3232 -0.8769  1.2683
 5364SOL     OW27727   2.855   2.555   5.815 -0.4415 -0.7932  0.3563
 5364SOL    HW127728   2.876   2.526   5.903  1.9729 -2.0224 -0.6125
 5364SOL    HW227729   2.832   2.647   5.819  0.6626 -0.4255 -1.7523
 5365SOL     OW27730   0.067   0.408   2.481  0.6283  0.3948  0.0981
 5365SOL    HW127731   0.033   0.443   2.563 -0.7057  0.1370 -0.3368
 5365SOL    HW227732   0.064   0.313   2.493 -1.6867  0.2452 -1.5338
 5366SOL     OW27733   0.641   1.980   5.252 -0.4350  0.0610  0.4356
 5366SOL    HW127734   0.629   1.887   5.272  1.2937 -0.5883 -1.5087
 5366SOL    HW227735   0.585   2.017   5.320 -0.9512 -1.8084  1.0156
 5367SOL     OW27736   2.244   2.021   0.265  0.3230 -0.4599 -0.1762
 5367SOL    HW127737   2.325   2.061   0.233 -0.0784  0.5409  0.0730
 5367SOL    HW227738   2.240   1.939   0.215  0.6121 -0.2081 -0.6165
 5368SOL     OW27739   3.307   3.289   2.627 -0.4867 -0.6775 -0.1882
 5368SOL    HW127740   3.279   3.207   2.586 -0.5158  0.1596 -1.8308
 5368SOL    HW227741   3.267   3.279   2.714 -0.1797 -0.4255 -0.0220
 5369SOL     OW27742   1.335   0.141   1.827  0.2432  0.5252  0.0896
 5369SOL    HW127743   1.316   0.124   1.734 -2.2238  1.4091  0.4377
 5369SOL    HW227744   1.337   0.053   1.865 -0.2160  1.0703  1.3730
 5370SOL     OW27745   3.862   2.612   1.774 -0.2878  0.3627  0.5150
 5370SOL    HW127746   3.772   2.585   1.755 -1.0540  2.0318  1.7455
 5370SOL    HW227747   3.840   2.666   1.849 -2.3384  2.6788 -1.7473
 5371SOL     OW27748   3.154   3.923   1.898  0.6816  0.1344 -0.5468
 5371SOL    HW127749   3.205   3.874   1.834 -0.4447 -0.0895 -1.2746
 5371SOL    HW227750   3.096   3.862   1.945  0.3965 -1.0450 -2.4313
 5372SOL     OW27751   1.592   3.790   8.560  0.0578  0.0199 -0.4834
 5372SOL    HW127752   1.506   3.752   8.541  0.1007 -0.7590  0.8568
 5372SOL    HW227753   1.595   3.765   8.652 -1.9861 -1.9422 -0.9428
 5373SOL     OW27754   4.508   2.433   8.979 -0.2509 -0.5219  0.5525
 5373SOL    HW127755   4.536   2.469   9.063 -1.2904  1.8109 -0.0825
 5373SOL    HW227756   4.493   2.344   9.008 -1.9521 -0.6409 -0.6933
 5374SOL     OW27757   3.321   2.412   5.654 -0.5067  0.0940 -0.0170
 5374SOL    HW127758   3.389   2.462   5.699 -2.3013  0.8419  1.8467
 5374SOL    HW227759   3.288   2.483   5.599  1.4022  0.8473 -0.2038
 5375SOL     OW27760   1.301   0.895   7.672  0.4547 -0.4965  0.2926
 5375SOL    HW127761   1.206   0.896   7.682  0.1959 -0.2808 -2.2076
 5375SOL    HW227762   1.313   0.919   7.580 -1.2540  1.8360  0.6649
 5376SOL     OW27763   3.140   0.344   8.663  0.2952 -0.1689  0.2816
 5376SOL    HW127764   3.187   0.300   8.734 -1.8741  2.8500  3.5752
 5376SOL    HW227765   3.134   0.432   8.700  1.3938 -0.1058  0.3212
 5377SOL     OW27766   4.262   2.497   4.064  0.0864 -0.1778  0.0566
 5377SOL    HW127767   4.190   2.484   4.126  0.8302  1.2959  1.1998
 5377SOL    HW227768   4.232   2.448   3.987  0.6448  2.3576 -1.7826
 5378SOL     OW27769   3.331   3.796   8.370 -0.3785 -0.2652 -0.5037
 5378SOL    HW127770   3.356   3.784   8.461  0.8639 -1.3499 -0.9926
 5378SOL    HW227771   3.390   3.730   8.335 -0.9789 -0.2987 -1.4589
 5379SOL     OW27772   3.876   4.097  13.437  0.0666 -0.2660  0.3282
 5379SOL    HW127773   3.872   4.002  13.436  0.8351 -0.3009  0.6972
 5379SOL    HW227774   3.971   4.107  13.431  0.1854 -0.9030  1.0808
 5380SOL     OW27775   3.490   1.665  15.371  0.2459 -0.2045  0.2730
 5380SOL    HW127776   3.506   1.744  15.319  0.0515 -0.5872 -0.3593
 5380SOL    HW227777   3.477   1.695  15.461  0.1574  1.1783 -0.1961
 5381SOL     OW27778   0.698   3.909   8.653  0.8084 -0.4085  0.9438
 5381SOL    HW127779   0.698   3.909   8.557 -0.2312 -1.0613  0.9366
 5381SOL    HW227780   0.616   3.950   8.681 -0.5237 -1.4184 -1.4351
 5382SOL     OW27781   2.008   1.569  13.980 -0.4873  0.6382  0.4930
 5382SOL    HW127782   2.078   1.607  14.034 -1.5757  3.1471  0.1507
 5382SOL    HW227783   1.938   1.547  14.041 -0.3554 -1.4748 -0.1372
 5383SOL     OW27784   2.862   1.887   6.366 -0.4917 -0.2458 -0.1489
 5383SOL    HW127785   2.928   1.851   6.425 -1.9097 -0.2647  1.4104
 5383SOL    HW227786   2.925   1.913   6.298 -0.3168  1.7927  0.7886
 5384SOL     OW27787   1.101   1.933   5.394  0.1999  0.1923  0.0201
 5384SOL    HW127788   1.169   1.956   5.458  0.3172  1.6960 -0.6555
 5384SOL    HW227789   1.103   1.837   5.395  0.3031  0.1932 -0.4119
 5385SOL     OW27790   0.199   4.705  14.121 -0.4164  0.1191 -0.6011
 5385SOL    HW127791   0.182   4.618  14.157  1.9625 -1.5002 -3.4028
 5385SOL    HW227792   0.156   0.019  14.188  0.2064  1.6302 -1.3893
 5386SOL     OW27793   2.342   0.721  12.594 -0.1561  0.1039 -0.6208
 5386SOL    HW127794   2.334   0.656  12.525 -1.1643 -0.1448 -0.2704
 5386SOL    HW227795   2.342   0.661  12.669 -0.8689  2.0056  0.9178
 5387SOL     OW27796   3.352   3.149   7.377  0.2111 -0.2444 -0.2265
 5387SOL    HW127797   3.401   3.074   7.409 -1.0802 -0.6015  0.9216
 5387SOL    HW227798   3.262   3.127   7.400 -0.3628  0.9933 -1.3171
 5388SOL     OW27799   3.125   0.145   2.147  0.2158  0.2309 -0.2132
 5388SOL    HW127800   3.145   0.052   2.136  3.0704  0.6984  1.0244
 5388SOL    HW227801   3.216   0.175   2.141 -0.3478  2.0819  0.6729
 5389SOL     OW27802   1.018   2.308  17.427 -0.3225  0.1088  0.0003
 5389SOL    HW127803   1.029   2.379  17.490  0.6118  0.4996 -0.5933
 5389SOL    HW227804   0.971   2.253  17.489 -0.6214 -0.8276 -1.0535
 5390SOL     OW27805   3.216   1.525   4.853  0.2040  0.3284 -0.7088
 5390SOL    HW127806   3.253   1.538   4.941  1.7780 -2.0488 -1.0257
 5390SOL    HW227807   3.197   1.434   4.877  1.2776  0.4539  0.6453
 5391SOL     OW27808   3.886   0.206   9.438  0.2068 -0.4295  0.3842
 5391SOL    HW127809   3.964   0.159   9.410  0.9452  1.2622 -0.3772
 5391SOL    HW227810   3.815   0.148   9.411 -0.7772  0.5150  0.8971
 5392SOL     OW27811   1.771   0.236   7.868 -0.2614 -0.5696 -0.3739
 5392SOL    HW127812   1.818   0.317   7.884 -2.9404  1.1541 -1.2744
 5392SOL    HW227813   1.779   0.221   7.774 -0.7860  0.6898 -0.6081
 5393SOL     OW27814   1.594   3.808  14.621  0.0351  0.1588  0.1304
 5393SOL    HW127815   1.683   3.772  14.631  0.2613  0.7436  0.2480
 5393SOL    HW227816   1.620   3.883  14.567  0.8570 -0.2123  0.0113
 5394SOL     OW27817   0.178   2.045   4.478  0.2317 -0.0863 -0.0542
 5394SOL    HW127818   0.228   1.989   4.538  1.1066  1.2681  0.5026
 5394SOL    HW227819   0.134   2.102   4.541 -2.4878 -1.2999 -0.8922
 5395SOL     OW27820   4.701   4.258  13.363  0.1254  0.4780  0.8251
 5395SOL    HW127821   4.695   4.162  13.357 -0.0847  0.6102 -1.1500
 5395SOL    HW227822   4.712   4.280  13.270 -0.3481  0.0435  0.6610
 5396SOL     OW27823   2.027   3.053   6.862 -0.0418  0.2087 -0.1638
 5396SOL    HW127824   1.942   3.092   6.846  0.2581  0.9666  0.0791
 5396SOL    HW227825   2.082   3.132   6.860 -0.4231  0.4578 -0.7357
 5397SOL     OW27826   0.091   3.857   3.572  0.3896  0.1947  0.8334
 5397SOL    HW127827   0.165   3.803   3.597  0.5630  0.0717  0.0770
 5397SOL    HW227828   0.123   3.907   3.497 -0.1908 -0.1453  0.3449
 5398SOL     OW27829   1.617   1.311   7.804  0.3392 -0.0067 -0.0629
 5398SOL    HW127830   1.688   1.343   7.749 -0.0935  0.2274 -0.4867
 5398SOL    HW227831   1.540   1.296   7.750 -0.1353  0.9728  0.3490
 5399SOL     OW27832   4.527   3.536   9.965  0.2517  0.0091 -0.3412
 5399SOL    HW127833   4.544   3.455  10.013  0.8303  0.9127  0.9823
 5399SOL    HW227834   4.612   3.578   9.975  1.2553 -1.6588 -1.7049
 5400SOL     OW27835   4.512   4.293   6.857  0.2239 -0.1232  0.5814
 5400SOL    HW127836   4.555   4.209   6.869 -0.7031 -0.7267 -0.2833
 5400SOL    HW227837   4.581   4.354   6.880  0.6168  0.1557 -1.2840
 5401SOL     OW27838   0.960   0.252  15.933 -0.3689  0.0812  0.1641
 5401SOL    HW127839   0.884   0.274  15.988  0.7310  3.0464  0.5105
 5401SOL    HW227840   0.944   0.158  15.931  0.2691 -0.0477  1.1022
 5402SOL     OW27841   4.503   1.263   1.599 -0.0122 -0.2355 -0.3893
 5402SOL    HW127842   4.527   1.235   1.688  0.6342 -1.5319 -0.9682
 5402SOL    HW227843   4.584   1.303   1.568  0.7100 -0.7448  0.8223
 5403SOL     OW27844   1.011   0.022   9.970  0.2940  0.4153  0.1363
 5403SOL    HW127845   0.990   4.707  10.047  0.2172 -0.9342 -0.8272
 5403SOL    HW227846   0.951   4.733   9.901 -0.7007  1.9072  0.4040
 5404SOL     OW27847   3.411   1.574   5.423  0.4150 -0.0419 -0.0863
 5404SOL    HW127848   3.462   1.617   5.355  0.5498 -0.9496 -0.5585
 5404SOL    HW227849   3.324   1.613   5.411  0.9084  1.0898  0.1026
 5405SOL     OW27850   2.258   2.725   1.358  0.8302 -0.0620 -0.5778
 5405SOL    HW127851   2.289   2.809   1.391  0.0289 -0.8410  2.1625
 5405SOL    HW227852   2.192   2.709   1.425  0.9409  1.5838 -0.0784
 5406SOL     OW27853   1.017   2.491  11.909 -0.1118  0.8650  0.2416
 5406SOL    HW127854   0.931   2.477  11.868  0.2750 -1.6946  0.3045
 5406SOL    HW227855   1.029   2.429  11.981 -1.5772  0.5546  0.2222
 5407SOL     OW27856   0.736   4.702   6.341 -0.1655 -0.1549 -0.2660
 5407SOL    HW127857   0.676   0.031   6.310 -0.7864 -0.6572 -0.1618
 5407SOL    HW227858   0.690   4.657   6.412 -3.0590  1.1430 -1.3198
 5408SOL     OW27859   3.659   3.613   6.215  0.3253  0.1130 -0.3570
 5408SOL    HW127860   3.719   3.652   6.279 -0.6933 -1.7140  1.7187
 5408SOL    HW227861   3.589   3.672   6.241  2.0348  1.9403  0.1285
 5409SOL     OW27862   4.198   1.458   7.020  0.0457  0.1731  0.0091
 5409SOL    HW127863   4.147   1.380   7.039 -0.3598  0.7759  1.4130
 5409SOL    HW227864   4.286   1.424   7.002 -0.0567  0.4188 -0.9790
 5410SOL     OW27865   3.993   1.808  14.284 -0.0079 -0.0811  0.4521
 5410SOL    HW127866   4.060   1.858  14.238  1.2702 -1.9945  0.2179
 5410SOL    HW227867   3.952   1.872  14.342 -0.1965  0.2541 -0.0502
 5411SOL     OW27868   4.294   1.396  10.262  0.1873 -0.7315 -0.2916
 5411SOL    HW127869   4.352   1.400  10.338  0.2965 -0.4916 -0.3844
 5411SOL    HW227870   4.363   1.402  10.196  0.2246  1.7048 -0.0555
 5412SOL     OW27871   2.474   1.471   9.146  0.8302 -0.6085  0.2624
 5412SOL    HW127872   2.500   1.533   9.079 -0.2895  0.9490  1.2544
 5412SOL    HW227873   2.544   1.407   9.132  1.2045 -0.4591  1.4750
 5413SOL     OW27874   2.573   0.186   9.636 -0.5095 -0.3312 -0.4540
 5413SOL    HW127875   2.586   0.110   9.693 -2.3205 -0.6597 -0.4805
 5413SOL    HW227876   2.486   0.166   9.602 -0.8685  0.4052  0.0457
 5414SOL     OW27877   3.686   1.699   3.595 -0.3142 -0.7436  0.0949
 5414SOL    HW127878   3.675   1.779   3.545  0.3811 -1.4366 -1.1589
 5414SOL    HW227879   3.702   1.735   3.683 -0.4405 -1.1355  0.2808
 5415SOL     OW27880   2.256   1.654   0.507 -0.3708 -0.0646  0.2691
 5415SOL    HW127881   2.210   1.599   0.444 -3.6432  2.8484  0.1513
 5415SOL    HW227882   2.302   1.586   0.557  0.1636 -0.4814 -0.7753
 5416SOL     OW27883   3.244   2.107   3.484 -0.2967  0.3301 -0.5554
 5416SOL    HW127884   3.248   2.157   3.402  1.8432  1.9463  0.5415
 5416SOL    HW227885   3.270   2.020   3.454 -0.1052  0.1838  0.0366
 5417SOL     OW27886   0.236   4.193   1.385 -0.4351  0.3893  0.0098
 5417SOL    HW127887   0.323   4.232   1.395 -0.2641  0.2078 -0.8056
 5417SOL    HW227888   0.225   4.188   1.481  0.3745  1.9303  0.1836
 5418SOL     OW27889   2.106   3.265   5.411  0.0922  0.2313  0.4306
 5418SOL    HW127890   2.180   3.311   5.450  1.5306 -0.6151 -1.2499
 5418SOL    HW227891   2.040   3.266   5.480  0.2664 -0.1882  0.6052
 5419SOL     OW27892   0.857   1.828   8.677 -0.4412 -0.9483  0.5516
 5419SOL    HW127893   0.862   1.892   8.748  0.0280  1.1604 -1.3660
 5419SOL    HW227894   0.773   1.787   8.697  0.0031 -1.2845  1.6941
 5420SOL     OW27895   4.360   1.504   2.836 -0.7674 -0.2149 -0.6986
 5420SOL    HW127896   4.393   1.489   2.925 -0.7430  1.3621 -0.4408
 5420SOL    HW227897   4.445   1.530   2.799 -0.9224  1.1945 -0.0315
 5421SOL     OW27898   3.813   1.256   3.792  0.2517  0.0287 -0.0623
 5421SOL    HW127899   3.909   1.249   3.790  0.3360  1.3567 -0.2883
 5421SOL    HW227900   3.806   1.206   3.873  1.6058 -1.4622 -0.8485
 5422SOL     OW27901   3.361   4.122   1.974  0.0638  0.2797 -0.0558
 5422SOL    HW127902   3.310   4.042   1.981  1.1609 -0.3401  0.8585
 5422SOL    HW227903   3.446   4.080   1.959 -0.3227 -1.0829  1.6482
 5423SOL     OW27904   2.525   2.795  16.801  0.3654  0.1832  0.3572
 5423SOL    HW127905   2.459   2.772  16.867 -0.0092  3.4936  1.1276
 5423SOL    HW227906   2.496   2.883  16.777  0.8547  0.9503  2.5317
 5424SOL     OW27907   4.565   1.827  10.856  0.2798 -0.1543 -0.1379
 5424SOL    HW127908   4.538   1.736  10.869  3.2213 -1.2921 -2.0408
 5424SOL    HW227909   4.642   1.830  10.911  0.9248 -0.3528 -1.0221
 5425SOL     OW27910   2.548   0.584   7.439  0.1907 -0.4181 -0.4186
 5425SOL    HW127911   2.594   0.559   7.519  1.7871  2.3658 -0.4671
 5425SOL    HW227912   2.466   0.601   7.484 -0.2353 -2.1360 -0.5564
 5426SOL     OW27913   4.224   0.897   6.703  0.2585  0.1997  0.1036
 5426SOL    HW127914   4.146   0.849   6.674 -0.3913  2.5429 -1.9938
 5426SOL    HW227915   4.279   0.877   6.627  0.0901 -0.6052  0.1976
 5427SOL     OW27916   3.320   3.838   1.709  0.3347 -0.1080 -0.2202
 5427SOL    HW127917   3.371   3.762   1.682  1.6393  1.0011 -0.8850
 5427SOL    HW227918   3.390   3.903   1.701 -0.9687  1.0596 -2.1868
 5428SOL     OW27919   2.019   1.334   9.080 -0.4786 -0.2132  0.0901
 5428SOL    HW127920   1.965   1.399   9.036 -2.2344 -1.2244  0.7708
 5428SOL    HW227921   2.062   1.289   9.007  0.0432 -1.4100  1.1404
 5429SOL     OW27922   1.658   1.965  10.701  0.0716  0.3256 -0.1704
 5429SOL    HW127923   1.701   2.012  10.629 -3.2285 -0.2113 -2.5048
 5429SOL    HW227924   1.689   1.874  10.699  0.6204  0.5457 -1.9767
 5430SOL     OW27925   0.157   2.755  13.837 -0.2997 -0.8114  0.0238
 5430SOL    HW127926   0.088   2.784  13.896 -0.1246 -1.1035  0.3749
 5430SOL    HW227927   0.193   2.682  13.888 -0.7361 -0.4058  0.9071
 5431SOL     OW27928   0.219   0.137   8.194 -0.0886  0.5266 -0.2025
 5431SOL    HW127929   0.306   0.149   8.156  0.4962  1.5011  1.4532
 5431SOL    HW227930   0.233   0.059   8.247  1.9718  0.2520 -1.1514
 5432SOL     OW27931   2.956   2.762  16.491 -0.5469 -0.7858 -0.7423
 5432SOL    HW127932   2.908   2.718  16.561 -0.9837  0.1066 -0.4736
 5432SOL    HW227933   2.970   2.848  16.530 -1.5359 -1.4345  1.0561
 5433SOL     OW27934   0.834   2.426   3.599 -0.2639  0.3206 -0.3124
 5433SOL    HW127935   0.858   2.355   3.658 -1.5337  0.1253 -0.0147
 5433SOL    HW227936   0.891   2.416   3.523 -0.7405 -1.0516 -0.5004
 5434SOL     OW27937   4.594   2.475  16.588 -0.1614  0.1340  0.2696
 5434SOL    HW127938   4.599   2.406  16.654 -0.2681 -0.3377 -0.2159
 5434SOL    HW227939   4.553   2.543  16.641  0.8208  0.1145  1.0678
 5435SOL     OW27940   4.449   0.108   2.069  0.2025 -0.3547  0.0676
 5435SOL    HW127941   4.465   0.197   2.037 -1.7647 -0.0926 -0.1349
 5435SOL    HW227942   4.366   0.129   2.111 -0.7932  0.2338 -2.2090
 5436SOL     OW27943   1.862   4.709  10.467  0.2580  0.0426  0.4893
 5436SOL    HW127944   1.782   4.698  10.519  0.4585 -1.7731  0.4274
 5436SOL    HW227945   1.914   0.036  10.512 -1.2127  1.8807 -0.5317
 5437SOL     OW27946   3.152   4.104   9.427 -0.3015  0.0088  0.2589
 5437SOL    HW127947   3.103   4.032   9.387 -0.5155 -0.3724  1.2147
 5437SOL    HW227948   3.094   4.177   9.406 -1.3133 -0.4082  1.6382
 5438SOL     OW27949   3.805   3.645   2.824 -0.8511 -0.1631 -0.2490
 5438SOL    HW127950   3.767   3.558   2.832  0.2130 -0.6117 -0.0530
 5438SOL    HW227951   3.750   3.676   2.752 -1.4882  0.7903  0.6536
 5439SOL     OW27952   2.296   3.239   8.876 -0.6205 -0.3361 -0.2847
 5439SOL    HW127953   2.297   3.166   8.815  2.4308 -0.5693  0.0684
 5439SOL    HW227954   2.322   3.308   8.814  2.8673 -1.4366 -0.0399
 5440SOL     OW27955   3.393   2.773   4.713  0.6337 -0.0295  0.0802
 5440SOL    HW127956   3.318   2.808   4.666  1.0420 -0.0894 -0.6044
 5440SOL    HW227957   3.395   2.843   4.779  0.2534 -0.1605  0.2296
 5441SOL     OW27958   2.499   2.364   7.243 -0.2782  0.6002 -0.5402
 5441SOL    HW127959   2.470   2.394   7.329 -1.9164 -1.2055 -0.4587
 5441SOL    HW227960   2.414   2.372   7.201 -0.2750 -2.3081 -1.1184
 5442SOL     OW27961   0.388   4.121   0.099  0.1454 -0.3537  0.5365
 5442SOL    HW127962   0.383   4.200   0.152 -0.3564  0.2174 -0.3535
 5442SOL    HW227963   0.325   4.156   0.036 -0.4200 -2.0792  0.1405
 5443SOL     OW27964   4.563   4.592   3.825  0.5570 -0.2944 -0.2098
 5443SOL    HW127965   4.507   4.533   3.876  0.9974 -0.1375  0.4433
 5443SOL    HW227966   4.548   4.676   3.868  0.6542  1.1790 -3.0266
 5444SOL     OW27967   1.915   3.373   4.003  0.6724  0.6340  0.6043
 5444SOL    HW127968   1.903   3.387   3.909  0.0592  0.6728  0.6882
 5444SOL    HW227969   2.010   3.388   4.009  0.4131  2.0352  1.2584
 5445SOL     OW27970   0.138   1.754  11.727  0.0475 -0.0565 -0.1727
 5445SOL    HW127971   0.155   1.698  11.803  1.1410 -1.3770 -1.3827
 5445SOL    HW227972   0.163   1.692  11.658  1.4228  0.2623  0.0345
 5446SOL     OW27973   2.187   1.343   0.420  0.3257 -0.6184  0.0948
 5446SOL    HW127974   2.101   1.319   0.452 -0.5587 -0.5121 -2.2283
 5446SOL    HW227975   2.230   1.294   0.491  2.1692  0.0093 -0.5784
 5447SOL     OW27976   2.463   0.999   2.553  0.4324  0.0665  0.0940
 5447SOL    HW127977   2.405   0.930   2.584  1.3573 -0.3592  0.8891
 5447SOL    HW227978   2.396   1.067   2.545  1.0139  0.7292  0.8015
 5448SOL     OW27979   0.648   0.520   3.338 -0.2434  0.4395  0.0961
 5448SOL    HW127980   0.572   0.517   3.281 -0.6149  0.1221  0.6066
 5448SOL    HW227981   0.624   0.584   3.406  1.5434 -0.2601  1.4031
 5449SOL     OW27982   3.983   0.751  15.108  0.4544 -0.3772  0.1765
 5449SOL    HW127983   3.969   0.780  15.199  2.9765  0.7826  0.1889
 5449SOL    HW227984   4.059   0.693  15.104 -0.4048 -1.5163  0.2347
 5450SOL     OW27985   3.098   2.549   8.250 -0.4862  0.0177 -0.0756
 5450SOL    HW127986   3.004   2.535   8.250 -0.4687 -0.0886 -0.4523
 5450SOL    HW227987   3.126   2.466   8.212 -1.0400 -0.3254  0.2633
 5451SOL     OW27988   2.076   1.759   4.120 -0.0084 -0.0796  0.6073
 5451SOL    HW127989   2.127   1.812   4.182  0.5648  0.8748 -0.6889
 5451SOL    HW227990   2.083   1.815   4.043 -1.9848  1.4987  1.5761
 5452SOL     OW27991   3.071   1.778   4.777  0.1762  0.4638 -0.2308
 5452SOL    HW127992   3.147   1.822   4.739  0.3254 -0.8466 -1.4435
 5452SOL    HW227993   3.103   1.689   4.791  0.1129  0.3872 -0.5652
 5453SOL     OW27994   0.975   4.029   8.971  0.9569  0.3252 -0.2931
 5453SOL    HW127995   1.024   4.007   9.051 -0.6388 -2.9721 -0.2227
 5453SOL    HW227996   0.910   3.959   8.975  0.5976  0.7405  0.9902
 5454SOL     OW27997   4.608   1.316   4.919  0.0271  0.7266  0.4278
 5454SOL    HW127998   4.626   1.357   4.834 -1.6736 -0.5072 -0.5023
 5454SOL    HW227999   4.648   1.229   4.922 -0.7633  0.2791 -3.0374
 5455SOL     OW28000   0.874   3.736  11.533 -0.1266 -0.1571 -0.0557
 5455SOL    HW128001   0.799   3.713  11.588 -0.8872  0.7989 -0.6911
 5455SOL    HW228002   0.842   3.720  11.444  2.4766  2.7861 -1.5045
 5456SOL     OW28003   2.122   4.638   2.822 -0.0466  0.7056  0.0119
 5456SOL    HW128004   2.174   4.705   2.867  0.8431  0.5735 -0.7983
 5456SOL    HW228005   2.149   4.558   2.867  0.7621  0.9510 -0.0362
 5457SOL     OW28006   3.489   0.154   4.109  0.4678 -0.2002 -0.3902
 5457SOL    HW128007   3.463   0.242   4.085  1.2293 -0.1782 -1.1283
 5457SOL    HW228008   3.454   0.142   4.197  1.5863 -3.5814 -0.4076
 5458SOL     OW28009   2.635   3.764   3.556 -0.1394 -0.5517 -0.0249
 5458SOL    HW128010   2.653   3.805   3.472  0.5146 -1.2524 -0.2297
 5458SOL    HW228011   2.544   3.790   3.567 -0.3720 -1.5808  0.5784
 5459SOL     OW28012   0.744   2.544   2.221 -0.1021  0.1683  0.0920
 5459SOL    HW128013   0.753   2.588   2.306 -1.1284  0.9004 -0.1750
 5459SOL    HW228014   0.724   2.615   2.160 -0.2871 -0.6106 -0.7468
 5460SOL     OW28015   2.036   1.339   6.070  0.0562  0.0594 -0.0892
 5460SOL    HW128016   2.003   1.364   6.156 -0.1239 -1.7545  0.3677
 5460SOL    HW228017   1.970   1.377   6.011 -1.6824 -0.7647  1.3313
 5461SOL     OW28018   1.453   2.253   2.178 -0.0747  0.2447 -0.3276
 5461SOL    HW128019   1.522   2.222   2.119  0.1778 -0.1450  0.1703
 5461SOL    HW228020   1.440   2.176   2.233  0.9406 -0.5395 -1.1790
 5462SOL     OW28021   3.875   4.249   9.548  0.6675  0.0956  0.3498
 5462SOL    HW128022   3.950   4.300   9.578 -1.1260  2.7181  0.3521
 5462SOL    HW228023   3.876   4.268   9.454  3.2130 -0.6981  0.2161
 5463SOL     OW28024   3.603   2.402   4.295 -0.5561  0.3822 -0.4934
 5463SOL    HW128025   3.550   2.474   4.328  0.6391  0.6343  0.9241
 5463SOL    HW228026   3.549   2.331   4.330  1.9041 -0.5973  1.3416
 5464SOL     OW28027   1.992   0.613   9.019 -0.0671 -0.4214  0.6677
 5464SOL    HW128028   1.960   0.689   9.068 -1.1507 -0.1381 -0.4658
 5464SOL    HW228029   1.906   0.577   8.997 -0.0849 -0.2644  0.4777
 5465SOL     OW28030   2.489   3.968  12.345 -0.3976  0.3467 -0.3049
 5465SOL    HW128031   2.503   3.929  12.258 -0.4787 -1.6569  0.5661
 5465SOL    HW228032   2.403   3.942  12.376 -0.1907 -0.2185 -0.1989
 5466SOL     OW28033   3.911   4.456   8.340  0.2158 -0.3821  0.0901
 5466SOL    HW128034   3.946   4.383   8.391 -1.4862 -2.1457 -1.2892
 5466SOL    HW228035   3.897   4.420   8.253  0.3220 -0.4399  0.0972
 5467SOL     OW28036   1.745   2.172   7.616  0.7367 -0.2958  0.0695
 5467SOL    HW128037   1.667   2.210   7.575  2.0392  1.0371 -1.1354
 5467SOL    HW228038   1.768   2.099   7.560  0.4028  0.2047 -0.7160
 5468SOL     OW28039   2.996   0.272   6.525  0.5289 -0.2234 -0.2417
 5468SOL    HW128040   2.939   0.210   6.572 -1.3601  1.5652 -0.2171
 5468SOL    HW228041   3.033   0.318   6.600 -0.9887  0.5625  0.0189
 5469SOL     OW28042   1.789   2.274   4.256  0.2132  0.0978  1.2022
 5469SOL    HW128043   1.881   2.261   4.279  0.7305 -0.1735 -0.9988
 5469SOL    HW228044   1.761   2.184   4.272 -1.8062  0.5149  0.0428
 5470SOL     OW28045   2.326   3.489   5.652  0.1807  0.0414  0.4820
 5470SOL    HW128046   2.306   3.396   5.667 -0.2180 -0.0178 -0.3972
 5470SOL    HW228047   2.408   3.509   5.696 -0.4346 -1.0312  2.1429
 5471SOL     OW28048   0.317   2.582   9.897 -0.1359  0.1363 -0.3267
 5471SOL    HW128049   0.336   2.491   9.874 -1.5079 -0.8789  2.6082
 5471SOL    HW228050   0.222   2.586   9.887 -0.2226  2.0683  1.3800
 5472SOL     OW28051   1.883   2.666   2.556  0.0691  0.4172  0.6316
 5472SOL    HW128052   1.915   2.742   2.507 -1.1634 -0.7708 -2.0329
 5472SOL    HW228053   1.827   2.701   2.625 -0.3522  0.4225  0.2895
 5473SOL     OW28054   2.168   3.225  17.375 -0.4551 -0.5197 -0.3363
 5473SOL    HW128055   2.211   3.296  17.423  0.1027 -0.9383 -0.2212
 5473SOL    HW228056   2.228   3.159  17.409 -0.3555 -0.5998 -0.6718
 5474SOL     OW28057   3.016   3.947  11.570 -0.0787 -0.1706  0.0557
 5474SOL    HW128058   3.106   3.957  11.600  0.3015 -1.8413 -0.5322
 5474SOL    HW228059   2.972   3.886  11.630 -2.3046  1.3776  0.0180
 5475SOL     OW28060   1.055   1.973   6.994  0.4454 -0.4217  0.3246
 5475SOL    HW128061   1.115   1.932   7.057  0.7222 -0.9902 -0.3156
 5475SOL    HW228062   1.086   2.064   6.987 -1.4835  0.1705 -0.5570
 5476SOL     OW28063   0.911   2.364   5.777 -0.1759  0.2993 -0.6464
 5476SOL    HW128064   1.002   2.384   5.754 -0.2549  2.3810  0.9119
 5476SOL    HW228065   0.854   2.419   5.724  1.0940  1.4125 -0.8468
 5477SOL     OW28066   1.543   0.030   8.897  0.4739 -0.7666 -0.3536
 5477SOL    HW128067   1.503   4.714   8.965  1.8035 -0.5839  0.5801
 5477SOL    HW228068   1.479   0.025   8.827  0.0790 -1.1430  0.0330
 5478SOL     OW28069   2.831   3.981   2.338  0.4087 -0.0467  0.6045
 5478SOL    HW128070   2.781   4.023   2.409  2.2775  0.3000  1.7075
 5478SOL    HW228071   2.783   3.898   2.341  0.2384  0.0756  1.2022
 5479SOL     OW28072   3.819   2.449   2.957  0.0181 -0.1203  0.6531
 5479SOL    HW128073   3.905   2.431   2.918  1.0773  4.2259  1.0082
 5479SOL    HW228074   3.804   2.377   3.018  1.2763 -2.2183 -1.4795
 5480SOL     OW28075   3.812   0.350  15.031 -0.0335  0.2862 -0.3270
 5480SOL    HW128076   3.820   0.260  15.063 -1.8746  0.9052  1.8758
 5480SOL    HW228077   3.761   0.345  14.950 -1.3475  0.0103  0.5167
 5481SOL     OW28078   3.283   2.320   8.079 -0.6486  0.0090  0.0135
 5481SOL    HW128079   3.355   2.274   8.036 -1.2251 -1.3193  0.4741
 5481SOL    HW228080   3.272   2.396   8.022  1.8907 -0.0608 -0.5532
 5482SOL     OW28081   2.931   2.639   5.160  0.4123  0.4647  0.6089
 5482SOL    HW128082   2.836   2.632   5.170  0.4513 -0.7277  0.1169
 5482SOL    HW228083   2.945   2.675   5.072 -0.2105 -0.2448  0.2229
 5483SOL     OW28084   4.534   4.626   2.214 -0.3879  0.5005 -0.0058
 5483SOL    HW128085   4.474   4.683   2.168 -1.5682 -2.1472 -1.7479
 5483SOL    HW228086   4.510   4.641   2.306  0.2278  0.8788  0.0926
 5484SOL     OW28087   2.987   0.197   3.729 -0.1918  0.0270  0.1225
 5484SOL    HW128088   3.011   0.105   3.714 -1.0499 -0.5038  2.0227
 5484SOL    HW228089   3.052   0.224   3.793  0.8192 -0.1727 -0.8297
 5485SOL     OW28090   3.656   1.159   6.935 -0.1154 -0.3715 -0.1106
 5485SOL    HW128091   3.693   1.084   6.982  2.7364  0.8238 -0.4936
 5485SOL    HW228092   3.723   1.226   6.937  1.0392 -1.5870  1.4664
 5486SOL     OW28093   3.353   3.094   4.065 -0.2778 -0.0952  0.0258
 5486SOL    HW128094   3.292   3.139   4.006  1.3655  1.6684 -0.3122
 5486SOL    HW228095   3.380   3.163   4.125 -0.4949  0.5756 -0.6395
 5487SOL     OW28096   3.612   0.550   3.102  0.2851 -0.4404 -0.2367
 5487SOL    HW128097   3.669   0.557   3.179  1.7892 -0.5138 -1.3465
 5487SOL    HW228098   3.627   0.626   3.046 -2.6957  1.7389  1.8995
 5488SOL     OW28099   0.570   3.951   3.486 -0.1672  0.8285  0.3577
 5488SOL    HW128100   0.537   4.041   3.480  1.0351  1.3825  1.8741
 5488SOL    HW228101   0.579   3.933   3.393  1.4316  1.6918  0.3453
 5489SOL     OW28102   2.611   4.701   4.805 -0.1342 -0.2221  0.6726
 5489SOL    HW128103   2.521   4.713   4.837 -1.4189  0.9339 -3.4039
 5489SOL    HW228104   2.662   4.732   4.880 -0.5474  0.9941  0.4484
 5490SOL     OW28105   2.353   1.436   5.237  1.0158 -0.0084  0.4362
 5490SOL    HW128106   2.367   1.503   5.303  1.6042 -0.3862  0.6959
 5490SOL    HW228107   2.263   1.412   5.257  0.3475 -0.5900 -3.2646
 5491SOL     OW28108   2.304   0.854   3.968 -0.2136  0.4543  0.2428
 5491SOL    HW128109   2.351   0.833   4.048  0.6056 -2.4839 -0.9744
 5491SOL    HW228110   2.337   0.775   3.924  0.5272  0.8454  0.1040
 5492SOL     OW28111   0.189   2.242   5.667  0.2066  0.0584  0.1091
 5492SOL    HW128112   0.200   2.184   5.591 -1.1016  1.2292 -0.9695
 5492SOL    HW228113   0.116   2.206   5.717 -0.6281 -2.0562 -2.6177
 5493SOL     OW28114   0.347   1.970   8.418  0.1039  0.7742 -0.1158
 5493SOL    HW128115   0.338   1.904   8.486  2.2880  1.1211  0.5245
 5493SOL    HW228116   0.275   1.949   8.358  0.2519 -0.2265  0.0595
 5494SOL     OW28117   3.248   2.835   6.786 -0.4105  0.0161 -0.2515
 5494SOL    HW128118   3.314   2.866   6.848  0.1039 -0.2285 -0.6796
 5494SOL    HW228119   3.193   2.788   6.849 -0.5659  1.3118  0.5827
 5495SOL     OW28120   4.218   0.614  12.982 -0.2788  0.2128  0.6067
 5495SOL    HW128121   4.174   0.604  12.897  1.8755 -1.3000 -0.3406
 5495SOL    HW228122   4.284   0.545  12.975  0.7269  1.2056  0.3284
 5496SOL     OW28123   0.622   1.727   7.266 -0.4723  0.2331  0.0316
 5496SOL    HW128124   0.632   1.668   7.192  0.4970  0.6571 -0.1700
 5496SOL    HW228125   0.537   1.701   7.302 -0.0248 -3.8091 -1.9140
 5497SOL     OW28126   3.782   0.709  16.418 -0.1864  0.0850  0.1234
 5497SOL    HW128127   3.801   0.718  16.324  0.4844 -2.0663  0.0463
 5497SOL    HW228128   3.706   0.765  16.430 -0.4022  0.3062 -2.2742
 5498SOL     OW28129   2.428   2.798   0.758  0.1858 -0.2365 -0.4020
 5498SOL    HW128130   2.414   2.706   0.779 -2.5723  0.5878  1.3367
 5498SOL    HW228131   2.418   2.846   0.840  1.6577 -1.9003  0.7223
 5499SOL     OW28132   1.123   0.415  14.135 -0.6977  0.3502 -0.1169
 5499SOL    HW128133   1.151   0.454  14.218  0.1618 -0.9171  0.2063
 5499SOL    HW228134   1.117   0.322  14.157  0.2923  0.5299  0.9356
 5500SOL     OW28135   4.445   4.600   4.833  0.2604  0.1091 -0.0274
 5500SOL    HW128136   4.377   4.628   4.893 -0.3064  1.8477 -1.4986
 5500SOL    HW228137   4.391   4.551   4.771  1.0080  2.8519 -2.8278
 5501SOL     OW28138   4.315   4.727   5.499 -0.1026 -0.1553 -0.7820
 5501SOL    HW128139   4.228   4.689   5.487  1.2721 -3.4665 -0.1762
 5501SOL    HW228140   4.308   0.059   5.434  0.6751 -1.8770 -2.7528
 5502SOL     OW28141   1.789   4.096   3.342 -0.0876  0.1426  0.1698
 5502SOL    HW128142   1.721   4.037   3.377  0.3010 -0.3069  0.1648
 5502SOL    HW228143   1.767   4.117   3.251  2.9534 -1.6292 -0.9571
 5503SOL     OW28144   0.305   4.534   7.786  0.4990  0.2529  0.1839
 5503SOL    HW128145   0.225   4.483   7.789  0.5846  0.2360  2.2225
 5503SOL    HW228146   0.263   4.617   7.809  0.6604  0.0001  1.3677
 5504SOL     OW28147   0.596   1.334   5.002 -0.6973  0.1494  0.0914
 5504SOL    HW128148   0.685   1.303   5.017 -1.8781 -2.4687  1.6789
 5504SOL    HW228149   0.599   1.385   4.921 -0.1814  0.4087  0.2763
 5505SOL     OW28150   3.163   2.168   5.418  0.0749 -0.8246  0.3037
 5505SOL    HW128151   3.177   2.073   5.424 -0.6193 -1.0026 -0.9500
 5505SOL    HW228152   3.089   2.165   5.357  0.2394  0.6798  0.0343
 5506SOL     OW28153   2.583   1.218   4.198  0.3560 -0.5342 -0.1537
 5506SOL    HW128154   2.494   1.232   4.228  0.1609 -1.5796 -0.2305
 5506SOL    HW228155   2.554   1.162   4.126  0.3542 -1.2046  0.3693
 5507SOL     OW28156   2.467   2.029   3.243 -0.7008 -0.1934  0.2404
 5507SOL    HW128157   2.417   2.034   3.324 -3.1822  1.7911 -1.4246
 5507SOL    HW228158   2.488   2.118   3.215  0.3697 -0.6643 -0.4764
 5508SOL     OW28159   1.937   0.992   2.389 -0.3111 -0.2924 -0.1789
 5508SOL    HW128160   1.845   0.988   2.363 -0.8434 -0.1031  1.6849
 5508SOL    HW228161   1.954   1.085   2.408  0.0515 -0.5909  0.9300
 5509SOL     OW28162   0.136   4.214  13.566  0.6583  0.3675  0.2439
 5509SOL    HW128163   0.123   4.294  13.617 -0.7811 -0.5667  1.3276
 5509SOL    HW228164   0.083   4.235  13.489 -1.8884  1.8128  2.4052
 5510SOL     OW28165   1.616   1.013  12.491 -0.1371 -0.2556  0.2450
 5510SOL    HW128166   1.684   1.011  12.558  0.2105  0.1442 -0.0989
 5510SOL    HW228167   1.535   1.006  12.541  0.3615 -1.4683  0.8825
 5511SOL     OW28168   0.738   1.039   0.235 -0.1074 -0.0314 -0.0161
 5511SOL    HW128169   0.821   1.069   0.196 -1.0651  0.2926 -1.8303
 5511SOL    HW228170   0.718   0.959   0.186  1.7061 -0.5108  0.0434
 5512SOL     OW28171   2.771   0.649   2.975 -0.1852  0.1644  0.1551
 5512SOL    HW128172   2.844   0.655   2.914 -0.6517  1.5340 -0.2520
 5512SOL    HW228173   2.793   0.715   3.040 -2.2824 -0.4635  1.4785
 5513SOL     OW28174   4.060   1.634  17.236 -0.7504 -0.6350 -0.1367
 5513SOL    HW128175   4.150   1.660  17.218 -0.7265  1.3085  2.8647
 5513SOL    HW228176   4.041   1.652  17.328 -4.0300  2.0336 -1.2845
 5514SOL     OW28177   4.366   0.880   4.664  0.8241 -0.1849 -0.6367
 5514SOL    HW128178   4.425   0.947   4.630  0.6272 -0.3049 -1.2170
 5514SOL    HW228179   4.420   0.801   4.658  2.2595  0.6999  0.6601
 5515SOL     OW28180   2.459   2.053   4.411  0.4946  0.9490  0.4100
 5515SOL    HW128181   2.554   2.047   4.401  0.5094  0.8084  0.6286
 5515SOL    HW228182   2.449   2.147   4.401 -2.7289  0.5899  0.2328
 5516SOL     OW28183   3.318   3.145  14.383 -0.5782 -0.3107  0.2960
 5516SOL    HW128184   3.409   3.135  14.357 -0.7292 -0.5554 -0.1387
 5516SOL    HW228185   3.286   3.222  14.336 -0.4625 -0.1345  0.5069
 5517SOL     OW28186   0.358   2.823   4.494 -0.7544 -0.3982  0.4097
 5517SOL    HW128187   0.407   2.875   4.558  0.7689 -1.7509  0.3534
 5517SOL    HW228188   0.343   2.738   4.536 -1.1597 -1.2078 -1.3727
 5518SOL     OW28189   1.175   0.268   3.701  1.1607  0.4640  0.3960
 5518SOL    HW128190   1.105   0.317   3.659  0.1395  0.3801  2.0003
 5518SOL    HW228191   1.185   0.315   3.783 -1.4983  2.6321 -0.5454
 5519SOL     OW28192   0.520   4.638   4.385 -0.0545 -0.0264  0.4277
 5519SOL    HW128193   0.515   4.564   4.445 -0.4311 -0.3176  0.0357
 5519SOL    HW228194   0.603   4.618   4.342 -0.8983 -0.3875 -1.0361
 5520SOL     OW28195   0.433   1.375   5.449 -0.3522 -0.1643 -0.0533
 5520SOL    HW128196   0.416   1.438   5.519  1.8956 -0.9671  1.2429
 5520SOL    HW228197   0.413   1.426   5.371 -0.4675  1.1892  0.8637
 5521SOL     OW28198   2.162   2.800   6.894 -0.3461 -0.3567  0.0350
 5521SOL    HW128199   2.120   2.885   6.882 -0.1583 -0.3505 -0.6041
 5521SOL    HW228200   2.086   2.748   6.865 -2.8793  2.1919  2.1159
 5522SOL     OW28201   4.627   1.931  11.268  0.1341  0.6277  0.0243
 5522SOL    HW128202   4.552   1.882  11.301  1.3175  0.6874  2.7894
 5522SOL    HW228203   4.595   1.991  11.201 -1.3992  0.6729  0.7850
 5523SOL     OW28204   4.674   3.455   6.134 -0.5716  0.7164  0.5397
 5523SOL    HW128205   4.582   3.426   6.130 -0.7808  1.2292  1.5914
 5523SOL    HW228206   4.663   3.540   6.093 -2.3000  0.9985  1.5837
 5524SOL     OW28207   4.732   3.714   3.184 -0.4578  0.0940  0.0048
 5524SOL    HW128208   4.734   3.653   3.110 -0.8882  0.5511 -0.3833
 5524SOL    HW228209   4.666   3.775   3.150 -3.1437 -2.8993 -0.2479
 5525SOL     OW28210   2.355   3.228   5.190  0.0062 -0.5195  0.8704
 5525SOL    HW128211   2.260   3.218   5.187 -0.4405  4.1133 -1.1510
 5525SOL    HW228212   2.370   3.318   5.222 -1.1065  0.1416 -0.4736
 5526SOL     OW28213   2.503   2.443  12.799 -0.1817  0.0314 -0.0178
 5526SOL    HW128214   2.410   2.457  12.814 -0.4696 -0.4038 -1.3837
 5526SOL    HW228215   2.532   2.505  12.865  0.2460 -0.7419  0.5312
 5527SOL     OW28216   3.362   0.686   6.140 -0.3222 -0.0998 -0.2643
 5527SOL    HW128217   3.406   0.763   6.103 -0.8896  0.4903  0.2938
 5527SOL    HW228218   3.294   0.674   6.074 -0.4980  0.2350 -0.1408
 5528SOL     OW28219   1.232   4.017   7.739 -0.8440 -0.3166  0.0629
 5528SOL    HW128220   1.322   4.049   7.745 -0.7278 -0.6699  0.2127
 5528SOL    HW228221   1.181   4.097   7.756  0.0314  0.4988 -1.1212
 5529SOL     OW28222   4.377   0.244   8.827 -0.5611  0.1419 -0.1543
 5529SOL    HW128223   4.422   0.239   8.911 -0.7594  1.9111  0.0532
 5529SOL    HW228224   4.348   0.335   8.831  1.0441  0.5686  1.5266
 5530SOL     OW28225   3.211   3.706  13.579  0.7973  0.3572  0.3740
 5530SOL    HW128226   3.262   3.668  13.507  0.9777  3.0731 -0.9414
 5530SOL    HW228227   3.278   3.716  13.646 -0.6058  0.5134  1.7354
 5531SOL     OW28228   4.352   3.322   4.640 -0.0822 -0.2036 -0.4135
 5531SOL    HW128229   4.303   3.389   4.592  0.3143  2.3668  2.7916
 5531SOL    HW228230   4.329   3.338   4.732  0.7178 -1.2495 -0.0395
 5532SOL     OW28231   3.242   3.750   4.261  0.1808 -0.1097  0.4538
 5532SOL    HW128232   3.166   3.728   4.314  0.5918  0.1647  1.1608
 5532SOL    HW228233   3.271   3.839   4.281  1.1953 -0.9109  2.5376
 5533SOL     OW28234   0.264   2.134   5.400  0.3161 -0.7528 -0.5313
 5533SOL    HW128235   0.229   2.052   5.434  1.8378 -0.9334  0.6167
 5533SOL    HW228236   0.242   2.126   5.307 -0.2424 -1.8495 -0.3038
 5534SOL     OW28237   4.144   4.106  16.793 -0.4896  0.6095  0.7357
 5534SOL    HW128238   4.180   4.178  16.741 -1.2764 -1.1056 -2.2162
 5534SOL    HW228239   4.226   4.058  16.798  0.7881  2.8191  0.8554
 5535SOL     OW28240   2.268   1.871  14.977 -0.1235  0.2426  0.7840
 5535SOL    HW128241   2.256   1.788  15.023 -1.7706 -0.4375 -0.8628
 5535SOL    HW228242   2.198   1.927  15.010 -1.4034 -1.4121  0.8529
 5536SOL     OW28243   0.766   2.729  11.453  0.5409 -0.6469 -0.4073
 5536SOL    HW128244   0.839   2.792  11.454  1.3293 -1.5707 -0.0047
 5536SOL    HW228245   0.768   2.697  11.543 -0.9126 -0.8126 -0.4327
 5537SOL     OW28246   0.948   0.855  16.373 -0.2659  0.1220 -0.0052
 5537SOL    HW128247   0.870   0.800  16.377 -0.5213  0.3852 -1.3912
 5537SOL    HW228248   1.011   0.800  16.327  1.5010  1.6132  0.5947
 5538SOL     OW28249   0.462   1.426   2.531  0.3954  0.1363  0.5076
 5538SOL    HW128250   0.431   1.336   2.522  0.6270 -0.0713  1.8946
 5538SOL    HW228251   0.558   1.429   2.535  0.3440 -1.4589  2.9074
 5539SOL     OW28252   1.746   1.728   4.711  0.6090 -0.4017 -0.3429
 5539SOL    HW128253   1.835   1.752   4.739 -0.7992  1.0976  2.7841
 5539SOL    HW228254   1.757   1.730   4.616 -0.2316 -1.5020 -0.4539
 5540SOL     OW28255   2.864   1.476   6.654  0.2011  0.7454  0.3811
 5540SOL    HW128256   2.810   1.492   6.577  2.4396  0.2875 -1.2983
 5540SOL    HW228257   2.805   1.522   6.714 -1.6194  0.9450 -1.5687
 5541SOL     OW28258   0.145   0.063   2.916 -0.3441  0.1886  1.1388
 5541SOL    HW128259   0.131   4.727   2.974 -1.1174 -0.6165 -0.0867
 5541SOL    HW228260   0.212   0.035   2.854 -1.4150  0.2210 -0.0366
 5542SOL     OW28261   0.174   2.533   2.556  0.1481 -0.1409  0.3348
 5542SOL    HW128262   0.145   2.528   2.465 -0.7976  0.3818  0.6105
 5542SOL    HW228263   0.155   2.622   2.587  1.2996  0.4944 -0.8009
 5543SOL     OW28264   4.453   3.695   3.694  0.2070  0.4977 -0.4748
 5543SOL    HW128265   4.500   3.665   3.772 -0.2288 -1.9543 -1.1499
 5543SOL    HW228266   4.404   3.616   3.672  0.5051 -0.0941  0.9541
 5544SOL     OW28267   4.579   0.108   7.118  0.5739 -0.3050 -0.0175
 5544SOL    HW128268   4.646   0.106   7.187  0.2024 -0.0827  0.3484
 5544SOL    HW228269   4.532   0.181   7.157 -1.6156 -0.3887 -2.5061
 5545SOL     OW28270   1.120   4.473   9.391 -0.2027  0.0832 -0.1504
 5545SOL    HW128271   1.064   4.400   9.416 -0.8484  0.8634  0.7096
 5545SOL    HW228272   1.128   4.519   9.475 -1.5819  1.4605 -0.7779
 5546SOL     OW28273   4.143   1.075  13.082  0.3900  0.3542  0.2636
 5546SOL    HW128274   4.200   1.093  13.157  1.9229  0.0912 -0.8162
 5546SOL    HW228275   4.116   0.985  13.098 -1.5801  0.7282 -1.0133
 5547SOL     OW28276   0.380   2.191   5.855  0.2688 -0.3299 -0.0892
 5547SOL    HW128277   0.332   2.115   5.887 -2.1813  0.5349 -1.6641
 5547SOL    HW228278   0.331   2.202   5.773 -1.4786 -1.1184  0.8459
 5548SOL     OW28279   4.371   1.977   1.863  0.8041 -0.0295 -0.5227
 5548SOL    HW128280   4.395   2.070   1.865 -0.0363  0.2008 -0.8517
 5548SOL    HW228281   4.279   1.982   1.890  0.9441 -0.3612  0.0222
 5549SOL     OW28282   0.843   1.987  11.342  0.3276 -0.8745 -0.4945
 5549SOL    HW128283   0.782   2.036  11.286 -2.3086 -0.9154  2.3606
 5549SOL    HW228284   0.810   1.897  11.347 -1.0508 -0.2736  1.3553
 5550SOL     OW28285   1.478   0.343  12.882 -0.1577  0.3785  0.3231
 5550SOL    HW128286   1.430   0.283  12.939  1.9488 -0.3186  1.3571
 5550SOL    HW228287   1.554   0.286  12.872 -0.6198  0.1615 -1.9172
 5551SOL     OW28288   4.592   0.835  13.112 -0.2266  0.0439  0.0081
 5551SOL    HW128289   4.511   0.867  13.071  0.8117 -0.0402 -2.0841
 5551SOL    HW228290   4.638   0.804  13.034 -0.8948 -1.6723  0.3066
 5552SOL     OW28291   4.295   1.015  17.020  0.5667  0.1652 -0.0537
 5552SOL    HW128292   4.327   0.945  17.077  2.1830  1.9247  1.1992
 5552SOL    HW228293   4.300   0.974  16.934  0.7939 -0.7265  0.3914
 5553SOL     OW28294   3.962   0.244   7.632 -0.8609  0.2085 -0.3695
 5553SOL    HW128295   3.894   0.182   7.606 -0.8355 -0.3101  0.7975
 5553SOL    HW228296   4.004   0.264   7.549  0.8601 -0.3219  0.3719
 5554SOL     OW28297   1.098   2.061  16.417 -0.3941 -0.6914  0.0012
 5554SOL    HW128298   1.092   2.019  16.331  0.7289 -1.1372  0.1451
 5554SOL    HW228299   1.155   2.003  16.468 -2.1169 -1.1813  1.3872
 5555SOL     OW28300   2.326   0.734   2.601  0.6106 -0.1130  0.0935
 5555SOL    HW128301   2.323   0.652   2.651 -0.2378 -0.3643 -0.3586
 5555SOL    HW228302   2.348   0.713   2.510 -0.2730 -1.4748  0.1949
 5556SOL     OW28303   2.267   4.464   9.233  0.4167  0.0513 -0.4561
 5556SOL    HW128304   2.233   4.525   9.167 -0.1358 -1.1443 -1.2795
 5556SOL    HW228305   2.276   4.527   9.305  0.7758 -1.8602  1.1515
 5557SOL     OW28306   3.292   0.854   0.389  0.2482  0.6682  0.3660
 5557SOL    HW128307   3.328   0.771   0.358 -0.6116  0.5423 -0.2944
 5557SOL    HW228308   3.206   0.842   0.349 -0.1686  2.0937  0.8446
 5558SOL     OW28309   3.721   1.521   6.150 -0.0302 -0.0499 -0.3484
 5558SOL    HW128310   3.679   1.510   6.064  0.9873  1.1026 -0.9924
 5558SOL    HW228311   3.658   1.577   6.195 -1.2526 -1.5964 -0.1061
 5559SOL     OW28312   0.145   3.660  16.856  0.1989  0.3359  0.4480
 5559SOL    HW128313   0.163   3.754  16.854 -1.1062  0.6215  1.9956
 5559SOL    HW228314   0.053   3.669  16.833 -0.1203 -2.0259  0.7445
 5560SOL     OW28315   2.629   1.531   2.253 -0.2193  0.8446  0.3969
 5560SOL    HW128316   2.677   1.581   2.188  1.1771  0.7066  1.3155
 5560SOL    HW228317   2.660   1.574   2.333  2.5753  0.3261 -0.4247
 5561SOL     OW28318   1.447   1.801  11.611 -0.3520 -0.5229  0.0110
 5561SOL    HW128319   1.525   1.773  11.563 -0.4231  2.4856 -1.8964
 5561SOL    HW228320   1.482   1.814  11.699  3.3300  0.0088 -1.5234
 5562SOL     OW28321   0.998   1.693   9.470  0.1081 -0.3508 -0.1082
 5562SOL    HW128322   1.009   1.598   9.465  2.1517 -0.2017  1.5698
 5562SOL    HW228323   0.906   1.708   9.450  0.3370 -0.1011 -0.9777
 5563SOL     OW28324   4.060   2.338   0.762  0.2879  0.0004  0.4343
 5563SOL    HW128325   4.009   2.413   0.731  1.0358  0.3650  0.0808
 5563SOL    HW228326   4.049   2.345   0.857  2.6248  2.4332  0.5353
 5564SOL     OW28327   0.543   4.606   7.266  0.5779  0.2143  0.5111
 5564SOL    HW128328   0.566   4.577   7.354 -0.1728 -1.3539  0.1879
 5564SOL    HW228329   0.623   4.592   7.215 -0.2479  0.1608 -0.7821
 5565SOL     OW28330   2.349   3.862   1.900  0.3518 -0.2665 -0.4301
 5565SOL    HW128331   2.403   3.788   1.870  0.3027 -0.1675 -0.7647
 5565SOL    HW228332   2.313   3.815   1.975 -0.5683  0.8135 -0.2073
 5566SOL     OW28333   4.193   4.106   7.903  0.3655 -0.2553  0.0415
 5566SOL    HW128334   4.190   4.196   7.937  2.3248 -0.9274  2.0065
 5566SOL    HW228335   4.131   4.058   7.958 -0.9361  0.5310 -0.7418
 5567SOL     OW28336   0.779   0.294  11.392  0.6615  0.1726 -0.0151
 5567SOL    HW128337   0.727   0.217  11.415 -0.2613  0.2932 -1.6591
 5567SOL    HW228338   0.862   0.269  11.433 -1.6214 -1.2583  3.6986
 5568SOL     OW28339   1.347   1.609   7.137 -0.3717 -0.7815  0.1541
 5568SOL    HW128340   1.335   1.607   7.042  0.1548 -1.8291  0.1118
 5568SOL    HW228341   1.442   1.605   7.153 -0.0727  1.8800 -0.8065
 5569SOL     OW28342   3.854   4.542   5.199 -0.2215 -0.0192 -0.4913
 5569SOL    HW128343   3.883   4.452   5.183  2.0853  0.5034  0.8380
 5569SOL    HW228344   3.801   4.567   5.123  0.4800  0.7033 -0.7446
 5570SOL     OW28345   1.128   0.232  13.192  0.2937  0.1997 -0.3799
 5570SOL    HW128346   1.223   0.225  13.180  0.1933 -2.0053 -0.0072
 5570SOL    HW228347   1.107   0.306  13.135 -1.3039 -1.3673 -1.8389
 5571SOL     OW28348   1.385   1.027   5.495  0.3419  0.4649  0.7124
 5571SOL    HW128349   1.341   1.111   5.507  0.0036  0.3992 -0.0704
 5571SOL    HW228350   1.324   0.957   5.518  1.0847 -0.5578 -0.4052
 5572SOL     OW28351   1.143   2.958  13.738  0.0226  0.0569 -0.6098
 5572SOL    HW128352   1.220   3.001  13.777  0.1327 -0.7015 -0.0072
 5572SOL    HW228353   1.089   2.936  13.813 -0.2003  1.3486 -0.3905
 5573SOL     OW28354   2.694   2.394  16.150  0.3490  0.8724 -0.2244
 5573SOL    HW128355   2.607   2.423  16.121 -0.1985  0.4499  0.9919
 5573SOL    HW228356   2.695   2.305  16.116 -0.0269  0.4254  0.9426
 5574SOL     OW28357   4.028   2.368   1.827  0.3078  0.6604  0.2192
 5574SOL    HW128358   4.115   2.374   1.785  0.8198 -2.8992  0.7655
 5574SOL    HW228359   3.985   2.446   1.793  0.2993  1.1202  1.2793
 5575SOL     OW28360   0.417   1.395  12.012 -0.0388 -0.3959  0.2096
 5575SOL    HW128361   0.399   1.390  12.106 -1.1888 -1.8760 -0.0888
 5575SOL    HW228362   0.435   1.305  11.987  0.0510 -0.6428  1.1741
 5576SOL     OW28363   2.134   1.604   5.856  0.4409  0.5891 -0.3716
 5576SOL    HW128364   2.081   1.526   5.844 -0.1805  0.8362  0.6996
 5576SOL    HW228365   2.134   1.639   5.767  0.3837  1.8867  0.1268
 5577SOL     OW28366   4.446   2.117   6.673 -0.2242  0.1391 -1.0162
 5577SOL    HW128367   4.452   2.165   6.755 -0.8230 -1.7062  0.0927
 5577SOL    HW228368   4.489   2.039   6.708 -1.0196 -0.2956 -0.9991
 5578SOL     OW28369   2.898   0.230   8.276 -0.6630 -0.5013  0.0311
 5578SOL    HW128370   2.945   0.148   8.291  0.3753 -0.0083 -0.5523
 5578SOL    HW228371   2.844   0.207   8.200  0.2612  0.1519 -0.8332
 5579SOL     OW28372   0.368   3.464   9.954  0.0338  0.0991 -0.4331
 5579SOL    HW128373   0.445   3.517   9.976  0.0101  1.2214 -3.0252
 5579SOL    HW228374   0.342   3.497   9.868  1.7181  0.5909 -0.7635
 5580SOL     OW28375   2.280   3.944   8.610 -0.1596 -0.1822 -0.9328
 5580SOL    HW128376   2.244   4.010   8.551 -1.9427 -1.4734 -1.2820
 5580SOL    HW228377   2.200   3.928   8.660 -0.2073 -0.5939 -1.1435
 5581SOL     OW28378   1.725   3.262   5.788 -0.2263  0.2138  0.4048
 5581SOL    HW128379   1.653   3.216   5.746  2.2030 -2.2881 -1.0657
 5581SOL    HW228380   1.696   3.254   5.878  0.6586 -1.5793  0.5257
 5582SOL     OW28381   0.977   0.085   2.286  0.1308 -0.4946  0.7179
 5582SOL    HW128382   0.959   0.078   2.192 -1.0952  0.6536  0.8702
 5582SOL    HW228383   1.072   0.095   2.290  0.4715 -3.7124  0.0104
 5583SOL     OW28384   2.570   0.909   1.295 -0.8732  0.2532  0.0912
 5583SOL    HW128385   2.632   0.861   1.239 -1.0781 -0.2330  0.2868
 5583SOL    HW228386   2.614   0.928   1.378 -1.3051 -0.7072  0.5327
 5584SOL     OW28387   0.472   0.407  17.512  0.0775 -0.1674 -0.2947
 5584SOL    HW128388   0.393   0.360  17.485 -0.8932  1.3300 -0.0598
 5584SOL    HW228389   0.537   0.338  17.504 -0.2634 -0.4563 -0.6271
 5585SOL     OW28390   4.228   0.391   2.289 -0.0503 -0.1433 -0.3033
 5585SOL    HW128391   4.286   0.431   2.224  0.4416  1.6004  1.1874
 5585SOL    HW228392   4.272   0.406   2.373  0.1653 -2.1647 -0.0721
 5586SOL     OW28393   1.657   1.147  15.610 -0.1024  0.3460  0.6098
 5586SOL    HW128394   1.736   1.199  15.602 -0.5472  0.9363  0.0407
 5586SOL    HW228395   1.597   1.214  15.643  1.1687  1.6606  0.2376
 5587SOL     OW28396   2.716   0.266   8.933 -0.3184  0.0085  0.5539
 5587SOL    HW128397   2.757   0.196   8.882 -2.5450 -0.4664 -0.5849
 5587SOL    HW228398   2.771   0.266   9.011  1.3303  0.7992 -0.6070
 5588SOL     OW28399   3.165   2.866   4.168  0.3299  0.2509  0.2304
 5588SOL    HW128400   3.198   2.820   4.091  0.6287 -0.9940  1.0939
 5588SOL    HW228401   3.077   2.832   4.180  0.4113  0.1128  0.4329
 5589SOL     OW28402   0.298   1.062   8.677  0.3602 -0.2154 -0.1867
 5589SOL    HW128403   0.252   0.989   8.718 -1.3340  0.1133 -1.5444
 5589SOL    HW228404   0.386   1.030   8.698 -0.8223 -1.4190  2.9673
 5590SOL     OW28405   2.884   1.836  15.005  0.4753  0.0551  0.3656
 5590SOL    HW128406   2.809   1.824  15.063  0.8778  1.6796  1.2176
 5590SOL    HW228407   2.864   1.772  14.937 -0.9413 -1.0733  1.8317
 5591SOL     OW28408   1.177   1.667   9.698 -0.1970 -0.5836 -0.0993
 5591SOL    HW128409   1.109   1.697   9.637  1.8636  2.3808 -0.9260
 5591SOL    HW228410   1.172   1.744   9.755  1.8985 -0.4992 -0.0230
 5592SOL     OW28411   4.341   3.160  11.534  0.3370 -0.3505  0.9915
 5592SOL    HW128412   4.304   3.080  11.572 -2.6556 -0.4733 -2.1566
 5592SOL    HW228413   4.283   3.176  11.459  0.0418  0.7013  1.4497
 5593SOL     OW28414   2.152   2.686   5.877 -0.4361  0.5946  0.3670
 5593SOL    HW128415   2.099   2.749   5.830  1.2053  0.7134 -1.3304
 5593SOL    HW228416   2.214   2.743   5.922 -2.1895  2.5891  0.2492
 5594SOL     OW28417   3.299   2.199   6.094 -0.0825 -0.1252  0.1767
 5594SOL    HW128418   3.329   2.275   6.044  3.0859 -1.2789  0.3633
 5594SOL    HW228419   3.378   2.158   6.128  0.4643  1.2506  0.5908
 5595SOL     OW28420   0.216   2.402  13.235  0.1312 -0.2330  0.1879
 5595SOL    HW128421   0.239   2.495  13.230  0.3276 -0.3269 -0.7550
 5595SOL    HW228422   0.141   2.413  13.293  1.4531  3.8092  1.1050
 5596SOL     OW28423   4.119   1.836  10.800  0.6598 -0.1373 -0.3350
 5596SOL    HW128424   4.145   1.922  10.766  0.6884  0.1508  0.4059
 5596SOL    HW228425   4.148   1.784  10.725 -1.4212  0.4395 -1.5333
 5597SOL     OW28426   1.786   1.066  13.285  0.1915  0.4862 -0.4258
 5597SOL    HW128427   1.707   1.020  13.315 -0.6362  2.5618  0.5037
 5597SOL    HW228428   1.835   1.066  13.367  1.7642 -1.1008 -1.3572
 5598SOL     OW28429   0.221   1.743  12.741  0.2768 -0.0400  0.3802
 5598SOL    HW128430   0.231   1.756  12.835  0.3485 -1.0121  0.5138
 5598SOL    HW228431   0.313   1.757  12.718 -0.0848  1.1822 -0.3356
 5599SOL     OW28432   4.041   0.253   7.361  0.6652  0.0048  0.3196
 5599SOL    HW128433   4.106   0.275   7.294  0.7013  0.0128  0.3576
 5599SOL    HW228434   3.964   0.275   7.309 -0.3279  1.3274  2.3645
 5600SOL     OW28435   2.300   4.106  15.789  0.9461  0.1940 -0.4569
 5600SOL    HW128436   2.338   4.137  15.708  2.0429  1.6387  0.6130
 5600SOL    HW228437   2.285   4.013  15.771 -0.6635  0.0816  1.3409
 5601SOL     OW28438   2.457   3.116   2.162 -0.2160  0.0216  0.0797
 5601SOL    HW128439   2.391   3.049   2.143  1.3006 -1.1180 -1.1233
 5601SOL    HW228440   2.435   3.138   2.253  1.0024  2.2734 -0.1705
 5602SOL     OW28441   1.678   3.982  17.213  0.2080  0.3057  0.0204
 5602SOL    HW128442   1.691   4.076  17.223 -2.0821  0.6463 -0.1129
 5602SOL    HW228443   1.601   3.994  17.157  0.5998 -0.8705 -0.7557
 5603SOL     OW28444   1.837   2.018   7.316 -0.3209 -0.3072 -0.0776
 5603SOL    HW128445   1.885   1.975   7.246  0.3289 -0.4326  0.4501
 5603SOL    HW228446   1.849   1.958   7.390 -2.2386 -2.9150 -1.8745
 5604SOL     OW28447   2.053   3.775   8.659 -0.0838  0.0372  0.4136
 5604SOL    HW128448   2.008   3.701   8.700  0.3116 -0.6414 -0.3769
 5604SOL    HW228449   2.030   3.835   8.730 -0.0429  1.5918 -0.8923
 5605SOL     OW28450   2.728   4.416   5.477  0.2608 -0.0964 -0.3934
 5605SOL    HW128451   2.635   4.404   5.458  0.6221 -1.8772 -1.1259
 5605SOL    HW228452   2.767   4.411   5.389  1.2773 -0.7207  0.0929
 5606SOL     OW28453   3.389   4.140   8.089  0.0277 -0.7309  0.3218
 5606SOL    HW128454   3.325   4.191   8.040 -0.0693 -0.6243  0.5598
 5606SOL    HW228455   3.472   4.187   8.078  0.7933 -2.0258  0.6220
 5607SOL     OW28456   3.097   4.731   5.753 -0.3279 -0.0224  0.8459
 5607SOL    HW128457   3.149   0.033   5.683  1.0193 -1.1839  1.1669
 5607SOL    HW228458   3.034   4.681   5.702  1.2810 -1.7712  0.5768
 5608SOL     OW28459   0.610   3.679   1.525 -0.1848  0.3203  0.4446
 5608SOL    HW128460   0.526   3.673   1.569  0.3413 -1.3719  1.1962
 5608SOL    HW228461   0.647   3.595   1.551 -2.1044 -0.9272 -0.8735
 5609SOL     OW28462   0.499   0.960  13.030 -0.1701  0.8144 -0.0016
 5609SOL    HW128463   0.483   0.999  13.117  0.5635  2.1567 -0.4609
 5609SOL    HW228464   0.511   1.041  12.979 -2.2476  1.5606  0.6982
 5610SOL     OW28465   2.926   4.247  11.208  0.1339 -0.1567  0.4360
 5610SOL    HW128466   2.922   4.156  11.236  1.3579 -0.2447  0.2995
 5610SOL    HW228467   2.849   4.277  11.257  0.2483  1.6600 -0.4793
 5611SOL     OW28468   4.519   1.139  10.380  0.2573  0.1914 -0.5147
 5611SOL    HW128469   4.423   1.136  10.381  0.2600  1.6321  2.5329
 5611SOL    HW228470   4.534   1.130  10.474 -2.7905  1.5800  0.1330
 5612SOL     OW28471   2.593   2.554  13.036  0.4057 -0.5374 -0.3846
 5612SOL    HW128472   2.569   2.606  13.112  1.2222  0.1377 -0.5969
 5612SOL    HW228473   2.619   2.469  13.073  2.5977 -0.6719 -2.1999
 5613SOL     OW28474   3.329   3.224   2.103 -0.1090  0.6575  0.4263
 5613SOL    HW128475   3.357   3.203   2.015  1.3246 -0.2269  1.1006
 5613SOL    HW228476   3.263   3.155   2.108 -0.7455  1.2273 -0.1453
 5614SOL     OW28477   2.948   0.659   0.583  0.1522  0.0633 -0.0161
 5614SOL    HW128478   3.001   0.721   0.633  0.5017 -1.3687  1.3559
 5614SOL    HW228479   2.950   0.574   0.626 -0.4424 -0.0241 -0.1557
 5615SOL     OW28480   0.380   4.569   8.746  0.1520 -0.4535  0.0245
 5615SOL    HW128481   0.444   4.536   8.810  1.9389 -1.8952 -2.4929
 5615SOL    HW228482   0.306   4.509   8.755  0.5785 -0.6085  2.5518
 5616SOL     OW28483   1.808   3.969   9.488 -0.3009  0.2633  0.1426
 5616SOL    HW128484   1.822   4.008   9.574  3.7185 -0.8709 -0.0143
 5616SOL    HW228485   1.886   3.915   9.473  1.6604  2.7554  1.4987
 5617SOL     OW28486   0.277   1.821   3.731  0.4932  0.2772  0.2149
 5617SOL    HW128487   0.185   1.828   3.757  0.3829 -1.6091  0.3566
 5617SOL    HW228488   0.269   1.754   3.663  2.0340  0.3018  0.0109
 5618SOL     OW28489   1.225   0.920  15.990 -0.9255  0.5042  0.4708
 5618SOL    HW128490   1.235   0.995  15.932  0.0721  0.4000  0.5100
 5618SOL    HW228491   1.141   0.878  15.968 -0.6466  0.1237  0.1296
 5619SOL     OW28492   0.311   0.385   7.579 -0.1196  0.3241 -0.3958
 5619SOL    HW128493   0.243   0.419   7.520  0.8316  2.0461 -0.4979
 5619SOL    HW228494   0.256   0.341   7.643  1.1356 -0.1190  0.3726
 5620SOL     OW28495   0.186   1.304   6.365 -0.3995  0.7394  0.3680
 5620SOL    HW128496   0.277   1.320   6.339 -0.9039  0.2331 -1.6944
 5620SOL    HW228497   0.188   1.334   6.455 -1.8577 -1.1281  1.0097
 5621SOL     OW28498   4.561   2.165  16.875 -0.3572 -0.4578  0.7306
 5621SOL    HW128499   4.656   2.161  16.885 -0.1359  2.3567 -0.2124
 5621SOL    HW228500   4.540   2.240  16.930 -1.1678  0.1164 -0.3544
 5622SOL     OW28501   1.949   0.751   4.961 -0.0113 -0.0478  0.3277
 5622SOL    HW128502   2.038   0.743   4.928  1.1394  0.2685  3.3232
 5622SOL    HW228503   1.967   0.693   5.035  0.8946  2.1671  1.8212
 5623SOL     OW28504   4.231   2.208  11.065 -0.1105  0.0537 -0.8193
 5623SOL    HW128505   4.172   2.233  10.994  0.2508  0.3991 -0.9983
 5623SOL    HW228506   4.247   2.117  11.041 -0.6461 -0.2006 -0.2234
 5624SOL     OW28507   4.166   1.103   7.803  0.1751 -0.2503 -0.0955
 5624SOL    HW128508   4.172   1.079   7.711  1.8694 -2.9877  0.7347
 5624SOL    HW228509   4.232   1.171   7.792 -1.0779  0.7166 -1.6875
 5625SOL     OW28510   1.400   4.652  16.348 -0.2256 -0.2429  0.5595
 5625SOL    HW128511   1.459   4.582  16.377  0.9279  0.5523  0.1525
 5625SOL    HW228512   1.379   4.684  16.436 -0.8426  2.1817 -0.4695
 5626SOL     OW28513   2.427   1.023   8.939  0.1111 -0.2624 -0.0874
 5626SOL    HW128514   2.374   1.006   8.862 -2.4802 -0.6723  1.7682
 5626SOL    HW228515   2.373   1.092   8.980  0.8842  0.6420 -0.5979
 5627SOL     OW28516   1.689   4.462   8.025  0.1254 -0.3390 -0.6411
 5627SOL    HW128517   1.725   4.378   8.051 -2.3577 -0.7714  1.4643
 5627SOL    HW228518   1.612   4.473   8.081  1.0297 -0.9791  0.7306
 5628SOL     OW28519   3.998   3.192   4.230 -0.0638  0.0866 -0.4931
 5628SOL    HW128520   3.952   3.199   4.314  1.2315 -0.8457  0.2942
 5628SOL    HW228521   3.948   3.126   4.181  0.2112 -0.3848 -0.1311
 5629SOL     OW28522   0.563   3.865   4.785  0.5102 -0.8993  0.4908
 5629SOL    HW128523   0.646   3.822   4.803  2.0240  2.1977  0.9486
 5629SOL    HW228524   0.555   3.853   4.691  1.1608  1.0923  0.1895
 5630SOL     OW28525   3.955   3.819   8.985 -0.3445 -0.1665  0.0591
 5630SOL    HW128526   3.869   3.802   9.024 -1.7681  1.1582 -2.5033
 5630SOL    HW228527   4.018   3.801   9.055 -0.2444  0.8009  0.2216
 5631SOL     OW28528   4.465   2.848   7.962  0.2403  0.3732 -0.0966
 5631SOL    HW128529   4.405   2.883   7.896  0.5676 -0.8495 -1.0620
 5631SOL    HW228530   4.405   2.783   7.998  0.4636  0.8193  1.0777
 5632SOL     OW28531   0.777   2.959   5.516  0.3013 -0.2046  0.0099
 5632SOL    HW128532   0.820   2.986   5.434  1.0715 -0.4320  0.3469
 5632SOL    HW228533   0.713   3.030   5.517  0.2678 -0.2067 -1.3151
 5633SOL     OW28534   4.624   1.035   5.199  0.3360 -0.1189 -0.2131
 5633SOL    HW128535   4.545   0.988   5.171  0.8303 -0.2862 -1.3365
 5633SOL    HW228536   4.678   0.960   5.220  1.1031  0.3036 -0.6726
 5634SOL     OW28537   4.376   4.405   5.317  0.3962 -0.6122 -0.1856
 5634SOL    HW128538   4.300   4.461   5.330 -1.1185 -2.7732  0.2582
 5634SOL    HW228539   4.364   4.355   5.397  0.5793 -0.7015 -0.2147
 5635SOL     OW28540   1.664   0.580   2.068 -0.5403 -0.2431 -0.7142
 5635SOL    HW128541   1.703   0.497   2.039  0.5222  0.9624 -2.6690
 5635SOL    HW228542   1.725   0.647   2.040  0.9653 -0.5112  1.8424
 5636SOL     OW28543   4.497   0.205  16.715  0.2932 -0.0761 -0.2428
 5636SOL    HW128544   4.526   0.187  16.626 -0.4964 -0.5687 -0.3999
 5636SOL    HW228545   4.532   0.292  16.733  0.6718 -0.6972  2.0129
 5637SOL     OW28546   0.987   3.210   3.506  0.1695  0.1380 -0.1882
 5637SOL    HW128547   0.908   3.159   3.491  0.3136  0.1971 -1.1638
 5637SOL    HW228548   1.053   3.154   3.548  1.9817  0.9688 -1.9076
 5638SOL     OW28549   2.480   3.900   6.873 -0.1792 -0.4694  0.0602
 5638SOL    HW128550   2.494   3.813   6.837  1.3613 -1.6439  3.5093
 5638SOL    HW228551   2.385   3.896   6.884 -0.2806 -1.3436 -1.1619
 5639SOL     OW28552   1.888   2.658  14.730  0.4201  0.3125 -0.0957
 5639SOL    HW128553   1.971   2.622  14.697 -0.0788  0.6137 -1.6693
 5639SOL    HW228554   1.828   2.587  14.707  0.2452  0.4934 -0.1905
 5640SOL     OW28555   4.493   0.108   3.056  0.4094  0.1711 -0.3088
 5640SOL    HW128556   4.514   0.071   2.970  1.4273 -3.9445  1.7013
 5640SOL    HW228557   4.520   0.039   3.116  1.2953  0.8938  0.1295
 5641SOL     OW28558   1.413   4.123  12.010 -0.3226 -0.6209 -0.3781
 5641SOL    HW128559   1.357   4.192  11.973  0.8990 -0.9569 -2.8936
 5641SOL    HW228560   1.424   4.063  11.936 -0.2563 -0.4397 -0.5174
 5642SOL     OW28561   3.076   3.647   0.456 -0.3088  0.1450 -0.0931
 5642SOL    HW128562   3.106   3.557   0.450 -1.4621 -0.2565  0.3209
 5642SOL    HW228563   3.147   3.689   0.406 -0.2922 -0.7608 -0.8282
 5643SOL     OW28564   3.125   1.630  13.941 -0.3485  0.0709 -0.1054
 5643SOL    HW128565   3.213   1.605  13.968 -0.2373 -2.1313 -2.4497
 5643SOL    HW228566   3.109   1.544  13.901 -0.6272 -0.3788  0.9707
 5644SOL     OW28567   1.577   2.210  17.140  0.5200 -0.4479 -0.2472
 5644SOL    HW128568   1.645   2.256  17.091  0.9692 -0.3762  0.4344
 5644SOL    HW228569   1.575   2.275  17.210  0.1344 -0.9229  0.1857
 5645SOL     OW28570   1.127   3.535   4.068 -0.1231 -0.5712 -0.1966
 5645SOL    HW128571   1.208   3.586   4.063 -0.5725  0.1622  0.0377
 5645SOL    HW228572   1.073   3.576   4.000 -3.6372 -0.7529  2.4964
 5646SOL     OW28573   3.552   2.042   2.383  0.0342 -0.1199 -0.1429
 5646SOL    HW128574   3.614   2.027   2.311  0.1567 -2.3031  0.4121
 5646SOL    HW228575   3.484   2.097   2.345 -0.8502 -1.0783  0.0525
 5647SOL     OW28576   0.015   4.412  14.068  0.5651 -0.2318 -0.0587
 5647SOL    HW128577   4.732   4.431  14.159 -0.5247 -0.6128 -0.2444
 5647SOL    HW228578   0.108   4.431  14.052  0.2190  1.5176  0.0155
 5648SOL     OW28579   0.311   4.076   6.996  0.0820  0.7458  0.1450
 5648SOL    HW128580   0.256   4.003   7.025  1.3647 -0.5552 -0.7152
 5648SOL    HW228581   0.305   4.074   6.901  0.2300 -1.2823  0.1903
 5649SOL     OW28582   1.438   1.336   6.679 -0.5801 -0.5418 -0.2567
 5649SOL    HW128583   1.431   1.335   6.774  0.4646  0.1471 -0.1801
 5649SOL    HW228584   1.481   1.419   6.660 -1.9303  0.4153  0.9284
 5650SOL     OW28585   2.082   0.674   6.252  0.2710  0.0869 -0.3426
 5650SOL    HW128586   2.004   0.725   6.233  1.7035  2.4087  0.0778
 5650SOL    HW228587   2.062   0.583   6.228 -1.5070  0.6324 -0.8801
 5651SOL     OW28588   1.712   0.933   6.041 -0.1824  0.5185  1.1603
 5651SOL    HW128589   1.793   0.979   6.062  1.1134 -0.8408 -0.7521
 5651SOL    HW228590   1.666   0.997   5.988  2.4304  0.3016 -1.4010
 5652SOL     OW28591   3.846   3.454  10.152  0.1932 -0.5102  0.1417
 5652SOL    HW128592   3.936   3.442  10.184  0.2292 -0.3094  0.1158
 5652SOL    HW228593   3.822   3.525  10.211 -0.9280 -2.0216  1.4938
 5653SOL     OW28594   0.761   0.426   9.887  0.6236 -0.4961  0.2543
 5653SOL    HW128595   0.779   0.364   9.816 -1.8115 -0.7862 -0.0909
 5653SOL    HW228596   0.667   0.417   9.872  0.2513 -0.6693  2.6583
 5654SOL     OW28597   3.149   3.249   1.554  0.4088  0.3744  0.1907
 5654SOL    HW128598   3.073   3.196   1.535  1.3272 -1.1154  0.6671
 5654SOL    HW228599   3.157   3.269   1.461  0.0334  0.0884  0.1026
 5655SOL     OW28600   0.052   0.164  11.384 -0.5804  0.2506 -0.4827
 5655SOL    HW128601   0.046   0.254  11.418  1.3861  0.0246  0.4996
 5655SOL    HW228602   0.108   0.189  11.311 -0.8160  0.7496 -0.4890
 5656SOL     OW28603   1.113   0.957   2.455  0.9651 -0.1976  0.2060
 5656SOL    HW128604   1.071   0.957   2.541  0.5190  0.9395 -0.0166
 5656SOL    HW228605   1.182   0.894   2.472 -0.0195 -1.2456  0.3607
 5657SOL     OW28606   0.809   2.102   8.189 -0.2423 -0.4202  1.0257
 5657SOL    HW128607   0.802   2.118   8.283 -0.2755  0.1670  0.9202
 5657SOL    HW228608   0.720   2.072   8.171  0.1974 -0.5717 -0.9455
 5658SOL     OW28609   1.171   2.353  15.643 -0.1819  0.4242 -0.1484
 5658SOL    HW128610   1.233   2.377  15.712 -0.4813 -3.1498  1.3539
 5658SOL    HW228611   1.087   2.389  15.670  0.3075  0.3647  1.4620
 5659SOL     OW28612   4.500   3.626   9.384 -0.2996  0.2272 -0.0286
 5659SOL    HW128613   4.519   3.700   9.441 -1.2600  1.1065 -0.8634
 5659SOL    HW228614   4.404   3.619   9.388 -0.2635  0.6642  1.7236
 5660SOL     OW28615   3.749   0.370  14.744  0.1091 -0.3076 -0.3995
 5660SOL    HW128616   3.782   0.458  14.761  1.9481 -1.2956  1.1528
 5660SOL    HW228617   3.679   0.384  14.680 -0.2821  2.2882  0.5865
 5661SOL     OW28618   0.678   1.761   7.629  0.1442  0.6920  0.1641
 5661SOL    HW128619   0.764   1.730   7.658  0.1836 -0.6859 -1.4481
 5661SOL    HW228620   0.696   1.853   7.610 -0.6023  0.8885  0.4190
 5662SOL     OW28621   4.590   3.620   7.806  0.4129  0.6989 -0.0114
 5662SOL    HW128622   4.578   3.694   7.865 -1.8198 -1.0944  1.7631
 5662SOL    HW228623   4.622   3.557   7.870  0.7932  1.1698  0.2608
 5663SOL     OW28624   4.351   2.193  12.800  0.5297  0.0899 -0.1927
 5663SOL    HW128625   4.425   2.193  12.861 -0.4510 -0.3264  0.9790
 5663SOL    HW228626   4.282   2.143  12.843  0.1770  1.9391  1.3914
 5664SOL     OW28627   2.298   1.627   3.036 -0.0265  0.3137  0.1472
 5664SOL    HW128628   2.221   1.678   3.010 -1.7066 -1.5034  1.5348
 5664SOL    HW228629   2.289   1.549   2.982 -2.4004  0.4165  0.3979
 5665SOL     OW28630   1.460   4.606   9.118  0.9850  0.3168 -0.1097
 5665SOL    HW128631   1.440   4.660   9.194  2.2351  1.2385 -0.4210
 5665SOL    HW228632   1.425   4.518   9.130 -1.1843  0.8879 -2.3037
 5666SOL     OW28633   0.781   2.478   9.030  0.1133 -0.4499 -0.3646
 5666SOL    HW128634   0.815   2.556   8.985 -1.6663  0.4700 -0.1281
 5666SOL    HW228635   0.781   2.416   8.957  0.5756 -0.0853 -0.6849
 5667SOL     OW28636   4.646   0.188  12.395 -0.0395 -0.1753 -0.2042
 5667SOL    HW128637   4.677   0.216  12.481  0.1937 -3.3605  0.7485
 5667SOL    HW228638   4.565   0.142  12.420  0.3831 -0.3823  0.8025
 5668SOL     OW28639   1.520   0.960   3.411 -0.1976 -0.0366 -0.2643
 5668SOL    HW128640   1.477   0.987   3.330 -1.3930  0.9504  0.6842
 5668SOL    HW228641   1.515   1.050   3.444  0.5694  0.3133 -1.0905
 5669SOL     OW28642   0.888   0.913  15.669  0.4241 -0.0074  0.0850
 5669SOL    HW128643   0.819   0.848  15.655 -0.3863  1.5027 -2.8887
 5669SOL    HW228644   0.848   0.995  15.640 -0.2796 -0.0230  1.0239
 5670SOL     OW28645   3.227   4.164   4.731  0.3141  0.1874  0.6988
 5670SOL    HW128646   3.274   4.243   4.761  1.9122 -0.5801  0.2033
 5670SOL    HW228647   3.233   4.110   4.810 -0.0292 -2.4083 -1.0843
 5671SOL     OW28648   2.385   4.020   8.831 -0.6107  0.4812  0.3681
 5671SOL    HW128649   2.365   4.008   8.738 -0.8925 -0.2538  0.5261
 5671SOL    HW228650   2.327   3.949   8.860  3.1572 -2.6853  0.0062
 5672SOL     OW28651   0.431   2.905  17.753 -0.6064  0.0523 -0.0943
 5672SOL    HW128652   0.343   2.876   0.021  0.1395 -1.6904  0.6095
 5672SOL    HW228653   0.486   2.851   0.057 -0.1757  0.2263 -0.3386
 5673SOL     OW28654   1.530   1.954   3.687 -0.0857  0.4887  0.3236
 5673SOL    HW128655   1.608   1.997   3.722 -0.0579  0.2250  0.5879
 5673SOL    HW228656   1.549   1.864   3.716 -1.0578  1.1176  2.9784
 5674SOL     OW28657   1.918   2.983  10.066 -0.0493 -0.2137 -0.5322
 5674SOL    HW128658   1.917   2.975  10.162 -1.3416  2.3063 -0.3366
 5674SOL    HW228659   2.001   3.027  10.050  0.3550 -1.3785 -1.6525
 5675SOL     OW28660   3.906   0.647  15.397  0.9176 -0.1840  0.1334
 5675SOL    HW128661   3.849   0.587  15.349  1.6349  1.1901 -2.4158
 5675SOL    HW228662   3.995   0.626  15.369  1.6079  2.7101  0.1363
 5676SOL     OW28663   1.844   1.175   3.562  0.7181  0.2954  0.0629
 5676SOL    HW128664   1.902   1.105   3.533 -0.2660 -0.8897  0.9365
 5676SOL    HW228665   1.827   1.136   3.648 -2.1570 -1.9839 -1.5426
 5677SOL     OW28666   3.567   3.715   2.675 -0.7789 -0.6893  0.2222
 5677SOL    HW128667   3.565   3.626   2.640  1.0268 -0.7127  0.1342
 5677SOL    HW228668   3.608   3.765   2.604 -0.6574 -1.2196 -0.0843
 5678SOL     OW28669   3.204   1.927   3.942 -0.0449  0.1020 -0.3544
 5678SOL    HW128670   3.136   1.860   3.932  1.2410 -1.7055  3.3736
 5678SOL    HW228671   3.248   1.926   3.857 -1.4491  0.3912 -1.0919
 5679SOL     OW28672   2.392   3.580   1.943  0.2435 -0.1515  0.5287
 5679SOL    HW128673   2.368   3.531   1.864 -0.8791  1.4654 -0.1265
 5679SOL    HW228674   2.441   3.516   1.995 -0.8535 -1.1238  0.3789
 5680SOL     OW28675   3.452   3.842   9.449  0.1209 -0.3324 -0.5141
 5680SOL    HW128676   3.532   3.894   9.435  0.3099 -1.0229 -2.0658
 5680SOL    HW228677   3.467   3.808   9.537 -0.8765 -0.8177 -0.5322
 5681SOL     OW28678   1.757   1.230   2.652  0.2907  0.7884 -0.1639
 5681SOL    HW128679   1.700   1.247   2.727  0.4066 -0.6836  0.2615
 5681SOL    HW228680   1.766   1.135   2.655  1.6534  0.8405 -2.3885
 5682SOL     OW28681   3.937   3.906   0.198  0.6209 -0.1164  0.7000
 5682SOL    HW128682   3.853   3.939   0.168  0.3601 -2.0369 -0.7304
 5682SOL    HW228683   3.947   3.818   0.160 -1.3219  0.3005 -0.7611
 5683SOL     OW28684   0.710   4.723   5.936  0.4429 -0.3771 -0.3619
 5683SOL    HW128685   0.717   0.019   5.847 -2.5866  0.7981 -0.1438
 5683SOL    HW228686   0.711   0.064   5.989  1.0531  1.4717 -3.1281
 5684SOL     OW28687   2.405   2.898   7.719 -1.1314  0.2902  0.0237
 5684SOL    HW128688   2.354   2.961   7.771 -1.5737  1.7023 -2.1149
 5684SOL    HW228689   2.481   2.890   7.776  0.3234 -2.1818 -2.2906
 5685SOL     OW28690   4.648   4.567   0.199 -0.2544  0.6199 -0.4387
 5685SOL    HW128691   4.617   4.507   0.266  1.4620 -1.6994 -1.6977
 5685SOL    HW228692   4.695   4.628   0.255 -0.1354  0.1414 -0.0186
 5686SOL     OW28693   0.346   4.426   6.207 -0.2766 -0.1753  0.6158
 5686SOL    HW128694   0.364   4.516   6.233  2.6149 -0.2141 -1.1750
 5686SOL    HW228695   0.430   4.408   6.164  0.7570  0.3920  2.4006
 5687SOL     OW28696   0.059   1.732  13.018 -0.0862 -0.2769 -0.0321
 5687SOL    HW128697   0.135   1.685  13.054 -0.0133  1.1521  1.6504
 5687SOL    HW228698   0.018   1.661  12.968  0.5256 -0.7036  0.0693
 5688SOL     OW28699   4.655   2.722  17.702  0.1935  0.2184  0.0329
 5688SOL    HW128700   4.583   2.753   0.003  0.6871  0.5468  0.5030
 5688SOL    HW228701   4.652   2.634  17.740  0.3234 -0.0020 -0.4626
 5689SOL     OW28702   3.305   3.723   0.974 -0.1040 -0.0518  0.7017
 5689SOL    HW128703   3.325   3.757   0.887  0.0620 -1.0666  0.3494
 5689SOL    HW228704   3.370   3.760   1.033  0.3886  1.2438 -0.6571
 5690SOL     OW28705   2.251   3.272   2.032  0.4101  0.0827 -0.2379
 5690SOL    HW128706   2.230   3.189   2.074 -0.9098  0.6264  0.1868
 5690SOL    HW228707   2.345   3.274   2.048  0.3048 -1.0070  0.4979
 5691SOL     OW28708   3.965   0.203   8.163  0.0778  0.0935  0.1739
 5691SOL    HW128709   4.051   0.165   8.178 -0.5964 -2.1862 -1.5665
 5691SOL    HW228710   3.913   0.122   8.155 -2.3644  1.5754  1.1846
 5692SOL     OW28711   0.048   4.037   4.531 -0.2719  0.3406 -0.0415
 5692SOL    HW128712   0.070   4.048   4.624  0.8316  0.4148 -0.3186
 5692SOL    HW228713   0.129   4.059   4.485  0.3888 -3.3035 -0.5648
 5693SOL     OW28714   0.001   1.984   1.775 -0.9684  0.2873  0.4213
 5693SOL    HW128715   0.057   2.000   1.851 -1.4649 -0.4929  0.9486
 5693SOL    HW228716   4.662   1.952   1.820 -0.4741  0.4692  1.4044
 5694SOL     OW28717   0.041   3.604  10.029 -0.3602  0.2377 -0.1830
 5694SOL    HW128718   0.076   3.649  10.106  1.7393 -2.1742  0.2496
 5694SOL    HW228719   0.083   3.648   9.955 -2.6085  1.9713 -0.4688
 5695SOL     OW28720   2.269   3.826   2.964 -0.2583 -0.1853  0.7445
 5695SOL    HW128721   2.217   3.883   2.908  1.1979  0.4934  0.0815
 5695SOL    HW228722   2.338   3.804   2.902  0.6917  2.8692  0.7148
 5696SOL     OW28723   0.165   0.982   3.578  0.0256 -0.4447 -0.2521
 5696SOL    HW128724   0.233   1.027   3.628 -0.1092 -0.2857 -0.2111
 5696SOL    HW228725   0.215   0.937   3.510  0.8830  1.9666 -1.2131
 5697SOL     OW28726   1.053   3.778   9.544 -0.3117  0.3403 -0.0650
 5697SOL    HW128727   0.968   3.747   9.515 -0.5629  2.2744 -1.4322
 5697SOL    HW228728   1.075   3.718   9.614  0.9758  0.5174 -0.3148
 5698SOL     OW28729   1.845   0.070   5.976  0.2669 -0.0461 -0.0232
 5698SOL    HW128730   1.751   0.075   5.995  0.6596 -0.4486  2.0583
 5698SOL    HW228731   1.845   4.730   5.922 -0.2347  1.9764 -2.9983
 5699SOL     OW28732   3.450   1.359   8.645  0.3936  0.6532  0.0647
 5699SOL    HW128733   3.475   1.276   8.605 -0.8809 -1.0387  2.7471
 5699SOL    HW228734   3.376   1.337   8.702  0.6665  1.6982  0.8130
 5700SOL     OW28735   4.577   0.261  12.113  0.1156  0.3318  0.1797
 5700SOL    HW128736   4.510   0.328  12.129 -0.3364 -0.1539  0.3234
 5700SOL    HW228737   4.631   0.265  12.192  2.0331  1.6028 -1.1999
 5701SOL     OW28738   0.189   2.779   0.080  0.9555  0.4104  0.0837
 5701SOL    HW128739   0.107   2.775   0.030  1.0328  0.4145 -0.0429
 5701SOL    HW228740   0.156   2.812   0.165 -1.0181 -0.3008 -0.4025
 5702SOL     OW28741   0.473   2.953   7.463 -0.5442 -0.7400  0.2256
 5702SOL    HW128742   0.559   2.936   7.427 -0.2481  1.3019 -0.0489
 5702SOL    HW228743   0.490   2.947   7.557 -2.7981 -2.0677  0.5523
 5703SOL     OW28744   3.786   3.787   3.828 -0.2087 -0.0073  0.0064
 5703SOL    HW128745   3.872   3.762   3.794 -0.5659 -2.3471  0.8071
 5703SOL    HW228746   3.791   3.803   3.922  3.6373 -1.1192 -0.0379
 5704SOL     OW28747   3.551   1.472   5.939  0.3990 -0.2251  0.0633
 5704SOL    HW128748   3.589   1.386   5.921  0.2657 -0.4728  0.9369
 5704SOL    HW228749   3.477   1.475   5.878  0.5298 -1.9126 -0.1960
 5705SOL     OW28750   1.534   1.604   6.624 -0.1040 -0.5766  0.7819
 5705SOL    HW128751   1.542   1.646   6.538  0.0495  0.4894  1.3155
 5705SOL    HW228752   1.573   1.676   6.673  0.7615 -0.6052  0.1459
 5706SOL     OW28753   2.851   1.345   6.102  0.1014 -0.6035  0.5433
 5706SOL    HW128754   2.931   1.383   6.065 -0.8358 -0.4138 -1.3305
 5706SOL    HW228755   2.872   1.336   6.194  0.2843 -0.2132  0.5380
 5707SOL     OW28756   3.085   3.675   5.765 -0.2865 -0.1379 -0.0259
 5707SOL    HW128757   2.995   3.707   5.757  0.6784  2.0756 -1.8510
 5707SOL    HW228758   3.049   3.595   5.804 -0.6956 -1.0121 -2.1961
 5708SOL     OW28759   1.810   1.238  11.917 -0.6436  0.1957 -0.3772
 5708SOL    HW128760   1.758   1.257  11.839  0.3205 -2.5178 -1.6987
 5708SOL    HW228761   1.872   1.311  11.913 -1.2588  0.7263 -0.2652
 5709SOL     OW28762   1.550   0.595   4.929  0.2694 -0.0661  0.2650
 5709SOL    HW128763   1.576   0.649   4.855 -0.6654 -2.1751 -1.6058
 5709SOL    HW228764   1.638   0.573   4.961 -0.7973 -2.8653  1.3059
 5710SOL     OW28765   1.546   1.732   6.377 -0.3866  0.5619  0.0466
 5710SOL    HW128766   1.604   1.794   6.333  2.9607 -1.4226  1.6996
 5710SOL    HW228767   1.552   1.671   6.304 -0.6231 -0.3200  0.7696
 5711SOL     OW28768   2.485   4.325   5.389  0.2967  0.4106 -0.1505
 5711SOL    HW128769   2.474   4.389   5.319 -0.6184  0.5998  0.1646
 5711SOL    HW228770   2.404   4.349   5.434  0.5261 -0.4178  0.6998
 5712SOL     OW28771   0.052   4.163   0.842 -0.0004  0.4566  0.8963
 5712SOL    HW128772   0.145   4.179   0.860  0.4877 -2.1952  0.7131
 5712SOL    HW228773   0.029   4.108   0.917 -0.3993  0.4700  0.7823
 5713SOL     OW28774   4.316   1.234  11.919 -0.0176  0.0660  0.3900
 5713SOL    HW128775   4.304   1.164  11.983 -0.2674  1.6897  2.1093
 5713SOL    HW228776   4.330   1.299  11.987 -0.0020 -0.1430  0.5879
 5714SOL     OW28777   3.864   2.115   1.021 -0.3112 -0.0465 -0.2390
 5714SOL    HW128778   3.868   2.165   1.102  0.0899  0.8827 -0.8323
 5714SOL    HW228779   3.810   2.174   0.970  0.3156  1.0279  0.3222
 5715SOL     OW28780   0.080   3.754   5.380 -0.2142  0.0261 -0.0059
 5715SOL    HW128781   0.041   3.682   5.429  0.4346 -0.5310 -0.3062
 5715SOL    HW228782   0.140   3.784   5.449 -0.6273 -0.5691  0.6119
 5716SOL     OW28783   2.176   1.690   2.629 -0.0177  0.1558  0.3983
 5716SOL    HW128784   2.240   1.702   2.698  0.9336 -0.6681 -0.3381
 5716SOL    HW228785   2.221   1.746   2.566  2.3190 -1.0237  1.0339
 5717SOL     OW28786   1.532   3.918   6.784 -0.3375  0.1120  0.5740
 5717SOL    HW128787   1.574   3.841   6.822  0.7179  0.3501 -0.1230
 5717SOL    HW228788   1.451   3.878   6.752  0.7028 -1.0776 -0.5528
 5718SOL     OW28789   4.006   4.209  13.866 -0.3141  0.9287  0.2823
 5718SOL    HW128790   3.956   4.148  13.813  0.5730 -0.6943  1.3217
 5718SOL    HW228791   4.013   4.293  13.821 -0.0124  0.5886 -0.3103
 5719SOL     OW28792   4.593   4.659   5.473  0.0817 -0.2487  0.1889
 5719SOL    HW128793   4.502   4.685   5.479  0.3812  0.4920  1.3581
 5719SOL    HW228794   4.607   4.584   5.532  1.1924 -0.3022 -0.1323
 5720SOL     OW28795   4.624   1.900   4.868 -0.1015  0.1857  0.7674
 5720SOL    HW128796   4.631   1.995   4.878 -0.1090  0.0054  2.4308
 5720SOL    HW228797   4.666   1.882   4.784 -1.8036  1.6815 -0.4049
 5721SOL     OW28798   1.999   4.378   7.597  0.1632 -0.2766 -0.1007
 5721SOL    HW128799   1.959   4.403   7.681  1.6556  0.3616  0.4202
 5721SOL    HW228800   1.961   4.291   7.581  0.3135 -0.4833  0.6419
 5722SOL     OW28801   4.196   0.444   2.820 -0.0489  0.3502  0.0348
 5722SOL    HW128802   4.263   0.388   2.781 -2.6290 -0.1784 -3.5837
 5722SOL    HW228803   4.169   0.378   2.884  2.6264 -0.8411 -0.0451
 5723SOL     OW28804   0.712   4.031   9.351  0.1889  0.4561 -0.4179
 5723SOL    HW128805   0.728   3.947   9.307 -0.6539 -0.8664  1.7818
 5723SOL    HW228806   0.767   4.022   9.428  0.4829  0.3399 -0.6415
 5724SOL     OW28807   4.554   1.650   1.215  0.4231  0.7068 -0.0179
 5724SOL    HW128808   4.618   1.675   1.281  0.8993 -1.4461  0.3193
 5724SOL    HW228809   4.496   1.596   1.269  1.4134 -0.5613 -0.2320
 5725SOL     OW28810   0.108   4.209   5.012 -0.3379 -0.8728  0.0820
 5725SOL    HW128811   0.114   4.186   5.104  1.1033 -1.5384 -0.1848
 5725SOL    HW228812   0.060   4.292   5.020  1.5030  0.1124  0.7239
 5726SOL     OW28813   2.154   2.403   1.285 -0.2966  0.1403 -0.2444
 5726SOL    HW128814   2.146   2.338   1.215 -0.4496 -0.1267  0.0198
 5726SOL    HW228815   2.070   2.447   1.271  0.2184  0.8756 -1.0726
 5727SOL     OW28816   1.342   3.663   8.504 -0.1040 -0.1494  0.5970
 5727SOL    HW128817   1.314   3.691   8.591 -0.9215  1.7015 -0.2654
 5727SOL    HW228818   1.255   3.656   8.464 -0.2071  0.6306  0.6862
 5728SOL     OW28819   3.515   4.076   9.278 -0.3489  0.1115  0.5326
 5728SOL    HW128820   3.458   4.037   9.212  1.9326  1.3528 -2.1713
 5728SOL    HW228821   3.462   4.151   9.304  0.8081  0.9372  0.4700
 5729SOL     OW28822   4.433   3.391   0.332 -0.4349 -0.6093  0.3788
 5729SOL    HW128823   4.411   3.475   0.293 -0.8386 -0.7730  0.2508
 5729SOL    HW228824   4.521   3.403   0.297 -0.3767  2.3196  1.4932
 5730SOL     OW28825   0.800   2.810   6.518 -0.0014 -0.3724 -0.4270
 5730SOL    HW128826   0.860   2.852   6.456  0.7477  1.0770  1.2911
 5730SOL    HW228827   0.750   2.884   6.552 -1.8885 -0.7816 -2.3082
 5731SOL     OW28828   0.190   0.782   9.121 -0.3892  0.3761  0.3691
 5731SOL    HW128829   0.212   0.745   9.207 -0.2441  3.0785  1.4784
 5731SOL    HW228830   0.215   0.871   9.143  1.1713 -0.8644  3.5609
 5732SOL     OW28831   0.183   2.248   8.057 -0.2760  0.6369 -0.0171
 5732SOL    HW128832   0.184   2.244   8.153  0.4365 -0.4581 -0.0757
 5732SOL    HW228833   0.140   2.333   8.055 -1.4166  0.0659  0.0575
 5733SOL     OW28834   1.957   0.498   9.365 -0.1011 -0.5383 -0.9130
 5733SOL    HW128835   1.869   0.506   9.401  0.7443  0.3073  0.9810
 5733SOL    HW228836   1.958   0.583   9.321  3.3916 -0.1870 -0.1355
 5734SOL     OW28837   4.205   1.664  10.166  0.3597 -0.0574  0.7948
 5734SOL    HW128838   4.174   1.634  10.081  1.2365  2.1415 -0.2916
 5734SOL    HW228839   4.209   1.585  10.221  1.3014 -1.0393 -0.6912
 5735SOL     OW28840   4.378   0.301  12.372 -0.0095 -0.0725 -0.0783
 5735SOL    HW128841   4.363   0.335  12.283 -2.2906  1.1088  0.7517
 5735SOL    HW228842   4.473   0.299  12.376 -0.1525 -2.0345  1.8978
 5736SOL     OW28843   0.159   3.246   8.495  0.2507 -0.5637 -0.2619
 5736SOL    HW128844   0.155   3.167   8.441  3.1473  0.3079 -1.7189
 5736SOL    HW228845   0.090   3.227   8.559  2.1560 -2.1762  1.3307
 5737SOL     OW28846   0.395   1.967   9.292 -0.1592  0.3035  0.1563
 5737SOL    HW128847   0.420   1.909   9.220  0.3199  1.7044 -0.7997
 5737SOL    HW228848   0.337   2.021   9.240 -0.2827  0.4174  0.4105
 5738SOL     OW28849   0.062   0.522  12.599  0.0053  0.3221 -0.1032
 5738SOL    HW128850   0.133   0.568  12.645 -0.1829 -1.4479  1.9278
 5738SOL    HW228851   0.117   0.451  12.566  0.4027  0.9277 -0.7524
 5739SOL     OW28852   0.620   2.040   2.212  0.0433 -0.0953 -0.4230
 5739SOL    HW128853   0.642   2.108   2.276 -1.0511 -1.0949  0.9968
 5739SOL    HW228854   0.597   1.972   2.275  0.9758 -1.4228 -1.5178
 5740SOL     OW28855   2.104   4.478  12.280  0.5998  0.2441  0.3913
 5740SOL    HW128856   2.199   4.486  12.288  0.4817  0.0416  1.9768
 5740SOL    HW228857   2.090   4.410  12.215 -0.0003  0.2321  0.5352
 5741SOL     OW28858   4.249   0.914   1.833  0.3388 -0.0448  0.4182
 5741SOL    HW128859   4.307   0.881   1.764 -2.6945  1.2198 -2.7114
 5741SOL    HW228860   4.299   0.871   1.902  0.6344  1.0905  0.9102
 5742SOL     OW28861   0.726   1.498   1.697  0.2856 -0.3653  0.6623
 5742SOL    HW128862   0.793   1.562   1.674  0.6666 -0.3350  1.8577
 5742SOL    HW228863   0.712   1.445   1.619 -0.2594 -2.2480  2.0319
 5743SOL     OW28864   3.451   0.204   2.601 -0.1065 -0.2027 -0.1318
 5743SOL    HW128865   3.404   0.121   2.602 -0.1635 -0.1323  2.1477
 5743SOL    HW228866   3.543   0.185   2.622  0.5775  0.0834 -2.8737
 5744SOL     OW28867   3.387   1.768  10.897 -0.3037  0.8475  0.1943
 5744SOL    HW128868   3.330   1.720  10.837 -0.8143  1.0984  0.4819
 5744SOL    HW228869   3.340   1.798  10.974 -1.1217  2.7576 -1.0565
 5745SOL     OW28870   4.665   1.464  17.669 -0.1876 -0.3503  0.5210
 5745SOL    HW128871   4.700   1.431  17.752 -0.6858 -0.0423  0.8504
 5745SOL    HW228872   0.004   1.457  17.614 -0.0709 -0.0586  0.6454
 5746SOL     OW28873   1.242   1.036   6.868  0.3627  0.2231 -0.2420
 5746SOL    HW128874   1.187   0.963   6.896  0.4527  1.8996  4.3719
 5746SOL    HW228875   1.176   1.105   6.883 -1.5319 -1.2882 -1.5597
 5747SOL     OW28876   2.089   3.771   4.766 -0.5052  0.1261 -0.5343
 5747SOL    HW128877   2.055   3.682   4.772  0.0352 -0.0580 -0.1928
 5747SOL    HW228878   2.169   3.746   4.720 -0.5237  0.7401 -0.9043
 5748SOL     OW28879   2.142   4.131  11.082 -0.2695  0.2460 -0.2635
 5748SOL    HW128880   2.150   4.045  11.041 -1.0816 -0.0162  0.1295
 5748SOL    HW228881   2.063   4.134  11.135  0.0862 -1.5058  0.3549
 5749SOL     OW28882   1.019   2.416   7.693 -0.5377 -0.4369  0.1547
 5749SOL    HW128883   1.003   2.429   7.599  1.1195 -1.0201 -0.2137
 5749SOL    HW228884   0.939   2.369   7.718 -0.8836  0.3051  0.4140
 5750SOL     OW28885   3.456   2.881   6.284  0.4889 -0.0077 -0.4453
 5750SOL    HW128886   3.538   2.833   6.292 -0.0224 -1.0779 -1.5511
 5750SOL    HW228887   3.482   2.952   6.226  0.4340  2.6796  2.8383
 5751SOL     OW28888   0.430   3.005  16.648 -0.4641  0.2527  0.3644
 5751SOL    HW128889   0.363   3.056  16.604 -1.2391  0.2087  1.4827
 5751SOL    HW228890   0.432   2.931  16.587 -0.0400 -0.6395  1.4346
 5752SOL     OW28891   3.999   4.658   6.165 -0.1373 -0.0507 -0.1483
 5752SOL    HW128892   4.092   4.681   6.160  0.6158 -2.4180  3.0567
 5752SOL    HW228893   3.952   4.736   6.133  1.4792  0.2911 -1.6601
 5753SOL     OW28894   2.360   0.950   5.895 -0.7408 -0.1755 -0.3031
 5753SOL    HW128895   2.357   1.033   5.943  0.2751  0.8084 -1.9463
 5753SOL    HW228896   2.360   0.879   5.959 -0.1201 -0.8254 -1.0253
 5754SOL     OW28897   3.557   4.446  17.280 -0.1698 -0.1985  0.4012
 5754SOL    HW128898   3.562   4.392  17.359 -0.6120 -1.8703 -0.7252
 5754SOL    HW228899   3.581   4.394  17.204  1.7505  1.9351 -0.4692
 5755SOL     OW28900   1.401   0.616   2.015 -0.3168  0.3922 -0.3026
 5755SOL    HW128901   1.396   0.521   2.000 -1.4928  0.5260 -0.7678
 5755SOL    HW228902   1.495   0.622   2.034 -0.6871  0.8537  1.4034
 5756SOL     OW28903   3.961   1.478   5.302 -0.2737  0.4458 -0.1501
 5756SOL    HW128904   3.880   1.529   5.309 -0.9759 -0.9135  1.6378
 5756SOL    HW228905   4.012   1.529   5.239 -0.1764  0.9260  0.3140
 5757SOL     OW28906   2.568   4.297   7.653 -0.1183 -0.3036 -0.0069
 5757SOL    HW128907   2.513   4.232   7.608  2.4106 -2.2951 -0.2360
 5757SOL    HW228908   2.549   4.276   7.744 -0.0947 -1.0858 -0.1808
 5758SOL     OW28909   2.914   0.086   8.743 -0.2646  0.1404 -0.4570
 5758SOL    HW128910   2.857   0.016   8.709  1.1847 -0.8286 -0.9055
 5758SOL    HW228911   2.902   0.151   8.673  0.0757  0.3642 -0.3060
 5759SOL     OW28912   1.188   1.522   4.732  0.2731 -0.0860 -0.8809
 5759SOL    HW128913   1.212   1.606   4.772  0.8921 -0.0210 -1.4005
 5759SOL    HW228914   1.233   1.520   4.648  1.5697 -1.4208 -0.1438
 5760SOL     OW28915   1.164   3.547   9.622 -0.4382  0.6952 -0.1623
 5760SOL    HW128916   1.155   3.482   9.553 -0.6981 -0.3997  0.9026
 5760SOL    HW228917   1.254   3.529   9.650 -0.7599  1.3995  1.3668
 5761SOL     OW28918   2.299   3.714   4.611 -0.7714 -0.2431  0.2168
 5761SOL    HW128919   2.335   3.781   4.553  2.1794 -1.4025  0.7147
 5761SOL    HW228920   2.296   3.635   4.557  1.0244 -1.8131  2.4146
 5762SOL     OW28921   0.169   2.601   2.116  0.1924  0.3107  0.1649
 5762SOL    HW128922   0.252   2.605   2.164 -0.0741  1.8667  0.5047
 5762SOL    HW228923   0.124   2.673   2.160 -1.0854  0.9610 -2.1967
 5763SOL     OW28924   0.778   2.210   5.999 -0.1254  1.3252  0.1652
 5763SOL    HW128925   0.767   2.170   5.913  0.9957  0.5292  0.3866
 5763SOL    HW228926   0.820   2.293   5.978  0.9593  0.8890  0.5611
 5764SOL     OW28927   2.367   4.094   5.518 -0.1888  0.1499 -0.2834
 5764SOL    HW128928   2.433   4.025   5.516 -0.5177 -0.1896  0.8394
 5764SOL    HW228929   2.371   4.110   5.423  0.1375 -0.5639 -0.3872
 5765SOL     OW28930   1.098   2.763   5.992  0.2766  0.0190 -0.3345
 5765SOL    HW128931   1.169   2.698   5.993 -0.2840 -0.5904  1.2309
 5765SOL    HW228932   1.144   2.837   5.954 -1.0176  0.4555 -1.0621
 5766SOL     OW28933   3.278   3.087   8.044  0.0232 -0.4004  0.3342
 5766SOL    HW128934   3.213   3.024   8.077  0.6945 -0.2304  1.9849
 5766SOL    HW228935   3.235   3.166   8.076  0.4716 -0.6288  1.5126
 5767SOL     OW28936   2.468   2.314   1.541  0.8487 -0.3495 -0.1572
 5767SOL    HW128937   2.440   2.242   1.485  2.9043 -1.5157  0.2823
 5767SOL    HW228938   2.480   2.383   1.475 -1.4038  0.9033  0.7499
 5768SOL     OW28939   4.075   2.040   7.862 -0.7236 -0.1719  0.2237
 5768SOL    HW128940   4.056   1.946   7.859 -0.9293 -0.1892  1.8149
 5768SOL    HW228941   3.991   2.083   7.852 -1.9795 -2.6857 -0.0576
 5769SOL     OW28942   3.129   4.122   7.133 -0.6076  0.3843 -0.4692
 5769SOL    HW128943   3.173   4.038   7.138  0.9073  1.2765  1.3277
 5769SOL    HW228944   3.130   4.158   7.221 -0.4870 -0.9671  0.0708
 5770SOL     OW28945   1.212   4.475   7.669  0.2085 -0.5488  0.4369
 5770SOL    HW128946   1.302   4.469   7.637 -0.0702 -1.0108 -0.2696
 5770SOL    HW228947   1.223   4.544   7.734 -0.3458  0.7302 -0.8236
 5771SOL     OW28948   0.641   1.700   3.472  0.0720 -0.1991 -0.1921
 5771SOL    HW128949   0.736   1.694   3.459  0.4249  3.1239  0.7925
 5771SOL    HW228950   0.626   1.616   3.516  2.3672 -1.0713 -1.1026
 5772SOL     OW28951   3.528   1.425   7.450 -0.1027 -1.1064 -0.3500
 5772SOL    HW128952   3.617   1.453   7.427  0.0864 -1.9206 -0.6354
 5772SOL    HW228953   3.524   1.459   7.539 -0.5879  0.1027 -0.8268
 5773SOL     OW28954   0.724   1.743  15.610 -0.1207 -0.6314 -0.2547
 5773SOL    HW128955   0.730   1.691  15.691 -0.3320 -2.5402 -1.4553
 5773SOL    HW228956   0.628   1.752  15.603 -0.1635 -0.5751  0.3989
 5774SOL     OW28957   0.172   1.788  13.662 -0.7337  0.0639 -0.2037
 5774SOL    HW128958   0.163   1.875  13.702 -1.0238  0.3418 -0.8727
 5774SOL    HW228959   0.093   1.742  13.690 -0.7874  0.5536  0.4506
 5775SOL     OW28960   3.015   3.556   5.374 -0.3174  0.0479 -0.3840
 5775SOL    HW128961   3.104   3.587   5.361 -0.6959  1.5544  0.5604
 5775SOL    HW228962   3.006   3.549   5.279 -3.7315 -0.8471  0.0041
 5776SOL     OW28963   0.076   1.903   6.734  0.6000  0.4777 -0.6867
 5776SOL    HW128964   0.036   1.859   6.659 -1.3266  0.4560  0.3561
 5776SOL    HW228965   0.142   1.836   6.753  2.0422  2.4155  0.9642
 5777SOL     OW28966   0.282   0.166   5.364  0.3114  0.0918  0.1213
 5777SOL    HW128967   0.201   0.129   5.400  0.5741 -1.3559 -0.7417
 5777SOL    HW228968   0.249   0.171   5.274  0.4922  0.4433  0.0760
 5778SOL     OW28969   1.396   4.542   6.604 -0.1553 -0.5188  0.3403
 5778SOL    HW128970   1.334   4.570   6.537 -0.0176 -1.2678 -0.1066
 5778SOL    HW228971   1.476   4.515   6.558  1.4201  1.7442  1.7652
 5779SOL     OW28972   1.739   4.538   5.940  0.6672  0.1987  0.2909
 5779SOL    HW128973   1.787   4.461   5.971 -0.4435 -0.1843  1.0396
 5779SOL    HW228974   1.730   4.520   5.847  0.0660 -3.3790  1.0614
 5780SOL     OW28975   4.666   0.275  14.170 -0.6149 -0.1281  0.5834
 5780SOL    HW128976   4.661   0.318  14.255 -2.8422  0.9724 -0.0846
 5780SOL    HW228977   4.723   0.199  14.183  0.4139  0.5519  0.0381
 5781SOL     OW28978   0.379   0.851   3.420  0.0077 -0.1701 -0.6010
 5781SOL    HW128979   0.446   0.913   3.390  1.1518 -0.4199  1.4735
 5781SOL    HW228980   0.433   0.789   3.469  1.0657  2.3468  1.3681
 5782SOL     OW28981   0.735   1.605  14.861  0.7197  0.1031 -0.2227
 5782SOL    HW128982   0.786   1.647  14.792  0.5277  1.0721  0.2238
 5782SOL    HW228983   0.753   1.516  14.832 -0.7176 -0.6844  1.3146
 5783SOL     OW28984   1.092   1.232  16.061 -0.4749 -0.2629  0.1777
 5783SOL    HW128985   1.145   1.215  15.983  0.2592  1.6154  0.2803
 5783SOL    HW228986   1.012   1.179  16.051 -0.6623  0.0627 -0.0574
 5784SOL     OW28987   0.731   3.993   7.471 -0.0316  0.1018 -0.0181
 5784SOL    HW128988   0.656   3.998   7.530  0.7662 -1.7134  1.1422
 5784SOL    HW228989   0.714   4.071   7.418 -1.1383  0.3975  0.7826
 5785SOL     OW28990   3.758   3.480   6.642 -0.0838  0.1085 -0.2775
 5785SOL    HW128991   3.670   3.442   6.644 -0.4041  0.9253  0.8614
 5785SOL    HW228992   3.782   3.492   6.733 -0.3065 -2.8820  0.1811
 5786SOL     OW28993   0.893   0.786   1.312 -0.2472  0.1187  0.1027
 5786SOL    HW128994   0.945   0.748   1.383 -0.6880  0.8911  0.8312
 5786SOL    HW228995   0.867   0.870   1.350 -0.7576  0.3811 -0.8155
 5787SOL     OW28996   0.209   3.634  14.069 -0.2060 -0.3965  0.3820
 5787SOL    HW128997   0.205   3.668  13.980  2.4567  0.2844  0.5115
 5787SOL    HW228998   0.118   3.605  14.064  0.0029 -1.1366  0.8074
 5788SOL     OW28999   1.528   4.540  15.895  0.5316  0.0347 -0.4006
 5788SOL    HW129000   1.531   4.626  15.854  0.7548 -0.3225 -1.1296
 5788SOL    HW229001   1.612   4.543  15.941 -0.3662  0.6785  1.1952
 5789SOL     OW29002   1.574   1.295   9.780 -0.3007 -0.4541  0.2296
 5789SOL    HW129003   1.659   1.272   9.819  0.8550 -1.8160 -3.0637
 5789SOL    HW229004   1.599   1.383   9.751 -2.4260  0.3751  0.9283
 5790SOL     OW29005   3.841   3.802   5.846 -0.1159 -0.0050  0.1433
 5790SOL    HW129006   3.824   3.882   5.797  0.6651  0.1429  0.1044
 5790SOL    HW229007   3.766   3.802   5.905  0.2938 -2.7434  0.6718
 5791SOL     OW29008   1.144   3.618  11.296  0.1710 -0.2914 -0.3068
 5791SOL    HW129009   1.118   3.694  11.244 -2.1526 -1.7960 -1.3003
 5791SOL    HW229010   1.177   3.664  11.374  0.6339  0.8888 -1.2011
 5792SOL     OW29011   2.523   3.774   4.849 -0.1669 -0.1308  0.4293
 5792SOL    HW129012   2.462   3.727   4.793  0.7581  1.6565 -2.0473
 5792SOL    HW229013   2.589   3.706   4.866  1.6671  1.8660  1.2394
 5793SOL     OW29014   1.430   3.689  16.249  0.3744 -0.2713  0.2882
 5793SOL    HW129015   1.409   3.779  16.223 -2.0532 -0.9436 -0.0486
 5793SOL    HW229016   1.526   3.689  16.248  0.3528  0.2899 -1.2348
 5794SOL     OW29017   4.007   0.806   6.571 -0.3625 -0.7218  0.1543
 5794SOL    HW129018   3.971   0.853   6.496  1.1004  2.4553  1.4356
 5794SOL    HW229019   3.934   0.769   6.620 -0.8476  1.6515  1.2488
 5795SOL     OW29020   1.121   1.586   0.553  0.1174 -0.0196  0.3980
 5795SOL    HW129021   1.062   1.563   0.624 -0.3239 -0.5197 -0.1310
 5795SOL    HW229022   1.166   1.656   0.601  0.3945  0.5258 -0.6590
 5796SOL     OW29023   3.980   0.222  16.788  0.0860  0.4713  0.1150
 5796SOL    HW129024   3.927   0.300  16.806  1.9374  1.4425  1.2845
 5796SOL    HW229025   4.053   0.251  16.733 -2.6860  2.2323 -2.6777
 5797SOL     OW29026   2.447   0.627   4.859  0.4098 -0.5477  0.0820
 5797SOL    HW129027   2.477   0.640   4.949 -1.7489  0.1994  0.6918
 5797SOL    HW229028   2.465   0.535   4.840  1.7791 -0.3383  0.3782
 5798SOL     OW29029   4.278   4.499   9.356 -0.2669 -0.2090  0.1346
 5798SOL    HW129030   4.198   4.536   9.318  0.5921  1.2314 -0.3103
 5798SOL    HW229031   4.315   4.472   9.272 -0.7828 -2.4981  0.6703
 5799SOL     OW29032   3.370   1.572  14.050  0.1280 -0.5238 -0.0377
 5799SOL    HW129033   3.346   1.535  14.135 -0.7563 -0.2832 -0.1862
 5799SOL    HW229034   3.454   1.527  14.039 -0.2993 -1.3795  0.1646
 5800SOL     OW29035   1.326   2.357   3.595 -0.0562  0.5890  0.4191
 5800SOL    HW129036   1.238   2.363   3.558  0.9299  2.2941 -1.6114
 5800SOL    HW229037   1.324   2.262   3.587 -1.8102  0.7069 -0.5208
 5801SOL     OW29038   3.278   0.816   2.872  0.1758 -0.0695  0.1152
 5801SOL    HW129039   3.360   0.809   2.921 -1.0196  0.9502  2.2403
 5801SOL    HW229040   3.221   0.755   2.917 -0.8431  0.9337  0.1701
 5802SOL     OW29041   2.215   1.393   2.910  0.1632  0.4064  0.0898
 5802SOL    HW129042   2.269   1.330   2.863  0.5095  0.6162  0.2099
 5802SOL    HW229043   2.127   1.367   2.881 -0.2390  2.5837 -0.6785
 5803SOL     OW29044   2.912   0.126   2.397 -0.4344 -0.2578 -0.3949
 5803SOL    HW129045   2.921   0.218   2.423 -0.0918 -0.7359  1.1608
 5803SOL    HW229046   2.888   0.129   2.304 -0.1723 -0.6794 -0.4708
 5804SOL     OW29047   3.008   4.228   2.208 -0.3726 -0.4309 -0.3886
 5804SOL    HW129048   3.000   4.161   2.276  1.4553 -1.1091 -0.8644
 5804SOL    HW229049   2.919   4.263   2.211 -0.1028  0.2371  0.0549
 5805SOL     OW29050   4.340   1.695   8.365  0.2409  0.1232  0.1483
 5805SOL    HW129051   4.404   1.663   8.302  1.1499 -0.0130  1.1514
 5805SOL    HW229052   4.383   1.669   8.446 -0.8449  0.8190  0.9495
 5806SOL     OW29053   1.555   2.580   7.666 -0.2839 -0.1124 -0.2302
 5806SOL    HW129054   1.643   2.617   7.665 -0.2638 -0.1471  0.9223
 5806SOL    HW229055   1.515   2.632   7.596  1.4432 -0.4368 -1.4581
 5807SOL     OW29056   4.582   2.403  13.086 -0.2685  0.1388 -0.0787
 5807SOL    HW129057   4.555   2.472  13.025 -1.0391  0.1694  0.2959
 5807SOL    HW229058   4.577   2.321  13.037 -1.2695  0.4934 -0.5748
 5808SOL     OW29059   1.777   3.009   3.923 -0.3255  0.2387  0.2540
 5808SOL    HW129060   1.812   2.961   3.998  0.5286  1.9169  0.9115
 5808SOL    HW229061   1.712   2.955   3.877 -0.7375  1.6520 -0.8237
 5809SOL     OW29062   3.964   4.594   7.598  0.1445 -0.2720  0.0029
 5809SOL    HW129063   4.004   4.629   7.518 -1.7594  0.5530 -0.6106
 5809SOL    HW229064   4.005   4.656   7.658  0.6121  0.0369 -0.6296
 5810SOL     OW29065   2.137   1.295   8.462  1.1226 -0.5358 -0.2329
 5810SOL    HW129066   2.198   1.362   8.431  2.1837 -1.0047  0.8226
 5810SOL    HW229067   2.070   1.349   8.504  1.3631 -0.3534 -0.0793
 5811SOL     OW29068   2.335   0.142   5.419  0.2818 -0.3484 -0.5764
 5811SOL    HW129069   2.275   0.209   5.388  0.5087 -1.2595 -3.0001
 5811SOL    HW229070   2.410   0.181   5.463 -0.0333 -0.8358  0.3944
 5812SOL     OW29071   4.267   2.299   2.118  0.2932  0.0661 -0.1132
 5812SOL    HW129072   4.308   2.334   2.197  0.2382 -0.1313  0.0032
 5812SOL    HW229073   4.231   2.223   2.165 -0.7363  0.0019 -1.0008
 5813SOL     OW29074   0.318   2.487   7.717 -0.1249 -0.4164 -0.6507
 5813SOL    HW129075   0.244   2.504   7.658 -2.8612 -2.0511  2.3406
 5813SOL    HW229076   0.271   2.504   7.798 -0.9232  2.7680 -1.7686
 5814SOL     OW29077   3.312   3.991   9.114 -0.4323  0.3262  0.3162
 5814SOL    HW129078   3.368   3.986   9.036 -1.6544  0.9443 -0.6006
 5814SOL    HW229079   3.258   4.069   9.097 -1.4769  0.3785  3.7749
 5815SOL     OW29080   2.333   2.614   2.906 -0.4863 -0.2232  0.5136
 5815SOL    HW129081   2.426   2.631   2.921 -0.1811  0.5319 -2.1111
 5815SOL    HW229082   2.331   2.550   2.834 -0.3126 -0.0033  0.3112
 5816SOL     OW29083   1.850   4.714   4.362 -0.2796 -0.4232  0.8388
 5816SOL    HW129084   1.871   4.697   4.453  0.1044  0.2288  0.8742
 5816SOL    HW229085   1.814   4.633   4.326  1.5177 -1.3513  1.1089
 5817SOL     OW29086   3.990   3.169   9.818  0.3418 -0.5740  0.0043
 5817SOL    HW129087   3.898   3.159   9.842  0.7016  1.5010  2.2316
 5817SOL    HW229088   4.001   3.090   9.765 -0.7667 -1.4804  1.1392
 5818SOL     OW29089   3.588   4.256   2.220 -0.5294  0.1402 -0.2692
 5818SOL    HW129090   3.594   4.194   2.147 -0.7174 -1.3201  0.9515
 5818SOL    HW229091   3.501   4.237   2.255 -0.8616  2.1048 -0.0539
 5819SOL     OW29092   0.981   2.418  16.556 -0.0988  0.2928 -0.0208
 5819SOL    HW129093   0.998   2.504  16.518 -1.5452  0.0577 -1.2089
 5819SOL    HW229094   0.928   2.456  16.627 -0.7081 -0.7092  0.0594
 5820SOL     OW29095   1.049   2.247   2.163  0.2412 -0.0194 -0.0822
 5820SOL    HW129096   1.047   2.335   2.202  0.9354  0.5068 -1.2589
 5820SOL    HW229097   0.958   2.234   2.137  0.4773 -2.5097  0.3204
 5821SOL     OW29098   1.980   2.750  10.774 -0.6101 -0.0609 -0.2481
 5821SOL    HW129099   1.913   2.700  10.821 -0.4435  1.8751  2.1150
 5821SOL    HW229100   2.033   2.681  10.734 -1.0739 -0.3377 -0.3908
 5822SOL     OW29101   0.015   0.994   8.509  0.3716 -0.4640 -0.1417
 5822SOL    HW129102   0.010   1.077   8.461  2.7930 -0.4401 -0.3575
 5822SOL    HW229103   0.111   0.991   8.513  0.4417  0.6710 -0.9912
 5823SOL     OW29104   2.974   3.326  14.624 -0.2146 -0.5007  0.2008
 5823SOL    HW129105   3.069   3.314  14.620 -0.4844 -2.7079  0.4353
 5823SOL    HW229106   2.952   3.235  14.645  1.0927 -1.1742 -1.3860
 5824SOL     OW29107   3.856   3.196   4.497  0.9971 -0.1966 -0.5191
 5824SOL    HW129108   3.778   3.179   4.445  1.1128  1.3883 -1.1934
 5824SOL    HW229109   3.851   3.151   4.581  1.5117  0.5495 -0.0889
 5825SOL     OW29110   0.931   2.600  14.037 -0.1337 -0.2160  0.2100
 5825SOL    HW129111   0.911   2.684  13.995 -0.7840  0.4623  1.8973
 5825SOL    HW229112   0.860   2.545  14.005 -1.2988  0.1451  2.1767
 5826SOL     OW29113   3.641   2.901   6.930  0.3832  0.4531 -0.1582
 5826SOL    HW129114   3.685   2.819   6.908 -0.5584 -0.6473  2.0595
 5826SOL    HW229115   3.699   2.955   6.877  1.0395  0.0547  0.1566
 5827SOL     OW29116   2.983   2.377   9.759 -0.0304  0.6033  0.0362
 5827SOL    HW129117   3.046   2.428   9.709 -0.0012  1.0825  0.5590
 5827SOL    HW229118   3.024   2.382   9.845 -0.5286  2.3376  0.1768
 5828SOL     OW29119   2.187   2.431   0.746  0.0635  0.1274  0.5411
 5828SOL    HW129120   2.123   2.395   0.685  0.8723 -0.3549 -0.0233
 5828SOL    HW229121   2.195   2.522   0.717  5.0150 -0.5194 -0.1543
 5829SOL     OW29122   2.060   1.418  10.798 -0.2658 -0.4432  0.5575
 5829SOL    HW129123   2.024   1.345  10.848  0.0102 -1.0375 -0.1026
 5829SOL    HW229124   2.060   1.391  10.706  1.2032  0.3427  0.3293
 5830SOL     OW29125   3.941   0.297   3.006  0.2322  0.2182 -0.0361
 5830SOL    HW129126   3.955   0.206   2.979  0.3163  0.4257 -0.6863
 5830SOL    HW229127   3.870   0.328   2.950 -0.6366  1.5276  1.7937
 5831SOL     OW29128   2.427   2.534   0.841 -0.0224  0.0754  0.4855
 5831SOL    HW129129   2.476   2.474   0.898  0.5632  0.3533  0.2749
 5831SOL    HW229130   2.341   2.495   0.824  0.5399 -1.4834  1.1739
 5832SOL     OW29131   2.309   0.468   4.489  0.8643 -0.5626 -1.0230
 5832SOL    HW129132   2.311   0.459   4.394 -0.2195  0.1734 -1.1110
 5832SOL    HW229133   2.404   0.483   4.493  0.3760  1.8995  1.1962
 5833SOL     OW29134   4.390   0.341   5.886  0.0447  0.6995 -0.2375
 5833SOL    HW129135   4.429   0.259   5.856  1.5454  2.1276 -2.1953
 5833SOL    HW229136   4.465   0.400   5.883 -0.2605  1.0982 -0.0104
 5834SOL     OW29137   0.778   4.376   1.810  0.0214  0.8354  0.1000
 5834SOL    HW129138   0.826   4.445   1.764  1.4535  0.2521  0.7209
 5834SOL    HW229139   0.689   4.409   1.821  0.3219  1.8252 -0.3851
 5835SOL     OW29140   1.106   1.057   2.999  0.1350 -0.0418  0.0740
 5835SOL    HW129141   1.023   1.101   2.979  0.0061 -0.3863 -0.1470
 5835SOL    HW229142   1.080   0.973   2.961 -0.6888  0.0233  0.4999
 5836SOL     OW29143   0.509   1.288   6.293 -0.2466  0.3594  0.2190
 5836SOL    HW129144   0.542   1.199   6.308  1.1392  0.7303 -0.5850
 5836SOL    HW229145   0.590   1.338   6.302 -1.4757  2.3956 -0.0337
 5837SOL     OW29146   2.945   3.749   4.062  0.3567  0.4182 -1.0052
 5837SOL    HW129147   2.916   3.665   4.097  0.1529  0.9658  0.1550
 5837SOL    HW229148   3.028   3.728   4.019 -0.2248 -3.3849 -0.2348
 5838SOL     OW29149   3.462   4.478  14.620  0.3425 -0.5963 -0.2689
 5838SOL    HW129150   3.429   4.552  14.568  1.3183 -0.6917 -1.0238
 5838SOL    HW229151   3.386   4.442  14.665 -1.6519 -0.8303 -3.8062
 5839SOL     OW29152   3.223   1.631   3.143 -0.0314 -0.0668  0.5541
 5839SOL    HW129153   3.241   1.714   3.188  0.0746  0.2050  0.0059
 5839SOL    HW229154   3.142   1.604   3.186  0.5660 -0.5933  1.3451
 5840SOL     OW29155   4.394   2.280   3.982  0.4828 -0.3160  0.4838
 5840SOL    HW129156   4.418   2.323   3.900  0.2197  0.4595  0.8070
 5840SOL    HW229157   4.403   2.351   4.046  1.0943 -1.9722  2.2462
 5841SOL     OW29158   4.544   3.953   5.506  0.7706 -0.2044 -0.7620
 5841SOL    HW129159   4.579   3.967   5.418  0.7606 -0.8176 -0.8619
 5841SOL    HW229160   4.486   3.879   5.487  1.5856 -0.9777 -0.2632
 5842SOL     OW29161   0.413   3.894   2.793  0.2400  0.1971 -0.0159
 5842SOL    HW129162   0.467   3.824   2.755  0.0742 -0.0002  0.1103
 5842SOL    HW229163   0.355   3.846   2.852  1.7541  0.1913  1.4533
 5843SOL     OW29164   2.723   4.366   1.037 -0.8714 -0.2268  0.2434
 5843SOL    HW129165   2.810   4.352   1.074 -1.2373 -0.4242  1.0363
 5843SOL    HW229166   2.665   4.353   1.112 -0.8026 -1.0950  0.1483
 5844SOL     OW29167   0.661   0.331   8.778  0.0276  0.1000 -0.2473
 5844SOL    HW129168   0.661   0.238   8.752  2.3258  0.3088 -0.9554
 5844SOL    HW229169   0.736   0.332   8.838 -0.8655 -1.5534  0.8932
 5845SOL     OW29170   0.015   1.132   3.757 -0.5982 -0.8689  0.1076
 5845SOL    HW129171   0.076   1.072   3.714 -3.4150 -2.7190 -1.3113
 5845SOL    HW229172   4.696   1.072   3.804  0.8356 -2.1708  0.2042
 5846SOL     OW29173   2.438   0.972   1.051  0.4402  0.3860  0.3392
 5846SOL    HW129174   2.472   1.008   1.133 -0.3737  0.8407  0.4788
 5846SOL    HW229175   2.344   0.985   1.057  0.4633  0.1303  1.1980
 5847SOL     OW29176   3.204   2.293   1.302  0.2642 -0.5595 -0.6846
 5847SOL    HW129177   3.109   2.293   1.306  0.3147  0.2331  0.4206
 5847SOL    HW229178   3.235   2.254   1.220  0.7575 -0.7125 -0.4253
 5848SOL     OW29179   0.516   3.089   8.680  0.6608 -0.1513  0.1212
 5848SOL    HW129180   0.551   3.011   8.724 -2.4612 -0.7556  1.5523
 5848SOL    HW229181   0.583   3.152   8.708  0.0338  0.8334 -0.6220
 5849SOL     OW29182   4.585   3.434   3.127 -0.3903 -0.0166  0.6460
 5849SOL    HW129183   4.598   3.343   3.155 -1.4089 -0.6309 -0.8830
 5849SOL    HW229184   4.577   3.467   3.217 -2.1230  0.6336  0.2535
 5850SOL     OW29185   2.434   1.490  12.005  0.6612 -0.4659 -0.2300
 5850SOL    HW129186   2.468   1.507  11.918  1.7893 -0.0923  0.2814
 5850SOL    HW229187   2.507   1.440  12.043  1.9641  2.1613  0.7165
 5851SOL     OW29188   2.519   1.742   0.330  0.0895  0.4792  0.2229
 5851SOL    HW129189   2.518   1.822   0.382  0.7231  0.5591  0.1138
 5851SOL    HW229190   2.535   1.676   0.397  1.6662  1.0816  0.4537
 5852SOL     OW29191   0.641   1.230   5.317  0.6795  0.5508 -0.0687
 5852SOL    HW129192   0.575   1.228   5.386  1.4914 -1.9939  0.6249
 5852SOL    HW229193   0.696   1.306   5.339  1.8408  0.1773 -1.6356
 5853SOL     OW29194   3.037   1.456  10.971 -0.5325  0.3912  0.2831
 5853SOL    HW129195   3.115   1.401  10.970 -0.9203 -0.0940 -2.0735
 5853SOL    HW229196   3.070   1.545  10.966 -2.7458  1.2165  0.0962
 5854SOL     OW29197   1.593   4.448   6.450 -0.2737  0.1250  0.0755
 5854SOL    HW129198   1.562   4.377   6.393 -0.5711  0.8303 -0.6337
 5854SOL    HW229199   1.659   4.400   6.500 -0.4465  0.3881  0.5525
 5855SOL     OW29200   2.112   1.054   3.764  0.6624 -0.3271 -0.4197
 5855SOL    HW129201   2.069   1.138   3.781 -0.3992 -0.9596 -0.0073
 5855SOL    HW229202   2.116   1.008   3.847  0.2319  2.6243  1.2525
 5856SOL     OW29203   2.537   1.182  13.794 -0.2962  0.3841 -0.5217
 5856SOL    HW129204   2.530   1.273  13.765 -1.5192 -0.1137 -1.7803
 5856SOL    HW229205   2.474   1.145  13.732 -1.1982  0.3904  0.3851
 5857SOL     OW29206   2.224   1.553   3.779 -0.3091  0.5741  0.0168
 5857SOL    HW129207   2.297   1.609   3.753 -0.4613  0.8632  0.2106
 5857SOL    HW229208   2.228   1.571   3.873  3.2722  2.2019 -0.4421
 5858SOL     OW29209   3.490   3.383  10.054  0.4865  0.1377  0.2212
 5858SOL    HW129210   3.548   3.452  10.022  0.1407  0.8062  1.0259
 5858SOL    HW229211   3.543   3.332  10.115 -1.6880  0.3381  2.2703
 5859SOL     OW29212   3.015   2.506   9.240 -0.6098 -0.1851  0.0808
 5859SOL    HW129213   3.036   2.572   9.307  1.4971  0.1042 -0.8942
 5859SOL    HW229214   2.925   2.476   9.251 -0.0898 -2.0288 -0.7751
 5860SOL     OW29215   2.889   1.738   8.971  0.7220 -0.0652  0.4402
 5860SOL    HW129216   2.893   1.730   9.066  1.8786  0.1133  0.4078
 5860SOL    HW229217   2.954   1.808   8.968  1.4360 -0.6897  1.4815
 5861SOL     OW29218   0.567   3.065   3.497 -0.0899 -0.9183 -0.5115
 5861SOL    HW129219   0.592   3.035   3.409  0.1727 -0.4757 -0.5889
 5861SOL    HW229220   0.505   2.998   3.525  0.4393 -0.9851  0.4974
 5862SOL     OW29221   0.804   4.120  10.420  0.2048  0.7601 -0.4294
 5862SOL    HW129222   0.847   4.107  10.336 -0.6091 -0.3242 -0.6796
 5862SOL    HW229223   0.792   4.028  10.443  1.6370  0.9850  1.2447
 5863SOL     OW29224   1.743   1.049  11.315 -0.7499 -0.0960 -0.3086
 5863SOL    HW129225   1.672   1.062  11.379  0.7076 -1.7460  1.6226
 5863SOL    HW229226   1.794   0.980  11.356 -0.7504 -0.8185 -1.5460
 5864SOL     OW29227   3.843   0.427  11.447 -0.2450 -0.0270  0.3802
 5864SOL    HW129228   3.799   0.369  11.510  0.9186  1.3609  2.5036
 5864SOL    HW229229   3.905   0.476  11.502 -0.2362 -1.7910  1.9449
 5865SOL     OW29230   3.368   4.094   5.100  0.4002 -0.4067 -0.5010
 5865SOL    HW129231   3.433   4.145   5.051  0.2381  0.5475  0.2610
 5865SOL    HW229232   3.317   4.044   5.037  0.7547  0.1643 -1.2504
 5866SOL     OW29233   0.495   1.886   7.050  0.7980 -0.3657 -0.3269
 5866SOL    HW129234   0.476   1.851   7.137  1.7770  2.1435  0.8852
 5866SOL    HW229235   0.589   1.868   7.049  0.7917 -0.3598 -1.0189
 5867SOL     OW29236   2.523   4.040   2.190  0.1909  0.1746  0.2530
 5867SOL    HW129237   2.445   4.057   2.243  0.8188  2.1231  0.5336
 5867SOL    HW229238   2.507   3.945   2.183 -1.5921  0.5623 -0.9216
 5868SOL     OW29239   0.506   2.514   5.592  0.2931  1.1851  0.8456
 5868SOL    HW129240   0.527   2.605   5.613 -0.0701  1.4900 -0.0751
 5868SOL    HW229241   0.413   2.506   5.610 -0.2375  0.0029 -2.4192
 5869SOL     OW29242   3.878   0.732   1.922  0.0354 -0.1684  0.2547
 5869SOL    HW129243   3.821   0.765   1.991 -2.5867 -1.6079 -1.2100
 5869SOL    HW229244   3.808   0.685   1.877 -0.1932 -0.8004  1.2668
 5870SOL     OW29245   0.451   1.490   5.190  0.0450  0.5332  0.5173
 5870SOL    HW129246   0.527   1.447   5.150 -0.8375 -1.4909  0.9897
 5870SOL    HW229247   0.442   1.572   5.141  1.4012  0.6587  0.4817
 5871SOL     OW29248   2.663   2.223  13.500 -0.2116  0.1375 -0.1693
 5871SOL    HW129249   2.621   2.296  13.456  1.6103 -0.1489 -2.3795
 5871SOL    HW229250   2.588   2.188  13.549  1.2238 -0.2792  1.7601
 5872SOL     OW29251   0.075   0.364   7.697 -0.4819 -0.0449 -0.5570
 5872SOL    HW129252   0.092   0.422   7.771 -0.7186  1.4894 -1.7251
 5872SOL    HW229253   0.033   0.290   7.742  2.4046 -1.9068 -0.9649
 5873SOL     OW29254   2.894   4.010   7.068 -0.2602 -0.8989  0.2642
 5873SOL    HW129255   2.979   4.052   7.077 -0.7946 -0.0609  1.2831
 5873SOL    HW229256   2.873   4.009   7.161  4.2756 -1.0746  1.2810
 5874SOL     OW29257   1.748   0.338   3.428  0.6029 -0.2816 -0.2443
 5874SOL    HW129258   1.730   0.432   3.436 -1.2385 -0.7060  0.5825
 5874SOL    HW229259   1.808   0.324   3.501 -0.0926 -0.7195  0.2371
 5875SOL     OW29260   0.727   3.432   9.073  0.3837  0.0093 -0.5845
 5875SOL    HW129261   0.693   3.346   9.049 -2.8402  1.5985 -1.7073
 5875SOL    HW229262   0.658   3.498   9.078  0.7748  0.2886  1.1572
 5876SOL     OW29263   0.594   0.533  16.210 -0.3137 -0.3576 -0.0510
 5876SOL    HW129264   0.505   0.501  16.229  0.0719 -1.3763  0.0285
 5876SOL    HW229265   0.630   0.530  16.299  0.1648  2.3552 -0.1477
 5877SOL     OW29266   3.103   4.439  11.325  0.0937  0.1507 -0.1725
 5877SOL    HW129267   3.057   4.384  11.261 -0.1422  0.5286 -0.3240
 5877SOL    HW229268   3.120   4.376  11.395 -0.0595 -1.2291 -1.3716
 5878SOL     OW29269   4.472   4.201   6.429 -0.6569  0.1867 -0.1188
 5878SOL    HW129270   4.400   4.206   6.492 -2.4993 -1.6696 -2.0994
 5878SOL    HW229271   4.520   4.282   6.446 -2.6114  1.5167 -1.1189
 5879SOL     OW29272   3.239   1.339   3.182 -0.1298  0.0243 -0.0818
 5879SOL    HW129273   3.305   1.330   3.113  0.2618 -0.9589  0.4204
 5879SOL    HW229274   3.160   1.310   3.137 -1.2775 -0.4815  2.2647
 5880SOL     OW29275   1.068   2.522  14.567 -0.4219  1.0875 -1.0626
 5880SOL    HW129276   1.033   2.582  14.633 -1.3981  0.3304 -0.8921
 5880SOL    HW229277   1.050   2.565  14.484 -1.3132  0.3076 -1.2597
 5881SOL     OW29278   1.869   4.678   4.658 -0.3420 -0.2301  0.4001
 5881SOL    HW129279   1.808   4.609   4.635  0.4647 -0.3643 -1.3298
 5881SOL    HW229280   1.938   4.623   4.696 -1.2511 -2.6599 -1.5562
 5882SOL     OW29281   3.090   0.430   4.975 -0.0508 -0.2910 -0.5335
 5882SOL    HW129282   3.127   0.354   4.931 -1.0928 -0.9071 -0.3320
 5882SOL    HW229283   3.132   0.443   5.061 -3.1594  2.1056  0.5991
 5883SOL     OW29284   1.584   2.702   4.741 -0.4031  0.4246 -0.2626
 5883SOL    HW129285   1.560   2.762   4.670  1.9723 -0.7913 -2.0796
 5883SOL    HW229286   1.672   2.695   4.705  0.4869  1.4901  1.6943
 5884SOL     OW29287   2.397   2.533  12.395  0.2018 -0.0556 -0.4422
 5884SOL    HW129288   2.431   2.443  12.390  2.5533  0.9164 -2.3867
 5884SOL    HW229289   2.476   2.570  12.356  0.8351  0.8415  1.6966
 5885SOL     OW29290   1.435   3.665   7.690  0.1000 -0.8925 -0.0649
 5885SOL    HW129291   1.397   3.578   7.707  1.0773 -0.7918  2.7520
 5885SOL    HW229292   1.368   3.722   7.728 -1.5775 -1.4489 -2.1757
 5886SOL     OW29293   4.228   0.496   5.138  0.0604 -0.8291  0.6122
 5886SOL    HW129294   4.142   0.458   5.122 -1.0203  0.4320  3.4295
 5886SOL    HW229295   4.214   0.562   5.206  1.3969  0.1681 -0.0827
 5887SOL     OW29296   2.685   2.109   7.298  0.0920 -0.2762 -0.3087
 5887SOL    HW129297   2.665   2.086   7.208 -1.3671  0.2271 -0.1091
 5887SOL    HW229298   2.597   2.117   7.334  0.5335 -4.7154  1.8103
 5888SOL     OW29299   3.154   3.026   2.126  0.0611  0.2225  0.2017
 5888SOL    HW129300   3.170   3.018   2.032  0.4476 -2.5208  0.4808
 5888SOL    HW229301   3.059   3.034   2.121  0.1828  2.1784  1.0281
 5889SOL     OW29302   3.075   2.016   1.837 -0.0690  0.7886  0.1441
 5889SOL    HW129303   3.054   2.031   1.745 -2.2609 -1.1988  0.3269
 5889SOL    HW229304   3.135   1.942   1.839 -0.7044  0.2289 -1.3913
 5890SOL     OW29305   3.290   4.222   8.916 -0.0578 -0.4863  0.9449
 5890SOL    HW129306   3.256   4.161   8.851  2.4646  1.6403 -2.3675
 5890SOL    HW229307   3.213   4.243   8.970  1.7137  0.3579  3.1462
 5891SOL     OW29308   1.415   4.540  14.053 -0.1351  0.4379  0.2353
 5891SOL    HW129309   1.506   4.510  14.050  1.1373  4.3484 -1.0648
 5891SOL    HW229310   1.410   4.614  13.992 -0.4484  0.1949 -0.0323
 5892SOL     OW29311   2.577   0.437   4.611 -0.0671 -0.0913  0.3537
 5892SOL    HW129312   2.540   0.380   4.679 -0.1745  0.2815  0.6041
 5892SOL    HW229313   2.647   0.384   4.573  0.8539  2.0147 -0.8614
 5893SOL     OW29314   1.120   4.049   4.335  0.4565 -0.2548  0.1541
 5893SOL    HW129315   1.072   3.996   4.271  1.1139 -0.4265 -0.1971
 5893SOL    HW229316   1.189   4.088   4.281 -1.2517 -0.1619 -1.9920
 5894SOL     OW29317   4.430   1.268   5.438 -0.1292 -0.0541  0.3282
 5894SOL    HW129318   4.495   1.281   5.369  0.1397 -0.9019  0.4226
 5894SOL    HW229319   4.396   1.358   5.435  1.1418  0.3756 -1.4747
 5895SOL     OW29320   0.931   2.467   7.430  0.0926 -0.2217 -0.3757
 5895SOL    HW129321   0.998   2.425   7.376 -0.9259 -3.6733  0.9899
 5895SOL    HW229322   0.858   2.404   7.428  1.8774 -2.3081  0.1525
 5896SOL     OW29323   0.396   1.312  12.586  0.1412 -0.7002 -0.7945
 5896SOL    HW129324   0.376   1.369  12.661  1.9660 -0.2595 -0.6586
 5896SOL    HW229325   0.348   1.234  12.612 -2.2977  0.5943 -1.3836
 5897SOL     OW29326   0.073   4.219   0.488  0.8046  0.1208  0.0356
 5897SOL    HW129327   0.137   4.239   0.557  0.9036  0.6717 -0.2138
 5897SOL    HW229328   0.010   4.166   0.536 -0.9448  0.1982 -2.1845
 5898SOL     OW29329   0.591   1.087   7.458  0.4988 -0.3044  0.0486
 5898SOL    HW129330   0.561   1.134   7.380  1.3452  0.1079 -0.0381
 5898SOL    HW229331   0.513   1.063   7.507  1.3263  0.5523  1.8268
 5899SOL     OW29332   1.896   4.143   8.330  0.7617  0.2171 -0.3344
 5899SOL    HW129333   1.845   4.071   8.365 -0.0500 -0.1911 -2.3551
 5899SOL    HW229334   1.857   4.220   8.372 -2.5545 -1.7512  0.1640
 5900SOL     OW29335   0.602   0.021   9.737  0.1556  0.6275 -0.6801
 5900SOL    HW129336   0.552   0.100   9.711 -0.3259  0.5423 -0.0137
 5900SOL    HW229337   0.537   4.693   9.758  0.9389 -0.0914 -0.5643
 5901SOL     OW29338   3.932   1.686   4.218  0.2944  0.0299 -0.7449
 5901SOL    HW129339   3.977   1.608   4.185  0.6962  0.0526 -0.2562
 5901SOL    HW229340   3.843   1.653   4.229 -0.3732  2.1407  0.0843
 5902SOL     OW29341   1.269   1.280   7.947  0.2347 -0.3634 -0.1235
 5902SOL    HW129342   1.318   1.201   7.927  0.0695 -0.3455 -0.5926
 5902SOL    HW229343   1.236   1.283   7.857  1.1034  1.8355 -0.3654
 5903SOL     OW29344   2.180   0.502   8.183 -0.1902  0.0806  0.2364
 5903SOL    HW129345   2.189   0.464   8.270 -1.8313  0.8889  0.7344
 5903SOL    HW229346   2.270   0.495   8.150 -0.2521 -2.1936  0.5506
 5904SOL     OW29347   1.428   2.111   7.207 -0.2299 -0.1547 -0.6731
 5904SOL    HW129348   1.469   2.069   7.131  0.2464 -1.6169  0.3809
 5904SOL    HW229349   1.419   2.199   7.171 -0.1150  0.6099  1.1519
 5905SOL     OW29350   3.486   1.857   9.296  0.0642  0.2337  0.5337
 5905SOL    HW129351   3.567   1.806   9.292  0.2621  0.8093 -2.7911
 5905SOL    HW229352   3.487   1.888   9.206 -1.0215 -2.4380 -0.3930
 5906SOL     OW29353   1.356   4.664   1.973 -0.6264 -0.1313  0.1146
 5906SOL    HW129354   1.405   4.690   2.051  1.1741  0.8942 -1.3752
 5906SOL    HW229355   1.291   4.608   2.015 -1.4080 -0.6120 -1.7164
 5907SOL     OW29356   0.704   1.430   7.254 -0.1821 -0.6835 -0.2207
 5907SOL    HW129357   0.632   1.386   7.299 -1.4803 -0.2704 -1.9292
 5907SOL    HW229358   0.712   1.507   7.310  1.3835 -0.9000 -0.1328
 5908SOL     OW29359   4.496   2.177   4.872 -0.8062 -0.5383  0.1008
 5908SOL    HW129360   4.435   2.251   4.876  0.5578  0.5743  0.4832
 5908SOL    HW229361   4.452   2.111   4.819 -1.9293 -0.2457  0.6751
 5909SOL     OW29362   1.154   2.916  16.815  0.1820 -0.1482  0.4053
 5909SOL    HW129363   1.128   2.827  16.790 -0.7474  0.4074 -0.6356
 5909SOL    HW229364   1.220   2.935  16.748 -3.0054  2.2142 -2.0929
 5910SOL     OW29365   0.082   1.106   9.587  0.2474 -0.0619  0.0051
 5910SOL    HW129366   0.033   1.113   9.669 -4.9796  0.1785 -3.1985
 5910SOL    HW229367   0.161   1.160   9.594 -0.9669  1.9385 -1.8679
 5911SOL     OW29368   0.907   4.176   4.721  0.3162 -0.0255 -1.0113
 5911SOL    HW129369   0.912   4.135   4.634  0.0123  2.2052 -2.0718
 5911SOL    HW229370   0.976   4.243   4.717 -0.4342  0.8820  1.7276
 5912SOL     OW29371   1.004   2.207   4.539 -0.3029  0.0944  0.2269
 5912SOL    HW129372   1.026   2.238   4.451 -0.3409 -1.4052 -0.3229
 5912SOL    HW229373   0.971   2.289   4.575  1.7588  1.7331 -1.6299
 5913SOL     OW29374   4.155   1.316  17.190  0.1627 -0.0275 -0.2868
 5913SOL    HW129375   4.110   1.368  17.257  1.5633  0.5520  0.2137
 5913SOL    HW229376   4.087   1.269  17.142 -2.8475  0.2122  3.8301
 5914SOL     OW29377   1.338   2.440   1.377 -0.2294 -0.1878  0.5705
 5914SOL    HW129378   1.298   2.386   1.309  1.5835 -1.8866  0.8431
 5914SOL    HW229379   1.320   2.530   1.351  2.2280  0.1886  0.2390
 5915SOL     OW29380   0.156   1.795   7.775 -0.5680  0.2886  0.3614
 5915SOL    HW129381   0.127   1.850   7.848  1.2786  0.6847  0.8188
 5915SOL    HW229382   0.252   1.796   7.780 -0.5905  1.2776  0.6939
 5916SOL     OW29383   1.913   2.759  17.192  0.3606  0.4959  0.1396
 5916SOL    HW129384   1.954   2.802  17.117 -1.6132 -0.6487 -1.6002
 5916SOL    HW229385   1.964   2.805  17.259 -1.3707  0.5448  1.4135
 5917SOL     OW29386   0.526   1.515  16.279 -0.3123  0.2945  0.2740
 5917SOL    HW129387   0.454   1.550  16.227  0.5610  1.1949 -0.3334
 5917SOL    HW229388   0.612   1.532  16.240 -0.7957  0.5622 -0.6887
 5918SOL     OW29389   1.996   4.484   8.296 -0.4621  0.1598  0.2142
 5918SOL    HW129390   1.949   4.435   8.364 -1.0938 -1.0881 -1.1398
 5918SOL    HW229391   2.010   4.569   8.339  1.6152 -0.3205  0.4936
 5919SOL     OW29392   1.682   1.189   0.233  0.1380  0.1612 -0.2756
 5919SOL    HW129393   1.713   1.277   0.257  0.1626 -0.4053  1.7728
 5919SOL    HW229394   1.588   1.190   0.249  0.6176  1.2995  2.4363
 5920SOL     OW29395   1.095   2.900   3.995  0.2084 -1.1596  0.3057
 5920SOL    HW129396   1.059   2.987   3.979  0.7957 -0.8985  0.4435
 5920SOL    HW229397   1.093   2.864   3.906  0.6322 -2.5029  0.8401
 5921SOL     OW29398   0.176   4.338  14.728 -0.6484 -0.3388  0.2161
 5921SOL    HW129399   0.262   4.378  14.718  0.3732 -1.9982  2.5213
 5921SOL    HW229400   0.116   4.366  14.658 -1.3587 -2.0004  0.1809
 5922SOL     OW29401   1.150   2.744   6.702  0.3659 -0.3928 -0.0388
 5922SOL    HW129402   1.090   2.765   6.773 -0.0693  1.8006 -1.0445
 5922SOL    HW229403   1.198   2.825   6.682  1.5690 -0.8741  0.8573
 5923SOL     OW29404   3.859   3.260   7.407 -0.1526 -0.1409  0.0707
 5923SOL    HW129405   3.886   3.350   7.392 -0.8792 -0.1151 -1.1057
 5923SOL    HW229406   3.777   3.271   7.455 -0.4721 -0.5025 -0.3869
 5924SOL     OW29407   2.555   0.602   5.687  0.2921 -0.2368 -0.3938
 5924SOL    HW129408   2.586   0.680   5.733  0.7211  0.3019 -1.5800
 5924SOL    HW229409   2.629   0.602   5.625  0.7605 -0.4152  0.1663
 5925SOL     OW29410   4.174   2.760   2.699  0.5995 -0.4077  0.2699
 5925SOL    HW129411   4.080   2.747   2.714  0.3894  0.5001 -0.2253
 5925SOL    HW229412   4.185   2.843   2.745 -0.6977  0.3330 -0.7453
 5926SOL     OW29413   1.739   1.343   3.393  0.3332 -0.1463  0.3863
 5926SOL    HW129414   1.800   1.282   3.436  1.1313  0.8245  0.6447
 5926SOL    HW229415   1.661   1.324   3.444  0.4848  0.6934  0.9321
 5927SOL     OW29416   0.931   2.673  16.461 -0.1018  0.3337  0.2542
 5927SOL    HW129417   0.942   2.674  16.365 -1.2058  0.7334  0.1302
 5927SOL    HW229418   0.837   2.683  16.470 -0.1819  0.6632 -0.9055
 5928SOL     OW29419   3.767   4.306   5.585  0.2108  0.4089 -0.2262
 5928SOL    HW129420   3.854   4.311   5.624  0.8264  1.0644 -1.6840
 5928SOL    HW229421   3.756   4.211   5.573  0.4468  0.6281 -2.0578
 5929SOL     OW29422   0.605   0.288   5.934 -0.6031 -0.0114  0.0209
 5929SOL    HW129423   0.523   0.297   5.884 -0.5505 -0.8285 -0.2111
 5929SOL    HW229424   0.574   0.247   6.015 -1.1409 -1.0860 -0.7237
 5930SOL     OW29425   0.671   0.763   7.626  0.1482  0.0197  0.1604
 5930SOL    HW129426   0.719   0.706   7.566 -0.2125  1.8466 -1.8827
 5930SOL    HW229427   0.582   0.732   7.614  0.7758 -1.4901 -0.5403
 5931SOL     OW29428   3.922   0.757   7.850  0.3015 -0.0660 -0.0138
 5931SOL    HW129429   3.970   0.691   7.800  2.2051  1.4096 -0.1393
 5931SOL    HW229430   3.996   0.788   7.902 -0.4064  2.4585 -0.5211
 5932SOL     OW29431   0.453   3.363  16.695  0.0916 -0.2019 -0.2693
 5932SOL    HW129432   0.393   3.381  16.768 -0.7217  0.9691 -1.2241
 5932SOL    HW229433   0.399   3.307  16.639 -2.7798  1.2934  0.9893
 5933SOL     OW29434   3.116   1.026   6.884  0.2429  0.8405  0.4769
 5933SOL    HW129435   3.025   0.999   6.869  0.8346 -1.5756  1.1446
 5933SOL    HW229436   3.096   1.118   6.871  1.1636  0.8902 -0.5185
 5934SOL     OW29437   2.507   3.201  15.142  0.1272 -0.1968  0.0650
 5934SOL    HW129438   2.432   3.212  15.200 -1.3059  2.2065 -2.2476
 5934SOL    HW229439   2.523   3.294  15.124  0.2981 -0.7276 -2.5907
 5935SOL     OW29440   0.204   3.628  16.505  0.2472  0.1258 -0.2190
 5935SOL    HW129441   0.245   3.657  16.425  1.7945  2.6791  1.5215
 5935SOL    HW229442   0.238   3.696  16.564  0.8440 -1.1532  0.9216
 5936SOL     OW29443   4.056   2.946   6.703 -0.6010 -0.0663 -1.0738
 5936SOL    HW129444   4.089   2.875   6.648  0.6109  0.0474 -0.5150
 5936SOL    HW229445   3.970   2.959   6.666 -0.0979  0.9253 -1.8773
 5937SOL     OW29446   2.045   3.998   6.709 -0.2773  0.4202 -0.1642
 5937SOL    HW129447   2.093   4.071   6.748  0.2091 -0.2657  0.5264
 5937SOL    HW229448   1.957   4.034   6.705 -0.1843  0.6450 -0.1399
 5938SOL     OW29449   3.371   1.260   9.402 -0.1807 -0.0353  0.2894
 5938SOL    HW129450   3.343   1.343   9.365 -1.2425 -1.5751 -2.3283
 5938SOL    HW229451   3.375   1.209   9.321  2.7909 -0.8936  0.9459
 5939SOL     OW29452   2.546   4.261   7.264 -0.4092 -0.4589 -0.2819
 5939SOL    HW129453   2.600   4.217   7.329 -0.0219  0.8289  0.2711
 5939SOL    HW229454   2.537   4.190   7.200  0.3587  0.0613 -0.9647
 5940SOL     OW29455   3.691   4.385  16.011  0.0418  0.9288  0.2202
 5940SOL    HW129456   3.718   4.293  16.017 -2.7092  0.1487  0.6946
 5940SOL    HW229457   3.697   4.397  15.916  0.3087 -0.6606  0.0387
 5941SOL     OW29458   3.261   3.048  11.764  0.5574  0.2717 -0.5522
 5941SOL    HW129459   3.246   3.051  11.858  2.1892 -0.4016 -0.2693
 5941SOL    HW229460   3.313   3.128  11.753  2.4636 -0.7512  1.0820
 5942SOL     OW29461   0.816   3.654   6.244  0.1622 -0.4255 -0.3164
 5942SOL    HW129462   0.795   3.712   6.317 -0.7523  0.0902 -0.9859
 5942SOL    HW229463   0.846   3.712   6.174 -0.7153  0.9170  0.4220
 5943SOL     OW29464   0.962   0.339   2.857 -0.2666 -0.2421 -0.3035
 5943SOL    HW129465   0.934   0.336   2.948  1.5512  0.4119  0.2683
 5943SOL    HW229466   1.051   0.305   2.863 -0.8782 -1.7023  0.5286
 5944SOL     OW29467   3.610   4.402   8.101  0.1959 -0.4467 -0.2014
 5944SOL    HW129468   3.673   4.334   8.076 -1.3957 -1.0185 -2.6815
 5944SOL    HW229469   3.603   4.456   8.023  1.5747 -0.1769 -0.1261
 5945SOL     OW29470   3.108   4.671   2.826 -0.2684 -0.2915  0.2612
 5945SOL    HW129471   3.139   4.682   2.736  1.2571 -1.2205  0.6810
 5945SOL    HW229472   3.043   0.002   2.835 -2.0426 -1.4226 -4.1286
 5946SOL     OW29473   3.612   4.487   3.583 -0.2509  0.6860  0.2132
 5946SOL    HW129474   3.571   4.561   3.538 -2.1128 -1.0432 -0.9367
 5946SOL    HW229475   3.551   4.484   3.657 -1.4965  1.2900 -0.8001
 5947SOL     OW29476   2.057   2.221   9.258  0.0921 -0.6856  0.0705
 5947SOL    HW129477   2.039   2.127   9.262 -0.3573 -0.5124  1.9035
 5947SOL    HW229478   2.078   2.230   9.351  0.8243 -2.3441  0.0617
 5948SOL     OW29479   3.664   3.074  15.905 -0.1247 -0.3160  0.5577
 5948SOL    HW129480   3.668   3.034  15.818 -0.2580 -1.4316  1.0744
 5948SOL    HW229481   3.654   3.167  15.883  1.2213 -0.8011 -2.1974
 5949SOL     OW29482   3.544   2.638  15.074 -0.3159  0.7072 -0.2050
 5949SOL    HW129483   3.464   2.655  15.124 -0.2907  0.6163 -0.1321
 5949SOL    HW229484   3.607   2.702  15.108  0.0530  2.3064 -3.9618
 5950SOL     OW29485   2.256   3.543   8.629 -0.2138  0.4282  0.1509
 5950SOL    HW129486   2.197   3.617   8.642  0.3297  0.6248  1.4673
 5950SOL    HW229487   2.192   3.475   8.607  0.8444 -0.2295 -0.8955
 5951SOL     OW29488   3.446   4.608   4.944  0.1008  0.7498  0.7163
 5951SOL    HW129489   3.409   4.696   4.937 -0.9126  0.4330  1.9217
 5951SOL    HW229490   3.390   4.562   5.007 -0.1382 -0.4570 -0.3883
 5952SOL     OW29491   4.239   1.894  16.340 -0.6787  0.3835  0.0142
 5952SOL    HW129492   4.162   1.914  16.286  0.0694  1.3103 -0.7073
 5952SOL    HW229493   4.310   1.888  16.275 -0.4835 -0.6676  0.3328
 5953SOL     OW29494   0.144   2.350   2.742 -0.5140 -0.3057  0.0624
 5953SOL    HW129495   0.160   2.410   2.668 -2.0622 -0.5095 -0.4421
 5953SOL    HW229496   0.061   2.384   2.777 -2.8465 -2.1293 -3.6276
 5954SOL     OW29497   4.434   3.653   6.850  0.0454  0.4561 -0.5373
 5954SOL    HW129498   4.469   3.701   6.925  0.2520  0.5741 -0.7097
 5954SOL    HW229499   4.404   3.571   6.889 -1.0751  0.4915 -1.3002
 5955SOL     OW29500   0.000   0.467   1.262  0.3711  0.9869 -0.2760
 5955SOL    HW129501   0.038   0.380   1.269  0.7942  1.2038  0.1409
 5955SOL    HW229502   4.674   0.464   1.192 -1.2586  2.8539  1.1610
 5956SOL     OW29503   0.278   0.524   3.346 -0.8402 -0.1623 -0.1280
 5956SOL    HW129504   0.196   0.554   3.305 -1.6765  2.2706  3.3443
 5956SOL    HW229505   0.246   0.527   3.436  0.5610  0.5158  0.3428
 5957SOL     OW29506   3.638   3.771   8.465  0.1797  0.9497 -0.5299
 5957SOL    HW129507   3.722   3.750   8.507 -0.3011  0.7359  0.3387
 5957SOL    HW229508   3.637   3.685   8.423  1.9343  0.0075  1.2908
 5958SOL     OW29509   0.946   4.516   6.212  0.0098 -0.5877  0.6781
 5958SOL    HW129510   0.871   4.570   6.237 -0.0591  0.6371 -2.1559
 5958SOL    HW229511   0.908   4.428   6.217 -1.6300  0.0793  0.2437
 5959SOL     OW29512   4.581   4.247   5.174 -0.3765  0.1123  0.4313
 5959SOL    HW129513   4.610   4.164   5.212  0.2270 -0.0466 -0.3650
 5959SOL    HW229514   4.531   4.289   5.244 -0.9820 -0.8550  0.5854
 5960SOL     OW29515   4.569   2.163  12.966  0.1040 -0.4974 -0.1505
 5960SOL    HW129516   4.643   2.189  12.910  2.1932  1.5787  3.5418
 5960SOL    HW229517   4.575   2.068  12.959 -1.8022 -0.5540 -1.0897
 5961SOL     OW29518   1.381   3.419   5.713  0.0055  0.7623 -0.4841
 5961SOL    HW129519   1.412   3.433   5.802 -1.1953 -2.8595  0.5259
 5961SOL    HW229520   1.449   3.467   5.665  0.5423 -0.0575 -0.5542
 5962SOL     OW29521   3.397   2.377   7.136  0.7038  0.1113  0.2337
 5962SOL    HW129522   3.459   2.313   7.171  0.0667 -0.3422  0.5199
 5962SOL    HW229523   3.319   2.336   7.172  0.9279  0.3327  0.9637
 5963SOL     OW29524   1.925   0.584   4.733  0.4053  0.0947  0.7148
 5963SOL    HW129525   1.922   0.490   4.750  0.1534  0.2572  1.5576
 5963SOL    HW229526   1.999   0.618   4.784  1.2471  0.1695 -0.5605
 5964SOL     OW29527   2.514   1.706  10.108 -0.6646 -0.0803 -0.1294
 5964SOL    HW129528   2.460   1.735  10.034  0.6639 -0.9789 -1.4652
 5964SOL    HW229529   2.581   1.661  10.056  0.8145  0.7303  1.1001
 5965SOL     OW29530   0.027   1.176  13.648 -0.7450  0.6377  0.1047
 5965SOL    HW129531   0.062   1.265  13.640  0.5168  0.1910  0.6426
 5965SOL    HW229532   4.686   1.200  13.694 -2.0246 -1.2713 -1.1402
 5966SOL     OW29533   4.561   1.537   6.729  0.7210 -0.0628 -0.0979
 5966SOL    HW129534   4.502   1.468   6.757  0.2733 -0.0685 -1.0430
 5966SOL    HW229535   4.509   1.574   6.658  1.0769 -0.6413 -0.6651
 5967SOL     OW29536   4.624   1.354  11.099  0.5925  0.1596 -0.3964
 5967SOL    HW129537   4.685   1.362  11.172  1.5661  1.3572 -1.3569
 5967SOL    HW229538   4.598   1.262  11.103  0.8598  0.0787 -0.5825
 5968SOL     OW29539   0.205   4.592   5.589 -0.7919  0.2519 -0.1832
 5968SOL    HW129540   0.179   4.614   5.500  1.0189  2.9540 -0.0029
 5968SOL    HW229541   0.298   4.613   5.586 -0.6557 -0.2036  0.6908
 5969SOL     OW29542   3.026   3.632   8.559 -0.1634  0.2731  0.3041
 5969SOL    HW129543   2.977   3.694   8.614 -0.6182 -0.0147  0.2214
 5969SOL    HW229544   2.958   3.586   8.510  0.6464  0.0225 -0.5839
 5970SOL     OW29545   3.260   0.783   8.761 -0.4053 -0.2307 -0.6666
 5970SOL    HW129546   3.228   0.768   8.672  0.3008 -0.7208 -0.8431
 5970SOL    HW229547   3.256   0.691   8.787 -0.0765 -0.2207 -0.5792
 5971SOL     OW29548   3.113   0.335   9.453 -0.5788  0.4080  0.4555
 5971SOL    HW129549   3.037   0.391   9.437 -0.6954  0.0325 -0.3194
 5971SOL    HW229550   3.181   0.391   9.488  0.3896 -0.7067  0.3752
 5972SOL     OW29551   4.435   4.682  16.208 -0.6418  0.6427 -0.2423
 5972SOL    HW129552   4.524   4.651  16.222 -1.1676 -0.4800  0.7087
 5972SOL    HW229553   4.433   4.712  16.117  3.0979  2.0617  0.1487
 5973SOL     OW29554   2.255   1.723   7.845  0.5771 -0.1015 -0.2123
 5973SOL    HW129555   2.190   1.705   7.777 -1.1141  1.4916  0.9662
 5973SOL    HW229556   2.334   1.736   7.792  0.0496  1.3336 -0.6482
 5974SOL     OW29557   1.255   1.203   6.545 -0.2131 -0.2688  0.4718
 5974SOL    HW129558   1.318   1.238   6.608 -0.5440  0.8336  0.2016
 5974SOL    HW229559   1.310   1.204   6.467 -0.7778  0.5417  0.0828
 5975SOL     OW29560   3.255   1.254   4.561 -0.5355 -0.9122 -0.5312
 5975SOL    HW129561   3.206   1.315   4.507  1.7042  0.9370 -0.4481
 5975SOL    HW229562   3.198   1.239   4.637 -0.6675 -0.0614 -0.4668
 5976SOL     OW29563   1.307   3.001  12.074 -0.2767 -0.2247  0.1693
 5976SOL    HW129564   1.248   3.072  12.099  1.5973  2.0337 -1.8683
 5976SOL    HW229565   1.316   3.013  11.979  1.4643 -0.9724  0.2404
 5977SOL     OW29566   3.713   4.493   2.298  0.3124  0.0661 -0.2777
 5977SOL    HW129567   3.649   4.554   2.334  0.6030 -0.2707  0.7791
 5977SOL    HW229568   3.662   4.431   2.245 -1.1773  1.7325 -0.8294
 5978SOL     OW29569   1.093   2.552  13.087  0.2044 -0.7365 -0.4937
 5978SOL    HW129570   1.093   2.645  13.067 -0.7544 -0.3446  1.3286
 5978SOL    HW229571   1.184   2.526  13.077  0.1967 -1.4817  1.3046
 5979SOL     OW29572   4.216   1.163   5.989  0.1040  0.5362  0.3121
 5979SOL    HW129573   4.148   1.115   6.036  0.5774 -1.9406 -1.5730
 5979SOL    HW229574   4.168   1.236   5.950 -1.6183 -0.7883 -0.0242
 5980SOL     OW29575   2.797   0.596   2.012 -0.2842  0.3465  0.7046
 5980SOL    HW129576   2.825   0.674   1.963 -0.4830  0.7884  1.2975
 5980SOL    HW229577   2.865   0.597   2.080 -0.8993  0.4588  1.3132
 5981SOL     OW29578   0.665   0.555  13.874 -0.2371 -0.0673  0.0668
 5981SOL    HW129579   0.572   0.576  13.883 -0.0726  0.6260  0.1563
 5981SOL    HW229580   0.690   0.546  13.966  1.1026  0.2508 -0.2763
 5982SOL     OW29581   0.017   2.609   5.550 -0.3871  0.5174 -0.7810
 5982SOL    HW129582   0.088   2.583   5.608 -0.1363  0.9442 -0.9030
 5982SOL    HW229583   0.002   2.527   5.502  1.0595  0.1788 -0.6537
 5983SOL     OW29584   2.082   1.764   2.963  1.3770 -0.1014 -0.1932
 5983SOL    HW129585   2.014   1.722   2.909  2.3131 -0.6679 -0.9269
 5983SOL    HW229586   2.025   1.780   3.039 -0.0655  0.5173 -1.3972
 5984SOL     OW29587   0.167   0.406   4.435 -0.0805 -0.3993  0.4921
 5984SOL    HW129588   0.148   0.313   4.421 -1.6197 -0.0827  0.4410
 5984SOL    HW229589   0.243   0.402   4.492 -0.0834 -1.4220  0.4300
 5985SOL     OW29590   3.298   1.787   6.142 -0.0656  0.0005  0.1971
 5985SOL    HW129591   3.283   1.710   6.088  1.5004  1.0956 -1.8065
 5985SOL    HW229592   3.348   1.844   6.084 -0.4095 -1.3328 -1.4016
 5986SOL     OW29593   0.888   3.296   5.234 -0.1396 -0.1875 -0.5295
 5986SOL    HW129594   0.943   3.330   5.305  1.2548  1.1480 -2.2568
 5986SOL    HW229595   0.840   3.376   5.212 -1.9319 -0.9015  0.7244
 5987SOL     OW29596   2.813   1.172  16.636  0.5283 -0.0814 -0.2936
 5987SOL    HW129597   2.860   1.229  16.575  2.4241  1.3206  2.4685
 5987SOL    HW229598   2.724   1.206  16.643  0.8451  0.7541 -0.3472
 5988SOL     OW29599   4.387   3.199   7.311  0.1193 -0.3453  0.2267
 5988SOL    HW129600   4.411   3.150   7.390 -0.8683 -1.9998 -0.5066
 5988SOL    HW229601   4.325   3.257   7.355  0.4343  0.0971  0.0776
 5989SOL     OW29602   2.801   3.355   2.919  0.2145 -0.0432 -0.2636
 5989SOL    HW129603   2.868   3.406   2.964 -0.6349  0.7647  0.0808
 5989SOL    HW229604   2.828   3.275   2.964  2.7103 -0.4912 -2.5372
 5990SOL     OW29605   3.729   0.221   2.656 -0.2164  0.2984 -0.0021
 5990SOL    HW129606   3.741   0.277   2.732 -1.2656 -0.0617  0.4292
 5990SOL    HW229607   3.764   0.282   2.591  0.8317  1.3682  1.5584
 5991SOL     OW29608   1.737   1.796   2.870 -0.1037  0.4860 -0.1687
 5991SOL    HW129609   1.784   1.730   2.819  0.6868  0.9581 -0.0615
 5991SOL    HW229610   1.789   1.798   2.950  1.3242 -0.6361 -1.0697
 5992SOL     OW29611   0.404   1.149   2.548  0.2838 -0.2065  0.3479
 5992SOL    HW129612   0.371   1.107   2.627 -2.5233  1.3883 -0.0037
 5992SOL    HW229613   0.499   1.139   2.562  0.7138  2.4957 -0.6497
 5993SOL     OW29614   4.598   3.595   3.893 -0.3048  0.2957 -0.3891
 5993SOL    HW129615   4.573   3.621   3.982 -0.7817 -0.8677 -0.1738
 5993SOL    HW229616   4.691   3.616   3.896 -0.1570 -0.7787  2.9032
 5994SOL     OW29617   2.631   2.611  11.637 -0.1743 -0.4186 -0.6654
 5994SOL    HW129618   2.705   2.634  11.580  0.8452  1.3002  1.3441
 5994SOL    HW229619   2.625   2.688  11.694 -0.6608 -0.6303 -0.4294
 5995SOL     OW29620   0.000   0.288   9.580 -0.3735  0.6041  0.3001
 5995SOL    HW129621   4.667   0.314   9.639 -0.7765 -1.6056  0.7727
 5995SOL    HW229622   4.692   0.257   9.503 -1.1899 -0.6331  1.2854
 5996SOL     OW29623   2.100   3.071   9.013 -0.2579 -0.7954  0.7535
 5996SOL    HW129624   2.179   3.117   9.040  0.8711 -1.8470 -0.7073
 5996SOL    HW229625   2.104   3.079   8.917  2.0268 -0.9851  0.8371
 5997SOL     OW29626   3.514   1.275   1.933 -0.0014 -0.0962  0.8785
 5997SOL    HW129627   3.519   1.208   1.865  4.3848 -1.6919  2.7793
 5997SOL    HW229628   3.555   1.221   2.001 -0.0226 -2.4790 -1.0058
 5998SOL     OW29629   1.333   2.617   4.177 -0.1729 -0.1631  0.1329
 5998SOL    HW129630   1.362   2.534   4.215 -0.7058 -0.6938 -0.6240
 5998SOL    HW229631   1.404   2.642   4.118  0.2501  0.0726  0.7404
 5999SOL     OW29632   1.355   1.829   1.980 -0.2776  0.0803 -0.4980
 5999SOL    HW129633   1.295   1.756   1.963  1.1808 -0.5799 -2.8520
 5999SOL    HW229634   1.298   1.902   1.959 -1.3242 -1.4149 -2.9002
 6000SOL     OW29635   3.885   1.591   9.178 -0.3507  0.0066 -0.0948
 6000SOL    HW129636   3.846   1.675   9.204  0.1699  0.5493 -1.0716
 6000SOL    HW229637   3.812   1.529   9.186  0.0160 -0.4007  0.0912
 6001SOL     OW29638   2.336   0.687  17.107  0.0878  0.5252 -0.1176
 6001SOL    HW129639   2.420   0.654  17.139  1.7056  3.0605 -1.7089
 6001SOL    HW229640   2.341   0.681  17.011 -1.6998  1.3105 -0.2648
 6002SOL     OW29641   1.995   4.355  13.153  0.0870  0.0154  0.0331
 6002SOL    HW129642   1.961   4.266  13.148 -1.4910  0.3850  4.2995
 6002SOL    HW229643   2.078   4.343  13.200  0.7686  1.9897 -0.6228
 6003SOL     OW29644   1.400   3.395   8.682 -0.1198 -0.2722 -0.5120
 6003SOL    HW129645   1.398   3.474   8.737 -1.6801  0.2652 -1.3301
 6003SOL    HW229646   1.453   3.329   8.726  0.7590  0.7031 -0.1091
 6004SOL     OW29647   0.662   1.050   2.599 -0.1853 -0.5467  0.2533
 6004SOL    HW129648   0.727   1.107   2.559  1.5937 -3.7914 -1.4475
 6004SOL    HW229649   0.686   0.973   2.549 -2.3062  0.3469 -2.1408
 6005SOL     OW29650   0.977   3.044   8.055  0.2868 -0.3396 -0.0320
 6005SOL    HW129651   1.056   3.090   8.083 -0.1542  2.4060 -3.2546
 6005SOL    HW229652   0.999   2.961   8.098  3.0894 -1.1549 -3.0536
 6006SOL     OW29653   1.294   3.301  14.599 -0.1840 -0.1976  0.1739
 6006SOL    HW129654   1.326   3.279  14.686 -3.0462  0.8210  1.4865
 6006SOL    HW229655   1.330   3.388  14.581 -2.4556  0.5372 -0.8401
 6007SOL     OW29656   2.934   4.506   4.396  0.2460  0.4306 -0.3182
 6007SOL    HW129657   2.915   4.591   4.435  1.7119 -0.2810  1.9709
 6007SOL    HW229658   3.021   4.506   4.356  0.9521 -1.7805  1.2215
 6008SOL     OW29659   2.784   3.907   3.343  0.1049 -0.2951  0.0047
 6008SOL    HW129660   2.840   3.975   3.381  0.4654 -0.3899 -0.3588
 6008SOL    HW229661   2.843   3.880   3.273  0.2080 -4.5672  1.7762
 6009SOL     OW29662   1.755   2.663   0.370  0.0858 -0.5957 -0.2444
 6009SOL    HW129663   1.668   2.684   0.336 -0.7960 -0.6557  1.9564
 6009SOL    HW229664   1.739   2.693   0.460  0.3429 -1.2143  0.0109
 6010SOL     OW29665   3.137   0.418   7.221 -0.0406  0.3934  0.3441
 6010SOL    HW129666   3.140   0.482   7.292  2.8499 -0.0391  0.5975
 6010SOL    HW229667   3.073   0.352   7.246 -1.1218  1.2955 -0.0605
 6011SOL     OW29668   4.091   1.475   6.666  0.0782 -0.4119 -0.7332
 6011SOL    HW129669   3.999   1.458   6.645 -1.3055  1.8755  3.4760
 6011SOL    HW229670   4.129   1.475   6.578 -0.3828 -1.6585 -0.9359
 6012SOL     OW29671   0.793   1.612   5.760  0.2752 -0.0037  1.1964
 6012SOL    HW129672   0.825   1.655   5.840  2.1050 -1.1533  1.0868
 6012SOL    HW229673   0.770   1.528   5.800 -1.1019  0.3989  1.2391
 6013SOL     OW29674   4.671   3.582   1.124 -0.1153  0.3080 -0.1853
 6013SOL    HW129675   4.701   3.656   1.072 -0.6244  0.1430 -0.7137
 6013SOL    HW229676   4.576   3.581   1.115 -0.0356 -3.0835 -0.7800
 6014SOL     OW29677   0.685   3.743   4.113 -0.4707 -0.5717 -0.1016
 6014SOL    HW129678   0.665   3.794   4.034  0.0803  0.4363  0.4109
 6014SOL    HW229679   0.709   3.656   4.081  0.2392 -1.2986  2.4097
 6015SOL     OW29680   1.233   0.377   2.094 -0.4827  1.2683  0.5222
 6015SOL    HW129681   1.178   0.349   2.167  0.0874  1.1844  0.9146
 6015SOL    HW229682   1.173   0.356   2.023  1.9357 -0.9561 -0.8469
 6016SOL     OW29683   4.169   3.683   8.858  0.2897 -0.0703 -0.3780
 6016SOL    HW129684   4.078   3.709   8.866  0.5920  1.0200 -0.4692
 6016SOL    HW229685   4.211   3.760   8.896  1.0008 -1.8183  2.3273
 6017SOL     OW29686   2.057   4.177   5.278 -0.1437 -0.0007 -0.3192
 6017SOL    HW129687   1.990   4.110   5.293  1.0613 -0.9895  0.7581
 6017SOL    HW229688   1.990   4.238   5.307 -1.0606 -1.0721 -0.1709
 6018SOL     OW29689   3.009   4.345   3.317  0.0600  0.0566 -0.6702
 6018SOL    HW129690   3.003   4.264   3.368  0.9441  0.7088  0.4661
 6018SOL    HW229691   3.092   4.339   3.271  0.7161 -0.4974  0.5897
 6019SOL     OW29692   0.280   3.031  14.895  0.9524  0.1709  0.3874
 6019SOL    HW129693   0.240   3.117  14.887  3.4257  1.0552 -2.4356
 6019SOL    HW229694   0.315   3.034  14.806 -1.0308 -0.1271 -0.3980
 6020SOL     OW29695   0.218   4.258   8.959  0.7541 -0.2588  0.0997
 6020SOL    HW129696   0.177   4.335   8.918 -1.2218 -0.8119  1.0438
 6020SOL    HW229697   0.161   4.256   9.035  0.4555 -1.6440 -0.1722
 6021SOL     OW29698   0.398   4.212   8.236  0.3703  0.1865 -0.5071
 6021SOL    HW129699   0.464   4.258   8.287  2.0963 -2.8061 -0.1105
 6021SOL    HW229700   0.444   4.130   8.221 -1.0246 -1.0135  1.9030
 6022SOL     OW29701   3.103   0.150   5.192  0.3759  0.7264 -0.3380
 6022SOL    HW129702   3.038   0.119   5.256  0.0187 -0.6238 -1.3645
 6022SOL    HW229703   3.058   0.232   5.175 -1.5519 -0.1170  0.5900
 6023SOL     OW29704   3.539   0.826   5.953  0.1095 -0.1543  0.1446
 6023SOL    HW129705   3.559   0.911   5.915 -1.8194  0.6828  0.9888
 6023SOL    HW229706   3.577   0.852   6.036  1.0783  0.8873 -0.6293
 6024SOL     OW29707   4.512   3.556   8.202  0.2358 -0.3710 -0.0123
 6024SOL    HW129708   4.576   3.560   8.130 -0.3687 -0.2745 -0.5401
 6024SOL    HW229709   4.458   3.482   8.174  2.4615 -1.9327 -0.1640
 6025SOL     OW29710   3.825   4.671   9.058 -0.1161  0.0761  0.0465
 6025SOL    HW129711   3.738   4.665   9.096 -1.0508 -0.5916 -2.1817
 6025SOL    HW229712   3.831   0.026   9.041  0.0267  0.0499 -0.0482
 6026SOL     OW29713   0.338   1.638   2.695 -0.4609 -0.0250  0.4357
 6026SOL    HW129714   0.356   1.562   2.639 -1.0407  0.0927  0.0925
 6026SOL    HW229715   0.406   1.701   2.669 -0.8368 -0.0391 -0.5979
 6027SOL     OW29716   4.383   1.408  15.145  0.8031 -0.0152  0.1249
 6027SOL    HW129717   4.447   1.375  15.082  0.0231 -2.8125  0.8008
 6027SOL    HW229718   4.420   1.496  15.152  0.2672  0.1141  1.1761
 6028SOL     OW29719   3.962   2.464   9.320  0.6568 -0.0019  0.1501
 6028SOL    HW129720   4.018   2.539   9.303  0.2674  0.3481  0.3913
 6028SOL    HW229721   3.874   2.502   9.323  0.7576  0.0103  2.8566
 6029SOL     OW29722   3.564   3.473  16.181 -0.3156 -0.0822  0.0966
 6029SOL    HW129723   3.491   3.528  16.152  0.6619  1.0525 -0.1860
 6029SOL    HW229724   3.532   3.437  16.264  0.5779 -0.3118  0.3417
 6030SOL     OW29725   3.054   0.833   7.223 -0.5087 -0.5385 -0.5028
 6030SOL    HW129726   3.035   0.909   7.278 -2.3073  0.7735 -2.9381
 6030SOL    HW229727   3.131   0.869   7.178  1.6982 -2.0846  2.0529
 6031SOL     OW29728   3.759   2.571   6.609 -0.2637 -0.8435  0.1330
 6031SOL    HW129729   3.830   2.516   6.578 -0.6031 -0.8848 -0.5677
 6031SOL    HW229730   3.686   2.560   6.548  0.8590  1.2105 -1.5938
 6032SOL     OW29731   1.871   2.302  10.771  0.2610  0.2918 -0.1133
 6032SOL    HW129732   1.842   2.384  10.810  0.7755 -0.4445  1.8096
 6032SOL    HW229733   1.794   2.246  10.783 -0.3893  1.4162  0.9072
 6033SOL     OW29734   3.999   2.661  15.600 -0.5452 -0.0937  0.1846
 6033SOL    HW129735   4.061   2.715  15.551  1.5536 -2.4070  0.2634
 6033SOL    HW229736   4.044   2.578  15.584 -1.9082 -0.2319 -2.9288
 6034SOL     OW29737   2.148   2.701   0.746  0.4281  0.5813 -0.2843
 6034SOL    HW129738   2.123   2.707   0.838 -0.1950  3.6617 -0.6497
 6034SOL    HW229739   2.222   2.758   0.727 -1.2190  2.7099 -0.3345
 6035SOL     OW29740   2.330   3.874   3.239  0.0116  0.2441  0.2934
 6035SOL    HW129741   2.282   3.857   3.158  1.5073 -1.1478 -0.3047
 6035SOL    HW229742   2.273   3.858   3.314 -1.7992 -1.9361 -1.5869
 6036SOL     OW29743   3.004   2.052   3.108  0.4705 -0.3240  1.0512
 6036SOL    HW129744   3.091   2.015   3.125 -0.0086 -1.4027  1.1755
 6036SOL    HW229745   2.967   1.988   3.169 -2.5888 -0.5200 -1.0264
 6037SOL     OW29746   4.556   0.241  15.925  0.6808 -0.5916 -0.3576
 6037SOL    HW129747   4.470   0.283  15.918  0.5123 -1.2773 -2.2589
 6037SOL    HW229748   4.611   0.314  15.954 -2.7287  0.1931  4.1067
 6038SOL     OW29749   3.026   2.643  12.019  0.7973  0.2491 -0.0716
 6038SOL    HW129750   2.993   2.733  12.031  0.9405  0.6088 -2.2595
 6038SOL    HW229751   3.102   2.662  11.964 -0.6478  2.7925 -1.1888
 6039SOL     OW29752   0.177   3.456  10.238  0.1018 -0.4439  0.2253
 6039SOL    HW129753   0.239   3.398  10.194 -0.7307 -0.6834 -0.6276
 6039SOL    HW229754   0.095   3.428  10.197  0.7046 -0.4554 -0.9654
 6040SOL     OW29755   0.974   0.707   7.973  0.0192 -0.2521 -0.1564
 6040SOL    HW129756   1.016   0.672   8.050 -0.5625 -2.4844 -0.8598
 6040SOL    HW229757   0.916   0.638   7.941  0.6192 -0.5972 -0.5076
 6041SOL     OW29758   4.412   3.309   9.195 -0.5835  0.4669 -0.7264
 6041SOL    HW129759   4.444   3.334   9.108  1.4303 -2.4274 -0.8043
 6041SOL    HW229760   4.487   3.309   9.254 -0.4947 -0.1724 -0.8434
 6042SOL     OW29761   3.589   3.894   2.870  0.3004  0.1248  0.5999
 6042SOL    HW129762   3.580   3.826   2.804  1.1933 -0.4403  1.0579
 6042SOL    HW229763   3.500   3.894   2.904 -0.1933 -0.4433 -0.6977
 6043SOL     OW29764   1.008   3.698   4.419  0.2994  0.6448 -0.2112
 6043SOL    HW129765   0.923   3.659   4.438  0.4836  0.0225 -0.6867
 6043SOL    HW229766   0.985   3.749   4.341  1.6708  1.4464 -0.0854
 6044SOL     OW29767   0.598   3.598   3.246 -0.1822  0.6357 -0.8568
 6044SOL    HW129768   0.657   3.605   3.171 -1.2324  0.0494 -1.7316
 6044SOL    HW229769   0.527   3.556   3.198 -0.3656 -0.5910  0.4965
 6045SOL     OW29770   0.502   4.166   9.208 -0.1660 -0.0178 -0.3115
 6045SOL    HW129771   0.414   4.140   9.235  0.2619  1.0092  2.1244
 6045SOL    HW229772   0.563   4.112   9.258 -1.0437 -0.1761  0.5802
 6046SOL     OW29773   3.525   1.617   4.924 -0.1620 -0.0767  0.6003
 6046SOL    HW129774   3.447   1.631   4.979 -0.5386  0.6510 -0.1239
 6046SOL    HW229775   3.505   1.526   4.899  2.3604 -0.2562 -0.7520
 6047SOL     OW29776   1.472   2.423   1.881 -0.1741 -0.5040 -0.0406
 6047SOL    HW129777   1.391   2.390   1.918  0.8799 -3.3514 -0.2072
 6047SOL    HW229778   1.503   2.344   1.835  0.0686  0.5039 -1.6159
 6048SOL     OW29779   3.583   3.234   4.936  0.4262  0.2313  0.1774
 6048SOL    HW129780   3.645   3.161   4.939 -1.2995 -1.1664  1.4728
 6048SOL    HW229781   3.564   3.261   4.846  1.4348  3.0060  0.7975
 6049SOL     OW29782   2.773   1.692   3.051  0.3411 -0.2538  0.4961
 6049SOL    HW129783   2.808   1.734   3.130  0.1650 -0.0595  0.4709
 6049SOL    HW229784   2.678   1.697   3.060  0.5660  0.9458  2.2616
 6050SOL     OW29785   1.514   2.642  12.841  0.4272  0.6487 -0.4921
 6050SOL    HW129786   1.480   2.728  12.815  0.8696  0.9386 -0.1112
 6050SOL    HW229787   1.575   2.636  12.768  0.9092  3.1622 -0.2769
 6051SOL     OW29788   0.370   0.562   8.312  0.4566  0.0041  0.7991
 6051SOL    HW129789   0.296   0.508   8.284  0.6110 -0.1673  0.7218
 6051SOL    HW229790   0.433   0.555   8.240 -0.7704 -0.8642 -0.1809
 6052SOL     OW29791   0.073   3.565   5.161 -0.0686  0.3170  0.4770
 6052SOL    HW129792   0.132   3.602   5.227  0.1112  2.8814 -1.1359
 6052SOL    HW229793   0.047   3.482   5.200 -0.4688  0.5453  0.6869
 6053SOL     OW29794   2.138   3.772  11.171 -0.2600 -0.4434  0.4303
 6053SOL    HW129795   2.231   3.751  11.187  0.3431  1.0536 -1.1311
 6053SOL    HW229796   2.125   3.770  11.077 -3.3232 -0.8341  0.8837
 6054SOL     OW29797   3.455   1.936   5.330  0.5947  0.1229 -0.0505
 6054SOL    HW129798   3.482   2.017   5.288  0.4867  0.2727  0.1719
 6054SOL    HW229799   3.401   1.959   5.405  0.4685 -3.1168  0.8692
 6055SOL     OW29800   1.811   2.295   7.267  0.5160  0.3459  0.5149
 6055SOL    HW129801   1.777   2.268   7.182  1.4632 -0.3723  0.3648
 6055SOL    HW229802   1.825   2.208   7.306  0.1250 -0.5161 -1.2631
 6056SOL     OW29803   2.208   0.997  12.217 -0.2902 -0.0649  0.7729
 6056SOL    HW129804   2.134   0.947  12.252 -1.5124  1.1581 -0.0300
 6056SOL    HW229805   2.278   0.946  12.257 -1.2902 -1.1166  1.1671
 6057SOL     OW29806   1.609   2.474   2.319  0.2472 -1.0955 -0.0997
 6057SOL    HW129807   1.526   2.432   2.342 -0.6720  0.5993 -0.3344
 6057SOL    HW229808   1.585   2.518   2.237 -1.7104 -0.1083  1.0070
 6058SOL     OW29809   2.410   1.017   1.742 -0.2287 -0.4093  0.0265
 6058SOL    HW129810   2.377   1.106   1.727  0.4579 -0.0211  0.8631
 6058SOL    HW229811   2.483   1.022   1.680 -1.0372 -1.1706 -0.9804
 6059SOL     OW29812   3.199   1.863  17.162  0.3251 -0.2633 -0.3079
 6059SOL    HW129813   3.285   1.823  17.178  1.1344  1.8162  0.5970
 6059SOL    HW229814   3.186   1.914  17.242  2.8130 -0.0010 -0.0559
 6060SOL     OW29815   2.253   2.110   1.168  0.3181 -0.0755  0.1044
 6060SOL    HW129816   2.234   2.134   1.078 -2.4430 -0.9271  0.4649
 6060SOL    HW229817   2.170   2.074   1.198  1.5824 -0.2441  3.4092
 6061SOL     OW29818   1.016   1.761  16.380 -0.9347 -0.0339  0.4662
 6061SOL    HW129819   1.058   1.776  16.295 -1.3298  0.9297  0.4506
 6061SOL    HW229820   0.948   1.826  16.396  0.7903  2.1166 -1.0018
 6062SOL     OW29821   0.500   2.940   7.744  0.2388  0.1779 -0.4411
 6062SOL    HW129822   0.437   2.897   7.802  0.1348  0.1772 -0.5557
 6062SOL    HW229823   0.576   2.905   7.791 -0.8437  1.7383  2.4151
 6063SOL     OW29824   3.104   2.902   8.160 -0.1015 -0.2232  0.4802
 6063SOL    HW129825   3.035   2.944   8.211  1.0280 -0.1484  1.9476
 6063SOL    HW229826   3.145   2.848   8.228  0.3037 -0.8943 -0.2942
 6064SOL     OW29827   4.434   2.468   4.954 -0.1626 -0.3718 -0.6316
 6064SOL    HW129828   4.460   2.501   4.868 -0.3690 -1.3075 -1.0548
 6064SOL    HW229829   4.499   2.507   5.013  0.4109  0.9363 -2.1311
 6065SOL     OW29830   2.338   2.974   2.667 -0.1390  0.0998 -0.1883
 6065SOL    HW129831   2.366   3.061   2.697 -2.5916  0.2520  1.7113
 6065SOL    HW229832   2.296   2.950   2.749  2.5064  3.3984  2.1715
 6066SOL     OW29833   0.330   0.183   5.857  1.0488  0.3680 -0.3634
 6066SOL    HW129834   0.338   0.219   5.769  0.3619 -1.4057 -1.1501
 6066SOL    HW229835   0.272   0.106   5.858 -0.3797  1.4647  1.5211
 6067SOL     OW29836   2.155   4.133   4.991  0.2360 -0.1126 -0.2410
 6067SOL    HW129837   2.108   4.108   5.071  0.6421 -1.3331 -0.3817
 6067SOL    HW229838   2.131   4.223   4.967  1.8951 -0.0006 -1.5017
 6068SOL     OW29839   4.599   1.087  13.291  0.3262  0.1545 -0.6463
 6068SOL    HW129840   4.503   1.089  13.299  0.4574  1.7664  0.4201
 6068SOL    HW229841   4.602   1.033  13.211 -0.3219 -2.6730  1.2295
 6069SOL     OW29842   1.399   3.576   2.752 -0.0236  0.6725  0.1158
 6069SOL    HW129843   1.372   3.620   2.833  1.5792  1.8975 -0.0145
 6069SOL    HW229844   1.423   3.487   2.777 -0.9032  0.5970  0.7298
 6070SOL     OW29845   2.289   2.148   8.700 -0.0329 -0.3364 -0.1393
 6070SOL    HW129846   2.279   2.067   8.650  0.6934 -0.6586  0.2406
 6070SOL    HW229847   2.249   2.208   8.637 -0.4828 -1.0079 -0.4911
 6071SOL     OW29848   1.913   0.488   7.161  0.3325  0.1959 -0.5018
 6071SOL    HW129849   1.856   0.424   7.118  2.0438 -1.6767  0.0236
 6071SOL    HW229850   1.977   0.505   7.092  0.8465  0.7709  0.1134
 6072SOL     OW29851   2.929   0.993   1.728  0.4136 -0.2825 -0.0789
 6072SOL    HW129852   3.021   1.012   1.746  0.3700 -1.4295  1.3210
 6072SOL    HW229853   2.896   1.077   1.695  0.7419  0.2354  0.9230
 6073SOL     OW29854   3.932   2.305   9.091  0.4687 -0.1196  0.7872
 6073SOL    HW129855   3.931   2.356   9.172  0.9844  1.7971 -0.4009
 6073SOL    HW229856   4.009   2.341   9.048  0.0475 -1.1783 -0.8449
 6074SOL     OW29857   2.040   0.382   4.898 -0.2061 -0.0227  0.3556
 6074SOL    HW129858   2.097   0.365   4.823 -0.7418  0.4558 -0.1548
 6074SOL    HW229859   2.090   0.440   4.955  0.7108 -1.8462  1.3890
 6075SOL     OW29860   0.773   3.791   1.755 -0.1563  0.3641 -0.3870
 6075SOL    HW129861   0.763   3.744   1.672 -0.3005  2.6120 -1.6500
 6075SOL    HW229862   0.866   3.804   1.771 -0.2827  1.5107 -0.5482
 6076SOL     OW29863   4.580   4.573   5.190 -0.0065  0.3223  0.2665
 6076SOL    HW129864   4.516   4.502   5.187  0.7002 -0.3231  0.4553
 6076SOL    HW229865   4.573   4.592   5.284 -1.1792 -0.4931  0.3497
 6077SOL     OW29866   3.380   2.591   7.459  0.0513  0.4376 -0.1585
 6077SOL    HW129867   3.385   2.685   7.439 -3.8756  1.4570  3.5083
 6077SOL    HW229868   3.338   2.563   7.377 -1.4758  1.2864  0.3212
 6078SOL     OW29869   4.680   3.430   4.748 -0.2944  0.3880  0.1120
 6078SOL    HW129870   4.610   3.407   4.809 -1.7994  1.6163 -1.1734
 6078SOL    HW229871   0.001   3.490   4.793  0.3980  0.3014 -0.6872
 6079SOL     OW29872   2.357   1.533   8.751  0.6805 -0.0733  0.3761
 6079SOL    HW129873   2.362   1.601   8.683 -1.1946 -0.7062 -0.3957
 6079SOL    HW229874   2.383   1.592   8.822  0.7724  1.1211 -0.6502
 6080SOL     OW29875   3.487   2.145   7.261 -0.4473 -0.3455 -0.9643
 6080SOL    HW129876   3.577   2.145   7.292 -0.8414  1.7993  0.1201
 6080SOL    HW229877   3.436   2.098   7.327  1.3423 -0.6231  0.1904
 6081SOL     OW29878   4.626   3.672  12.317 -0.0604  0.2875  0.0421
 6081SOL    HW129879   4.690   3.670  12.246  0.3235  3.2164  0.3102
 6081SOL    HW229880   4.682   3.656  12.393 -0.2865 -0.5160  0.0486
 6082SOL     OW29881   1.765   3.908   0.000  0.2736 -0.1525  0.5485
 6082SOL    HW129882   1.841   3.966  17.753  0.8423 -0.8763  1.6627
 6082SOL    HW229883   1.731   3.921  17.665 -0.8442 -0.9740  0.8559
 6083SOL     OW29884   3.386   3.385   8.676  0.3455  0.1041  0.8866
 6083SOL    HW129885   3.331   3.338   8.738  0.1644  1.5573  1.8378
 6083SOL    HW229886   3.449   3.315   8.660 -0.5353 -0.2997 -0.8524
 6084SOL     OW29887   4.230   2.970   3.624 -0.7051  0.0451  0.5037
 6084SOL    HW129888   4.157   2.971   3.563 -1.0891  1.4671  0.9892
 6084SOL    HW229889   4.208   3.041   3.685 -1.0661  0.8965 -0.6103
 6085SOL     OW29890   1.938   2.853   2.210  0.3661 -0.1363 -0.4047
 6085SOL    HW129891   1.975   2.773   2.173 -1.6653 -1.1995 -0.1359
 6085SOL    HW229892   1.848   2.824   2.225 -0.4328  0.9348 -3.0281
 6086SOL     OW29893   4.503   0.998   3.543 -0.1817  0.6153 -0.2240
 6086SOL    HW129894   4.567   1.068   3.528  1.1958 -0.4096  0.9601
 6086SOL    HW229895   4.532   0.972   3.630 -2.0999 -1.9769 -0.3686
 6087SOL     OW29896   2.650   3.895   5.099  0.2167  0.0016  0.5721
 6087SOL    HW129897   2.654   3.957   5.172 -0.0972 -1.6448  1.9824
 6087SOL    HW229898   2.560   3.864   5.109  0.1731  0.0964  0.4680
 6088SOL     OW29899   1.340   2.894   8.144  0.3677  0.0216  0.0595
 6088SOL    HW129900   1.363   2.909   8.052 -0.8394 -1.0061 -0.3975
 6088SOL    HW229901   1.423   2.902   8.191  1.0377 -1.0988 -0.9323
 6089SOL     OW29902   2.982   0.867   2.548  0.6969 -0.2144 -0.3125
 6089SOL    HW129903   2.986   0.914   2.465 -0.6029 -0.5209 -0.5479
 6089SOL    HW229904   2.898   0.894   2.585 -0.0010 -1.2287 -1.1658
 6090SOL     OW29905   1.108   2.376   7.072  0.5129  0.3748  1.4746
 6090SOL    HW129906   1.138   2.348   7.158 -0.1713 -0.3868  1.4676
 6090SOL    HW229907   1.014   2.359   7.075  0.9735 -2.7490 -1.4268
 6091SOL     OW29908   2.125   0.545   6.992 -0.0718  0.6896 -0.0745
 6091SOL    HW129909   2.195   0.587   7.042  0.4281 -1.5335  1.0577
 6091SOL    HW229910   2.155   0.583   6.909 -0.8563 -2.0782 -1.6080
 6092SOL     OW29911   0.962   3.766   5.490 -0.2019  0.3508 -0.1314
 6092SOL    HW129912   1.025   3.804   5.552 -2.8141  0.4093  2.5118
 6092SOL    HW229913   1.008   3.775   5.407 -0.1538  2.1376  0.0905
 6093SOL     OW29914   2.211   1.626  16.263  0.1663  0.2022  0.4267
 6093SOL    HW129915   2.288   1.614  16.317  0.2460  1.8386  0.6822
 6093SOL    HW229916   2.150   1.642  16.335 -0.9792  0.1170 -0.5063
 6094SOL     OW29917   0.604   0.974  12.451 -0.1032 -0.5031 -0.2305
 6094SOL    HW129918   0.681   1.005  12.403  1.3264 -1.4907  1.4487
 6094SOL    HW229919   0.533   1.003  12.394  0.4033  1.3083  0.0499
 6095SOL     OW29920   3.518   2.580   2.037 -0.5927 -0.1001  0.2891
 6095SOL    HW129921   3.452   2.633   1.992  1.3572  1.3244 -0.8967
 6095SOL    HW229922   3.479   2.565   2.123 -0.4259 -1.1207  0.1776
 6096SOL     OW29923   2.387   1.175   6.080  0.4166  0.2150 -0.1423
 6096SOL    HW129924   2.394   1.258   6.127 -4.1323  0.3323  0.2739
 6096SOL    HW229925   2.467   1.175   6.027  1.0405  1.0009  0.8059
 6097SOL     OW29926   2.848   0.939   1.446  0.1743 -0.0961 -0.0504
 6097SOL    HW129927   2.913   0.980   1.389 -0.2338  0.7110  0.0617
 6097SOL    HW229928   2.897   0.861   1.472  0.0151 -0.4401 -0.7882
 6098SOL     OW29929   2.180   3.250   6.529 -0.2361  0.4487 -0.7166
 6098SOL    HW129930   2.088   3.235   6.552  0.3353  0.4878  1.4894
 6098SOL    HW229931   2.204   3.335   6.564  2.3900 -0.0678 -1.2206
 6099SOL     OW29932   0.080   2.549  13.411 -0.0556 -0.2940  0.4895
 6099SOL    HW129933   0.078   2.621  13.473  0.4807 -0.7850  1.0730
 6099SOL    HW229934   4.738   2.501  13.426  0.2425 -1.1036 -0.4997
 6100SOL     OW29935   4.647   4.020   6.879  0.5752  0.0837 -0.1902
 6100SOL    HW129936   4.699   4.036   6.801  0.6793 -0.3048 -0.1987
 6100SOL    HW229937   4.713   3.982   6.938  1.3364  0.8181 -0.5682
 6101SOL     OW29938   2.212   3.566   9.142 -0.1537 -0.8551  0.1500
 6101SOL    HW129939   2.217   3.476   9.175  1.1206 -0.1476  1.8210
 6101SOL    HW229940   2.186   3.543   9.052  0.1265  0.2102 -0.2072
 6102SOL     OW29941   4.460   1.589   2.224 -0.5734 -0.3660 -0.2426
 6102SOL    HW129942   4.371   1.555   2.217 -1.0058  0.6372  0.3358
 6102SOL    HW229943   4.437   1.682   2.223 -0.8315 -0.4150  0.8793
 6103SOL     OW29944   1.419   2.703   0.005 -0.0077  0.2019  1.0016
 6103SOL    HW129945   1.482   2.713  17.686 -1.8629 -1.5715 -0.8543
 6103SOL    HW229946   1.338   2.680  17.713  0.4829  0.4257  0.0100
 6104SOL     OW29947   0.886   3.834   7.656  0.3547  0.0031 -0.5031
 6104SOL    HW129948   0.817   3.769   7.668  0.4518 -0.0669 -0.3099
 6104SOL    HW229949   0.869   3.874   7.571 -0.0437  0.5107 -0.1826
 6105SOL     OW29950   4.639   1.977   9.159 -0.2289 -0.2177  0.5297
 6105SOL    HW129951   4.725   1.944   9.134 -0.2805 -1.1502  1.6036
 6105SOL    HW229952   4.593   1.904   9.199 -2.0357  1.1636  0.9738
 6106SOL     OW29953   4.059   4.435   3.339  0.0576 -0.4869  0.0445
 6106SOL    HW129954   4.154   4.431   3.353 -0.1031 -0.7666  1.0397
 6106SOL    HW229955   4.045   4.379   3.415 -2.3270  0.5190  0.3282
 6107SOL     OW29956   4.642   2.177  13.921 -0.1478  0.5365  0.3317
 6107SOL    HW129957   4.639   2.136  13.835 -0.0518  0.5019  0.3452
 6107SOL    HW229958   4.550   2.173  13.948  0.1393 -2.4915  0.8967
 6108SOL     OW29959   4.689   2.536   8.722  0.1348  0.4861  0.0328
 6108SOL    HW129960   4.680   2.621   8.678 -0.8825  1.9040  2.9668
 6108SOL    HW229961   4.597   2.516   8.739  0.5141 -1.3229 -0.0108
 6109SOL     OW29962   0.572   2.364   3.542  0.7794 -0.5119 -0.4123
 6109SOL    HW129963   0.569   2.289   3.601 -0.8028  0.0460  0.2294
 6109SOL    HW229964   0.659   2.397   3.562  0.4430 -1.2975  2.3891
 6110SOL     OW29965   4.134   1.627   8.201 -0.0796 -0.2943  0.1559
 6110SOL    HW129966   4.205   1.648   8.262 -0.8927 -1.7025  1.5932
 6110SOL    HW229967   4.076   1.579   8.260  0.7957 -0.5077  0.8413
 6111SOL     OW29968   0.755   2.409   0.616  0.1740 -0.1209 -0.4066
 6111SOL    HW129969   0.833   2.451   0.653  0.2786 -0.1843 -0.5542
 6111SOL    HW229970   0.697   2.429   0.690 -2.3094 -0.0995 -2.3641
 6112SOL     OW29971   4.578   1.749  12.007  0.7961 -0.5105  0.3081
 6112SOL    HW129972   4.628   1.722  12.084  0.9307 -1.0867  0.0223
 6112SOL    HW229973   4.637   1.807  11.959  1.5623 -1.1369  0.4965
 6113SOL     OW29974   0.307   4.230   0.879 -0.0035 -0.3553  0.2023
 6113SOL    HW129975   0.333   4.202   0.967 -0.2217 -1.3394 -0.0441
 6113SOL    HW229976   0.377   4.185   0.832 -0.8353 -1.4330  0.0011
 6114SOL     OW29977   4.139   0.852  16.475  0.1644 -0.0783  0.1195
 6114SOL    HW129978   4.106   0.941  16.469  2.1381  0.6542  0.2884
 6114SOL    HW229979   4.080   0.806  16.536 -1.3426  2.3908  0.4968
 6115SOL     OW29980   4.408   4.068  16.857 -0.1189 -0.2333  0.2884
 6115SOL    HW129981   4.468   4.000  16.889  0.4647 -0.2041 -0.7331
 6115SOL    HW229982   4.472   4.122  16.810  1.1253 -1.2781  0.7811
 6116SOL     OW29983   0.795   0.340   7.634  0.3990 -0.7012 -0.2407
 6116SOL    HW129984   0.711   0.382   7.613  0.4924 -0.0881  0.6054
 6116SOL    HW229985   0.819   0.307   7.548 -2.6719 -0.4874 -1.1715
 6117SOL     OW29986   2.614   1.282   5.959 -0.0195 -0.1781  0.0258
 6117SOL    HW129987   2.644   1.222   5.891 -0.8303  1.1963 -1.5112
 6117SOL    HW229988   2.691   1.293   6.016 -0.1822  0.6989  0.0781
 6118SOL     OW29989   0.367   2.327   2.337  0.0962 -0.2059  0.0251
 6118SOL    HW129990   0.288   2.290   2.376 -0.9707 -0.0766 -2.0021
 6118SOL    HW229991   0.355   2.306   2.244 -2.8090 -0.4810  0.4543
 6119SOL     OW29992   0.712   3.723   2.446 -0.0466  0.0834 -0.2696
 6119SOL    HW129993   0.681   3.654   2.386 -1.4026 -0.2985  0.8942
 6119SOL    HW229994   0.646   3.789   2.428  0.7317  0.7741 -0.5819
 6120SOL     OW29995   0.680   4.664   6.824  0.2366  0.3085 -0.0051
 6120SOL    HW129996   0.701   4.579   6.863 -0.9245  0.4744  0.9834
 6120SOL    HW229997   0.694   4.712   6.906 -0.0888  1.4448 -0.6146
 6121SOL     OW29998   2.790   4.279   4.343 -0.3185  0.1402 -0.1566
 6121SOL    HW129999   2.828   4.362   4.371  2.4518 -0.7657 -1.1777
 6121SOL    HW230000   2.815   4.224   4.418 -1.4003 -0.1117  0.0232
 6122SOL     OW30001   4.125   1.157   6.752  0.1108 -0.5341  0.3623
 6122SOL    HW130002   4.137   1.063   6.746  1.0212 -0.4163  0.2908
 6122SOL    HW230003   4.086   1.175   6.666  0.1541 -0.9483  0.2583
 6123SOL     OW30004   1.158   2.645   1.648 -0.2118 -0.8977 -0.7131
 6123SOL    HW130005   1.250   2.655   1.673 -0.6088 -2.6361  1.3856
 6123SOL    HW230006   1.162   2.663   1.554 -0.9247 -1.2390 -0.8070
 6124SOL     OW30007   3.834   3.069   6.606 -0.1591 -0.1708 -0.3245
 6124SOL    HW130008   3.836   3.112   6.520 -0.2258 -1.6440 -1.0505
 6124SOL    HW230009   3.774   2.998   6.588 -0.1392  0.0935 -1.4341
 6125SOL     OW30010   4.652   1.284   6.735 -0.2342  0.2806  0.5669
 6125SOL    HW130011   4.640   1.261   6.643 -1.0446  0.5728  0.6031
 6125SOL    HW230012   4.663   1.378   6.728 -3.4896  0.4663 -2.3392
 6126SOL     OW30013   3.913   4.725   4.205  0.3837 -0.4443  0.3630
 6126SOL    HW130014   3.861   0.028   4.274  2.5974 -0.7532  2.1763
 6126SOL    HW230015   3.914   4.636   4.240 -0.7168  0.3817  2.4628
 6127SOL     OW30016   4.610   2.328   2.071  0.2722  0.1034 -0.0948
 6127SOL    HW130017   4.572   2.412   2.096 -0.2070 -0.2632  0.4272
 6127SOL    HW230018   4.684   2.353   2.016  0.6126 -0.2367  0.1978
 6128SOL     OW30019   1.796   2.399   8.710 -0.1725  0.1883 -0.2959
 6128SOL    HW130020   1.883   2.365   8.727 -0.3774 -0.1898  0.0009
 6128SOL    HW230021   1.732   2.328   8.699  0.1367 -0.4274  1.9090
 6129SOL     OW30022   3.106   0.608   3.224 -0.1797 -0.5902  0.6295
 6129SOL    HW130023   3.036   0.659   3.185  0.0220  0.4182  1.5973
 6129SOL    HW230024   3.152   0.569   3.149  1.4388 -0.0289  1.3188
 6130SOL     OW30025   0.764   2.301   9.226  0.2569  0.4832 -0.6974
 6130SOL    HW130026   0.693   2.250   9.187  0.7813  0.2819 -1.3738
 6130SOL    HW230027   0.760   2.378   9.168  0.9838  0.6482 -0.5265
 6131SOL     OW30028   1.547   4.530   6.145 -0.2547 -0.7086 -0.7404
 6131SOL    HW130029   1.588   4.532   6.058  0.8239  1.1626 -0.1914
 6131SOL    HW230030   1.618   4.570   6.196  0.6651 -2.7639 -0.4012
 6132SOL     OW30031   4.724   3.498  16.620 -0.0356  0.3128 -0.2687
 6132SOL    HW130032   0.014   3.435  16.554 -0.3875  1.7697 -1.8347
 6132SOL    HW230033   0.061   3.557  16.618 -0.0568  0.3342 -0.4292
 6133SOL     OW30034   1.415   4.271   6.044  0.6366 -0.2283 -0.2362
 6133SOL    HW130035   1.320   4.262   6.043  0.7535 -1.6241  0.4977
 6133SOL    HW230036   1.428   4.365   6.032  1.2412 -0.0276  2.0540
 6134SOL     OW30037   4.541   2.945   8.872 -0.1812  0.6091 -0.5694
 6134SOL    HW130038   4.580   2.864   8.837  1.2877 -0.5869  3.8426
 6134SOL    HW230039   4.620   2.995   8.890  0.3971 -0.7836  0.7965
 6135SOL     OW30040   1.668   1.727   8.014 -0.5733 -0.7996  0.6191
 6135SOL    HW130041   1.651   1.772   7.931  0.5963  0.3488  1.0109
 6135SOL    HW230042   1.623   1.643   8.006  0.4258 -1.0417 -2.3838
 6136SOL     OW30043   2.170   1.158   4.757 -0.0169  0.2639  0.2737
 6136SOL    HW130044   2.237   1.147   4.825  1.3146 -0.2309 -1.1198
 6136SOL    HW230045   2.129   1.237   4.793 -0.9593  0.0806 -0.4072
 6137SOL     OW30046   0.644   2.322   5.189 -0.2224  0.0638  0.0218
 6137SOL    HW130047   0.624   2.305   5.281 -0.9892  0.1195 -0.1323
 6137SOL    HW230048   0.559   2.349   5.155  0.1219  0.7712 -0.3001
 6138SOL     OW30049   4.602   1.310  11.832  0.4051 -0.2218  0.3098
 6138SOL    HW130050   4.562   1.391  11.863  1.3418  0.3211  0.0890
 6138SOL    HW230051   4.542   1.280  11.764  3.4994 -2.9914 -1.2335
 6139SOL     OW30052   0.120   2.316   7.381  0.1313  0.5308  0.0678
 6139SOL    HW130053   0.062   2.335   7.455  1.1152  0.1475  0.9442
 6139SOL    HW230054   0.118   2.221   7.380 -0.4658  0.5304  0.8644
 6140SOL     OW30055   4.252   1.380   3.870  0.1521  0.7463 -0.7213
 6140SOL    HW130056   4.187   1.311   3.884  0.1616  1.1691  1.5613
 6140SOL    HW230057   4.296   1.395   3.954 -1.9681  0.3368  0.4690
 6141SOL     OW30058   1.303   2.003   6.770 -0.1886  0.1445  0.1354
 6141SOL    HW130059   1.273   2.089   6.797 -1.0743  0.4290 -1.7265
 6141SOL    HW230060   1.223   1.973   6.727 -0.0958  0.4269 -0.2343
 6142SOL     OW30061   4.416   0.100   0.077  0.0415 -0.6043 -0.1663
 6142SOL    HW130062   4.403   0.191   0.050 -0.1962 -1.0716 -1.6216
 6142SOL    HW230063   4.330   0.067   0.103  0.0017 -0.3991 -0.0347
 6143SOL     OW30064   3.267   1.464   9.265 -0.5092  0.0683 -0.4113
 6143SOL    HW130065   3.249   1.449   9.172  2.4854  0.3993 -1.0513
 6143SOL    HW230066   3.276   1.559   9.258  0.3073  0.0513  0.3458
 6144SOL     OW30067   0.285   2.587   5.935  0.2786 -0.0975 -0.0994
 6144SOL    HW130068   0.293   2.663   5.992  0.6980 -0.8281  0.8208
 6144SOL    HW230069   0.224   2.529   5.980 -0.1521  0.9911  0.7210
 6145SOL     OW30070   0.514   3.112   8.397  0.5518 -0.1555 -0.3490
 6145SOL    HW130071   0.516   3.098   8.492  0.6128 -1.3365 -0.5160
 6145SOL    HW230072   0.601   3.146   8.379  1.0752 -0.7201  1.0332
 6146SOL     OW30073   4.513   1.154  15.953 -0.2569  0.0409 -0.0153
 6146SOL    HW130074   4.542   1.131  15.864 -0.8630  2.3031 -0.8006
 6146SOL    HW230075   4.437   1.207  15.931  0.1283  0.4259 -0.4516
 6147SOL     OW30076   2.383   0.502   3.097  0.1552 -0.2482  0.1056
 6147SOL    HW130077   2.375   0.442   3.171 -1.1426  0.6277  0.6735
 6147SOL    HW230078   2.368   0.588   3.135  1.5360  0.6314 -1.3474
 6148SOL     OW30079   2.349   3.038  17.443  0.3914 -0.3333 -0.2521
 6148SOL    HW130080   2.358   2.945  17.424  0.1172 -0.3267 -0.4042
 6148SOL    HW230081   2.396   3.036  17.527  1.6878 -1.3577 -1.0039
 6149SOL     OW30082   4.105   1.023   4.690  0.6956  0.7558 -0.2921
 6149SOL    HW130083   4.189   0.977   4.683  0.2270  0.1454 -2.0382
 6149SOL    HW230084   4.140   1.111   4.680 -0.7379  1.6399  2.5896
 6150SOL     OW30085   0.601   0.168   4.198  0.3057  0.2235  0.0057
 6150SOL    HW130086   0.635   0.094   4.148 -1.1781 -1.4084  1.4678
 6150SOL    HW230087   0.506   0.156   4.197  0.3149  0.0255  2.5523
 6151SOL     OW30088   0.807   2.698   1.726  0.2348  0.7408 -0.2569
 6151SOL    HW130089   0.739   2.635   1.704 -0.4424  1.3889 -0.0433
 6151SOL    HW230090   0.890   2.651   1.732  0.1775  0.6634 -0.0504
 6152SOL     OW30091   1.880   1.559   7.222 -0.1441 -0.1374 -0.4414
 6152SOL    HW130092   1.928   1.566   7.305 -0.0085 -2.5253 -0.3187
 6152SOL    HW230093   1.948   1.532   7.159  1.0867  1.6341  0.1426
 6153SOL     OW30094   4.624   3.968   8.266  0.2299 -0.2844 -0.2314
 6153SOL    HW130095   4.718   3.949   8.260  0.0060 -1.4233 -0.1288
 6153SOL    HW230096   4.622   4.059   8.236  1.5951 -0.0470  0.4038
 6154SOL     OW30097   2.094   2.123   0.478  0.0804 -0.3677  0.1108
 6154SOL    HW130098   2.142   2.060   0.532 -1.0566 -1.1531  0.2029
 6154SOL    HW230099   2.154   2.120   0.404  1.6976 -1.3153  1.4602
 6155SOL     OW30100   2.743   1.928  14.723  0.0203  0.2380 -0.2421
 6155SOL    HW130101   2.771   1.840  14.750  0.0263  0.5114  0.6334
 6155SOL    HW230102   2.648   1.922  14.736  0.2860 -2.3341  0.6472
 6156SOL     OW30103   4.546   0.040   0.673 -0.6525  0.3018  0.3050
 6156SOL    HW130104   4.517   0.071   0.587 -0.8163 -0.6705  0.0081
 6156SOL    HW230105   4.466   4.735   0.703  1.1443 -1.8962  1.8983
 6157SOL     OW30106   3.959   1.472  12.154 -0.2441  0.0384  0.1487
 6157SOL    HW130107   3.974   1.524  12.075 -0.1903  1.0392  0.8136
 6157SOL    HW230108   3.902   1.407  12.114  0.1435  0.2072 -0.6685
 6158SOL     OW30109   2.971   3.257   4.088 -0.1072 -0.2939 -0.1694
 6158SOL    HW130110   2.929   3.263   4.002 -0.1499 -2.6622 -0.3091
 6158SOL    HW230111   2.897   3.234   4.143 -1.6662  1.0615 -1.7058
 6159SOL     OW30112   0.201   1.069   3.282 -0.4728  0.0072 -0.2851
 6159SOL    HW130113   0.240   1.126   3.215 -1.9787 -0.4254 -1.5150
 6159SOL    HW230114   0.281   1.032   3.319  0.4701  1.2702 -1.0424
 6160SOL     OW30115   4.194   3.023   5.539 -0.2811  0.1137 -0.1547
 6160SOL    HW130116   4.241   3.047   5.620  1.9729 -0.7013 -1.2111
 6160SOL    HW230117   4.244   2.942   5.526 -0.8739 -0.3881  0.6752
 6161SOL     OW30118   1.905   3.666   0.075 -0.0433 -0.5877 -0.1207
 6161SOL    HW130119   1.839   3.601   0.102  1.5534 -2.5109 -0.8502
 6161SOL    HW230120   1.840   3.723   0.033  1.0746  1.6061  1.1555
 6162SOL     OW30121   3.049   4.563  14.447 -0.0407  0.0236  0.2023
 6162SOL    HW130122   3.031   4.523  14.532  0.2735 -1.6770 -0.5315
 6162SOL    HW230123   2.971   4.606  14.412 -0.9627 -0.3518  1.8290
 6163SOL     OW30124   1.664   1.344   5.585 -0.3635 -0.3111  0.2873
 6163SOL    HW130125   1.591   1.369   5.528 -2.0350 -2.5608  1.4114
 6163SOL    HW230126   1.724   1.412   5.556  0.0802 -0.2444  1.3551
 6164SOL     OW30127   0.800   0.621   8.208  0.2102 -0.6683  0.1919
 6164SOL    HW130128   0.804   0.554   8.276  3.3304 -2.0525 -1.3715
 6164SOL    HW230129   0.871   0.674   8.244  2.1284  0.1539 -4.8022
 6165SOL     OW30130   0.552   4.111   1.592  0.0463 -0.0579  0.2349
 6165SOL    HW130131   0.541   4.197   1.550 -1.2149 -0.3011  0.0521
 6165SOL    HW230132   0.644   4.110   1.619 -0.1169  0.9893  0.8480
 6166SOL     OW30133   1.881   2.508   1.206  0.2089  0.1624 -0.2843
 6166SOL    HW130134   1.807   2.541   1.257 -0.0172  0.2855 -0.6979
 6166SOL    HW230135   1.857   2.549   1.123  1.3989  0.4309 -0.4957
 6167SOL     OW30136   1.490   2.201   2.796 -0.3818 -0.3553  0.0533
 6167SOL    HW130137   1.557   2.151   2.749 -0.5215 -0.9846  0.5150
 6167SOL    HW230138   1.547   2.216   2.871  1.4506  0.8119 -1.5845
 6168SOL     OW30139   3.454   0.179   2.903 -0.2723  0.5488  0.5399
 6168SOL    HW130140   3.428   0.194   2.813 -2.6672  0.4592  1.2354
 6168SOL    HW230141   3.535   0.127   2.901  0.2010  1.2347  1.5221
 6169SOL     OW30142   0.868   4.634   0.281 -0.6284  0.3067  0.1377
 6169SOL    HW130143   0.782   4.639   0.238  0.1203 -0.3455 -1.4214
 6169SOL    HW230144   0.848   4.571   0.350  1.0695  0.8685  1.1473
 6170SOL     OW30145   4.037   1.445   5.987 -0.5650 -0.0733 -0.0987
 6170SOL    HW130146   3.990   1.440   6.070 -1.6456  0.6253 -0.6761
 6170SOL    HW230147   4.112   1.499   6.010  1.3832 -1.8812 -2.2267
 6171SOL     OW30148   2.825   3.765   0.792  0.3201  0.2220  0.5765
 6171SOL    HW130149   2.808   3.690   0.735  0.7084 -0.3682  1.2275
 6171SOL    HW230150   2.742   3.810   0.803  1.6412  2.4682  1.2342
 6172SOL     OW30151   0.970   1.872   5.073  0.1772  0.3148 -0.2035
 6172SOL    HW130152   1.054   1.845   5.109  0.9693  2.3536 -0.4784
 6172SOL    HW230153   0.915   1.893   5.149 -0.3816  0.9685 -0.7791
 6173SOL     OW30154   2.786   2.270  11.774 -0.6610  0.4828 -0.1586
 6173SOL    HW130155   2.859   2.318  11.812  0.6526 -2.5451  1.1561
 6173SOL    HW230156   2.827   2.190  11.741  1.8394  1.4861  0.5107
 6174SOL     OW30157   1.752   3.395   2.962 -0.8737  0.0171  0.1127
 6174SOL    HW130158   1.717   3.423   3.046  0.1245  0.2222  0.4535
 6174SOL    HW230159   1.820   3.332   2.987 -0.7600 -0.1233 -0.5502
 6175SOL     OW30160   0.229   1.390   5.073 -0.0480  0.2789 -0.4900
 6175SOL    HW130161   0.235   1.295   5.088  0.1808  0.1431 -1.4564
 6175SOL    HW230162   0.302   1.419   5.127  0.8925 -0.8978 -1.1345
 6176SOL     OW30163   3.880   1.024  10.888 -0.5986 -0.0813  0.5906
 6176SOL    HW130164   3.873   1.052  10.797  1.8870  1.2959  0.8224
 6176SOL    HW230165   3.950   0.959  10.889 -0.3154  0.2028 -0.4723
 6177SOL     OW30166   0.211   1.209  10.098 -0.4046  0.7444  0.0265
 6177SOL    HW130167   0.187   1.300  10.081  0.3206  1.3131  2.0498
 6177SOL    HW230168   0.258   1.216  10.182 -1.7300  1.9044  0.6767
 6178SOL     OW30169   1.278   3.153   7.157 -0.2989 -0.1388  0.1326
 6178SOL    HW130170   1.230   3.073   7.176  0.1283 -0.7186 -1.1859
 6178SOL    HW230171   1.334   3.133   7.082 -1.7499 -2.1232 -0.4223
 6179SOL     OW30172   3.089   3.237   5.072 -0.0534  0.2531  0.4158
 6179SOL    HW130173   3.094   3.332   5.086 -3.3178  0.3178  1.1109
 6179SOL    HW230174   3.183   3.221   5.066 -0.1091 -0.3900  1.2815
 6180SOL     OW30175   0.062   3.355  12.858  0.8419 -0.4695 -0.4606
 6180SOL    HW130176   0.156   3.358  12.875  0.9242  1.7803 -1.2871
 6180SOL    HW230177   0.052   3.444  12.822  2.7239  0.4003  1.1912
 6181SOL     OW30178   2.942   1.299   6.393 -0.2337 -0.6268  0.0725
 6181SOL    HW130179   3.000   1.372   6.416 -1.0743  0.3642 -0.9894
 6181SOL    HW230180   2.857   1.324   6.430  0.4126  0.2345  0.9763
 6182SOL     OW30181   1.779   1.292   6.910 -0.0110 -0.0515 -0.2198
 6182SOL    HW130182   1.751   1.231   6.842 -0.2489 -1.8309  1.4633
 6182SOL    HW230183   1.845   1.232   6.943  0.3451  0.6988  0.4507
 6183SOL     OW30184   2.171   2.841   2.863  0.3678 -0.4363  0.5929
 6183SOL    HW130185   2.085   2.804   2.878  0.0329  0.0160 -0.2141
 6183SOL    HW230186   2.228   2.765   2.848 -0.3497 -0.2772 -2.8445
 6184SOL     OW30187   0.534   3.680  12.481 -0.1608 -0.3188 -0.1937
 6184SOL    HW130188   0.473   3.673  12.554 -0.6261 -1.4296 -0.6877
 6184SOL    HW230189   0.484   3.642  12.409 -1.8044 -2.3602  2.0185
 6185SOL     OW30190   1.792   1.378  15.774  0.3520 -0.5213  0.4817
 6185SOL    HW130191   1.841   1.302  15.805  6.7301  3.5669  0.4680
 6185SOL    HW230192   1.870   1.426  15.748  0.3537 -1.0887 -0.5595
 6186SOL     OW30193   4.725   3.982   1.165  0.2370 -0.4415  0.3407
 6186SOL    HW130194   4.687   3.912   1.112  1.9881 -0.0644 -1.4038
 6186SOL    HW230195   0.052   3.938   1.219 -1.7553 -1.2885  2.0719
 6187SOL     OW30196   4.208   2.555   9.629  0.0285 -0.0410  0.5037
 6187SOL    HW130197   4.157   2.595   9.559 -1.1096  1.0841  1.9606
 6187SOL    HW230198   4.294   2.564   9.588 -1.1887 -0.7347 -2.1541
 6188SOL     OW30199   0.288   0.137  10.792 -0.4419 -0.4553 -0.3460
 6188SOL    HW130200   0.341   0.093  10.859 -0.4680  0.7883  0.4778
 6188SOL    HW230201   0.269   0.055  10.746  1.2725 -1.1011  0.0729
 6189SOL     OW30202   0.473   4.174  11.497  0.1058 -0.5140  0.4842
 6189SOL    HW130203   0.529   4.208  11.567 -1.5806  0.5219  1.3453
 6189SOL    HW230204   0.507   4.220  11.421  0.5603 -0.3089  0.8103
 6190SOL     OW30205   2.578   1.299   8.586 -0.5223  0.3452  0.1099
 6190SOL    HW130206   2.591   1.287   8.680 -0.2073 -2.2750 -0.2890
 6190SOL    HW230207   2.499   1.252   8.562  0.5920 -1.3485 -0.2422
 6191SOL     OW30208   0.213   2.242   3.856  0.7392 -0.3529  0.1673
 6191SOL    HW130209   0.215   2.338   3.851  0.6808 -0.2075  2.9469
 6191SOL    HW230210   0.283   2.218   3.917  0.2152  0.3333  1.0353
 6192SOL     OW30211   2.262   2.401   4.334  0.0575 -0.1942  0.4207
 6192SOL    HW130212   2.192   2.375   4.395 -1.1874  1.9077 -0.1245
 6192SOL    HW230213   2.280   2.494   4.347 -1.0865  0.2565 -1.2673
 6193SOL     OW30214   3.017   1.825   6.080 -0.0738 -0.5444 -0.7229
 6193SOL    HW130215   3.099   1.774   6.081 -0.0579 -0.4626  1.4658
 6193SOL    HW230216   2.955   1.752   6.075 -1.4435  0.6932 -1.4218
 6194SOL     OW30217   1.603   1.411  12.711 -0.0516 -0.4822 -0.3222
 6194SOL    HW130218   1.555   1.338  12.749  1.7059 -0.8399  1.2091
 6194SOL    HW230219   1.693   1.378  12.705  0.4469  1.0823 -1.5731
 6195SOL     OW30220   4.710   3.325   4.360  0.4457  0.0141  0.0043
 6195SOL    HW130221   0.015   3.308   4.443  1.6436  1.9541 -0.2278
 6195SOL    HW230222   4.691   3.236   4.332 -0.2509  0.8419 -2.2270
 6196SOL     OW30223   3.432   2.030   4.697  0.9212 -0.1936 -0.0584
 6196SOL    HW130224   3.380   2.110   4.703  0.7158 -0.3665  0.4532
 6196SOL    HW230225   3.377   1.963   4.739 -0.4745  1.9048  1.4492
 6197SOL     OW30226   0.419   0.432   8.585  0.5873 -0.2007  0.0919
 6197SOL    HW130227   0.441   0.464   8.497  0.8373  0.8833  0.5425
 6197SOL    HW230228   0.506   0.400   8.610  0.4035 -2.2258 -1.8861
 6198SOL     OW30229   1.730   3.917   7.009 -0.4871 -0.1310 -0.6731
 6198SOL    HW130230   1.655   3.898   7.065  0.9351 -2.6516  0.3621
 6198SOL    HW230231   1.745   3.833   6.966 -0.3995  0.1331 -1.1580
 6199SOL     OW30232   3.585   1.056  15.061 -0.1545 -0.0344  0.6449
 6199SOL    HW130233   3.631   1.006  14.993  1.3322 -0.5725  2.0533
 6199SOL    HW230234   3.577   0.990  15.129  0.5477  2.0551  2.7612
 6200SOL     OW30235   2.316   2.336   2.244  0.4415 -0.1425 -0.0163
 6200SOL    HW130236   2.223   2.347   2.228  0.9170  1.4667 -1.5920
 6200SOL    HW230237   2.356   2.417   2.213 -1.5069  1.4572  1.7078
 6201SOL     OW30238   0.778   0.685   8.578 -0.5255 -0.1343  0.0927
 6201SOL    HW130239   0.696   0.657   8.536  0.0791 -0.1265 -1.0855
 6201SOL    HW230240   0.825   0.716   8.501  1.1928 -1.8673  0.4416
 6202SOL     OW30241   1.909   1.050   8.292  0.3947 -0.1394 -0.3135
 6202SOL    HW130242   1.940   1.110   8.224 -2.0026 -0.5621 -1.7695
 6202SOL    HW230243   1.839   1.106   8.326 -1.3914 -0.2355 -3.8669
 6203SOL     OW30244   4.016   1.377  14.035  0.5360 -0.1757 -0.1318
 6203SOL    HW130245   4.040   1.460  14.076  1.9779 -0.6594  0.0110
 6203SOL    HW230246   4.029   1.393  13.942  1.9500  3.8173  0.7753
 6204SOL     OW30247   2.700   0.179  15.356  0.9908  0.1001  0.0316
 6204SOL    HW130248   2.693   0.085  15.343  0.6860  0.4027 -1.9067
 6204SOL    HW230249   2.612   0.206  15.330  1.2575  1.8294  0.8791
 6205SOL     OW30250   0.331   0.108   2.359 -0.4111  0.5189  0.5085
 6205SOL    HW130251   0.346   0.092   2.453 -0.3613 -0.1040  0.3970
 6205SOL    HW230252   0.316   0.020   2.325 -1.1276  1.4608 -1.6440
 6206SOL     OW30253   2.202   3.395  11.912  0.4136 -0.3658 -0.0773
 6206SOL    HW130254   2.232   3.481  11.883  0.7154 -0.4006  0.1296
 6206SOL    HW230255   2.255   3.331  11.864 -0.4937 -0.9301 -0.3293
 6207SOL     OW30256   4.065   4.533   5.422 -0.3271 -0.0114  0.3740
 6207SOL    HW130257   4.011   4.519   5.345 -0.7785 -2.7381  1.1920
 6207SOL    HW230258   4.009   4.592   5.473 -2.4302  0.9342 -3.0657
 6208SOL     OW30259   0.047   2.825   7.042 -0.2929  0.1760  0.1241
 6208SOL    HW130260   4.710   2.848   6.988 -2.3921 -2.0437  2.1170
 6208SOL    HW230261   0.068   2.734   7.020 -0.9908 -0.1848  0.9776
 6209SOL     OW30262   1.587   0.442  16.816  0.0979 -0.8166  0.3785
 6209SOL    HW130263   1.618   0.521  16.771 -0.5164 -0.8793 -0.1557
 6209SOL    HW230264   1.535   0.482  16.886  0.0791  1.0346 -0.6976
 6210SOL     OW30265   1.396   2.812   2.975 -0.5593 -0.1904  0.3017
 6210SOL    HW130266   1.398   2.766   2.891 -2.0878 -0.6841  0.5340
 6210SOL    HW230267   1.470   2.872   2.964 -0.2836 -0.6025 -0.1037
 6211SOL     OW30268   3.856   4.487  14.910  0.2357 -0.7156 -0.4817
 6211SOL    HW130269   3.811   4.572  14.911 -0.1731 -0.9435  0.5842
 6211SOL    HW230270   3.787   4.441  14.862 -1.4220  0.4205  0.8018
 6212SOL     OW30271   2.952   4.319   6.655 -0.1321 -0.0689  0.0378
 6212SOL    HW130272   2.903   4.250   6.701  0.1271 -0.7343 -0.6820
 6212SOL    HW230273   3.003   4.349   6.730  0.1204  0.3144 -0.2925
 6213SOL     OW30274   1.037   4.025  12.831  0.3012 -0.8075 -0.1636
 6213SOL    HW130275   1.081   4.109  12.817 -1.2271 -0.2468 -1.6608
 6213SOL    HW230276   1.015   3.993  12.743  1.4725  0.3028 -0.8521
 6214SOL     OW30277   4.363   2.463   2.308 -1.1274 -0.5476  0.0792
 6214SOL    HW130278   4.365   2.536   2.370 -3.8859  0.0185 -0.5371
 6214SOL    HW230279   4.404   2.504   2.232  2.7448 -0.8419  1.9867
 6215SOL     OW30280   0.068   2.873   5.452  0.0710 -0.3999  0.1433
 6215SOL    HW130281   0.132   2.922   5.503  1.9496  0.2555 -2.8251
 6215SOL    HW230282   0.058   2.785   5.490  0.2695 -1.0377 -1.2798
 6216SOL     OW30283   2.938   0.901   6.021  0.4288  0.0981 -0.6569
 6216SOL    HW130284   2.992   0.937   6.091  0.0680 -2.1214  0.7780
 6216SOL    HW230285   2.854   0.921   6.063  1.1122 -0.4712  0.9814
 6217SOL     OW30286   0.462   1.367   1.851  0.1769  0.0248 -0.5732
 6217SOL    HW130287   0.389   1.366   1.913 -0.2022 -1.9660 -1.0431
 6217SOL    HW230288   0.525   1.412   1.907 -0.3418  0.9470 -0.7390
 6218SOL     OW30289   3.942   3.336  17.380 -0.0850  0.1183 -0.1575
 6218SOL    HW130290   3.899   3.315  17.297 -0.1494  0.2855 -0.1674
 6218SOL    HW230291   3.861   3.335  17.431 -0.0523  1.2657 -0.0755
 6219SOL     OW30292   0.317   0.529  14.980 -0.2150  0.3751  0.3010
 6219SOL    HW130293   0.330   0.439  15.007 -1.4301 -0.3245 -1.4303
 6219SOL    HW230294   0.413   0.529  14.977 -0.2040  0.5239  0.6278
 6220SOL     OW30295   3.175   2.292   2.417  0.2453 -0.0982  0.4420
 6220SOL    HW130296   3.246   2.348   2.450  1.1583 -0.9658 -0.0259
 6220SOL    HW230297   3.099   2.344   2.441 -1.4523 -2.4368  0.0804
 6221SOL     OW30298   2.608   2.944   2.490 -0.1913  0.7172  0.3065
 6221SOL    HW130299   2.615   2.885   2.414  2.0253  2.1975 -0.6276
 6221SOL    HW230300   2.513   2.951   2.497 -0.1881 -0.8811  2.1381
 6222SOL     OW30301   3.449   1.978  12.218 -0.2407 -0.6560 -0.3429
 6222SOL    HW130302   3.380   1.950  12.279 -0.6481 -0.1832 -0.5892
 6222SOL    HW230303   3.448   1.914  12.147 -2.1478 -0.9844 -0.0144
 6223SOL     OW30304   4.439   3.748   7.443 -0.4134 -0.2945  0.5284
 6223SOL    HW130305   4.344   3.758   7.435 -0.6515 -0.9992  2.4199
 6223SOL    HW230306   4.444   3.670   7.388 -3.5538  1.1300 -1.7450
 6224SOL     OW30307   1.670   2.341   8.181 -0.2524 -0.3478  0.6771
 6224SOL    HW130308   1.602   2.390   8.227  0.0198 -0.4788  1.2221
 6224SOL    HW230309   1.746   2.400   8.177  1.5625 -2.8115 -1.2163
 6225SOL     OW30310   1.418   2.887  12.775  0.5424  0.7399 -0.3255
 6225SOL    HW130311   1.429   2.979  12.751 -0.0954  1.0497  0.5951
 6225SOL    HW230312   1.339   2.899  12.828  0.3402 -1.3355 -0.1666
 6226SOL     OW30313   0.350   0.124   0.295  0.5528 -0.1286  0.7971
 6226SOL    HW130314   0.380   0.214   0.285  1.2004 -0.4764 -0.3806
 6226SOL    HW230315   0.409   0.096   0.366  0.2531  0.3115  1.2220
 6227SOL     OW30316   1.353   1.262   2.610 -0.3105 -0.0339  0.1584
 6227SOL    HW130317   1.363   1.251   2.704 -1.3488  0.6615  0.3576
 6227SOL    HW230318   1.345   1.169   2.588 -1.2602  0.0349  0.1810
 6228SOL     OW30319   4.114   1.179   4.224 -0.4007 -0.4665  0.3607
 6228SOL    HW130320   4.189   1.121   4.232 -1.8994 -2.4621 -0.0274
 6228SOL    HW230321   4.079   1.125   4.153 -0.5910 -1.8682  1.5146
 6229SOL     OW30322   0.825   0.191   6.133 -0.1820 -0.0897 -0.0193
 6229SOL    HW130323   0.812   0.212   6.225 -2.3613  0.1867 -0.4026
 6229SOL    HW230324   0.894   0.256   6.115 -0.3106  0.0383 -0.0485
 6230SOL     OW30325   1.816   1.197  14.186 -0.6195 -0.7082  0.7125
 6230SOL    HW130326   1.806   1.111  14.226  0.6641 -1.4304 -0.5352
 6230SOL    HW230327   1.791   1.179  14.096  0.5251  0.9684  0.0712
 6231SOL     OW30328   0.680   1.804   5.593 -0.0287 -0.5746 -0.2499
 6231SOL    HW130329   0.720   1.793   5.507  1.2031 -0.0006  0.2527
 6231SOL    HW230330   0.698   1.717   5.630 -1.6377  0.1865  2.3814
 6232SOL     OW30331   4.588   3.747  10.973 -0.5079 -0.0814 -0.4620
 6232SOL    HW130332   4.608   3.687  10.901 -1.5313 -0.9723 -0.0121
 6232SOL    HW230333   4.648   3.714  11.039  0.2364  1.0982 -0.5440
 6233SOL     OW30334   4.056   4.506   6.964  0.5317  0.5579 -0.0544
 6233SOL    HW130335   4.130   4.447   6.951 -0.6792 -0.5799 -1.7275
 6233SOL    HW230336   4.027   4.487   7.053 -0.4023  0.9877 -0.2638
 6234SOL     OW30337   3.928   1.207  10.644 -0.6306 -0.2231 -0.2224
 6234SOL    HW130338   3.841   1.248  10.642 -0.2871  0.5372  0.2224
 6234SOL    HW230339   3.977   1.272  10.695  0.2939 -1.5118  0.5131
 6235SOL     OW30340   0.584   0.385   0.351 -0.2319  0.6257  0.1342
 6235SOL    HW130341   0.658   0.432   0.314 -0.5474  0.9734 -0.0523
 6235SOL    HW230342   0.517   0.447   0.321 -1.9835 -0.8551  0.9743
 6236SOL     OW30343   2.670   2.499   1.372 -0.2017 -0.2218 -1.0559
 6236SOL    HW130344   2.576   2.491   1.357 -0.4749 -0.8814  1.1111
 6236SOL    HW230345   2.660   2.564   1.441  2.2791 -1.9149  0.9237
 6237SOL     OW30346   3.555   1.563   2.267  0.1905 -0.3268  0.0893
 6237SOL    HW130347   3.486   1.504   2.238  1.5548 -2.0809  0.4626
 6237SOL    HW230348   3.518   1.619   2.335  1.9498  0.6193  0.2827
 6238SOL     OW30349   1.414   2.763   5.546 -0.4874 -0.6807 -0.2748
 6238SOL    HW130350   1.415   2.756   5.450  0.5578 -2.2700 -0.1555
 6238SOL    HW230351   1.320   2.777   5.555 -0.3205 -0.3237  0.8450
 6239SOL     OW30352   0.308   2.835   6.810 -0.0309 -0.5251  0.1966
 6239SOL    HW130353   0.311   2.851   6.716 -2.4540 -2.7682 -0.2728
 6239SOL    HW230354   0.285   2.742   6.808 -0.8379 -0.2950 -0.8510
 6240SOL     OW30355   0.290   2.091   7.636  0.2020  0.0302  0.4466
 6240SOL    HW130356   0.244   2.108   7.718  0.6026  0.4481  0.5823
 6240SOL    HW230357   0.328   2.008   7.665 -1.9285 -1.6027 -1.3942
 6241SOL     OW30358   4.557   1.937   3.872  0.1466 -0.2948 -0.0154
 6241SOL    HW130359   4.594   2.025   3.867 -0.9513 -0.0069 -3.1001
 6241SOL    HW230360   4.501   1.946   3.795  2.4212 -0.0332 -1.6287
 6242SOL     OW30361   0.981   0.880   1.925 -0.1712 -0.4907  0.2016
 6242SOL    HW130362   0.994   0.914   2.013 -1.2567 -2.0987  0.9785
 6242SOL    HW230363   1.007   0.788   1.927 -2.2889 -1.0668  2.0252
 6243SOL     OW30364   2.718   3.889  14.067  0.3824  0.0080 -0.1137
 6243SOL    HW130365   2.793   3.931  14.026  0.1615  0.1322 -0.3868
 6243SOL    HW230366   2.717   3.806  14.021  0.7187 -0.3466  0.5258
 6244SOL     OW30367   2.770   2.991   8.615 -0.1424 -0.0125  0.6612
 6244SOL    HW130368   2.775   3.063   8.677  2.0068 -0.5969  1.1915
 6244SOL    HW230369   2.680   2.963   8.630  0.0170 -2.4001 -2.8316
 6245SOL     OW30370   0.257   0.179   3.725 -0.7156  1.1439  0.8113
 6245SOL    HW130371   0.167   0.212   3.733 -0.7041  1.3120  0.2253
 6245SOL    HW230372   0.259   0.130   3.808 -3.5287 -0.8291 -0.2869
 6246SOL     OW30373   1.613   4.365  13.813 -0.5723  0.0065  0.1555
 6246SOL    HW130374   1.619   4.327  13.725  1.0985  0.0392  0.2496
 6246SOL    HW230375   1.518   4.378  13.808 -0.2732  0.7294 -4.0527
 6247SOL     OW30376   3.894   2.277   4.683 -0.3118  0.1206  0.5190
 6247SOL    HW130377   3.925   2.194   4.718  2.2775  1.5162  1.5314
 6247SOL    HW230378   3.977   2.324   4.675  0.0032 -0.7714 -1.3718
 6248SOL     OW30379   1.307   3.232   1.204  0.3426  0.5770 -0.1770
 6248SOL    HW130380   1.304   3.198   1.115  0.6968  0.2302 -0.0556
 6248SOL    HW230381   1.385   3.196   1.246 -1.0513 -0.7793  1.2806
 6249SOL     OW30382   3.845   3.658   3.214  0.3071  0.6071 -0.2877
 6249SOL    HW130383   3.868   3.640   3.305 -1.1151  0.8122  0.1147
 6249SOL    HW230384   3.777   3.725   3.213  0.8723  1.1819 -0.0675
 6250SOL     OW30385   1.306   4.487   6.835 -0.2630 -0.1364 -0.1479
 6250SOL    HW130386   1.337   4.513   6.748 -1.9754  1.9503 -0.1329
 6250SOL    HW230387   1.378   4.496   6.897  1.7109  2.6671 -2.9093
 6251SOL     OW30388   0.236   3.049  13.581  0.1077  0.3596 -0.2695
 6251SOL    HW130389   0.271   3.130  13.545 -1.7581  0.6814 -1.4141
 6251SOL    HW230390   0.301   3.026  13.647  0.2384  0.7882 -0.2528
 6252SOL     OW30391   2.905   0.543   5.216 -0.6881  0.8302 -0.4915
 6252SOL    HW130392   2.938   0.618   5.166  1.3335 -1.0082 -1.9431
 6252SOL    HW230393   2.985   0.503   5.251 -1.1553  0.5129  0.2211
 6253SOL     OW30394   2.362   0.287   0.664 -0.0433 -1.0417  0.2453
 6253SOL    HW130395   2.378   0.365   0.717 -0.1844 -0.6300 -0.3102
 6253SOL    HW230396   2.268   0.273   0.668 -0.5441  2.1138 -0.3378
 6254SOL     OW30397   3.041   2.679   2.915  0.1393  0.0187 -0.1245
 6254SOL    HW130398   3.124   2.640   2.941 -0.0014 -1.0622 -1.2615
 6254SOL    HW230399   3.053   2.691   2.821  1.3065  0.3599  0.0795
 6255SOL     OW30400   2.189   2.442   3.063  0.1541 -0.2275 -0.0134
 6255SOL    HW130401   2.216   2.380   2.995 -0.0747 -1.6246  1.1651
 6255SOL    HW230402   2.241   2.521   3.047  2.0389 -1.1044  1.7749
 6256SOL     OW30403   4.302   3.597   5.370  0.6338 -0.5518  0.3479
 6256SOL    HW130404   4.351   3.565   5.294 -0.8564  0.8022 -1.1754
 6256SOL    HW230405   4.250   3.520   5.391  0.9324 -0.3771  1.7233
 6257SOL     OW30406   3.569   1.645   9.023  0.3245  0.3092  0.2439
 6257SOL    HW130407   3.571   1.582   9.096 -0.0590  2.2459  1.9118
 6257SOL    HW230408   3.657   1.630   8.987  1.1658  0.2695  2.3042
 6258SOL     OW30409   3.610   3.722  14.624 -0.0529  0.6794  0.3293
 6258SOL    HW130410   3.584   3.721  14.531  0.7883  0.7309  0.0966
 6258SOL    HW230411   3.686   3.664  14.626 -1.5830 -1.2800  1.9360
 6259SOL     OW30412   3.964   0.028   0.425  0.1068  0.8225  0.2528
 6259SOL    HW130413   3.936   4.712   0.498 -1.3839  0.6815 -0.4068
 6259SOL    HW230414   3.937   4.718   0.346  0.3931  1.1965 -0.0771
 6260SOL     OW30415   1.394   3.436   7.362 -0.3347  0.1417 -0.6041
 6260SOL    HW130416   1.361   3.350   7.390  0.3733  0.5553  1.5502
 6260SOL    HW230417   1.337   3.500   7.405  0.1238  0.9721 -1.2337
 6261SOL     OW30418   3.372   1.369   2.175 -0.1007  0.0203  0.4007
 6261SOL    HW130419   3.385   1.295   2.117 -0.2726  1.3173 -1.2971
 6261SOL    HW230420   3.304   1.342   2.237 -0.5480 -1.1623 -0.6155
 6262SOL     OW30421   3.318   0.538   2.725 -0.0602 -0.4012  0.5196
 6262SOL    HW130422   3.281   0.578   2.646 -0.0827  0.6872  1.0792
 6262SOL    HW230423   3.283   0.449   2.724 -1.0922  0.0223 -1.3885
 6263SOL     OW30424   4.158   4.153   8.785  0.2279  0.0365  0.1038
 6263SOL    HW130425   4.196   4.092   8.720  0.2412 -1.1765  1.2481
 6263SOL    HW230426   4.073   4.110   8.789 -0.3974  1.0743 -1.9966
 6264SOL     OW30427   2.239   3.635  10.902  0.2215 -0.0381  0.0837
 6264SOL    HW130428   2.323   3.590  10.901  0.1464 -0.2894  4.3438
 6264SOL    HW230429   2.181   3.577  10.852  2.2691 -2.2959  0.3452
 6265SOL     OW30430   3.989   2.049   1.690  0.2290 -0.6756  0.2350
 6265SOL    HW130431   4.064   2.070   1.746 -1.1858 -0.1354  1.9395
 6265SOL    HW230432   3.914   2.061   1.748 -1.3543 -0.0489 -1.9763
 6266SOL     OW30433   0.232   1.614   2.303 -0.8585  0.1862 -0.0713
 6266SOL    HW130434   0.315   1.618   2.256 -1.0349  1.8135 -0.2332
 6266SOL    HW230435   0.180   1.679   2.256 -0.2517  0.6507 -0.0972
 6267SOL     OW30436   0.942   3.237   8.939  0.0989 -0.2771 -0.5789
 6267SOL    HW130437   1.019   3.195   8.977  0.2975 -0.8845 -1.6422
 6267SOL    HW230438   0.883   3.236   9.014 -0.1779  1.9804 -0.7596
 6268SOL     OW30439   3.403   0.115   1.942 -0.1156 -0.7184 -0.3676
 6268SOL    HW130440   3.498   0.106   1.942  0.2271  2.9611 -0.4306
 6268SOL    HW230441   3.381   0.164   2.021 -2.2197 -0.9608 -0.8145
 6269SOL     OW30442   1.936   0.344  10.333  0.5716  0.2472  0.2403
 6269SOL    HW130443   1.994   0.326  10.408  0.8657  1.5192  0.3172
 6269SOL    HW230444   1.858   0.345  10.388  0.5499 -1.3580  0.2437
 6270SOL     OW30445   2.063   3.383   5.161  0.9127  0.2463 -0.1107
 6270SOL    HW130446   2.086   3.475   5.178  1.3739 -0.2160  1.7775
 6270SOL    HW230447   2.079   3.338   5.244 -0.7155 -0.1557 -0.0090
 6271SOL     OW30448   4.621   2.006   9.974  0.1181 -0.1649  0.2513
 6271SOL    HW130449   4.562   2.041  10.041  0.2844  0.6778 -0.0411
 6271SOL    HW230450   4.555   1.976   9.911 -0.5234  0.2275  0.7354
 6272SOL     OW30451   2.970   3.944   2.858  0.2584  0.5966  0.0074
 6272SOL    HW130452   3.051   3.901   2.829 -1.3848 -0.2705 -3.2522
 6272SOL    HW230453   2.998   4.031   2.885 -1.9099  1.1475  0.4619
 6273SOL     OW30454   3.318   3.907   0.766 -0.3676 -0.1167 -0.0901
 6273SOL    HW130455   3.247   3.882   0.707 -1.0406 -0.5163  0.8810
 6273SOL    HW230456   3.280   3.990   0.795 -0.0314 -0.0646  0.1990
 6274SOL     OW30457   1.841   0.627   3.940 -0.3882 -0.3788  0.5232
 6274SOL    HW130458   1.797   0.653   3.859 -1.3092 -2.6361  0.2914
 6274SOL    HW230459   1.778   0.562   3.970  1.7042 -1.7764  1.8520
 6275SOL     OW30460   2.614   1.747  12.214 -0.0648 -0.3727 -0.2410
 6275SOL    HW130461   2.661   1.826  12.238  0.4306 -0.5012 -0.7864
 6275SOL    HW230462   2.581   1.721  12.300  0.2933 -1.7153 -0.5064
 6276SOL     OW30463   3.676   3.673   2.111 -0.2397  0.2790 -0.3991
 6276SOL    HW130464   3.717   3.591   2.135  0.1842  0.7825  0.5844
 6276SOL    HW230465   3.600   3.665   2.169 -1.2751  1.2511 -1.5937
 6277SOL     OW30466   1.381   4.281   7.951  0.3585 -0.5244 -0.0411
 6277SOL    HW130467   1.312   4.301   7.889  1.1788 -0.7429 -1.0178
 6277SOL    HW230468   1.451   4.265   7.888  0.1116 -1.1807 -0.1441
 6278SOL     OW30469   2.221   3.818   5.755  0.8289  0.1307  0.4393
 6278SOL    HW130470   2.131   3.832   5.727  0.3414 -1.1720  1.3400
 6278SOL    HW230471   2.219   3.776   5.841  1.2651 -1.1526 -0.1709
 6279SOL     OW30472   0.299   3.758   8.037  0.1843  0.4128 -0.0917
 6279SOL    HW130473   0.289   3.663   8.030 -0.0613  0.6503 -2.6811
 6279SOL    HW230474   0.250   3.791   7.962  0.6404  0.2453 -0.4621
 6280SOL     OW30475   3.953   2.065   6.104 -0.1794  0.0141  0.5863
 6280SOL    HW130476   3.909   2.040   6.185  0.2852 -0.4501  0.7006
 6280SOL    HW230477   3.943   1.986   6.051 -1.7246 -0.5275  1.7104
 6281SOL     OW30478   1.127   2.656   7.176  0.2279  0.4121 -0.2060
 6281SOL    HW130479   1.138   2.568   7.139 -0.6734  0.3085 -0.2107
 6281SOL    HW230480   1.036   2.652   7.204  0.1736 -0.8706 -0.5438
 6282SOL     OW30481   1.180   1.022  11.252 -0.1509 -0.2406  0.0403
 6282SOL    HW130482   1.222   1.100  11.288  2.7854 -1.2803 -1.2024
 6282SOL    HW230483   1.106   0.999  11.309 -0.8322  2.4906  0.2477
 6283SOL     OW30484   3.680   2.089   8.565 -0.3167 -0.7013 -0.3406
 6283SOL    HW130485   3.768   2.088   8.528 -0.2068 -0.3713 -0.0832
 6283SOL    HW230486   3.712   2.104   8.654 -0.1933 -0.2910 -0.4552
 6284SOL     OW30487   2.241   0.664   1.218 -0.0741 -0.0072  0.3384
 6284SOL    HW130488   2.335   0.655   1.202 -0.3089  1.6362 -1.8551
 6284SOL    HW230489   2.241   0.718   1.297 -0.5995  0.4594  0.0145
 6285SOL     OW30490   3.298   2.521   7.889  0.0340  0.4239  0.3740
 6285SOL    HW130491   3.276   2.500   7.798 -0.5754  0.3682  0.5361
 6285SOL    HW230492   3.296   2.617   7.890 -2.4933  0.3789  0.1165
 6286SOL     OW30493   0.104   3.239   4.593 -0.0866 -0.3571 -0.0803
 6286SOL    HW130494   0.114   3.169   4.658 -1.8522 -1.0279 -0.5375
 6286SOL    HW230495   0.050   3.295   4.649  2.3509 -0.2376  2.1421
 6287SOL     OW30496   4.670   0.789   9.120  0.5016  0.6101  0.2279
 6287SOL    HW130497   4.687   0.859   9.183  0.3528  2.6476 -2.0146
 6287SOL    HW230498   0.016   0.746   9.116 -0.0999 -0.5083 -0.6265
 6288SOL     OW30499   2.365   3.611  11.361 -0.0067 -0.4909 -0.1031
 6288SOL    HW130500   2.331   3.671  11.427 -0.2413 -0.4783 -0.2322
 6288SOL    HW230501   2.424   3.669  11.314  1.7493 -2.0174  0.2050
 6289SOL     OW30502   2.431   0.500   0.849 -0.6804  0.2027 -0.3986
 6289SOL    HW130503   2.469   0.444   0.917  0.2850 -0.7014 -1.6861
 6289SOL    HW230504   2.461   0.582   0.889 -0.7390  0.8199 -1.6391
 6290SOL     OW30505   0.809   4.365   8.887 -0.0487  0.5760 -0.4934
 6290SOL    HW130506   0.744   4.296   8.872 -1.1087  0.9137  2.6266
 6290SOL    HW230507   0.832   4.354   8.980 -2.4390 -0.1262  0.0032
 6291SOL     OW30508   4.364   3.210   4.173  0.3566  0.4483  0.3882
 6291SOL    HW130509   4.391   3.144   4.110 -0.9722 -0.7400  1.0675
 6291SOL    HW230510   4.319   3.159   4.240 -0.3205 -0.6988 -0.9598
 6292SOL     OW30511   3.849   3.384   8.576 -0.0372  0.0841 -0.0629
 6292SOL    HW130512   3.932   3.347   8.606 -0.3162  0.9321  1.7267
 6292SOL    HW230513   3.875   3.442   8.505 -0.5332 -0.5918 -0.7973
 6293SOL     OW30514   0.229   0.101  13.071  0.6465 -0.0112  0.1395
 6293SOL    HW130515   0.236   0.035  13.140  2.4390  0.4028  0.3643
 6293SOL    HW230516   0.287   0.170  13.105 -0.7976  0.7638  1.0292
 6294SOL     OW30517   1.750   3.370  16.454  0.7425 -0.1235  0.2060
 6294SOL    HW130518   1.824   3.343  16.508 -0.1332 -0.6081  1.1582
 6294SOL    HW230519   1.695   3.397  16.528  0.7847  0.0385  0.1768
 6295SOL     OW30520   4.213   2.880   4.150  0.6101  0.1291  0.0866
 6295SOL    HW130521   4.223   2.948   4.217 -2.1278  0.6279 -0.0122
 6295SOL    HW230522   4.118   2.868   4.149  0.6650 -0.6486  3.6387
 6296SOL     OW30523   3.948   3.113   2.881 -0.0202 -0.3523 -0.2757
 6296SOL    HW130524   4.022   3.057   2.858 -0.2716 -0.7545 -0.1170
 6296SOL    HW230525   3.961   3.195   2.835 -0.0972  0.7652  1.6910
 6297SOL     OW30526   3.280   2.814   7.876 -0.4566  0.2382  0.1642
 6297SOL    HW130527   3.244   2.856   7.954 -1.3858 -1.6175  0.7238
 6297SOL    HW230528   3.216   2.836   7.808 -0.8717 -1.1809  0.1000
 6298SOL     OW30529   1.830   2.253   6.336  0.3334 -0.4454  0.3611
 6298SOL    HW130530   1.738   2.226   6.340  0.4574 -1.0207 -0.5822
 6298SOL    HW230531   1.839   2.285   6.247  1.5768  0.5476  0.8445
 6299SOL     OW30532   2.355   2.625   2.400  0.9291 -0.7041  0.1818
 6299SOL    HW130533   2.374   2.618   2.307 -1.1020  1.0573 -0.3621
 6299SOL    HW230534   2.436   2.599   2.444 -0.4611 -0.6114  2.8013
 6300SOL     OW30535   4.692   0.945   1.701  0.2582 -1.0843 -0.0924
 6300SOL    HW130536   4.710   0.974   1.612  0.3305  1.2262  0.6775
 6300SOL    HW230537   0.035   0.896   1.714  1.2619  0.5698 -0.1018
 6301SOL     OW30538   4.537   4.599   4.264 -0.8000 -0.4095 -0.0412
 6301SOL    HW130539   4.442   4.594   4.254 -0.9205  1.7691 -0.0407
 6301SOL    HW230540   4.542   4.565   4.353  0.6238  1.8854  0.7753
 6302SOL     OW30541   3.537   0.015   8.785  0.3523 -0.4070 -0.3115
 6302SOL    HW130542   3.515   0.098   8.744 -0.3464  0.0545  0.9998
 6302SOL    HW230543   3.583   4.711   8.713  1.0492 -1.6422  0.8536
 6303SOL     OW30544   0.483   2.262   7.739  0.6216 -0.2935 -0.4111
 6303SOL    HW130545   0.422   2.335   7.724  2.1210  1.3434  1.6053
 6303SOL    HW230546   0.459   2.214   7.659 -1.2764  0.6410 -0.4100
 6304SOL     OW30547   2.870   3.646   3.072  0.4157  0.0274  0.1290
 6304SOL    HW130548   2.936   3.578   3.087  0.4804  0.0078 -0.2573
 6304SOL    HW230549   2.934   3.717   3.085 -1.0878  1.1404  1.4843
 6305SOL     OW30550   3.381   0.016  14.754  0.1019  0.2143  0.2893
 6305SOL    HW130551   3.453   0.035  14.815  0.4312 -2.7011  0.8099
 6305SOL    HW230552   3.328   0.096  14.750  1.2358  0.9088 -1.3221
 6306SOL     OW30553   0.665   1.387  10.324  0.3589 -0.1885 -0.5810
 6306SOL    HW130554   0.718   1.311  10.348 -0.2837  0.0309  1.5154
 6306SOL    HW230555   0.694   1.447  10.394  2.1758 -1.9113  0.1534
 6307SOL     OW30556   1.477   2.572   1.090  0.6893 -0.3516 -0.0999
 6307SOL    HW130557   1.455   2.494   1.038  1.1250 -0.3343 -0.3111
 6307SOL    HW230558   1.396   2.588   1.138  1.8320 -0.8467  2.0127
 6308SOL     OW30559   3.528   0.193   1.034 -0.3041 -0.6993 -0.1612
 6308SOL    HW130560   3.516   0.122   0.970 -3.9429  1.4181 -1.8711
 6308SOL    HW230561   3.528   0.147   1.117  2.8229  0.6118  0.5557
 6309SOL     OW30562   1.392   3.280   6.636  0.2034 -0.4201 -0.3416
 6309SOL    HW130563   1.380   3.342   6.564 -0.9799  1.1123  1.1683
 6309SOL    HW230564   1.332   3.320   6.699  1.4851  1.1813 -0.1447
 6310SOL     OW30565   3.023   2.623   4.710  0.9148 -0.3005  0.0597
 6310SOL    HW130566   3.029   2.704   4.761 -0.1347 -0.0394 -0.2380
 6310SOL    HW230567   2.959   2.651   4.644  0.5286 -2.1628 -0.3704
 6311SOL     OW30568   2.359   0.136   6.138 -0.1579 -0.2462  0.5669
 6311SOL    HW130569   2.451   0.124   6.161  0.6794  1.2656 -1.9631
 6311SOL    HW230570   2.356   0.228   6.165 -1.3173  0.3643 -1.7082
 6312SOL     OW30571   4.621   3.729   0.081  0.0042 -0.4105  0.1281
 6312SOL    HW130572   4.626   3.761  17.744 -2.3105 -0.8335 -0.1385
 6312SOL    HW230573   4.535   3.689   0.089  0.9980 -2.4355  0.5028
 6313SOL     OW30574   3.129   3.473   1.011 -0.0424  0.1726  0.5496
 6313SOL    HW130575   3.185   3.550   1.004 -0.4690  0.5715  1.4623
 6313SOL    HW230576   3.103   3.454   0.921 -1.8224 -0.4371  1.1913
 6314SOL     OW30577   0.463   4.665   5.392  0.2118  0.2985  0.0599
 6314SOL    HW130578   0.494   4.650   5.302 -4.2482  0.1613 -1.4425
 6314SOL    HW230579   0.386   4.721   5.380  1.0285  1.6286  1.0544
 6315SOL     OW30580   0.793   0.531   2.762 -0.2752  0.8419  0.0440
 6315SOL    HW130581   0.858   0.479   2.809  0.5085 -1.2198 -3.3199
 6315SOL    HW230582   0.725   0.533   2.829  1.5277 -4.4900  2.0108
 6316SOL     OW30583   1.253   2.338   6.546  0.3703  0.4082  0.0007
 6316SOL    HW130584   1.171   2.346   6.498  0.5187  1.5457 -0.0575
 6316SOL    HW230585   1.223   2.287   6.621  1.6086 -1.2023 -0.5995
 6317SOL     OW30586   1.570   2.690   4.084  0.4185 -0.2679  0.0926
 6317SOL    HW130587   1.618   2.660   4.007  1.0556  0.2144  0.2997
 6317SOL    HW230588   1.623   2.642   4.148 -0.2107  1.2711  1.7745
 6318SOL     OW30589   1.167   2.347   8.497  0.0359 -0.0823  0.1796
 6318SOL    HW130590   1.155   2.263   8.453 -1.3692 -0.6907  1.7244
 6318SOL    HW230591   1.106   2.328   8.568 -0.2412  1.0387  0.2448
 6319SOL     OW30592   1.519   0.522  14.895 -0.3423 -0.0290  0.7725
 6319SOL    HW130593   1.600   0.527  14.844  0.5547 -1.4600  2.0561
 6319SOL    HW230594   1.533   0.576  14.972 -1.5548 -0.6722  1.4495
 6320SOL     OW30595   0.045   0.931   0.341  0.2042  0.1222 -0.5625
 6320SOL    HW130596   4.696   0.967   0.331 -1.1675 -3.1934 -0.1838
 6320SOL    HW230597   0.089   1.013   0.366 -0.3347  0.9490 -2.3285
 6321SOL     OW30598   2.043   2.389   2.167 -0.2702  0.1269 -0.1734
 6321SOL    HW130599   2.008   2.468   2.209  1.3169 -0.9140  3.1401
 6321SOL    HW230600   1.965   2.339   2.143 -0.1837  0.4534 -1.1568
 6322SOL     OW30601   4.529   0.356   2.004  0.4071  0.4980 -0.6835
 6322SOL    HW130602   4.540   0.357   1.909 -0.6721  0.3469 -0.8104
 6322SOL    HW230603   4.620   0.348   2.033  0.0559 -0.4520  0.1807
 6323SOL     OW30604   2.081   2.920  11.281 -0.1087 -0.2175 -0.6053
 6323SOL    HW130605   2.036   2.915  11.365  0.0427 -1.5092 -0.6060
 6323SOL    HW230606   2.118   3.008  11.292  1.5201 -0.6991 -2.1443
 6324SOL     OW30607   1.878   2.677   0.696  0.3717  0.1081 -0.0237
 6324SOL    HW130608   1.972   2.681   0.713  0.0278 -3.5958  3.0011
 6324SOL    HW230609   1.853   2.760   0.656 -0.3459 -0.5715 -0.9825
 6325SOL     OW30610   2.508   0.698  11.414  0.1947  0.2468 -0.2058
 6325SOL    HW130611   2.431   0.650  11.383 -0.6741  1.3430  0.2910
 6325SOL    HW230612   2.460   0.756  11.473  0.0600 -1.6309  1.5495
 6326SOL     OW30613   0.741   0.802   7.240 -1.3271 -0.1249  0.2791
 6326SOL    HW130614   0.736   0.731   7.304  1.2652 -2.0504 -1.6703
 6326SOL    HW230615   0.685   0.774   7.168 -2.3989  0.7662  0.7686
 6327SOL     OW30616   2.657   4.171   4.863  0.3152  0.6781 -0.0934
 6327SOL    HW130617   2.628   4.187   4.953  0.0663 -3.0988  0.4988
 6327SOL    HW230618   2.695   4.255   4.839 -0.2549  0.1476 -2.9169
 6328SOL     OW30619   2.175   4.213   3.364  0.4598 -0.2854 -0.0842
 6328SOL    HW130620   2.138   4.205   3.276 -4.1286 -2.4313  2.1047
 6328SOL    HW230621   2.237   4.140   3.364  0.4396 -0.3032  1.3452
 6329SOL     OW30622   2.968   3.684   2.780  0.0177  0.3858  0.3441
 6329SOL    HW130623   2.930   3.652   2.862  1.4380 -0.3146  0.7312
 6329SOL    HW230624   2.959   3.780   2.781 -0.1023  0.3664  0.8516
 6330SOL     OW30625   3.681   2.331   9.848  0.8058  0.8279  0.5592
 6330SOL    HW130626   3.594   2.305   9.815  1.3177  0.8740 -0.7988
 6330SOL    HW230627   3.729   2.274   9.788 -0.5891  0.6785 -0.4100
 6331SOL     OW30628   0.961   1.935   4.088 -0.3070 -0.2690  0.0460
 6331SOL    HW130629   0.921   1.992   4.023 -0.6376 -0.3633  0.1693
 6331SOL    HW230630   0.976   1.857   4.036 -1.2527  0.4239 -1.2476
 6332SOL     OW30631   0.107   2.027  11.702  0.2693 -0.4892 -0.3723
 6332SOL    HW130632   0.123   1.933  11.706  0.9888 -0.2623  2.2590
 6332SOL    HW230633   0.104   2.041  11.607 -1.4078  0.6320 -0.1487
 6333SOL     OW30634   2.745   3.906   6.110 -0.7856  0.2600  0.3171
 6333SOL    HW130635   2.824   3.852   6.105 -0.8946 -0.0161  1.7718
 6333SOL    HW230636   2.743   3.921   6.204 -0.3456 -0.4580  0.4379
 6334SOL     OW30637   2.511   3.891   5.938 -1.4495 -0.0694 -0.2944
 6334SOL    HW130638   2.592   3.910   5.984 -0.6867 -1.6528 -0.9802
 6334SOL    HW230639   2.529   3.799   5.922 -3.3544 -0.4857 -0.0747
 6335SOL     OW30640   2.828   0.820   1.893 -0.5223  0.0175 -0.7047
 6335SOL    HW130641   2.850   0.869   1.973  0.1227 -3.6528  1.3580
 6335SOL    HW230642   2.874   0.872   1.826  1.5929  0.4048  1.0365
 6336SOL     OW30643   2.107   4.379   4.895  0.0382 -0.1053 -0.5211
 6336SOL    HW130644   2.150   4.459   4.864 -0.5566  0.6046  0.4881
 6336SOL    HW230645   2.064   4.351   4.813 -1.7360  1.0337  0.0167
 6337SOL     OW30646   3.960   2.905   5.714  0.0444  0.0948 -0.4366
 6337SOL    HW130647   4.010   2.913   5.634 -0.9411  0.6588 -1.0051
 6337SOL    HW230648   4.004   2.828   5.748 -0.6357 -0.4315 -0.7451
 6338SOL     OW30649   3.918   3.238  14.016  0.0117 -0.0571  0.8722
 6338SOL    HW130650   3.848   3.243  13.950  1.9065  3.0651 -0.8754
 6338SOL    HW230651   3.962   3.321  13.996  1.9505 -0.8999  1.6669
 6339SOL     OW30652   0.104   0.877  10.137  0.3060 -0.3900  0.4109
 6339SOL    HW130653   0.174   0.858  10.200  1.4779  2.9754  0.1117
 6339SOL    HW230654   0.033   0.832  10.183  1.4283 -2.8963 -0.3321
 6340SOL     OW30655   3.069   3.446   0.726  0.4223  0.5196  0.4065
 6340SOL    HW130656   3.128   3.473   0.655 -1.3988 -0.7769 -1.6148
 6340SOL    HW230657   2.988   3.477   0.686  1.2204  1.3577 -0.5695
 6341SOL     OW30658   4.202   3.416   8.476 -0.1558 -0.6764 -0.1904
 6341SOL    HW130659   4.261   3.489   8.493 -0.7951 -0.0515 -0.6359
 6341SOL    HW230660   4.149   3.434   8.553 -0.2278 -0.7960 -0.2121
 6342SOL     OW30661   2.135   4.312   3.893  0.5125  0.3036  0.1924
 6342SOL    HW130662   2.142   4.306   3.798 -3.2954  1.5795 -0.1600
 6342SOL    HW230663   2.120   4.223   3.923 -2.8937  0.8499  0.0981
 6343SOL     OW30664   1.076   2.881   2.756  0.0765 -0.4002 -0.2826
 6343SOL    HW130665   1.108   2.970   2.743  1.2638 -0.6099  1.2070
 6343SOL    HW230666   1.154   2.830   2.730  0.1935 -0.5253  0.3209
 6344SOL     OW30667   4.127   0.080  17.419  0.7522 -0.5566 -0.3383
 6344SOL    HW130668   4.132   4.733  17.377 -2.7696  0.1908 -2.3265
 6344SOL    HW230669   4.172   0.143  17.362 -1.1161 -0.2448 -1.4668
 6345SOL     OW30670   2.478   4.393   4.807 -0.4628  0.1851 -0.1464
 6345SOL    HW130671   2.483   4.310   4.854  0.8200 -0.2550 -1.0569
 6345SOL    HW230672   2.436   4.449   4.872 -0.4085  0.2770 -0.1907
 6346SOL     OW30673   2.868   2.749   3.143  0.1895 -0.1067 -0.0430
 6346SOL    HW130674   2.906   2.719   3.060 -0.4337 -1.0493  0.0087
 6346SOL    HW230675   2.943   2.778   3.194  0.4270 -0.5247 -0.1569
 6347SOL     OW30676   3.210   0.271   9.196 -0.7906  0.3419  0.0232
 6347SOL    HW130677   3.174   0.339   9.254  0.5342  0.9921  0.0650
 6347SOL    HW230678   3.301   0.267   9.223 -0.0779 -1.2181 -2.6186
 6348SOL     OW30679   3.957   2.906   3.164  0.2378 -0.4242 -0.2319
 6348SOL    HW130680   3.957   2.993   3.126  2.5212 -0.3417 -0.0632
 6348SOL    HW230681   4.000   2.851   3.098 -0.8813 -0.7571 -0.6830
 6349SOL     OW30682   1.217   2.370   3.236 -0.5858 -0.4108  0.4099
 6349SOL    HW130683   1.221   2.304   3.167  0.6215 -1.3433  1.3866
 6349SOL    HW230684   1.246   2.448   3.190  0.2443 -1.1013 -0.2234
 6350SOL     OW30685   4.420   2.200   7.549 -0.2953 -0.3386  0.0907
 6350SOL    HW130686   4.439   2.247   7.468 -2.3707  1.5236  0.6680
 6350SOL    HW230687   4.347   2.246   7.591  0.7829  0.7173  0.7983
 6351SOL     OW30688   0.433   3.537  14.543  0.9353 -0.0668 -0.0140
 6351SOL    HW130689   0.374   3.606  14.514  2.6567  1.0766 -0.7789
 6351SOL    HW230690   0.481   3.581  14.613  1.5514  1.2892 -1.2961
 6352SOL     OW30691   3.010   1.140  10.743 -0.4296 -0.1325  0.6451
 6352SOL    HW130692   2.955   1.141  10.664 -0.0956  1.2130  0.4233
 6352SOL    HW230693   3.075   1.203  10.713 -0.8663  0.9347  1.9090
 6353SOL     OW30694   0.473   4.551   2.371  0.2049 -0.5578 -0.0370
 6353SOL    HW130695   0.524   4.594   2.440 -1.3860 -1.0036  1.4136
 6353SOL    HW230696   0.536   4.486   2.340 -0.4555 -1.2801  0.1371
 6354SOL     OW30697   1.791   0.884   5.421 -0.2901 -0.9068  0.3966
 6354SOL    HW130698   1.762   0.928   5.501 -1.8522  1.2645 -1.3427
 6354SOL    HW230699   1.764   0.947   5.354 -1.9057 -2.0131  0.0103
 6355SOL     OW30700   3.939   3.305  14.509  0.7574  0.2797  0.1456
 6355SOL    HW130701   4.033   3.319  14.517  0.4231  0.8203  3.0727
 6355SOL    HW230702   3.944   3.247  14.433  2.4476  0.6220 -0.0162
 6356SOL     OW30703   0.707   0.533   3.620  0.6797 -0.2865 -0.0947
 6356SOL    HW130704   0.676   0.538   3.710 -0.5561  1.6377 -0.6261
 6356SOL    HW230705   0.639   0.482   3.576 -1.3765  1.0628  1.5293
 6357SOL     OW30706   2.097   3.581   6.612  0.0172  0.3612 -0.7492
 6357SOL    HW130707   2.077   3.581   6.519  0.9149 -0.8457 -0.9315
 6357SOL    HW230708   2.142   3.665   6.621  0.6957 -0.0775 -0.0464
 6358SOL     OW30709   3.913   0.980  17.237  0.3219 -0.3088  0.1899
 6358SOL    HW130710   3.914   1.059  17.291 -2.5794  0.4696 -0.8780
 6358SOL    HW230711   3.874   0.915  17.294  0.1974 -3.1474 -3.1377
 6359SOL     OW30712   2.299   1.412  13.596 -0.1532  0.1186  0.3017
 6359SOL    HW130713   2.243   1.401  13.520 -0.6623  1.7512  0.4425
 6359SOL    HW230714   2.300   1.320  13.621  2.2221 -0.2428 -1.1489
 6360SOL     OW30715   3.418   1.699   3.602 -0.8429  0.0227 -0.5411
 6360SOL    HW130716   3.391   1.635   3.668 -0.9701  0.1533 -0.4668
 6360SOL    HW230717   3.513   1.700   3.611 -0.7881 -0.7371 -0.9438
 6361SOL     OW30718   4.656   2.626   9.205 -0.4453  0.2886  0.0429
 6361SOL    HW130719   4.667   2.709   9.249  0.8482  0.5375 -0.7370
 6361SOL    HW230720   4.582   2.595   9.257  1.4368  0.0599  2.5812
 6362SOL     OW30721   3.523   1.446   7.166 -0.3990  0.0484  0.0563
 6362SOL    HW130722   3.592   1.433   7.232 -1.6258  0.7587  1.4716
 6362SOL    HW230723   3.450   1.479   7.217 -0.7478 -0.6704  0.0260
 6363SOL     OW30724   4.490   3.012  11.121 -0.0312 -0.0082 -0.6478
 6363SOL    HW130725   4.401   3.021  11.155 -0.1395  1.4718 -1.3385
 6363SOL    HW230726   4.505   2.919  11.135 -1.4840 -0.4483 -2.1188
 6364SOL     OW30727   0.647   4.541   4.085  0.1624  0.3646  0.0572
 6364SOL    HW130728   0.553   4.527   4.073  0.8761 -1.4258 -3.4799
 6364SOL    HW230729   0.691   4.456   4.074 -2.4627 -0.8218 -1.4778
 6365SOL     OW30730   1.692   2.973   9.372 -0.4674  0.0928 -0.6290
 6365SOL    HW130731   1.612   2.952   9.419 -0.3942  0.4675 -0.3328
 6365SOL    HW230732   1.671   2.949   9.282 -0.8726 -0.4882 -0.3790
 6366SOL     OW30733   2.716   0.877  14.808 -0.6893 -0.0450 -0.2373
 6366SOL    HW130734   2.789   0.929  14.842 -0.5875 -1.0227  1.0289
 6366SOL    HW230735   2.765   0.829  14.742 -0.1190 -1.5794  1.3018
 6367SOL     OW30736   2.915   1.802  13.681 -0.3605  0.4526  0.3323
 6367SOL    HW130737   2.830   1.789  13.722 -0.0222 -2.4858  0.1105
 6367SOL    HW230738   2.872   1.856  13.615 -0.0986  0.0337 -0.1849
 6368SOL     OW30739   1.225   0.294  10.168  0.3812  0.3642 -0.3837
 6368SOL    HW130740   1.176   0.301  10.086  1.6441  0.4301 -1.1300
 6368SOL    HW230741   1.211   0.200  10.178  0.2519  0.4788  0.5462
 6369SOL     OW30742   0.477   1.664   4.968 -0.3208 -0.1637 -0.1130
 6369SOL    HW130743   0.449   1.637   4.880  1.9440 -0.9967 -0.5678
 6369SOL    HW230744   0.568   1.684   4.948 -0.2595  0.6442  1.0048
 6370SOL     OW30745   3.762   3.520   9.176 -0.6445  0.6444  0.7221
 6370SOL    HW130746   3.779   3.475   9.259  0.6266 -0.2591 -0.0366
 6370SOL    HW230747   3.688   3.577   9.199 -0.6224  0.8563  0.2765
 6371SOL     OW30748   3.629   2.520   3.380  0.4707  0.3143 -0.2467
 6371SOL    HW130749   3.721   2.537   3.402  0.5803 -1.1300  0.4170
 6371SOL    HW230750   3.635   2.426   3.364  1.8547 -0.2085  3.3378
 6372SOL     OW30751   1.973   0.943   3.446  0.4579 -0.1835  0.1445
 6372SOL    HW130752   1.982   0.860   3.493  2.9758  1.0593  1.8426
 6372SOL    HW230753   1.915   0.915   3.374  1.2410  0.3386 -0.6848
 6373SOL     OW30754   3.518   3.451   2.548  0.1351 -0.0719 -0.3396
 6373SOL    HW130755   3.431   3.412   2.561 -0.4106  0.8493 -1.2294
 6373SOL    HW230756   3.571   3.392   2.601  0.6759  2.1845  1.6095
 6374SOL     OW30757   3.842   4.292   6.743  0.3231 -0.3498  0.1781
 6374SOL    HW130758   3.816   4.383   6.760  0.8094 -0.1205 -0.3207
 6374SOL    HW230759   3.931   4.288   6.709 -0.1803  0.9516 -1.3071
 6375SOL     OW30760   3.817   3.259  15.270 -0.2186 -0.3618 -0.3862
 6375SOL    HW130761   3.799   3.169  15.299  0.5027  0.2758  2.0510
 6375SOL    HW230762   3.909   3.263  15.295  0.1204 -0.6243 -1.6061
 6376SOL     OW30763   3.217   2.931   5.982 -0.1157  0.1495  0.1001
 6376SOL    HW130764   3.289   2.915   6.044 -0.9372 -1.6994  0.5715
 6376SOL    HW230765   3.145   2.907   6.040  0.6511 -1.8062  0.2252
 6377SOL     OW30766   1.921   4.119   1.976 -0.3166 -0.6697 -0.6240
 6377SOL    HW130767   1.994   4.084   1.925 -0.6490 -1.1052 -0.8046
 6377SOL    HW230768   1.864   4.041   1.982 -1.5376  0.5099  2.9488
 6378SOL     OW30769   0.364   2.837   7.971 -0.2905 -0.2582 -0.3757
 6378SOL    HW130770   0.407   2.761   7.933  1.2232 -0.4374  1.7030
 6378SOL    HW230771   0.330   2.785   8.044  1.3792  0.2725  0.7805
 6379SOL     OW30772   3.852   4.580   6.816  0.5860 -0.3140  0.1162
 6379SOL    HW130773   3.896   4.637   6.753 -0.7025 -0.1797 -0.6709
 6379SOL    HW230774   3.927   4.546   6.864  1.1805  1.0350  0.1500
 6380SOL     OW30775   0.064   2.869   8.172  0.0328 -0.1204 -0.2701
 6380SOL    HW130776   0.141   2.925   8.182  0.0874  0.0943 -1.9482
 6380SOL    HW230777   0.084   2.797   8.232  1.4327 -1.2684 -2.1244
 6381SOL     OW30778   2.416   2.045   7.421 -0.2569  0.7502  0.3636
 6381SOL    HW130779   2.426   2.073   7.512 -0.7172 -0.0592  0.6573
 6381SOL    HW230780   2.321   2.046   7.418 -0.3126  1.0544  2.5875
 6382SOL     OW30781   4.475   0.640   6.868  0.4966 -0.0603 -0.3807
 6382SOL    HW130782   4.501   0.553   6.895  0.4722  0.0418 -0.0334
 6382SOL    HW230783   4.401   0.614   6.812  0.3613 -1.4254  0.4621
 6383SOL     OW30784   3.613   2.616   2.482  0.8659  0.2702  0.2736
 6383SOL    HW130785   3.600   2.687   2.545  1.2113 -1.5709  2.4381
 6383SOL    HW230786   3.702   2.591   2.504  1.4217  2.1761  0.1725
 6384SOL     OW30787   4.590   4.395   8.242  0.0166 -0.6206  0.5228
 6384SOL    HW130788   4.551   4.454   8.307  2.1546 -0.3444  1.5495
 6384SOL    HW230789   4.681   4.400   8.273 -0.0083 -2.3215  0.8402
 6385SOL     OW30790   3.844   1.407   6.594 -0.5906 -0.2787 -0.0113
 6385SOL    HW130791   3.756   1.401   6.631  0.2726  0.9207  2.2275
 6385SOL    HW230792   3.851   1.321   6.553 -1.0429 -0.7217  0.8497
 6386SOL     OW30793   2.982   3.815  13.404 -0.2210 -0.1660  0.0362
 6386SOL    HW130794   2.996   3.800  13.498 -1.5206  2.9399  0.7455
 6386SOL    HW230795   3.046   3.758  13.362  0.5774  0.9072 -0.1871
 6387SOL     OW30796   0.735   0.743   2.582 -0.5446 -0.5073  0.1517
 6387SOL    HW130797   0.759   0.677   2.647 -0.1362  0.2396  0.7622
 6387SOL    HW230798   0.640   0.752   2.591 -0.5346 -0.6842  0.4263
 6388SOL     OW30799   0.746   0.006  10.086 -0.7187 -0.1912 -0.5197
 6388SOL    HW130800   0.672   0.061  10.059 -0.9500 -0.3183 -0.1446
 6388SOL    HW230801   0.731   4.735  10.180  0.8238  0.9698 -0.1517
 6389SOL     OW30802   1.861   4.252  15.850 -0.5310 -1.0913 -0.0316
 6389SOL    HW130803   1.837   4.326  15.794 -0.4661 -2.3122 -1.6799
 6389SOL    HW230804   1.920   4.203  15.792 -2.8260 -0.4918 -2.8544
 6390SOL     OW30805   4.099   2.483   7.829 -0.6411  0.4290 -0.1260
 6390SOL    HW130806   4.078   2.441   7.745  2.8248  0.4940 -1.0111
 6390SOL    HW230807   4.041   2.559   7.825 -1.8098 -0.4763 -0.1739
 6391SOL     OW30808   3.956   1.405   4.117  0.2042 -0.0772  0.1254
 6391SOL    HW130809   4.005   1.341   4.168 -1.5579 -1.8013 -0.3057
 6391SOL    HW230810   3.873   1.356   4.110 -0.1274  0.6754 -1.3382
 6392SOL     OW30811   3.293   1.085   3.061  0.2667  0.5182 -0.6337
 6392SOL    HW130812   3.279   1.099   2.967 -0.2863  1.7771 -0.3661
 6392SOL    HW230813   3.388   1.097   3.063  0.4359 -0.0722 -4.0914
 6393SOL     OW30814   0.873   3.351  11.599  0.0919 -0.0885  0.4216
 6393SOL    HW130815   0.790   3.391  11.571  2.0386  1.5442 -3.0192
 6393SOL    HW230816   0.914   3.414  11.658  0.0090 -0.5950  1.0222
 6394SOL     OW30817   4.599   4.174   7.363  0.0180 -0.1286  0.7893
 6394SOL    HW130818   4.672   4.236   7.367 -0.8149  0.8909 -0.0264
 6394SOL    HW230819   4.631   4.105   7.305  0.7433  2.3756 -1.7857
 6395SOL     OW30820   1.782   0.351   5.591 -0.2587 -0.4908  0.1240
 6395SOL    HW130821   1.735   0.430   5.620 -1.0253 -1.2597  1.0127
 6395SOL    HW230822   1.827   0.330   5.673  1.3919 -0.7417 -0.8521
 6396SOL     OW30823   0.467   1.661  12.915 -0.2001  0.3283  0.1098
 6396SOL    HW130824   0.552   1.657  12.871 -1.9050 -2.3658 -2.9907
 6396SOL    HW230825   0.491   1.656  13.008  0.9160 -0.6640 -0.2326
 6397SOL     OW30826   3.065   0.353  10.792  0.5106 -0.0628  0.3127
 6397SOL    HW130827   3.139   0.409  10.770  0.9573 -1.5019 -1.8584
 6397SOL    HW230828   3.108   0.268  10.795 -0.3539 -0.5664 -1.0120
 6398SOL     OW30829   0.949   1.901   4.496  0.5661  0.5566  0.7101
 6398SOL    HW130830   0.920   1.987   4.527 -3.0634 -0.8283  1.0993
 6398SOL    HW230831   1.015   1.885   4.564  0.3212 -0.1377  0.7799
 6399SOL     OW30832   0.511   4.264   8.956  0.4904  0.2835 -0.4650
 6399SOL    HW130833   0.415   4.261   8.951  0.3651 -0.8929  2.5004
 6399SOL    HW230834   0.537   4.206   9.027  1.9421 -0.5615 -1.6957
 6400SOL     OW30835   0.753   4.191  12.681 -0.2893  0.0615  0.0850
 6400SOL    HW130836   0.827   4.199  12.621 -0.3686 -0.0353 -0.0261
 6400SOL    HW230837   0.726   4.283  12.675 -0.8868 -0.1768 -0.7860
 6401SOL     OW30838   4.241   2.917   2.362 -0.2147 -0.2804 -0.0406
 6401SOL    HW130839   4.236   2.862   2.284  0.7899 -0.5736  0.1037
 6401SOL    HW230840   4.294   2.861   2.418  2.0546  1.0061 -0.9234
 6402SOL     OW30841   0.538   0.141   6.293  0.3189  0.2609 -0.2318
 6402SOL    HW130842   0.548   0.213   6.356  0.8175 -0.0777  0.0804
 6402SOL    HW230843   0.466   0.168   6.237 -0.4071 -0.4538  0.3665
 6403SOL     OW30844   3.325   3.072   4.617 -0.0249 -0.1325 -0.5002
 6403SOL    HW130845   3.263   3.077   4.690  1.0203 -0.9426  0.4392
 6403SOL    HW230846   3.288   3.004   4.562 -0.0901  1.7647 -2.8083
 6404SOL     OW30847   0.027   3.844   5.052  0.4482 -0.5161 -0.5370
 6404SOL    HW130848   0.115   3.841   5.091 -0.4094 -2.1006  1.2901
 6404SOL    HW230849   0.007   3.750   5.055 -0.0540 -0.4143 -0.7542
 6405SOL     OW30850   1.623   3.323   0.309 -0.4789 -0.3409 -0.2608
 6405SOL    HW130851   1.614   3.419   0.312 -2.4839 -0.4933 -1.2188
 6405SOL    HW230852   1.542   3.318   0.257 -0.0214  1.1813 -1.1139
 6406SOL     OW30853   0.820   4.683   5.206  0.4466 -0.3748  0.1578
 6406SOL    HW130854   0.867   0.027   5.208  2.4075 -1.4838  0.3764
 6406SOL    HW230855   0.886   4.616   5.190 -0.5667 -1.8134  1.9226
 6407SOL     OW30856   2.600   4.340   8.318  0.0233 -0.0411  0.0688
 6407SOL    HW130857   2.566   4.251   8.320 -3.7414  1.4452  1.6455
 6407SOL    HW230858   2.540   4.389   8.263  1.9813  1.4014 -0.7716
 6408SOL     OW30859   1.991   2.838   9.074 -0.3576 -0.3164  0.3887
 6408SOL    HW130860   2.043   2.912   9.044  0.5792 -1.3859 -0.5870
 6408SOL    HW230861   1.905   2.880   9.087 -1.6527 -2.3751 -1.6487
 6409SOL     OW30862   2.326   3.733   5.354  0.2144 -0.4122  0.0814
 6409SOL    HW130863   2.364   3.722   5.441  0.4201 -0.1169  0.0315
 6409SOL    HW230864   2.336   3.828   5.343 -1.1650 -0.4150 -1.1153
 6410SOL     OW30865   0.559   0.707  11.923 -0.3843  0.2524  0.1116
 6410SOL    HW130866   0.651   0.734  11.927 -0.4303  0.1446  2.0082
 6410SOL    HW230867   0.554   0.637  11.988  0.3284  1.1167  1.0936
 6411SOL     OW30868   3.083   3.448  15.923 -0.1294 -0.0497 -0.6120
 6411SOL    HW130869   3.016   3.385  15.951  0.4467 -0.3437  0.1266
 6411SOL    HW230870   3.088   3.414  15.834 -2.4094 -3.0983  0.4030
 6412SOL     OW30871   3.875   4.639   2.110  0.3291 -0.0964 -0.1812
 6412SOL    HW130872   3.828   4.587   2.175  2.8040  0.5412  2.1314
 6412SOL    HW230873   3.903   4.569   2.051  1.3982  1.4167 -1.4770
 6413SOL     OW30874   2.128   2.755  10.141 -0.5007 -0.0230 -0.6232
 6413SOL    HW130875   2.097   2.805  10.217  0.3771  1.4566 -1.2381
 6413SOL    HW230876   2.178   2.684  10.182 -0.3317  0.5553  0.1834
 6414SOL     OW30877   0.118   1.672   9.365  0.2720 -0.0066  0.6654
 6414SOL    HW130878   0.086   1.605   9.426  0.4734 -1.5251 -0.8753
 6414SOL    HW230879   0.063   1.654   9.289 -0.0339  1.0877  0.6361
 6415SOL     OW30880   4.023   3.739   3.703  0.1205  0.0284  0.0316
 6415SOL    HW130881   4.062   3.659   3.739  0.7702 -0.4260 -1.6321
 6415SOL    HW230882   4.084   3.805   3.735  0.1624 -0.4450  0.9353
 6416SOL     OW30883   4.280   3.506  10.920 -0.0006 -0.5367 -0.1521
 6416SOL    HW130884   4.244   3.488  10.833 -2.3044  0.1723  0.6660
 6416SOL    HW230885   4.256   3.422  10.961 -1.5719  0.6905  1.4312
 6417SOL     OW30886   1.983   3.608  13.068 -0.2599 -0.0722 -0.1520
 6417SOL    HW130887   2.058   3.573  13.116  0.1371  0.7901 -0.1587
 6417SOL    HW230888   1.970   3.524  13.023 -1.5477 -0.3759  0.7726
 6418SOL     OW30889   3.013   0.550   7.963 -0.7692 -0.0064 -0.1818
 6418SOL    HW130890   3.106   0.573   7.953 -1.0140  0.9757 -0.1221
 6418SOL    HW230891   2.990   0.557   7.871  0.9456  1.4008 -0.4945
 6419SOL     OW30892   0.459   3.103   0.933 -0.7559  0.1514  0.4262
 6419SOL    HW130893   0.388   3.136   0.988  0.2809  0.8497  1.3469
 6419SOL    HW230894   0.464   3.175   0.870  1.0173  0.4437  0.9007
 6420SOL     OW30895   4.542   1.441   1.058  0.1959  0.8191 -0.1077
 6420SOL    HW130896   4.567   1.401   1.141 -0.4304 -1.6910 -1.1023
 6420SOL    HW230897   4.548   1.532   1.085  2.0309  1.0946 -1.4259
 6421SOL     OW30898   2.596   3.150  16.003  0.1829 -0.2852 -0.1851
 6421SOL    HW130899   2.502   3.165  15.994  0.4861  1.4405 -0.4741
 6421SOL    HW230900   2.616   3.112  16.088 -0.5364  0.5855  0.3831
 6422SOL     OW30901   4.224   0.695  12.159  0.2605 -0.2630  0.2611
 6422SOL    HW130902   4.138   0.688  12.116  0.8941 -0.3158 -0.9954
 6422SOL    HW230903   4.185   0.709  12.246  0.1721  3.1005 -0.3202
 6423SOL     OW30904   2.243   1.948   2.198 -0.0484  0.1369 -0.4124
 6423SOL    HW130905   2.234   1.937   2.103 -1.8371  2.2299 -0.5006
 6423SOL    HW230906   2.331   1.910   2.199  0.0408  0.3495 -0.3021
 6424SOL     OW30907   2.303   3.641  15.577  0.5254  0.4411 -0.1079
 6424SOL    HW130908   2.320   3.596  15.494 -1.2686 -0.1348 -0.1760
 6424SOL    HW230909   2.212   3.672  15.577  0.6129  0.6970 -1.1472
 6425SOL     OW30910   0.110   3.254   2.167 -0.1923  0.3449 -0.4632
 6425SOL    HW130911   0.188   3.308   2.157 -0.4373  0.8302  0.2577
 6425SOL    HW230912   0.047   3.326   2.173 -0.0027  0.5662 -1.0564
 6426SOL     OW30913   0.483   2.768   2.465 -0.2642  0.0976  0.2456
 6426SOL    HW130914   0.423   2.839   2.489  2.8973  2.9379 -0.1458
 6426SOL    HW230915   0.566   2.813   2.450  0.5611 -0.2563  3.9467
 6427SOL     OW30916   2.654   2.612   5.179  0.2185  0.3989 -0.4533
 6427SOL    HW130917   2.576   2.638   5.130  0.7414  0.4762 -1.2523
 6427SOL    HW230918   2.639   2.652   5.264 -2.7064  0.4186 -0.9745
 6428SOL     OW30919   3.656   0.209   7.968 -0.2604  0.1421  0.1691
 6428SOL    HW130920   3.692   0.233   8.053 -0.9404 -0.4779  0.6331
 6428SOL    HW230921   3.721   0.182   7.903  0.0760 -0.7488  0.8774
 6429SOL     OW30922   1.415   1.288  10.106  0.8517  0.3112  0.4542
 6429SOL    HW130923   1.432   1.219  10.041 -0.4471 -1.3817  1.9118
 6429SOL    HW230924   1.492   1.276  10.162  0.4383  0.5257  1.0656
 6430SOL     OW30925   1.720   0.778  14.108 -0.2618 -0.0672  0.0839
 6430SOL    HW130926   1.809   0.759  14.136 -0.8924 -1.6169  1.0061
 6430SOL    HW230927   1.675   0.702  14.074  1.9591 -0.2352 -2.4535
 6431SOL     OW30928   3.284   3.856   4.989 -0.3145 -0.5754 -0.4948
 6431SOL    HW130929   3.348   3.812   5.045 -0.1180  1.6630  1.0509
 6431SOL    HW230930   3.202   3.811   5.006  0.2101 -1.3223  0.0683
 6432SOL     OW30931   4.461   3.268  10.847  0.5428 -0.3935  0.6083
 6432SOL    HW130932   4.449   3.182  10.806  1.2538 -0.5169  0.6630
 6432SOL    HW230933   4.440   3.319  10.769 -0.8096 -3.5314 -1.0730
 6433SOL     OW30934   0.194   4.048   5.443  0.1857 -0.0646 -0.1065
 6433SOL    HW130935   0.225   4.067   5.531 -1.8705 -1.6897  0.9727
 6433SOL    HW230936   0.257   3.982   5.413  0.0793 -0.2650  0.1098
 6434SOL     OW30937   2.872   2.676   3.960 -0.2508  0.6614 -0.8067
 6434SOL    HW130938   2.942   2.670   3.895  0.5550  1.3817 -0.0134
 6434SOL    HW230939   2.823   2.595   3.970  0.3668  0.4831  0.9888
 6435SOL     OW30940   0.512   3.332   7.640 -0.1287 -0.7032  0.0912
 6435SOL    HW130941   0.553   3.400   7.588  1.2428 -1.6916 -0.1205
 6435SOL    HW230942   0.426   3.323   7.599 -0.8724  0.1001  1.4703
 6436SOL     OW30943   3.487   0.270   8.647 -0.1306  0.8328  0.1745
 6436SOL    HW130944   3.529   0.345   8.688 -0.8165  0.4214  1.6263
 6436SOL    HW230945   3.394   0.289   8.635 -0.1325  2.1248  2.2433
 6437SOL     OW30946   4.514   3.843   9.558 -0.1660  0.8109  0.0038
 6437SOL    HW130947   4.495   3.774   9.622 -2.7194 -0.1563 -1.7868
 6437SOL    HW230948   4.444   3.906   9.575 -1.2356  0.0821 -1.7176
 6438SOL     OW30949   1.234   2.877   9.690  0.1576 -0.2025  0.0266
 6438SOL    HW130950   1.253   2.943   9.756  0.7537 -0.3424 -0.0084
 6438SOL    HW230951   1.210   2.806   9.749  1.0753  0.0042  0.6459
 6439SOL     OW30952   1.658   2.382  17.355  0.3498  0.2825  0.1406
 6439SOL    HW130953   1.712   2.315  17.396  1.5104  0.9122 -0.3682
 6439SOL    HW230954   1.597   2.403  17.426 -0.3259 -2.3731  0.3473
 6440SOL     OW30955   0.773   3.013  16.489 -0.0657  1.0382  0.3552
 6440SOL    HW130956   0.786   3.040  16.580  0.7109 -1.0549  0.8790
 6440SOL    HW230957   0.741   2.923  16.501  0.1277  1.4116  3.8259
 6441SOL     OW30958   1.170   0.481  16.744  0.0788  0.0315 -0.0856
 6441SOL    HW130959   1.133   0.393  16.742  0.3301 -0.0123 -2.8148
 6441SOL    HW230960   1.264   0.459  16.744  0.1874  0.4691  2.0324
 6442SOL     OW30961   1.235   4.146  16.060  0.1086 -0.1353 -0.0963
 6442SOL    HW130962   1.221   4.132  15.966 -0.1304  0.2592 -0.1221
 6442SOL    HW230963   1.281   4.231  16.063  0.3423 -0.2338 -0.8926
 6443SOL     OW30964   4.681   1.971  17.162 -0.3919 -0.3154 -0.2305
 6443SOL    HW130965   4.611   1.962  17.227  0.1756 -0.5417  0.3567
 6443SOL    HW230966   4.680   1.879  17.136  1.4492 -0.6606  0.8973
 6444SOL     OW30967   4.514   3.714   2.173  0.0191 -0.3042 -0.0521
 6444SOL    HW130968   4.536   3.639   2.227  1.8553  0.1920 -0.1249
 6444SOL    HW230969   4.601   3.752   2.160  0.6601 -2.0991 -0.9520
 6445SOL     OW30970   1.705   0.079   8.384 -0.1610 -0.0200  0.1373
 6445SOL    HW130971   1.628   0.077   8.327  0.0295 -0.6489 -0.0950
 6445SOL    HW230972   1.697   0.004   8.442  1.4855  0.3019  0.7968
 6446SOL     OW30973   4.205   0.884   8.453 -0.0791 -0.4110 -0.0892
 6446SOL    HW130974   4.282   0.874   8.510  0.5768 -2.1568 -1.2841
 6446SOL    HW230975   4.192   0.799   8.412  3.1864 -0.8423 -0.2243
 6447SOL     OW30976   2.086   4.305   2.730  0.6016 -0.0961 -0.4937
 6447SOL    HW130977   2.179   4.309   2.752  0.6781 -0.5623 -0.7239
 6447SOL    HW230978   2.078   4.353   2.648  0.0632 -0.3841 -0.6132
 6448SOL     OW30979   4.125   4.739   7.775 -0.0399  0.1143  0.0780
 6448SOL    HW130980   4.110   0.094   7.766 -0.4830  0.1716  1.3696
 6448SOL    HW230981   4.093   4.726   7.864  0.0955  1.3082  0.2917
 6449SOL     OW30982   4.061   2.348  15.252  0.1174  0.2607  0.3567
 6449SOL    HW130983   4.131   2.393  15.204  0.6906  1.5238  2.3446
 6449SOL    HW230984   3.987   2.386  15.206 -0.9662 -0.1768  1.7512
 6450SOL     OW30985   0.839   2.147   2.917 -0.2753 -0.9537 -0.1099
 6450SOL    HW130986   0.778   2.218   2.937 -0.8020 -1.0567 -1.3709
 6450SOL    HW230987   0.888   2.180   2.841  2.8621 -1.9807  1.4705
 6451SOL     OW30988   4.100   4.490  15.393  0.0875  0.4560  0.2269
 6451SOL    HW130989   4.034   4.465  15.329 -1.1356  1.5666  1.0480
 6451SOL    HW230990   4.091   4.433  15.469  0.4097 -2.7238 -2.1547
 6452SOL     OW30991   3.370   1.639  13.658 -0.1848  0.0664  0.5368
 6452SOL    HW130992   3.383   1.693  13.736 -2.1372  1.0066  0.2058
 6452SOL    HW230993   3.325   1.709  13.610 -0.1894 -1.7020 -2.0292
 6453SOL     OW30994   1.388   4.367   9.343 -0.1704 -0.4355  0.0414
 6453SOL    HW130995   1.389   4.336   9.252  2.4627  3.6798 -1.3466
 6453SOL    HW230996   1.294   4.371   9.359  0.0414 -0.3034  1.2513
 6454SOL     OW30997   4.037   2.731   6.510 -0.1215  0.2599 -0.5689
 6454SOL    HW130998   3.964   2.672   6.530 -0.4421  0.9221  0.2096
 6454SOL    HW230999   4.003   2.766   6.427  3.1381 -0.2989 -2.1354
 6455SOL     OW31000   0.657   2.211   4.658 -0.4179 -0.4690 -0.2057
 6455SOL    HW131001   0.739   2.257   4.675  0.6892 -2.3544 -0.4693
 6455SOL    HW231002   0.677   2.120   4.635  2.0416  0.7532 -2.9283
 6456SOL     OW31003   3.053   4.684   7.357 -0.0521  0.2363  0.2540
 6456SOL    HW131004   3.135   4.730   7.377 -1.6337  2.4822  1.6215
 6456SOL    HW231005   3.068   4.659   7.265 -0.2842 -0.8587  0.5142
 6457SOL     OW31006   2.531   0.370   9.854 -0.2258 -0.1105 -0.3572
 6457SOL    HW131007   2.521   0.296   9.795 -2.5976 -0.3239  0.3233
 6457SOL    HW231008   2.461   0.359   9.918 -0.7020  1.3292 -0.6159
 6458SOL     OW31009   0.710   2.591  15.811 -0.3975  0.1224 -0.4517
 6458SOL    HW131010   0.739   2.636  15.891 -2.0172 -0.4309  0.4228
 6458SOL    HW231011   0.796   2.585  15.768 -0.2933 -0.6478 -0.1357
 6459SOL     OW31012   3.077   3.609   3.422  0.2627  0.2697  0.2640
 6459SOL    HW131013   2.988   3.637   3.442  0.2657  1.1229 -0.8950
 6459SOL    HW231014   3.128   3.672   3.473  0.1193  1.4920 -1.0981
 6460SOL     OW31015   0.156   2.762  10.380  0.2312 -0.3347 -0.0095
 6460SOL    HW131016   0.227   2.742  10.440 -0.2046  0.0767  0.6446
 6460SOL    HW231017   0.081   2.751  10.439  0.7986 -0.7991  0.6175
 6461SOL     OW31018   1.537   0.708  11.142  0.2470  0.2593 -0.4235
 6461SOL    HW131019   1.477   0.744  11.207 -1.0539 -0.5065 -1.1958
 6461SOL    HW231020   1.589   0.643  11.189 -0.4013 -0.1408 -0.2530
 6462SOL     OW31021   0.419   2.785  13.773  0.3361  0.1705  0.0966
 6462SOL    HW131022   0.401   2.740  13.691 -0.2933  2.5203 -1.0646
 6462SOL    HW231023   0.331   2.789  13.809 -0.0509  1.7906 -1.0353
 6463SOL     OW31024   4.573   4.622   9.776 -0.1908  0.5106 -0.2398
 6463SOL    HW131025   4.483   4.601   9.749  0.3299 -0.7925 -0.9727
 6463SOL    HW231026   4.558   4.710   9.809  0.3760  0.7340 -0.5939
 6464SOL     OW31027   4.421   0.775   3.440 -0.5006 -0.1628 -0.0205
 6464SOL    HW131028   4.448   0.858   3.477  0.8764 -0.0253 -1.3361
 6464SOL    HW231029   4.330   0.776   3.472 -0.1626  0.1079  0.9017
 6465SOL     OW31030   2.947   1.055   2.918 -0.1883  0.1159  0.2902
 6465SOL    HW131031   2.996   0.973   2.925 -1.5251 -0.6142  0.9134
 6465SOL    HW231032   2.858   1.021   2.911  0.1779 -0.4320 -1.5757
 6466SOL     OW31033   0.348   0.377  11.337  0.6299  0.6326  0.3550
 6466SOL    HW131034   0.376   0.344  11.251 -1.0342  0.7813 -0.2575
 6466SOL    HW231035   0.393   0.316  11.395  0.3799  0.6676  0.5838
 6467SOL     OW31036   4.228   0.102   2.221  0.4429  0.0332 -0.0648
 6467SOL    HW131037   4.227   0.181   2.275 -0.9177 -0.0427  0.0164
 6467SOL    HW231038   4.148   0.118   2.172 -1.1664 -0.1368  2.4992
 6468SOL     OW31039   4.284   0.553   1.809 -0.7971 -0.3158 -0.1967
 6468SOL    HW131040   4.334   0.505   1.875 -1.2105  0.3483  0.5905
 6468SOL    HW231041   4.202   0.566   1.856 -0.9835 -0.6440 -0.4276
 6469SOL     OW31042   1.497   3.810   8.116 -0.1747 -0.3063  0.2004
 6469SOL    HW131043   1.436   3.746   8.153  0.2300 -1.3742 -0.9680
 6469SOL    HW231044   1.450   3.893   8.122 -1.7949 -1.2514  0.6153
 6470SOL     OW31045   1.481   1.503   1.561 -0.0297 -1.0611  0.0489
 6470SOL    HW131046   1.560   1.477   1.610  0.3754 -2.3240 -1.2827
 6470SOL    HW231047   1.461   1.417   1.524 -0.5589 -0.1746 -1.6737
 6471SOL     OW31048   1.863   1.738   0.619  0.1940  0.1356 -0.0886
 6471SOL    HW131049   1.846   1.650   0.652 -2.1295  0.2444 -0.9211
 6471SOL    HW231050   1.955   1.733   0.593  0.6979 -1.7836  2.0531
 6472SOL     OW31051   2.163   3.084   9.438 -0.5026 -0.1410  0.3617
 6472SOL    HW131052   2.093   3.031   9.399 -0.4206 -0.6128  0.8544
 6472SOL    HW231053   2.118   3.146   9.496 -0.6568  0.6721 -0.6252
 6473SOL     OW31054   2.290   1.006   6.266  0.0179  0.0015  0.2147
 6473SOL    HW131055   2.357   1.024   6.332 -0.7121  1.3436  0.5952
 6473SOL    HW231056   2.331   1.052   6.193 -1.4335  0.1505 -0.5185
 6474SOL     OW31057   2.693   0.025   4.554 -0.4474 -0.5764 -0.4419
 6474SOL    HW131058   2.635   4.702   4.510 -1.0920 -0.8765  0.8182
 6474SOL    HW231059   2.665   0.015   4.646  0.9294 -0.3059  0.0035
 6475SOL     OW31060   3.225   3.379   3.560 -0.7788 -0.2830  0.0392
 6475SOL    HW131061   3.193   3.297   3.522  3.1657 -0.8246 -2.0807
 6475SOL    HW231062   3.201   3.444   3.495 -2.2886  0.1334  1.0009
 6476SOL     OW31063   0.759   4.477  10.019 -0.1273 -0.2663 -0.1041
 6476SOL    HW131064   0.672   4.496   9.984 -0.4909 -1.3393  0.2137
 6476SOL    HW231065   0.772   4.566  10.051  1.6432 -1.1003  1.4588
 6477SOL     OW31066   4.103   2.518   3.319  0.3636  0.1684 -0.2127
 6477SOL    HW131067   4.099   2.587   3.386  1.8855  2.2132 -2.1927
 6477SOL    HW231068   4.068   2.573   3.249 -0.5037 -1.0977 -0.7682
 6478SOL     OW31069   1.878   4.370   0.387  0.5890 -0.3136 -0.2108
 6478SOL    HW131070   1.844   4.321   0.462  0.0667  0.0219 -0.2298
 6478SOL    HW231071   1.861   4.457   0.423 -1.9064 -1.0761  0.4703
 6479SOL     OW31072   4.301   2.239   6.170 -0.0642 -0.0049 -0.1006
 6479SOL    HW131073   4.218   2.285   6.180  0.7565  1.6999 -1.0486
 6479SOL    HW231074   4.345   2.283   6.243  0.5703  1.2885 -1.2642
 6480SOL     OW31075   1.689   0.604   7.658 -0.2528  0.1301 -0.4476
 6480SOL    HW131076   1.608   0.635   7.697  0.3130  3.4220 -1.9102
 6480SOL    HW231077   1.654   0.532   7.606  0.7339 -1.5465  1.1639
 6481SOL     OW31078   3.077   4.026   5.863  0.2356 -0.4407  0.2164
 6481SOL    HW131079   3.005   3.998   5.807  1.5443 -0.8846 -1.2417
 6481SOL    HW231080   3.063   4.121   5.858  1.3171 -0.2375  0.9575
 6482SOL     OW31081   0.816   3.095  12.886 -0.1751 -0.2059 -0.2796
 6482SOL    HW131082   0.796   3.002  12.899 -1.5869  0.1148 -0.0942
 6482SOL    HW231083   0.817   3.090  12.790  1.4796  3.3332 -0.4309
 6483SOL     OW31084   4.043   4.512  10.553 -0.8577  0.0829 -0.4798
 6483SOL    HW131085   4.090   4.471  10.626 -0.2169  0.9553 -0.4086
 6483SOL    HW231086   4.047   4.606  10.570 -1.7602  0.3410 -1.7266
 6484SOL     OW31087   4.452   3.687   4.182  0.0599 -0.5782 -0.0964
 6484SOL    HW131088   4.357   3.700   4.188  0.0334 -0.5546 -0.5941
 6484SOL    HW231089   4.447   3.615   4.245 -1.2537 -0.4536 -0.0593
 6485SOL     OW31090   1.507   3.492   4.645  0.7623  0.1951  0.1725
 6485SOL    HW131091   1.457   3.429   4.697  0.0167  0.5082 -0.1623
 6485SOL    HW231092   1.452   3.495   4.567  0.4412  0.3522  0.4017
 6486SOL     OW31093   3.606   1.768   2.671 -0.1514 -0.1230 -0.9457
 6486SOL    HW131094   3.551   1.752   2.594 -0.4145 -0.2256 -0.7365
 6486SOL    HW231095   3.691   1.733   2.644 -1.0139 -2.9782  0.0121
 6487SOL     OW31096   0.739   4.648   1.988 -0.0292 -0.0194 -0.5170
 6487SOL    HW131097   0.676   4.710   2.024 -1.2423 -1.2096 -0.6303
 6487SOL    HW231098   0.781   4.697   1.917 -1.5363 -0.7700 -1.9205
 6488SOL     OW31099   2.456   2.848  10.764 -0.0024 -0.2102 -0.4690
 6488SOL    HW131100   2.361   2.862  10.771  0.1959  1.4551 -1.0960
 6488SOL    HW231101   2.489   2.885  10.845  1.0022 -1.1034 -0.4719
 6489SOL     OW31102   2.059   2.816   1.005  0.0496 -0.7724  0.0242
 6489SOL    HW131103   2.016   2.870   1.070 -1.9401 -0.6787 -1.3801
 6489SOL    HW231104   2.125   2.767   1.055  0.2089 -1.4409 -0.8203
 6490SOL     OW31105   2.829   0.099   6.717  0.6410  0.0115  0.6494
 6490SOL    HW131106   2.759   0.119   6.654 -0.7507 -1.3327  1.7768
 6490SOL    HW231107   2.779   0.111   6.798 -0.0312 -0.1656  0.2651
 6491SOL     OW31108   1.769   0.959   6.973 -0.2621  0.2565  0.3343
 6491SOL    HW131109   1.806   0.987   6.889  0.5726 -0.6052  0.4214
 6491SOL    HW231110   1.674   0.964   6.966 -0.1810  1.1993 -0.0856
 6492SOL     OW31111   0.436   1.462  13.987  0.9238 -0.2778  0.8989
 6492SOL    HW131112   0.481   1.465  13.903  2.0063 -1.6299  1.4290
 6492SOL    HW231113   0.346   1.469  13.957  0.0202 -0.5853  3.5586
 6493SOL     OW31114   1.050   2.802   6.951 -0.3730 -0.5925 -0.7974
 6493SOL    HW131115   0.974   2.759   6.991 -1.1964  0.8313 -0.8013
 6493SOL    HW231116   1.121   2.762   7.000  1.0335 -0.3536 -2.6742
 6494SOL     OW31117   0.096   1.405  17.475  0.0007 -0.1742 -0.5495
 6494SOL    HW131118   0.049   1.325  17.450 -0.9189  0.0785  0.3370
 6494SOL    HW231119   0.184   1.377  17.451 -0.1176  0.6564 -1.9299
 6495SOL     OW31120   3.902   2.641  13.005  0.7299 -0.1485 -0.3538
 6495SOL    HW131121   3.894   2.728  13.044  0.2648  0.4895 -1.8648
 6495SOL    HW231122   3.894   2.588  13.085  1.6915  1.3651  0.7444
 6496SOL     OW31123   4.118   4.369   9.550  0.0454  0.1904  0.3436
 6496SOL    HW131124   4.134   4.445   9.494 -0.9675 -0.6716 -1.1336
 6496SOL    HW231125   4.199   4.361   9.600  0.7813  0.1972 -0.8441
 6497SOL     OW31126   2.610   3.245  13.545  0.4587 -0.6820 -0.4025
 6497SOL    HW131127   2.635   3.185  13.475 -0.7986  0.7296 -2.0924
 6497SOL    HW231128   2.520   3.217  13.565  0.6003  0.2537  1.5031
 6498SOL     OW31129   4.355   2.837   5.011  0.5658 -0.0456  0.5980
 6498SOL    HW131130   4.259   2.840   5.014  0.6216  1.3209  1.2436
 6498SOL    HW231131   4.374   2.787   4.932  0.9603  3.1642 -1.3564
 6499SOL     OW31132   0.934   1.506   4.903 -0.1458  0.2409  0.3173
 6499SOL    HW131133   1.024   1.491   4.876 -0.2068  0.2668  0.0957
 6499SOL    HW231134   0.925   1.422   4.948 -1.0764 -0.4563 -1.1607
 6500SOL     OW31135   3.299   0.378   5.466 -0.4614  0.0200 -0.1535
 6500SOL    HW131136   3.278   0.286   5.455 -0.7528  0.1662 -0.8534
 6500SOL    HW231137   3.376   0.376   5.522 -0.1827  2.0654 -0.4293
 6501SOL     OW31138   0.623   1.954   9.485 -0.2233 -0.3511 -0.3571
 6501SOL    HW131139   0.694   1.954   9.420 -0.4278  0.3196 -0.5773
 6501SOL    HW231140   0.550   1.974   9.427  1.5947  0.7948 -2.2574
 6502SOL     OW31141   4.667   1.157   5.820 -0.3293 -0.6269 -0.1365
 6502SOL    HW131142   4.598   1.174   5.755 -0.9703  0.3162  0.7967
 6502SOL    HW231143   4.617   1.183   5.897 -0.0176 -2.4924  0.6942
 6503SOL     OW31144   4.183   4.068  10.029 -0.5127  0.3132  0.1349
 6503SOL    HW131145   4.218   4.100   9.946 -0.2724 -1.8311 -0.5956
 6503SOL    HW231146   4.097   4.034  10.006  0.1263 -0.3021 -1.3154
 6504SOL     OW31147   4.493   4.626  15.196 -0.0265 -0.0639 -0.3847
 6504SOL    HW131148   4.432   4.644  15.125  1.4736  0.2749 -1.5885
 6504SOL    HW231149   4.436   4.613  15.272 -0.6922 -1.2839 -1.0883
 6505SOL     OW31150   3.819   2.185   1.884  0.0801  0.1522 -0.2281
 6505SOL    HW131151   3.740   2.232   1.909  0.7217  0.9575  0.3049
 6505SOL    HW231152   3.887   2.253   1.877 -2.0635  2.3214 -0.0450
 6506SOL     OW31153   1.195   4.690  12.260 -0.7242  0.7958  0.0564
 6506SOL    HW131154   1.243   4.736  12.191 -1.5066  1.1110 -0.2738
 6506SOL    HW231155   1.265   4.654  12.315 -0.2761  0.6163 -0.6297
 6507SOL     OW31156   2.499   1.756   2.166 -0.0761 -0.0158 -0.3437
 6507SOL    HW131157   2.581   1.733   2.211 -0.3121  0.2257  0.2050
 6507SOL    HW231158   2.435   1.686   2.175  1.8409 -1.4876  2.0083
 6508SOL     OW31159   4.222   3.689  11.340  0.3701 -0.1778 -0.0773
 6508SOL    HW131160   4.281   3.662  11.269 -1.4287 -1.0595 -1.2197
 6508SOL    HW231161   4.161   3.743  11.290  0.7497  0.8272  0.5521
 6509SOL     OW31162   4.164   0.942   6.193 -0.3382  0.1447 -0.1843
 6509SOL    HW131163   4.152   0.857   6.149 -0.9031  0.3143 -0.3663
 6509SOL    HW231164   4.089   0.929   6.251 -2.1051 -0.3076 -2.5583
 6510SOL     OW31165   3.741   1.150   4.934  0.0440 -0.1612  0.2707
 6510SOL    HW131166   3.675   1.170   5.000 -2.7426  2.6448 -3.4194
 6510SOL    HW231167   3.769   1.240   4.916 -1.4072 -0.0095 -1.2344
 6511SOL     OW31168   1.653   0.920   2.718  0.1090 -0.9061  0.6135
 6511SOL    HW131169   1.740   0.945   2.686 -0.6381  0.9985  0.0569
 6511SOL    HW231170   1.685   0.875   2.796  1.4383  0.0373  0.6099
 6512SOL     OW31171   0.844   0.421  10.871 -0.6951 -0.2713 -0.5215
 6512SOL    HW131172   0.908   0.489  10.850  1.6590 -2.3232 -0.1215
 6512SOL    HW231173   0.851   0.412  10.966  2.4060 -0.4213 -0.7340
 6513SOL     OW31174   0.498   4.704   8.229 -0.3821 -0.1661  0.5425
 6513SOL    HW131175   0.505   4.705   8.325  4.3569  0.7246  0.2010
 6513SOL    HW231176   0.582   4.662   8.212 -0.4530  0.2446 -0.7948
 6514SOL     OW31177   2.140   0.868   7.155  0.0021  0.5905 -0.1178
 6514SOL    HW131178   2.111   0.791   7.204  1.4124 -1.2958 -2.2365
 6514SOL    HW231179   2.080   0.862   7.081 -2.4806 -0.0779  1.9509
 6515SOL     OW31180   0.870   4.582   4.695  0.2196  0.7159 -0.7769
 6515SOL    HW131181   0.791   4.615   4.737  0.8168 -1.3258  1.9284
 6515SOL    HW231182   0.932   4.583   4.767 -1.9445 -0.9016  1.0999
 6516SOL     OW31183   2.483   2.592   2.169  0.7061 -0.0975  0.9154
 6516SOL    HW131184   2.456   2.678   2.137  1.2484 -1.1532 -2.3122
 6516SOL    HW231185   2.521   2.553   2.091  1.8311 -0.1280  1.4636
 6517SOL     OW31186   0.648   4.289  15.776 -0.1367  0.2475 -0.7575
 6517SOL    HW131187   0.687   4.210  15.814  0.8531  0.1151 -2.0337
 6517SOL    HW231188   0.568   4.252  15.739  0.9503 -1.9627 -0.8947
 6518SOL     OW31189   3.236   4.024   8.739  0.6019 -0.3599  0.1218
 6518SOL    HW131190   3.322   3.984   8.729  1.3822  1.3331 -0.0099
 6518SOL    HW231191   3.186   4.002   8.661 -0.5321 -0.0366  0.7614
 6519SOL     OW31192   0.552   2.788   8.215 -0.0482 -0.5844  0.5863
 6519SOL    HW131193   0.576   2.831   8.133 -1.5847 -1.1054 -0.1303
 6519SOL    HW231194   0.486   2.850   8.247  0.6171 -1.0899  2.9260
 6520SOL     OW31195   2.020   0.567   2.556  0.0706 -0.6512 -0.5080
 6520SOL    HW131196   2.050   0.655   2.580 -0.7926 -0.9488  1.6640
 6520SOL    HW231197   1.942   0.588   2.504 -0.9737 -2.9468  0.1320
 6521SOL     OW31198   2.702   0.089   0.956  0.1713  0.2298  0.2904
 6521SOL    HW131199   2.654   0.100   0.874 -0.5945  0.9375  0.8398
 6521SOL    HW231200   2.688   4.736   0.977 -1.1952  0.1688 -0.8514
 6522SOL     OW31201   4.192   4.541  11.292  0.0438  0.0027 -0.2128
 6522SOL    HW131202   4.236   4.587  11.221  0.4513  4.9532  3.2068
 6522SOL    HW231203   4.112   4.592  11.300 -0.1893 -0.8086  2.8209
 6523SOL     OW31204   3.357   2.323   1.806 -0.2963  0.2325 -0.0382
 6523SOL    HW131205   3.348   2.254   1.740 -0.7978 -3.4699  3.9442
 6523SOL    HW231206   3.277   2.374   1.794  0.4692  1.4158 -0.1839
 6524SOL     OW31207   0.742   0.792   3.506 -0.0414 -0.6165 -0.0303
 6524SOL    HW131208   0.735   0.713   3.559 -0.0983  0.3274  1.3723
 6524SOL    HW231209   0.704   0.861   3.560 -0.2073 -1.1568  0.5408
 6525SOL     OW31210   2.007   3.015   9.758 -0.0249 -1.0605  0.2982
 6525SOL    HW131211   2.083   2.999   9.814  0.0590 -2.9856 -0.3840
 6525SOL    HW231212   2.002   2.926   9.722  0.9426 -0.7876 -0.4926
 6526SOL     OW31213   0.955   3.486   7.122 -0.5578  0.2221 -0.0101
 6526SOL    HW131214   0.889   3.430   7.081  1.2311 -0.9072 -1.3614
 6526SOL    HW231215   0.919   3.570   7.092 -0.7010  0.1635 -0.0039
 6527SOL     OW31216   0.276   3.939   8.896 -0.0585 -0.0835 -0.0458
 6527SOL    HW131217   0.243   4.024   8.923 -2.8315 -1.4208  0.8461
 6527SOL    HW231218   0.282   3.881   8.972 -0.0409 -1.6627 -1.2382
 6528SOL     OW31219   2.193   4.584   0.575  0.2486  0.2846 -0.2674
 6528SOL    HW131220   2.136   4.643   0.525  3.0711  2.8115 -0.4925
 6528SOL    HW231221   2.142   4.558   0.651  0.5689 -0.9615 -0.4751
 6529SOL     OW31222   3.238   4.647  10.636 -0.0284  0.0628  0.2446
 6529SOL    HW131223   3.330   4.636  10.659 -0.1336 -0.4015  0.4496
 6529SOL    HW231224   3.219   4.557  10.608 -1.5817  1.3125 -2.7006
 6530SOL     OW31225   2.499   2.480   4.803  0.0273  0.1534  0.1754
 6530SOL    HW131226   2.544   2.432   4.733 -0.9647  2.3581 -1.9727
 6530SOL    HW231227   2.559   2.554   4.815 -0.1968  0.0816  1.8106
 6531SOL     OW31228   1.296   1.790   3.461  0.4475  0.2187  0.2478
 6531SOL    HW131229   1.209   1.750   3.456  1.3540 -1.9305  1.5955
 6531SOL    HW231230   1.296   1.829   3.373  0.4796 -1.2522 -0.4133
 6532SOL     OW31231   3.377   0.860   2.565  0.0935 -0.2077 -0.7009
 6532SOL    HW131232   3.329   0.940   2.547 -2.9986 -2.0556 -0.7345
 6532SOL    HW231233   3.329   0.820   2.638 -1.9270 -0.5056 -2.2034
 6533SOL     OW31234   2.087   3.404   8.936  0.2251  0.4089  0.0030
 6533SOL    HW131235   2.143   3.327   8.944  0.3308  0.3137 -1.6967
 6533SOL    HW231236   2.010   3.389   8.990  0.1715 -2.3398 -0.8420
 6534SOL     OW31237   4.644   0.222   9.313 -0.0744 -0.8547  0.3814
 6534SOL    HW131238   4.619   0.138   9.273 -2.0119  0.6704 -1.6728
 6534SOL    HW231239   4.694   0.259   9.240 -1.1315 -0.9207 -0.3784
 6535SOL     OW31240   4.572   1.329   4.600 -0.1332  0.1194 -0.2570
 6535SOL    HW131241   4.579   1.327   4.504 -0.2730 -2.0913 -0.2337
 6535SOL    HW231242   4.542   1.240   4.617  1.1769 -0.9117 -3.3493
 6536SOL     OW31243   0.152   4.528   0.549  0.1070  0.2376  0.1053
 6536SOL    HW131244   0.101   4.556   0.625  0.3191 -1.2489  0.7977
 6536SOL    HW231245   0.128   4.592   0.482 -1.1885  1.7361  2.0178
 6537SOL     OW31246   4.737   3.215  16.462 -0.5283 -0.1762 -0.0188
 6537SOL    HW131247   4.659   3.226  16.408 -0.3903 -0.9536 -0.3754
 6537SOL    HW231248   0.021   3.122  16.456  1.1920  0.3146 -1.2071
 6538SOL     OW31249   0.705   2.895   3.820 -0.0407 -0.0037 -0.1555
 6538SOL    HW131250   0.727   2.808   3.787  1.1835 -0.2090  1.2225
 6538SOL    HW231251   0.624   2.871   3.866 -0.8006 -0.3555 -1.6559
 6539SOL     OW31252   0.305   4.542   8.139 -0.0999  0.0712  0.5561
 6539SOL    HW131253   0.374   4.605   8.157  0.1311 -0.2939  0.9408
 6539SOL    HW231254   0.252   4.565   8.215  1.3908  0.4680  1.4580
 6540SOL     OW31255   4.418   3.368   6.146  0.1404  0.1309  0.3692
 6540SOL    HW131256   4.331   3.356   6.183  0.1857 -0.3919  0.3115
 6540SOL    HW231257   4.422   3.297   6.082  0.4044  1.1722 -0.7678
 6541SOL     OW31258   3.899   1.318   8.558  0.2816 -0.0846  0.1075
 6541SOL    HW131259   3.892   1.225   8.578 -3.5448  0.5461  1.6411
 6541SOL    HW231260   3.812   1.354   8.578  1.8012  2.2246  2.5651
 6542SOL     OW31261   3.366   3.586  17.242 -0.3714  0.3906 -0.3669
 6542SOL    HW131262   3.410   3.529  17.178  0.3839  0.7731 -0.1809
 6542SOL    HW231263   3.438   3.612  17.299 -0.5238 -0.1532  0.0714
 6543SOL     OW31264   4.224   4.563   2.354 -0.3699  0.5814  0.6841
 6543SOL    HW131265   4.230   4.640   2.298 -0.8952  0.7722  0.8912
 6543SOL    HW231266   4.138   4.582   2.391 -2.1337 -1.5966 -2.2560
 6544SOL     OW31267   2.201   0.034   7.491 -0.1369  0.3405 -0.3371
 6544SOL    HW131268   2.151   4.695   7.469 -1.2527  1.3678 -1.4534
 6544SOL    HW231269   2.148   0.102   7.448 -1.1390 -0.9732 -1.1764
 6545SOL     OW31270   3.112   3.780   1.174  0.4105  0.6176 -0.0495
 6545SOL    HW131271   3.033   3.809   1.128 -0.6890  0.1725  1.5402
 6545SOL    HW231272   3.173   3.766   1.101  0.1996 -1.6432  0.1902
 6546SOL     OW31273   1.015   1.462   7.883  0.0363 -0.3431 -0.0864
 6546SOL    HW131274   1.079   1.394   7.865 -0.4347 -1.0009  0.7016
 6546SOL    HW231275   0.938   1.416   7.849 -0.6851  0.4269  0.5110
 6547SOL     OW31276   3.720   0.259  11.624  0.0441  0.3895 -0.2329
 6547SOL    HW131277   3.714   0.191  11.557 -2.7918 -1.4682  1.8598
 6547SOL    HW231278   3.650   0.225  11.680 -0.2518  0.5700 -0.4932
 6548SOL     OW31279   0.396   4.552   3.229  0.3917 -0.2530 -0.2583
 6548SOL    HW131280   0.485   4.561   3.196  0.4437 -1.5989 -0.4724
 6548SOL    HW231281   0.384   4.627   3.288 -0.3469  0.7623 -1.7147
 6549SOL     OW31282   3.355   1.721   8.636 -0.7779 -0.6680 -0.9766
 6549SOL    HW131283   3.335   1.810   8.608 -0.8163  0.0604  1.3698
 6549SOL    HW231284   3.379   1.735   8.728 -2.0024 -0.8605 -0.6299
 6550SOL     OW31285   1.557   1.492   8.013  0.2476 -0.3559  0.0699
 6550SOL    HW131286   1.582   1.425   7.949 -0.8454 -1.4284  0.7582
 6550SOL    HW231287   1.463   1.476   8.025  0.1079  1.2886  1.2367
 6551SOL     OW31288   2.576   3.189   1.447  0.4537  0.6976 -1.0117
 6551SOL    HW131289   2.619   3.201   1.363  0.5955 -1.2531 -1.2193
 6551SOL    HW231290   2.546   3.279   1.460  0.2210  0.2764  1.3763
 6552SOL     OW31291   0.198   2.147   5.140 -0.0443  0.2881  0.4157
 6552SOL    HW131292   0.201   2.054   5.117 -0.5159  0.2220  0.6235
 6552SOL    HW231293   0.118   2.186   5.104  0.0347 -1.3735 -1.5485
 6553SOL     OW31294   4.312   1.617  11.073 -0.1564 -0.5778  0.1109
 6553SOL    HW131295   4.357   1.626  11.157 -0.4832 -1.9788  0.4297
 6553SOL    HW231296   4.379   1.597  11.008 -0.8935  1.3496 -1.2428
 6554SOL     OW31297   0.023   1.734   4.352 -0.3040 -0.0276 -0.2152
 6554SOL    HW131298   4.707   1.686   4.290  0.1088 -0.0879 -0.5319
 6554SOL    HW231299   0.051   1.814   4.307 -0.2514  0.4481  0.6574
 6555SOL     OW31300   3.676   0.030   6.363 -0.3556  0.6396  0.2942
 6555SOL    HW131301   3.583   0.006   6.367  0.0054 -0.8008 -0.1622
 6555SOL    HW231302   3.692   0.070   6.449  2.0356 -2.1461  1.1243
 6556SOL     OW31303   1.147   3.019   6.791 -0.3877  0.1582 -0.3479
 6556SOL    HW131304   1.107   2.959   6.854 -2.8939  2.2770  0.0460
 6556SOL    HW231305   1.081   3.088   6.785 -0.9279 -0.5092 -2.2395
 6557SOL     OW31306   3.698   4.005   6.460 -0.4096 -0.2268 -0.0638
 6557SOL    HW131307   3.709   4.042   6.372  0.7574 -1.6742 -0.5424
 6557SOL    HW231308   3.653   4.073   6.509  1.0519 -1.0881  2.4450
 6558SOL     OW31309   0.049   0.223  12.901  0.3438 -0.8603 -0.9067
 6558SOL    HW131310   0.090   0.309  12.903 -3.3601  0.9114 -0.5018
 6558SOL    HW231311   0.112   0.172  12.952 -1.0145 -1.7942 -0.1359
 6559SOL     OW31312   1.991   2.943   2.464  0.1927  0.2988  0.0117
 6559SOL    HW131313   2.083   2.919   2.458 -0.0789 -0.7803  0.1613
 6559SOL    HW231314   1.964   2.916   2.376  2.2458  3.3865 -1.5753
 6560SOL     OW31315   1.403   0.096   3.713 -0.4768  0.1389  0.4822
 6560SOL    HW131316   1.347   0.048   3.774 -2.5485  1.5364 -0.3035
 6560SOL    HW231317   1.361   0.181   3.721 -1.9536 -0.5422 -0.1398
 6561SOL     OW31318   3.341   2.520   9.406 -0.2335 -0.1756 -0.0030
 6561SOL    HW131319   3.429   2.509   9.369 -0.1855 -3.4365  1.0839
 6561SOL    HW231320   3.352   2.581   9.479 -0.9843  0.5384 -0.4881
 6562SOL     OW31321   0.818   3.295   8.063 -0.4325 -0.3217  0.6313
 6562SOL    HW131322   0.865   3.214   8.041  0.2408  0.1884  0.2162
 6562SOL    HW231323   0.789   3.312   7.973 -1.6435  0.1046  1.1069
 6563SOL     OW31324   3.529   1.268   2.948  0.1424 -0.1128  0.3787
 6563SOL    HW131325   3.501   1.346   2.996  2.0463  0.6725  0.2082
 6563SOL    HW231326   3.489   1.290   2.864 -0.2840  0.0498  0.6249
 6564SOL     OW31327   0.715   1.297   7.954 -0.8717 -0.2062 -0.6848
 6564SOL    HW131328   0.723   1.388   7.983  1.0626 -0.8575  0.8429
 6564SOL    HW231329   0.724   1.252   8.038 -0.9972 -1.3829 -1.2970
 6565SOL     OW31330   0.692   3.645   5.534 -0.2798 -0.1717  0.1882
 6565SOL    HW131331   0.676   3.579   5.466 -0.5243 -3.1306  3.1192
 6565SOL    HW231332   0.786   3.655   5.542 -0.1514 -1.1554 -0.0585
 6566SOL     OW31333   0.762   1.122  10.815 -0.1311 -0.5551  0.0721
 6566SOL    HW131334   0.793   1.187  10.752  0.5235 -0.3338  0.6181
 6566SOL    HW231335   0.690   1.090  10.761 -0.6923 -1.7399  1.5458
 6567SOL     OW31336   0.155   0.503   8.629  0.5358  0.2954 -0.0208
 6567SOL    HW131337   0.132   0.500   8.722  0.2403 -0.3492 -0.1195
 6567SOL    HW231338   0.238   0.455   8.629  0.5742  0.3631  0.3639
 6568SOL     OW31339   2.147   1.177   5.880 -0.1453  0.0170 -0.4255
 6568SOL    HW131340   2.207   1.145   5.948  1.0590  1.5124 -0.7598
 6568SOL    HW231341   2.110   1.247   5.935 -0.2610  0.9266 -1.6533
 6569SOL     OW31342   0.612   4.281  16.118 -0.9423  0.0658  0.5273
 6569SOL    HW131343   0.531   4.264  16.071  0.5833 -1.3439 -1.6075
 6569SOL    HW231344   0.599   4.234  16.200 -0.5397 -0.2132  0.4333
 6570SOL     OW31345   0.460   2.308   6.303  0.4452 -0.0785 -0.3981
 6570SOL    HW131346   0.474   2.214   6.291 -0.1459 -0.2192  0.0307
 6570SOL    HW231347   0.548   2.339   6.280  0.8988 -1.5373 -0.6354
 6571SOL     OW31348   0.741   2.933   2.608  0.6761 -0.2021  0.0282
 6571SOL    HW131349   0.808   2.979   2.557  0.7004  1.2420  1.3762
 6571SOL    HW231350   0.797   2.860   2.635  1.8842  0.8157  0.3169
 6572SOL     OW31351   1.253   3.496  16.136 -0.6350 -0.1387  0.6903
 6572SOL    HW131352   1.236   3.459  16.222 -2.0870 -0.8591  0.0836
 6572SOL    HW231353   1.310   3.571  16.156 -2.6828  0.9041  2.5493
 6573SOL     OW31354   0.678   3.045  11.459  0.3257  0.0351 -0.0979
 6573SOL    HW131355   0.674   3.116  11.523  0.1868  1.3961 -1.6181
 6573SOL    HW231356   0.636   2.971  11.503  1.3576 -0.5038 -0.0409
 6574SOL     OW31357   2.961   0.982   7.450 -0.2029  0.3946  0.0762
 6574SOL    HW131358   2.957   1.075   7.470 -1.3158  0.5898 -1.0865
 6574SOL    HW231359   2.869   0.959   7.465 -0.0309  1.5833  2.9238
 6575SOL     OW31360   1.828   3.807  13.217 -0.2855  0.1462  0.4775
 6575SOL    HW131361   1.883   3.741  13.174  1.7177  1.3546  1.1830
 6575SOL    HW231362   1.805   3.769  13.302  0.2981 -1.1066  0.0872
 6576SOL     OW31363   1.260   3.376   1.942  0.1164 -0.1342  1.3694
 6576SOL    HW131364   1.271   3.471   1.947  2.2890 -0.4599  2.6793
 6576SOL    HW231365   1.270   3.370   1.847 -3.3294  1.5811  0.8931
 6577SOL     OW31366   1.688   1.860   6.190  0.1643 -0.2230 -0.7267
 6577SOL    HW131367   1.677   1.892   6.101 -1.8056  0.8424 -0.1069
 6577SOL    HW231368   1.779   1.883   6.210 -0.2288  0.0268  0.7671
 6578SOL     OW31369   3.869   2.451   7.002  0.4006  0.1296  0.0526
 6578SOL    HW131370   3.960   2.434   6.977  0.6675 -0.1047  1.1822
 6578SOL    HW231371   3.875   2.443   7.097  0.4514 -1.3113 -0.0713
 6579SOL     OW31372   0.283   3.095   7.353  0.3303 -0.1518  0.2360
 6579SOL    HW131373   0.340   3.044   7.411 -0.0711 -1.1339 -0.2442
 6579SOL    HW231374   0.310   3.061   7.268  0.0860 -0.1995  0.1786
 6580SOL     OW31375   1.859   4.710   6.874 -0.5925 -0.2468 -0.2334
 6580SOL    HW131376   1.847   4.618   6.850  2.3321 -0.9968  1.1321
 6580SOL    HW231377   1.831   4.704   6.965  0.2066 -0.2290  0.0141
 6581SOL     OW31378   4.213   1.214  10.511  0.3036  0.1353  0.1616
 6581SOL    HW131379   4.153   1.226  10.585 -1.6739 -1.2143 -1.2072
 6581SOL    HW231380   4.164   1.258  10.442 -0.8740 -1.2148  0.1234
 6582SOL     OW31381   0.353   3.665   1.687  0.0079 -0.2079  0.1476
 6582SOL    HW131382   0.260   3.658   1.705 -0.2755  0.3788 -1.0757
 6582SOL    HW231383   0.377   3.608   1.760  1.6580 -0.0166 -0.2511
 6583SOL     OW31384   4.072   2.652   4.541 -0.4590 -0.5661 -0.2777
 6583SOL    HW131385   3.986   2.634   4.503 -0.6484  2.4552 -1.2566
 6583SOL    HW231386   4.060   2.744   4.563 -0.2918 -0.5249 -0.3543
 6584SOL     OW31387   1.190   4.132   0.629  0.4175  0.1377  0.2564
 6584SOL    HW131388   1.096   4.115   0.634  0.2662  1.2344  1.0554
 6584SOL    HW231389   1.184   4.219   0.588 -0.9490 -0.6812 -1.3190
 6585SOL     OW31390   0.475   1.084  13.301  0.1403 -0.3468 -0.0809
 6585SOL    HW131391   0.447   1.175  13.312  0.0235 -0.7870  3.3649
 6585SOL    HW231392   0.393   1.034  13.294  0.5703 -1.1570  0.5848
 6586SOL     OW31393   2.792   4.166   5.976 -0.4073  0.5659 -0.0989
 6586SOL    HW131394   2.699   4.186   5.987 -0.6739  1.2363 -3.7824
 6586SOL    HW231395   2.812   4.118   6.057 -1.6391 -0.1498 -0.2205
 6587SOL     OW31396   1.907   0.877  17.701 -0.0655 -0.0004  0.0373
 6587SOL    HW131397   1.884   0.846   0.035 -3.1068 -1.3664 -1.2775
 6587SOL    HW231398   1.914   0.971  17.718 -2.4342  0.0466  0.6427
 6588SOL     OW31399   1.183   2.212   6.816 -0.1459 -0.6215  0.0227
 6588SOL    HW131400   1.182   2.259   6.900  1.1978  0.0357 -0.3280
 6588SOL    HW231401   1.094   2.227   6.785  0.4033 -0.2983 -1.3724
 6589SOL     OW31402   0.772   0.956   5.358 -0.1547  0.0115 -0.2018
 6589SOL    HW131403   0.738   0.923   5.441  0.3169 -2.8905 -1.1687
 6589SOL    HW231404   0.701   1.011   5.324  2.4452  3.2591 -0.4968
 6590SOL     OW31405   1.559   0.398  16.200 -0.1373  0.4502 -0.1820
 6590SOL    HW131406   1.522   0.324  16.247 -0.1692 -0.2602 -1.3297
 6590SOL    HW231407   1.600   0.355  16.125 -0.8080 -0.7185  0.1266
 6591SOL     OW31408   2.430   1.703  11.478 -0.7163 -0.2413  0.4353
 6591SOL    HW131409   2.407   1.689  11.569 -1.5886 -0.6930  0.1400
 6591SOL    HW231410   2.522   1.678  11.464 -0.5751 -0.1506  1.2365
 6592SOL     OW31411   2.215   1.301   1.010  0.6623  0.1345 -0.0311
 6592SOL    HW131412   2.178   1.331   1.093  0.6185  0.7864 -0.2871
 6592SOL    HW231413   2.235   1.211   1.036  0.7707  0.0483 -0.4137
 6593SOL     OW31414   4.661   2.814   3.331  0.4625  0.6649  0.2831
 6593SOL    HW131415   4.682   2.801   3.424  0.1031  1.1484  0.4307
 6593SOL    HW231416   4.566   2.810   3.335  0.4945  0.5699  0.9942
 6594SOL     OW31417   3.903   3.597   3.466 -0.4262 -0.0249 -0.0477
 6594SOL    HW131418   3.940   3.511   3.486 -0.6878  0.0177  0.6151
 6594SOL    HW231419   3.930   3.651   3.540  0.3038 -1.1434  0.5006
 6595SOL     OW31420   3.210   1.709  17.458  0.1959  0.1879  0.1493
 6595SOL    HW131421   3.227   1.625  17.416  0.0913  0.3062 -0.1325
 6595SOL    HW231422   3.291   1.734  17.502 -0.3321 -0.1573  1.3218
 6596SOL     OW31423   0.470   0.209   8.082 -0.0691 -0.0409  0.3922
 6596SOL    HW131424   0.541   0.274   8.085  1.5932 -1.7996 -0.2166
 6596SOL    HW231425   0.498   0.130   8.128 -1.3609 -1.3922 -1.1328
 6597SOL     OW31426   3.885   1.887  13.509 -0.0070 -0.3710 -0.2257
 6597SOL    HW131427   3.946   1.877  13.435  3.2218 -0.9537  2.5255
 6597SOL    HW231428   3.863   1.980  13.513  1.0187 -0.1734  0.6902
 6598SOL     OW31429   3.525   3.864   8.692 -0.3805 -0.1864 -0.5667
 6598SOL    HW131430   3.544   3.956   8.671 -1.3583 -0.4826 -2.6996
 6598SOL    HW231431   3.551   3.835   8.605 -1.0996 -2.7722  0.1073
 6599SOL     OW31432   3.473   2.210   8.395  0.0580 -0.1521 -0.7174
 6599SOL    HW131433   3.551   2.158   8.412 -0.9557 -2.0720 -1.9203
 6599SOL    HW231434   3.509   2.298   8.408 -0.2266 -0.2794  0.9363
 6600SOL     OW31435   1.578   0.353   6.776  0.1854  0.3226 -0.2984
 6600SOL    HW131436   1.657   0.313   6.811 -1.4820  0.3871  3.5799
 6600SOL    HW231437   1.566   0.310   6.692  1.2726  0.0146 -0.2994
 6601SOL     OW31438   1.942   1.440   4.365  0.1224  0.5992 -0.0154
 6601SOL    HW131439   2.008   1.372   4.354 -2.0006 -1.3121 -0.9638
 6601SOL    HW231440   1.925   1.439   4.459  1.3139 -1.4078  0.1723
 6602SOL     OW31441   1.479   1.192  12.857 -0.4982  0.0360 -0.6072
 6602SOL    HW131442   1.450   1.116  12.806  1.4602 -0.9662 -0.2441
 6602SOL    HW231443   1.398   1.202  12.905 -0.1700 -1.1563  0.2112
 6603SOL     OW31444   0.457   0.614   3.155  0.0725  0.1764  0.1552
 6603SOL    HW131445   0.446   0.706   3.177 -0.4704 -0.1083  1.1114
 6603SOL    HW231446   0.411   0.576   3.230 -0.4968  0.3831 -0.0878
 6604SOL     OW31447   4.622   2.974   6.099 -0.2133  0.3770 -0.0544
 6604SOL    HW131448   4.704   3.022   6.095 -1.5279  2.6643  0.6410
 6604SOL    HW231449   4.633   2.917   6.175 -0.4281  1.5266  0.8339
 6605SOL     OW31450   0.421   4.433   4.559  0.3613 -0.5009 -0.3631
 6605SOL    HW131451   0.410   4.504   4.622  0.3381  1.0144 -2.0701
 6605SOL    HW231452   0.435   4.359   4.617 -0.2567  0.2911  0.7987
 6606SOL     OW31453   4.376   3.465   2.971 -0.0683 -0.1617 -0.3293
 6606SOL    HW131454   4.303   3.463   3.033  1.0074  1.1319  0.9732
 6606SOL    HW231455   4.451   3.437   3.024 -0.4538  0.8231  0.7328
 6607SOL     OW31456   3.564   4.062   5.810  0.3114 -0.2680 -0.6019
 6607SOL    HW131457   3.655   4.055   5.781  0.7601 -1.8640  1.2076
 6607SOL    HW231458   3.563   4.145   5.858 -1.2396 -1.3414  1.2004
 6608SOL     OW31459   4.495   1.845   4.222  0.2176 -0.0668  0.1752
 6608SOL    HW131460   4.433   1.818   4.154  2.3183 -1.6702 -1.1073
 6608SOL    HW231461   4.547   1.765   4.218 -0.0491 -0.0432 -4.2822
 6609SOL     OW31462   4.055   2.238   5.935 -0.6207  0.4131  0.5650
 6609SOL    HW131463   4.016   2.153   5.953 -0.2062 -0.3444 -2.0480
 6609SOL    HW231464   4.049   2.268   6.026  1.9935 -0.4858  1.0044
 6610SOL     OW31465   1.383   2.414   8.934  0.4528  0.1443  0.5603
 6610SOL    HW131466   1.478   2.422   8.943  0.2985  0.8915  1.5283
 6610SOL    HW231467   1.371   2.420   8.840  1.5231 -0.3651  0.3879
 6611SOL     OW31468   1.990   0.901   3.979 -0.0055 -0.2588  0.3740
 6611SOL    HW131469   1.925   0.834   3.958  1.1755 -0.2541 -3.3786
 6611SOL    HW231470   2.067   0.849   4.001  1.9778  1.0461 -3.3370
 6612SOL     OW31471   3.879   0.494   2.208 -0.3297  0.1722 -0.0761
 6612SOL    HW131472   3.885   0.462   2.298 -2.3260  0.1905  0.0503
 6612SOL    HW231473   3.876   0.588   2.223  0.2689  0.1243  0.3853
 6613SOL     OW31474   0.352   3.701   4.906 -0.3632 -0.1247  0.2739
 6613SOL    HW131475   0.439   3.730   4.881  0.0149 -0.9570  0.6247
 6613SOL    HW231476   0.344   3.738   4.994  0.7098 -0.1674  0.3854
 6614SOL     OW31477   0.063   4.113   8.036  0.5307 -0.6639  0.5451
 6614SOL    HW131478   0.056   4.149   7.948 -2.6040  1.1091  1.5427
 6614SOL    HW231479   0.130   4.173   8.070  0.7127  0.6403 -2.1541
 6615SOL     OW31480   2.783   4.688   6.044 -0.1372  0.0955 -0.4135
 6615SOL    HW131481   2.848   4.637   5.995 -0.7831 -0.9925 -0.1276
 6615SOL    HW231482   2.699   4.655   6.015  0.1626 -0.9903 -0.0534
 6616SOL     OW31483   3.508   0.397  17.715  0.2425 -0.0297 -0.5825
 6616SOL    HW131484   3.478   0.409  17.625  0.7958  0.1499 -0.7448
 6616SOL    HW231485   3.453   0.324  17.744  1.8198 -0.9401  0.0918
 6617SOL     OW31486   1.416   4.106   2.031  0.6375 -0.5173  0.0245
 6617SOL    HW131487   1.353   4.162   2.077 -0.1405 -1.5265  0.1800
 6617SOL    HW231488   1.484   4.098   2.097  2.0505  0.0258 -1.3632
 6618SOL     OW31489   2.802   2.907   7.276  0.1206 -0.4552  0.3140
 6618SOL    HW131490   2.707   2.906   7.265  0.0886 -0.2104  0.5549
 6618SOL    HW231491   2.829   2.902   7.185  0.7640 -2.1064  0.6023
 6619SOL     OW31492   0.602   2.842   8.745  0.0070 -0.0199  0.0068
 6619SOL    HW131493   0.574   2.783   8.675 -0.6409 -0.0946  0.3263
 6619SOL    HW231494   0.674   2.790   8.780 -0.0192  0.2712  0.4990
 6620SOL     OW31495   4.270   1.727   6.535 -0.1041 -0.4729 -0.1219
 6620SOL    HW131496   4.292   1.719   6.628 -2.1081 -4.4338  0.0361
 6620SOL    HW231497   4.315   1.649   6.500 -2.0083 -0.9783 -1.4599
 6621SOL     OW31498   0.293   0.730   8.059  0.1226 -0.8600  0.4118
 6621SOL    HW131499   0.319   0.792   8.127 -1.0213  0.9335 -0.7763
 6621SOL    HW231500   0.370   0.675   8.044  1.1726  0.8687 -0.4190
 6622SOL     OW31501   1.174   2.915   7.274 -0.0979 -0.2838 -0.3121
 6622SOL    HW131502   1.086   2.951   7.265 -0.4395 -0.6766  1.6036
 6622SOL    HW231503   1.167   2.836   7.219  1.5008 -0.4691 -0.2456
 6623SOL     OW31504   4.695   0.828  13.509 -0.2754  0.2562  0.4314
 6623SOL    HW131505   4.640   0.764  13.464  0.9400  0.0548 -0.7557
 6623SOL    HW231506   4.643   0.906  13.486 -0.6425 -0.9052 -2.7389
 6624SOL     OW31507   3.768   2.148  17.032 -0.2261 -0.0193  0.4128
 6624SOL    HW131508   3.718   2.128  16.953  0.8201  1.2288 -0.5679
 6624SOL    HW231509   3.781   2.062  17.073 -2.7486 -0.8985 -0.6005
 6625SOL     OW31510   3.671   2.316   5.757  0.5632  0.0875 -0.2440
 6625SOL    HW131511   3.672   2.232   5.712 -0.6342  0.0081 -0.1306
 6625SOL    HW231512   3.577   2.329   5.766  0.8317  2.4345 -0.7984
 6626SOL     OW31513   1.417   3.186   3.330 -0.3886 -0.7724 -0.5161
 6626SOL    HW131514   1.421   3.185   3.425 -0.0392 -0.3609 -0.5254
 6626SOL    HW231515   1.351   3.255   3.321  2.7693  2.1114 -1.7092
 6627SOL     OW31516   3.812   1.524   2.939 -0.3966  0.3990 -0.0556
 6627SOL    HW131517   3.907   1.513   2.949 -0.1147  1.4788 -1.5624
 6627SOL    HW231518   3.786   1.561   3.023  0.2844  1.8498 -0.4836
 6628SOL     OW31519   3.655   0.432   2.414  0.2646  0.0466  0.0730
 6628SOL    HW131520   3.563   0.425   2.440  0.1681 -2.7286 -0.9108
 6628SOL    HW231521   3.653   0.411   2.320  1.9695  1.6994 -0.3259
 6629SOL     OW31522   2.003   1.535   2.504 -0.2712 -0.4923  0.1420
 6629SOL    HW131523   1.949   1.604   2.467  0.5960  1.1507  1.9691
 6629SOL    HW231524   2.069   1.588   2.549 -0.9378  1.4656 -1.2072
 6630SOL     OW31525   3.709   3.152   5.269 -0.5741  0.4498  0.5664
 6630SOL    HW131526   3.748   3.192   5.346  0.0997 -0.0258  0.4758
 6630SOL    HW231527   3.672   3.227   5.223 -0.7301  1.2600  2.0175
 6631SOL     OW31528   3.965   3.491   1.841  0.7697  0.1145 -0.0474
 6631SOL    HW131529   4.058   3.481   1.819  0.7321 -0.3309 -0.0124
 6631SOL    HW231530   3.926   3.407   1.815 -1.8361  0.8699  1.4559
 6632SOL     OW31531   2.431   1.191   1.502  0.8098  0.4793 -0.1398
 6632SOL    HW131532   2.461   1.273   1.541 -0.9882  0.3054  1.6307
 6632SOL    HW231533   2.508   1.136   1.514  0.4382  0.7778  3.6150
 6633SOL     OW31534   0.385   2.546   8.148 -0.6609 -0.0396 -0.0691
 6633SOL    HW131535   0.345   2.566   8.063 -0.3758  0.3456 -0.1089
 6633SOL    HW231536   0.477   2.566   8.134 -0.5239 -0.5720  0.0652
 6634SOL     OW31537   2.178   3.630   7.487 -0.0331 -0.0119 -0.4938
 6634SOL    HW131538   2.163   3.597   7.576  1.2852  0.7890  0.0226
 6634SOL    HW231539   2.102   3.585   7.450  0.3463 -1.4013  0.3724
 6635SOL     OW31540   4.716   4.451   7.449  0.2561 -0.2316  0.6463
 6635SOL    HW131541   4.626   4.475   7.476  0.5682  3.8460 -1.9197
 6635SOL    HW231542   0.021   4.433   7.532  0.1653  1.9510  1.1766
 6636SOL     OW31543   2.388   3.961   4.992  0.2047  0.7971  0.2280
 6636SOL    HW131544   2.450   3.910   4.941 -0.4992  1.2567 -1.0907
 6636SOL    HW231545   2.316   3.968   4.930 -1.3053  0.5451  1.9565
 6637SOL     OW31546   0.873   3.995   3.092 -0.3703 -0.0065 -0.3885
 6637SOL    HW131547   0.825   4.058   3.037 -3.7199 -1.5881  0.6730
 6637SOL    HW231548   0.839   3.917   3.049  2.1376 -1.7428  0.7976
 6638SOL     OW31549   2.513   1.771   4.788  0.1131  0.6813 -0.0878
 6638SOL    HW131550   2.597   1.748   4.750 -0.4482 -0.2928 -0.7373
 6638SOL    HW231551   2.484   1.837   4.725  1.0174 -0.2847 -1.5102
 6639SOL     OW31552   2.365   2.057  12.314 -0.2436  0.4303  0.1203
 6639SOL    HW131553   2.341   1.965  12.299 -0.1156  0.4837 -0.3996
 6639SOL    HW231554   2.337   2.090  12.228 -1.5398  1.1169  0.8110
 6640SOL     OW31555   2.522   3.001   3.910  0.5223  0.4410 -0.1694
 6640SOL    HW131556   2.569   3.044   3.838  1.6530 -2.5524 -1.2078
 6640SOL    HW231557   2.544   2.910   3.893 -0.2248  0.1363  0.5085
 6641SOL     OW31558   0.074   0.427  11.446 -0.1848  0.5557 -0.0745
 6641SOL    HW131559   0.061   0.510  11.491 -1.0300  0.0622  0.5715
 6641SOL    HW231560   0.164   0.431  11.413  0.8031 -0.7385  2.4119
 6642SOL     OW31561   1.679   1.548   1.755  0.6778 -0.2278 -0.1118
 6642SOL    HW131562   1.666   1.538   1.850  0.7179 -0.8699 -0.1758
 6642SOL    HW231563   1.731   1.628   1.750 -0.8678  0.7878 -0.0836
 6643SOL     OW31564   2.828   1.187   1.082  0.2968  0.0868  0.1115
 6643SOL    HW131565   2.762   1.150   1.023  1.6907 -0.5645 -1.0261
 6643SOL    HW231566   2.874   1.110   1.115  0.9912  0.0572 -0.9219
 6644SOL     OW31567   4.269   1.333   9.049  0.2980  0.6518 -0.1322
 6644SOL    HW131568   4.177   1.337   9.076  0.4016  0.2399  0.2885
 6644SOL    HW231569   4.307   1.405   9.098 -1.9454  0.2078  2.2808
 6645SOL     OW31570   3.713   4.406  14.411  0.2132  0.2576  0.0283
 6645SOL    HW131571   3.735   4.343  14.343 -1.5097 -0.9907  0.6245
 6645SOL    HW231572   3.745   4.365  14.491 -2.9834  0.1372  1.2270
 6646SOL     OW31573   2.738   0.556  11.711 -0.4747  0.2401  0.6676
 6646SOL    HW131574   2.815   0.505  11.734  0.0911  0.4501 -0.7779
 6646SOL    HW231575   2.688   0.550  11.793 -0.7667 -0.8498  0.4207
 6647SOL     OW31576   4.668   4.705   9.066 -0.1855 -0.1917  0.3004
 6647SOL    HW131577   4.624   4.712   8.981  1.1805 -0.9218 -0.4617
 6647SOL    HW231578   0.007   0.019   9.051 -1.0133  1.3480  1.3552
 6648SOL     OW31579   1.569   3.553   6.618 -0.5238 -0.1301  0.0998
 6648SOL    HW131580   1.633   3.486   6.593  0.6949  0.4632  1.6142
 6648SOL    HW231581   1.603   3.629   6.571  1.6283 -0.5617  0.9346
 6649SOL     OW31582   2.267   1.763   1.746 -0.2490  0.2627 -0.2409
 6649SOL    HW131583   2.255   1.798   1.657  0.1129  1.2178  0.0813
 6649SOL    HW231584   2.254   1.670   1.726  0.8697  0.5142 -2.1488
 6650SOL     OW31585   2.644   3.690  11.493 -0.1804 -0.1039 -0.4440
 6650SOL    HW131586   2.653   3.596  11.478 -0.5098  0.1530 -2.2546
 6650SOL    HW231587   2.686   3.691  11.579  1.0782 -4.7422 -1.0277
 6651SOL     OW31588   3.206   3.677  13.255  0.1941 -0.2253 -0.3191
 6651SOL    HW131589   3.294   3.675  13.292 -0.2113 -1.7778  0.5812
 6651SOL    HW231590   3.214   3.646  13.165  0.0897  0.3972 -0.5437
 6652SOL     OW31591   4.115   0.271   7.905 -0.6049  0.4090 -0.2141
 6652SOL    HW131592   4.062   0.266   7.984 -0.7313  0.8037 -0.2760
 6652SOL    HW231593   4.053   0.292   7.835  1.4427 -0.1709 -2.2086
 6653SOL     OW31594   3.510   4.480   2.596  0.1187  0.1457  0.4306
 6653SOL    HW131595   3.584   4.538   2.613 -1.6511  2.5166 -0.0402
 6653SOL    HW231596   3.461   4.480   2.677 -0.3055 -0.5527  0.1741
 6654SOL     OW31597   3.009   0.678   1.370  0.3431  0.2654  0.9788
 6654SOL    HW131598   2.915   0.675   1.352  0.5380 -0.6776  0.0517
 6654SOL    HW231599   3.038   0.590   1.394 -0.5787 -0.7087 -1.4561
 6655SOL     OW31600   3.445   2.429   5.983 -0.3005 -0.5605  0.3602
 6655SOL    HW131601   3.471   2.505   6.036  0.6081  0.2028 -1.1927
 6655SOL    HW231602   3.440   2.475   5.900  0.7657  0.7163  1.0090
 6656SOL     OW31603   2.036   0.164   5.543 -0.0708  0.3177 -0.1396
 6656SOL    HW131604   2.070   0.086   5.586 -0.8047 -0.0822 -0.2878
 6656SOL    HW231605   2.087   0.234   5.584  2.3074 -1.8886  0.6525
 6657SOL     OW31606   1.662   2.128   2.056 -0.3070  0.1118 -0.0683
 6657SOL    HW131607   1.635   2.057   1.998 -0.0385  2.6556 -3.2624
 6657SOL    HW231608   1.739   2.157   2.008 -0.1252  0.6220  0.5282
 6658SOL     OW31609   0.418   2.690   3.237  0.2016  0.0797  0.3599
 6658SOL    HW131610   0.363   2.677   3.160 -2.6550  4.0984  1.7119
 6658SOL    HW231611   0.352   2.686   3.306  0.4605 -1.6642  0.4998
 6659SOL     OW31612   0.470   4.653   4.727  0.3811  0.2960  0.1814
 6659SOL    HW131613   0.472   4.588   4.797 -0.5220  1.9752  1.7557
 6659SOL    HW231614   0.421   4.724   4.769 -0.4049  0.1657 -0.5080
 6660SOL     OW31615   1.313   3.195   9.299  0.1672 -0.2038  0.4753
 6660SOL    HW131616   1.258   3.163   9.371  0.4259  1.2014  1.2829
 6660SOL    HW231617   1.257   3.153   9.233 -1.8268  3.2470 -0.0459
 6661SOL     OW31618   2.145   4.010   7.699  0.4343  0.0449 -0.1929
 6661SOL    HW131619   2.234   3.983   7.723 -1.4941 -4.6432  1.6185
 6661SOL    HW231620   2.112   4.037   7.784  0.3916  2.6940 -1.0418
 6662SOL     OW31621   4.517   2.815   8.429  0.4624  0.1708 -0.7995
 6662SOL    HW131622   4.429   2.830   8.464  0.6448  0.7872 -0.6074
 6662SOL    HW231623   4.512   2.854   8.341 -1.3103 -0.0899 -0.8136
 6663SOL     OW31624   1.563   2.927   8.290  0.6124  0.2947  0.1515
 6663SOL    HW131625   1.604   2.974   8.217  2.2113  0.5784  1.2257
 6663SOL    HW231626   1.625   2.854   8.295  1.5518  1.1983  1.4549
 6664SOL     OW31627   0.561   1.366   3.311 -0.0166  0.4612  0.3650
 6664SOL    HW131628   0.563   1.409   3.396  2.2874  0.5677  0.2670
 6664SOL    HW231629   0.485   1.408   3.271 -0.2220  0.2239  0.5083
 6665SOL     OW31630   1.556   1.773   5.476  0.2535 -0.0345 -0.2249
 6665SOL    HW131631   1.517   1.717   5.543 -0.2594 -0.2347 -0.6870
 6665SOL    HW231632   1.473   1.783   5.428  0.4282 -2.4209 -1.0302
 6666SOL     OW31633   0.385   1.331  12.300  0.1626 -0.1038  0.0366
 6666SOL    HW131634   0.388   1.319  12.395  1.2243 -3.6029 -0.4431
 6666SOL    HW231635   0.297   1.370  12.293  0.1049 -0.2412 -0.0125
 6667SOL     OW31636   4.204   2.963  11.652 -0.4437  0.0293 -0.3102
 6667SOL    HW131637   4.198   2.994  11.742 -2.1211  1.2123 -0.8338
 6667SOL    HW231638   4.140   2.893  11.651 -0.2843 -0.1270  0.2323
 6668SOL     OW31639   3.379   3.423   9.454 -0.0451 -0.1580  0.0432
 6668SOL    HW131640   3.424   3.440   9.537  0.4994 -2.0771  0.1369
 6668SOL    HW231641   3.414   3.340   9.421 -0.4338  0.0347 -0.8448
 6669SOL     OW31642   0.100   4.693   5.343  0.4827  0.0252 -0.4706
 6669SOL    HW131643   0.129   4.637   5.271  0.0843  0.0177 -0.6301
 6669SOL    HW231644   0.019   4.650   5.370  0.7035  0.8175  1.4674
 6670SOL     OW31645   0.302   3.771   5.178 -0.5983 -0.2043 -0.4231
 6670SOL    HW131646   0.226   3.790   5.232 -0.5714 -1.0987 -0.0751
 6670SOL    HW231647   0.371   3.765   5.245 -1.3727  4.3429  0.7971
 6671SOL     OW31648   4.473   3.787   3.112  0.1570  0.4163  0.0971
 6671SOL    HW131649   4.385   3.794   3.074  1.0359 -0.0412 -2.0196
 6671SOL    HW231650   4.449   3.766   3.202  0.5171  0.2198  0.1503
 6672SOL     OW31651   3.700   0.855  12.320  0.1319 -0.3797 -0.7987
 6672SOL    HW131652   3.677   0.778  12.269  0.1100 -0.6802 -0.3356
 6672SOL    HW231653   3.765   0.820  12.381 -0.5055 -2.8864 -1.5496
 6673SOL     OW31654   2.870   1.580   4.455  0.1991 -0.5444 -0.4662
 6673SOL    HW131655   2.785   1.538   4.437 -0.5335  0.6597  0.2232
 6673SOL    HW231656   2.842   1.641   4.522  0.3076  0.4565 -1.3389
 6674SOL     OW31657   4.340   4.571  15.401 -0.4081 -0.1432  0.5703
 6674SOL    HW131658   4.386   4.539  15.479 -0.6765  1.8100  1.5368
 6674SOL    HW231659   4.249   4.542  15.402  0.1262 -1.8628 -1.8052
 6675SOL     OW31660   4.490   0.848   3.804  0.3593 -0.6578  0.0234
 6675SOL    HW131661   4.584   0.860   3.816  0.0002  2.4075 -0.2133
 6675SOL    HW231662   4.459   0.865   3.893  0.6958 -0.4862  0.1103
 6676SOL     OW31663   3.308   0.884   5.563 -0.1260 -0.1825  0.3155
 6676SOL    HW131664   3.232   0.859   5.510 -2.4851  0.8855  3.1662
 6676SOL    HW231665   3.304   0.817   5.632  1.9421 -1.0688 -0.4522
 6677SOL     OW31666   1.246   3.565  14.817  0.0074 -0.4585  0.4354
 6677SOL    HW131667   1.268   3.550  14.725  0.4367  0.7577  0.3391
 6677SOL    HW231668   1.153   3.544  14.823 -0.1149 -0.0156  0.0293
 6678SOL     OW31669   1.812   3.271  15.070  0.2210  0.5224 -0.1743
 6678SOL    HW131670   1.758   3.256  14.992  0.9234  1.3054 -0.8193
 6678SOL    HW231671   1.782   3.356  15.102 -0.5121 -0.2249  1.0884
 6679SOL     OW31672   2.233   4.372   2.422  0.1022 -0.2499 -0.1479
 6679SOL    HW131673   2.160   4.312   2.427  1.9188 -2.5140 -0.9252
 6679SOL    HW231674   2.193   4.452   2.388  2.7141  0.3777 -1.7294
 6680SOL     OW31675   3.248   2.661   3.470 -0.3470  0.4186  0.2659
 6680SOL    HW131676   3.283   2.746   3.499  0.7698  0.3536 -0.9162
 6680SOL    HW231677   3.301   2.608   3.529  0.5630  0.7344 -0.2719
 6681SOL     OW31678   4.592   1.572   4.204  0.3630 -0.1222  0.0210
 6681SOL    HW131679   4.507   1.550   4.166  0.3006  0.0210  0.0775
 6681SOL    HW231680   4.631   1.486   4.191 -1.0078 -0.8916  1.0658
 6682SOL     OW31681   1.635   2.060   5.632 -0.2700  0.5592 -0.1564
 6682SOL    HW131682   1.653   1.996   5.563 -1.4613  0.4027 -0.3205
 6682SOL    HW231683   1.555   2.029   5.675 -0.0884 -1.1588 -1.0590
 6683SOL     OW31684   4.559   3.346   6.410  0.0988  0.3930  0.7571
 6683SOL    HW131685   4.492   3.393   6.362 -1.2265 -1.2804  0.9842
 6683SOL    HW231686   4.506   3.269   6.430 -0.1586  0.0714 -1.1927
 6684SOL     OW31687   0.182   2.663   8.314 -0.0542  0.0899  0.2161
 6684SOL    HW131688   0.235   2.698   8.386  0.0086 -0.7073  0.5552
 6684SOL    HW231689   0.239   2.605   8.263 -1.5959 -0.0505 -1.3303
 6685SOL     OW31690   2.123   3.658   4.019 -0.3230  0.2222 -0.6278
 6685SOL    HW131691   2.100   3.672   3.928  1.1612  1.6244 -0.8020
 6685SOL    HW231692   2.219   3.667   4.021 -0.2557 -0.5004 -0.1551
 6686SOL     OW31693   1.530   2.836   3.532  0.0753 -0.0639  0.3746
 6686SOL    HW131694   1.446   2.796   3.554 -0.2516 -0.4186 -1.4951
 6686SOL    HW231695   1.526   2.837   3.436 -1.2645  2.8615  0.4524
 6687SOL     OW31696   4.053   3.709  15.153 -0.0802 -0.1481 -0.7666
 6687SOL    HW131697   4.069   3.669  15.067  1.3486 -2.3130  0.4906
 6687SOL    HW231698   3.960   3.694  15.165 -0.0967 -0.2309 -1.0052
 6688SOL     OW31699   4.163   1.841   6.156  0.1148  0.3866 -0.3470
 6688SOL    HW131700   4.091   1.780   6.170  0.4039  0.1551  0.1381
 6688SOL    HW231701   4.114   1.918   6.127 -0.3682 -0.3631 -1.5384
 6689SOL     OW31702   0.972   0.854  10.562  0.2578 -0.2302  0.3067
 6689SOL    HW131703   0.981   0.761  10.545 -0.6478 -0.0828 -0.9561
 6689SOL    HW231704   0.955   0.891  10.475  0.9851  1.0516  0.6990
 6690SOL     OW31705   3.654   0.058  15.408 -0.2903 -0.1757  0.0026
 6690SOL    HW131706   3.661   4.704  15.428 -0.4809 -0.1754  0.0740
 6690SOL    HW231707   3.609   0.096  15.484  0.9563 -0.9666  1.1365
 6691SOL     OW31708   1.284   2.197   4.557 -0.2187 -0.2619 -0.1593
 6691SOL    HW131709   1.283   2.293   4.556  1.4044 -0.2199  1.5019
 6691SOL    HW231710   1.195   2.180   4.589 -0.3439  1.9017  0.6722
 6692SOL     OW31711   0.138   0.115   0.623 -0.0390  0.4486  0.2080
 6692SOL    HW131712   0.067   0.164   0.581  0.5810  0.7421 -0.4986
 6692SOL    HW231713   0.205   0.173   0.587  0.7994 -0.0120  1.0503
 6693SOL     OW31714   3.982   4.053  10.986  0.2163 -0.1439  0.1026
 6693SOL    HW131715   4.010   4.142  10.965  2.0576 -0.3863  1.4876
 6693SOL    HW231716   3.892   4.044  10.956  0.0417  1.5161  0.1612
 6694SOL     OW31717   2.809   2.541   6.104 -0.2408 -0.2153  0.0987
 6694SOL    HW131718   2.771   2.522   6.190 -0.9729 -3.2394 -0.8645
 6694SOL    HW231719   2.900   2.554   6.129 -0.0908  0.7814 -0.9755
 6695SOL     OW31720   1.896   3.941   5.276 -0.1239  0.0124 -0.8592
 6695SOL    HW131721   1.908   3.874   5.342 -2.2985 -0.9671 -1.4514
 6695SOL    HW231722   1.942   3.903   5.201  0.4345  3.4368 -2.2827
 6696SOL     OW31723   1.845   1.250  12.725 -0.0528  0.2515  0.3881
 6696SOL    HW131724   1.933   1.275  12.753  0.0878 -1.3660  1.3947
 6696SOL    HW231725   1.801   1.223  12.806 -0.5896 -3.4291 -1.1415
 6697SOL     OW31726   2.755   1.625   6.026  0.1452 -0.3908  0.4228
 6697SOL    HW131727   2.720   1.572   6.098 -3.2017  0.9379 -0.2215
 6697SOL    HW231728   2.688   1.689   6.001 -2.7216 -2.6679  2.2120
 6698SOL     OW31729   1.670   0.734   9.695 -0.1031  0.2610  0.0728
 6698SOL    HW131730   1.613   0.811   9.688 -2.0718 -1.2703 -0.9365
 6698SOL    HW231731   1.649   0.695   9.780 -0.1805  0.6641  0.2404
 6699SOL     OW31732   2.363   1.137   8.452 -0.1667  0.1056 -0.0908
 6699SOL    HW131733   2.352   1.093   8.368 -0.3719  1.4609 -0.7638
 6699SOL    HW231734   2.290   1.198   8.453  0.6864  1.1681 -2.7099
 6700SOL     OW31735   0.698   2.387   2.994  0.6199  0.3414  0.0379
 6700SOL    HW131736   0.686   2.415   3.085  1.1083 -1.0391  0.5360
 6700SOL    HW231737   0.667   2.465   2.948 -1.0441 -0.5116 -0.2913
 6701SOL     OW31738   2.675   2.943   4.140  0.3759  0.5330 -0.2754
 6701SOL    HW131739   2.640   3.020   4.186  2.0359  0.6384  0.7831
 6701SOL    HW231740   2.625   2.955   4.059 -3.8983  1.1092  2.4512
 6702SOL     OW31741   0.544   1.914   4.516  0.1480 -0.0204  0.1086
 6702SOL    HW131742   0.451   1.914   4.539  0.1732 -1.4650  0.2246
 6702SOL    HW231743   0.587   1.908   4.601  0.2367  0.5168  0.1033
 6703SOL     OW31744   1.062   3.603  16.811 -0.2134  0.1055 -0.0646
 6703SOL    HW131745   1.139   3.609  16.868 -0.2074 -1.0129  0.0334
 6703SOL    HW231746   0.996   3.597  16.880 -0.6423  2.4641 -0.2737
 6704SOL     OW31747   3.035   2.890   0.486 -0.4090 -0.1734 -0.5228
 6704SOL    HW131748   2.992   2.868   0.403 -1.3191  0.1404 -0.1435
 6704SOL    HW231749   2.994   2.973   0.511  0.4728  1.1464 -3.4969
 6705SOL     OW31750   3.244   1.950   3.187 -0.2923 -0.5311 -0.5395
 6705SOL    HW131751   3.295   1.925   3.264  0.7438 -1.6433 -1.5960
 6705SOL    HW231752   3.299   1.930   3.112  0.7155 -0.8382  0.2841
 6706SOL     OW31753   1.920   2.994  16.723  0.4588 -0.6719  0.3926
 6706SOL    HW131754   1.866   3.061  16.681  1.6652  0.2181  0.2501
 6706SOL    HW231755   1.856   2.924  16.731  0.8742 -1.1344 -0.3468
 6707SOL     OW31756   1.347   0.260   3.996 -0.9803 -0.3043 -0.1444
 6707SOL    HW131757   1.386   0.331   3.945 -1.3109  1.1689  1.6707
 6707SOL    HW231758   1.306   0.311   4.066 -1.6824 -1.4140  0.2521
 6708SOL     OW31759   1.639   1.052   3.973 -0.1371  0.5232 -0.3126
 6708SOL    HW131760   1.686   1.115   4.029 -0.1608  1.4050 -1.2774
 6708SOL    HW231761   1.640   0.971   4.024 -0.6138  1.4650  1.2065
 6709SOL     OW31762   3.248   1.420  11.907  0.1208  0.1009  0.1594
 6709SOL    HW131763   3.173   1.393  11.853  0.2497  0.4962 -0.2167
 6709SOL    HW231764   3.260   1.347  11.968  0.3279 -0.4547 -0.5434
 6710SOL     OW31765   3.147   0.019   8.017 -0.1066  0.1706  0.5035
 6710SOL    HW131766   3.219   0.007   8.078 -0.2569  1.7337  1.0099
 6710SOL    HW231767   3.135   0.114   8.010  0.0889  0.1535 -0.0457
 6711SOL     OW31768   0.785   1.004   7.643 -0.2670 -0.1457  0.4288
 6711SOL    HW131769   0.726   1.064   7.596  0.6699  0.9761  0.6722
 6711SOL    HW231770   0.739   0.925   7.617 -1.5166  0.8686 -0.4763
 6712SOL     OW31771   0.394   3.656   5.899  0.5310  0.0227 -0.2083
 6712SOL    HW131772   0.373   3.720   5.968 -1.2315 -0.0995 -0.6325
 6712SOL    HW231773   0.352   3.579   5.938  0.3908 -0.0739 -0.5521
 6713SOL     OW31774   0.179   1.844  10.810 -0.0574 -0.2367  0.1188
 6713SOL    HW131775   0.143   1.801  10.888  0.0214 -2.2714 -0.9742
 6713SOL    HW231776   0.115   1.829  10.740  0.6085  0.5186 -0.6541
 6714SOL     OW31777   2.292   4.255   5.916  0.0335 -0.3478 -0.1908
 6714SOL    HW131778   2.275   4.204   5.995 -0.6702  0.5493  0.2351
 6714SOL    HW231779   2.363   4.216   5.865 -0.2087  1.3130 -1.8108
 6715SOL     OW31780   0.625   2.156  14.645 -0.3020  0.1994  0.3735
 6715SOL    HW131781   0.668   2.241  14.643  1.2250 -0.5799 -0.1184
 6715SOL    HW231782   0.682   2.104  14.701  1.5912  1.7444 -0.1408
 6716SOL     OW31783   4.224   0.745   2.071  0.4662 -0.1779  0.0562
 6716SOL    HW131784   4.295   0.701   2.118  0.9639  0.6201  0.0509
 6716SOL    HW231785   4.167   0.671   2.051  0.5716 -0.8013  2.1008
 6717SOL     OW31786   3.360   2.362   8.794  0.3232 -0.9174  0.2306
 6717SOL    HW131787   3.439   2.377   8.742  0.0403 -1.1652 -0.2656
 6717SOL    HW231788   3.296   2.408   8.740 -0.8286 -1.2159  1.3228
 6718SOL     OW31789   1.571   4.481   1.865 -0.0698 -0.0008 -0.4120
 6718SOL    HW131790   1.535   4.558   1.909  0.9560  0.8132 -0.9944
 6718SOL    HW231791   1.497   4.429   1.833 -0.6461 -1.6843  3.7122
 6719SOL     OW31792   4.083   3.854   7.656 -0.4069 -0.1260 -1.1074
 6719SOL    HW131793   4.153   3.913   7.684 -1.5903  1.8406 -2.3430
 6719SOL    HW231794   4.106   3.860   7.563 -1.3620  0.7584 -1.2777
 6720SOL     OW31795   1.490   0.994  16.037 -0.2354 -0.3674  0.0805
 6720SOL    HW131796   1.408   0.950  16.013 -1.0684  0.9382  0.5404
 6720SOL    HW231797   1.465   1.026  16.124 -2.1565 -1.5027 -0.0504
 6721SOL     OW31798   4.648   1.349  13.193 -0.0746 -0.1188 -0.4862
 6721SOL    HW131799   4.637   1.269  13.244 -0.4589 -0.8316 -1.6850
 6721SOL    HW231800   0.004   1.341  13.183 -0.2833  0.1118 -2.7303
 6722SOL     OW31801   2.926   4.409   5.912  0.4969  0.1024 -0.1114
 6722SOL    HW131802   2.888   4.323   5.931 -0.6917  1.0934  1.9546
 6722SOL    HW231803   2.881   4.430   5.830 -1.6993 -0.3526  0.9996
 6723SOL     OW31804   4.376   4.198   1.782  0.2080 -0.2462  0.8256
 6723SOL    HW131805   4.368   4.131   1.849 -0.0430 -1.0742 -0.0361
 6723SOL    HW231806   4.348   4.274   1.832  1.4317 -0.4995  1.9055
 6724SOL     OW31807   0.786   3.132  10.968  0.3585  0.0547  0.4566
 6724SOL    HW131808   0.772   3.156  11.060  1.2563  0.9702  0.3603
 6724SOL    HW231809   0.698   3.118  10.933  0.3572 -2.1485  1.3524
 6725SOL     OW31810   4.418   4.633  17.354  0.4521 -0.0057 -1.0796
 6725SOL    HW131811   4.474   4.557  17.373  1.0214  1.2665  2.4052
 6725SOL    HW231812   4.458   4.698  17.412  2.9752 -1.8819 -0.6909
 6726SOL     OW31813   1.941   0.451   5.350  0.3216  0.2159  0.0083
 6726SOL    HW131814   1.870   0.512   5.366 -0.7340 -1.2608  0.9490
 6726SOL    HW231815   1.917   0.380   5.410 -0.8178  1.4432  1.0018
 6727SOL     OW31816   4.607   3.532   8.653 -0.1289 -0.6643  0.1793
 6727SOL    HW131817   4.626   3.486   8.571  3.0074  1.0204 -0.0264
 6727SOL    HW231818   4.552   3.597   8.609  2.0389  0.0297 -1.5408
 6728SOL     OW31819   4.433   1.123   9.063  0.0997  0.4648  0.0031
 6728SOL    HW131820   4.503   1.138   9.126  1.0755 -1.4834 -0.6203
 6728SOL    HW231821   4.380   1.203   9.062 -1.0277 -0.2711  1.5444
 6729SOL     OW31822   2.353   1.465   0.656 -0.6404 -0.3694 -0.1023
 6729SOL    HW131823   2.323   1.383   0.694 -1.8336  0.6387  1.1084
 6729SOL    HW231824   2.340   1.529   0.725 -0.0746  1.4415 -1.6593
 6730SOL     OW31825   3.605   3.277   2.950 -0.0463 -0.4817 -0.0184
 6730SOL    HW131826   3.636   3.356   2.994 -0.8031  0.3486 -0.9743
 6730SOL    HW231827   3.620   3.215   3.021  0.5763 -3.1105 -2.4627
 6731SOL     OW31828   2.243   2.429   2.736  0.1338 -0.6822  0.0394
 6731SOL    HW131829   2.305   2.436   2.663 -0.6913  1.2973 -0.4689
 6731SOL    HW231830   2.164   2.388   2.700  0.9436 -3.5336  1.5327
 6732SOL     OW31831   0.808   1.056   7.278  0.0004 -0.4575  0.4337
 6732SOL    HW131832   0.777   0.969   7.251 -3.0097  0.6907  0.2570
 6732SOL    HW231833   0.744   1.087   7.341 -2.5562 -0.6473 -2.0689
 6733SOL     OW31834   0.976   3.795  13.680  0.4646  0.3826  0.2388
 6733SOL    HW131835   0.960   3.746  13.761 -0.2315  0.6544  0.2645
 6733SOL    HW231836   0.912   3.865  13.692  0.5969  0.2099  2.0083
 6734SOL     OW31837   4.678   0.198   5.495  0.2157  0.2490 -0.0253
 6734SOL    HW131838   4.683   0.106   5.468  2.3649 -0.1188  1.6507
 6734SOL    HW231839   4.652   0.243   5.414  1.2168  0.1540 -0.4061
 6735SOL     OW31840   3.463   4.544   1.644 -0.3526  0.5520  0.5356
 6735SOL    HW131841   3.468   4.487   1.567 -0.3785 -0.3041  1.1725
 6735SOL    HW231842   3.441   4.474   1.705 -0.3201  0.3591  0.3256
 6736SOL     OW31843   1.715   0.858  15.961 -0.2758 -0.3158 -0.4393
 6736SOL    HW131844   1.626   0.893  15.964 -1.0679 -2.4831  0.7998
 6736SOL    HW231845   1.686   0.776  16.000 -2.8296  0.4079 -0.8143
 6737SOL     OW31846   2.225   2.901   9.914  1.1006 -0.0503 -0.4511
 6737SOL    HW131847   2.230   2.952   9.995 -0.6944  0.0135 -0.3844
 6737SOL    HW231848   2.206   2.814   9.950 -1.8738  0.2797 -1.2690
 6738SOL     OW31849   2.424   2.346   2.526 -0.7589  0.1547 -0.1034
 6738SOL    HW131850   2.484   2.417   2.504 -0.4466  0.1430  0.6824
 6738SOL    HW231851   2.411   2.299   2.444 -1.8186  2.3371 -1.1585
 6739SOL     OW31852   0.898   4.136  12.146 -0.5212 -0.7150 -0.3577
 6739SOL    HW131853   0.944   4.088  12.078 -0.1303 -0.4992 -0.2448
 6739SOL    HW231854   0.804   4.128  12.131 -0.4055 -1.6170 -0.5808
 6740SOL     OW31855   3.426   1.136   3.317  0.0593  0.6934  0.1512
 6740SOL    HW131856   3.344   1.166   3.280 -0.8346  1.0450  2.3857
 6740SOL    HW231857   3.427   1.187   3.398 -1.5623  0.6696  0.1921
 6741SOL     OW31858   0.687   3.984   8.401  0.2095  0.0919 -0.3707
 6741SOL    HW131859   0.695   4.074   8.433 -3.2829  0.0885  0.4895
 6741SOL    HW231860   0.646   4.001   8.316 -0.0385 -0.2776 -0.3217
 6742SOL     OW31861   2.480   2.421   5.066 -0.3819  0.1790  0.5904
 6742SOL    HW131862   2.499   2.438   4.974 -2.3039  0.8140  0.3183
 6742SOL    HW231863   2.541   2.483   5.106  1.3905 -1.3815  0.2979
 6743SOL     OW31864   4.047   2.906   9.388  0.1198 -0.4205 -0.5977
 6743SOL    HW131865   4.117   2.971   9.391 -0.2404  0.0920 -3.3679
 6743SOL    HW231866   4.004   2.928   9.471 -2.5776  0.9608 -2.3662
 6744SOL     OW31867   2.613   1.162   0.900 -0.1305 -0.3315  0.1386
 6744SOL    HW131868   2.625   1.151   0.806  0.4820  2.1719 -0.0910
 6744SOL    HW231869   2.551   1.095   0.929  1.2392  0.1354  4.2135
 6745SOL     OW31870   0.988   4.607   5.903 -0.0484 -0.3035  0.1192
 6745SOL    HW131871   0.956   4.554   5.830 -0.2023 -0.4518  0.2968
 6745SOL    HW231872   0.918   4.663   5.935 -1.3727 -1.4031 -0.8701
 6746SOL     OW31873   1.308   3.393  11.407  0.2118 -0.1376  0.4524
 6746SOL    HW131874   1.368   3.386  11.332  0.6893 -0.0376  0.8223
 6746SOL    HW231875   1.244   3.453  11.369  1.6940 -0.1103 -2.0557
 6747SOL     OW31876   4.662   4.008   2.752  0.6064  0.1292 -0.2139
 6747SOL    HW131877   4.684   4.009   2.845  0.8548 -0.4889 -0.2588
 6747SOL    HW231878   4.568   4.023   2.758  0.5656 -0.2278  0.0491
 6748SOL     OW31879   2.406   2.214   5.242 -0.1392  0.4496  0.2422
 6748SOL    HW131880   2.447   2.217   5.328 -0.9602  0.5033  0.6314
 6748SOL    HW231881   2.423   2.302   5.208 -1.4405  0.2011 -1.0876
 6749SOL     OW31882   1.272   2.573   2.230  0.4815 -0.5915  0.2254
 6749SOL    HW131883   1.179   2.549   2.224  0.5519 -0.6987 -0.4965
 6749SOL    HW231884   1.313   2.494   2.265 -1.9894 -0.9440  2.3387
 6750SOL     OW31885   3.204   1.127   8.040  0.0155  0.0262 -0.0633
 6750SOL    HW131886   3.172   1.149   8.128 -0.4439  0.7558 -0.4138
 6750SOL    HW231887   3.234   1.212   8.007 -1.7943  0.5710 -0.3034
 6751SOL     OW31888   1.206   0.490   7.648 -0.1227 -0.0965  0.3958
 6751SOL    HW131889   1.297   0.512   7.666 -0.6246  1.8387  0.6139
 6751SOL    HW231890   1.172   0.488   7.738 -0.1222  1.9211  0.4505
 6752SOL     OW31891   4.691   0.645   2.010 -0.3032  0.1263 -0.0169
 6752SOL    HW131892   4.674   0.738   2.022  1.4315  0.3891  0.3682
 6752SOL    HW231893   4.698   0.636   1.915 -0.7563 -0.4689  0.0064
 6753SOL     OW31894   3.232   1.168   2.025 -0.1478 -0.2648 -0.8817
 6753SOL    HW131895   3.222   1.177   1.930 -1.5961 -0.8188 -0.7917
 6753SOL    HW231896   3.298   1.099   2.027 -0.8460 -0.9398 -1.1354
 6754SOL     OW31897   3.388   3.895   2.134 -0.0458  0.2478  0.4972
 6754SOL    HW131898   3.395   3.907   2.229  1.4117  0.7880  0.3249
 6754SOL    HW231899   3.314   3.835   2.141 -0.5000  0.7459  0.0178
 6755SOL     OW31900   1.027   3.668   9.247  0.5718  0.3096 -0.1099
 6755SOL    HW131901   0.961   3.602   9.268 -0.4539  1.0749 -0.9152
 6755SOL    HW231902   1.100   3.630   9.297 -1.5462 -1.5235  1.5894
 6756SOL     OW31903   0.825   2.686   5.249  0.3605 -0.5482 -0.3363
 6756SOL    HW131904   0.872   2.616   5.295 -1.9055 -1.5027  0.5199
 6756SOL    HW231905   0.897   2.746   5.232 -0.0922 -0.5314 -2.1267
 6757SOL     OW31906   3.118   3.418   7.417  0.5143  0.3509  0.0180
 6757SOL    HW131907   3.053   3.349   7.422  2.0746 -1.2386 -1.6714
 6757SOL    HW231908   3.164   3.404   7.499  0.6451  2.1049  0.2473
 6758SOL     OW31909   2.892   4.429   7.579 -0.1010 -0.1729  0.1644
 6758SOL    HW131910   2.914   4.359   7.640 -2.5627 -0.6581  0.4764
 6758SOL    HW231911   2.897   4.503   7.640 -1.1957  0.5906 -0.6863
 6759SOL     OW31912   3.140   4.409   3.902  0.2770 -0.3581  0.1851
 6759SOL    HW131913   3.149   4.374   3.990  1.4028 -0.9417 -0.1607
 6759SOL    HW231914   3.234   4.422   3.892  0.6727 -3.1627  0.3975
 6760SOL     OW31915   4.039   0.616  12.762 -0.3484  0.0986 -0.7684
 6760SOL    HW131916   4.024   0.620  12.667 -1.6783 -2.0198 -0.6259
 6760SOL    HW231917   4.053   0.710  12.779 -0.4915 -0.1555  0.7359
 6761SOL     OW31918   1.460   0.670  17.317  0.8030 -0.1046  0.5633
 6761SOL    HW131919   1.404   0.604  17.359 -1.8858 -0.2156 -3.2325
 6761SOL    HW231920   1.408   0.750  17.316 -0.7383 -1.1337 -1.2637
 6762SOL     OW31921   2.728   2.693   6.592  0.6478 -0.3165  0.1148
 6762SOL    HW131922   2.677   2.625   6.636 -0.4676  0.0104 -0.6663
 6762SOL    HW231923   2.664   2.762   6.574  1.5305  1.0173  2.0477
 6763SOL     OW31924   2.285   3.116   7.852  0.0868  0.0781 -0.5463
 6763SOL    HW131925   2.226   3.175   7.804 -2.1805  0.1278  2.3080
 6763SOL    HW231926   2.228   3.052   7.894  1.2003 -0.0666  0.7304
 6764SOL     OW31927   0.024   1.481   6.117 -0.0855  0.0400  0.4599
 6764SOL    HW131928   0.058   1.395   6.143  1.4797  0.3866 -0.4305
 6764SOL    HW231929   4.725   1.460   6.032  0.1222 -0.9840  0.6244
 6765SOL     OW31930   0.627   0.814  14.330  0.2803 -0.4521  1.0592
 6765SOL    HW131931   0.615   0.736  14.276  0.0648 -0.1209  0.6365
 6765SOL    HW231932   0.656   0.881  14.269 -0.7955 -3.3976 -2.6382
 6766SOL     OW31933   3.941   0.809   4.693 -0.5336 -0.2718  0.1221
 6766SOL    HW131934   3.872   0.858   4.737 -0.3196  0.9441 -0.8967
 6766SOL    HW231935   4.001   0.881   4.677  1.0684 -1.6180  0.1097
 6767SOL     OW31936   1.605   4.005   5.182 -0.4291 -0.3347  0.3282
 6767SOL    HW131937   1.597   4.101   5.180 -2.4453 -0.4947  0.0067
 6767SOL    HW231938   1.693   4.000   5.219 -0.9922  1.1974  1.9049
 6768SOL     OW31939   2.119   1.797   6.277  0.5375 -0.4527 -0.2085
 6768SOL    HW131940   2.054   1.866   6.287 -1.2135 -1.9950 -0.9437
 6768SOL    HW231941   2.195   1.854   6.289  1.3131 -1.2257 -1.4335
 6769SOL     OW31942   4.457   4.581   8.376  0.8273  0.0612  0.3346
 6769SOL    HW131943   4.397   4.649   8.407 -2.0071 -1.8264 -1.0256
 6769SOL    HW231944   4.525   4.635   8.335  0.4200 -1.2090 -2.0133
 6770SOL     OW31945   2.061   0.600  13.971 -0.6888 -0.0763 -0.0858
 6770SOL    HW131946   2.032   0.637  14.054 -1.2503 -0.1273 -0.2557
 6770SOL    HW231947   2.128   0.538  13.997  0.8029  0.7014 -2.0272
 6771SOL     OW31948   2.610   0.105   6.229  0.4028  0.0423  0.1450
 6771SOL    HW131949   2.672   0.033   6.240  0.7944  0.4718  0.7308
 6771SOL    HW231950   2.565   0.103   6.314 -0.5618  1.3549 -0.3373
 6772SOL     OW31951   2.076   0.796   2.265  0.6599  0.0913 -0.4553
 6772SOL    HW131952   2.033   0.841   2.338  0.4287 -0.1503 -0.4451
 6772SOL    HW231953   2.151   0.853   2.249  0.2314  1.1820  1.3976
 6773SOL     OW31954   1.354   2.693  16.670  0.0584  0.0348 -0.6530
 6773SOL    HW131955   1.378   2.606  16.703 -0.4488 -0.3701 -1.3595
 6773SOL    HW231956   1.441   2.732  16.656  0.0703  0.1243 -0.3449
 6774SOL     OW31957   0.503   1.423   4.154 -0.1938  0.8671  0.7705
 6774SOL    HW131958   0.482   1.411   4.247 -1.6309  1.2703  0.4838
 6774SOL    HW231959   0.568   1.494   4.158 -1.3617  1.9307  1.1098
 6775SOL     OW31960   2.334   1.854  17.715 -0.2901 -0.4487  0.0031
 6775SOL    HW131961   2.259   1.898  17.675 -0.5418  1.3320  2.4365
 6775SOL    HW231962   2.382   1.828  17.637 -0.5348 -0.0340 -0.2832
 6776SOL     OW31963   3.488   0.048   1.256  0.3371  0.6484 -0.2026
 6776SOL    HW131964   3.523   4.698   1.252 -1.7817 -0.3012  2.4141
 6776SOL    HW231965   3.445   0.049   1.342 -1.2305  3.0250 -1.0204
 6777SOL     OW31966   4.370   0.472   8.007 -0.0687  0.6096 -0.1257
 6777SOL    HW131967   4.309   0.513   8.068 -0.6582  1.3891 -1.2473
 6777SOL    HW231968   4.444   0.532   7.995  2.0438 -1.7015  1.3738
 6778SOL     OW31969   3.309   2.594   6.689  0.5702  0.2902 -0.2408
 6778SOL    HW131970   3.301   2.688   6.708 -4.4739  0.3137 -2.5036
 6778SOL    HW231971   3.342   2.557   6.771  0.5773 -1.3439 -0.9950
 6779SOL     OW31972   4.188   1.791   8.637 -0.2497 -0.2667 -0.1749
 6779SOL    HW131973   4.179   1.720   8.701  2.1699  0.1403  0.6192
 6779SOL    HW231974   4.122   1.772   8.570 -2.2763 -0.7681  1.9644
 6780SOL     OW31975   0.655   4.275   6.131 -0.2648  0.5193 -0.4287
 6780SOL    HW131976   0.612   4.249   6.212  1.8706  0.4811  0.7089
 6780SOL    HW231977   0.745   4.249   6.153 -0.3860  1.4233  1.1472
 6781SOL     OW31978   1.705   0.282   9.513 -0.5233 -0.7639  0.4116
 6781SOL    HW131979   1.714   0.374   9.487  0.8626 -1.3926 -1.3117
 6781SOL    HW231980   1.646   0.249   9.445  1.1791 -1.3789 -0.8002
 6782SOL     OW31981   3.030   4.061   3.405  0.8953 -0.1987  0.3623
 6782SOL    HW131982   3.095   3.994   3.428  1.3142  0.0354 -0.1218
 6782SOL    HW231983   2.975   4.061   3.483 -0.5836  1.9923 -0.6777
 6783SOL     OW31984   1.309   2.109   5.509 -0.0799 -0.4137 -0.5575
 6783SOL    HW131985   1.344   2.084   5.423  0.5764 -1.1078 -0.0924
 6783SOL    HW231986   1.353   2.194   5.509  0.0096 -0.4577 -0.7233
 6784SOL     OW31987   4.427   1.700  11.600  0.3278 -0.4790 -0.4350
 6784SOL    HW131988   4.482   1.778  11.595  0.0675 -0.3761 -1.8228
 6784SOL    HW231989   4.448   1.667  11.687 -1.0608  1.8781  0.7713
 6785SOL     OW31990   2.746   3.173   8.817  0.0262 -0.4894 -0.3275
 6785SOL    HW131991   2.656   3.181   8.785  0.3197  1.9467 -0.5231
 6785SOL    HW231992   2.759   3.248   8.875 -0.5249 -1.2105  0.7372
 6786SOL     OW31993   2.910   2.065   8.917  0.0015 -0.3874 -0.0714
 6786SOL    HW131994   2.986   2.061   8.858 -0.6134  1.1357 -0.9659
 6786SOL    HW231995   2.930   2.024   9.002 -3.7958 -1.9552  0.0886
 6787SOL     OW31996   4.242   3.487  14.276 -0.1615 -0.3245  0.1065
 6787SOL    HW131997   4.218   3.579  14.279 -0.0305 -0.3417  1.6392
 6787SOL    HW231998   4.318   3.488  14.217 -0.2450  0.9316  0.0132
 6788SOL     OW31999   1.113   4.586   9.653 -0.0221 -0.4432 -0.5378
 6788SOL    HW132000   1.032   4.638   9.660  0.1813 -0.0603 -0.9961
 6788SOL    HW232001   1.166   4.655   9.613 -0.6028 -0.2733 -1.0221
 6789SOL     OW32002   4.542   1.855   6.767 -0.2784 -1.0152 -0.4506
 6789SOL    HW132003   4.636   1.868   6.758 -0.0032 -1.1143  2.4633
 6789SOL    HW232004   4.527   1.812   6.683 -2.2772  0.5696 -0.8974
 6790SOL     OW32005   4.595   4.220  16.692 -0.3737 -0.5134  0.0092
 6790SOL    HW132006   4.633   4.308  16.687 -0.6838 -0.3679  0.2046
 6790SOL    HW232007   4.641   4.185  16.616 -0.6904  0.4038 -0.5914
 6791SOL     OW32008   3.407   1.040   6.353 -0.0808 -0.6416 -0.5096
 6791SOL    HW132009   3.421   0.978   6.424  1.9693  0.0583 -0.2919
 6791SOL    HW232010   3.345   1.096   6.400  0.1469  0.3556 -1.4015
 6792SOL     OW32011   2.008   2.343   3.843 -0.0360  0.8068  0.6797
 6792SOL    HW132012   1.921   2.381   3.854  0.9364  3.3104 -0.4085
 6792SOL    HW232013   1.991   2.251   3.822  3.4336 -0.1945  2.3845
 6793SOL     OW32014   4.328   2.852  10.023  0.2130 -0.5984  0.5181
 6793SOL    HW132015   4.293   2.861   9.934  0.8068  1.4766  0.4901
 6793SOL    HW232016   4.388   2.926  10.029 -0.2572 -0.1153 -0.6396
 6794SOL     OW32017   4.213   1.701  12.500  0.0426 -0.0693 -0.2859
 6794SOL    HW132018   4.201   1.642  12.426 -1.7367 -0.6028  0.4432
 6794SOL    HW232019   4.226   1.636  12.569  3.8489  0.4436 -0.5083
 6795SOL     OW32020   1.067   4.158   8.744  0.2442 -0.8070  0.7819
 6795SOL    HW132021   1.056   4.115   8.830 -0.6841 -0.6172  0.7615
 6795SOL    HW232022   0.976   4.185   8.734 -0.0730 -2.1950 -0.0776
 6796SOL     OW32023   2.552   4.074   4.615  0.3300  0.4230 -0.4216
 6796SOL    HW132024   2.549   4.126   4.695  0.2830  1.1157 -0.8705
 6796SOL    HW232025   2.643   4.087   4.588  0.5558  0.6045  0.4415
 6797SOL     OW32026   0.634   3.813  15.938 -0.5956  0.1607 -0.1828
 6797SOL    HW132027   0.699   3.884  15.939 -1.6492  1.1328 -0.8929
 6797SOL    HW232028   0.559   3.866  15.912 -0.9056 -0.0788  0.2220
 6798SOL     OW32029   0.670   3.285   3.370 -0.3011  0.3919 -0.0701
 6798SOL    HW132030   0.657   3.207   3.317  0.3633  0.8342 -0.8815
 6798SOL    HW232031   0.652   3.247   3.457  1.3019 -0.3367 -0.0525
 6799SOL     OW32032   1.754   0.856   8.128 -0.1420  0.3684 -0.6174
 6799SOL    HW132033   1.805   0.930   8.160 -2.2364  0.8530  1.5742
 6799SOL    HW232034   1.776   0.786   8.190  0.1406  0.3359 -0.7560
 6800SOL     OW32035   2.814   2.681   8.542 -0.1935 -0.3521 -0.4165
 6800SOL    HW132036   2.772   2.693   8.627  0.5384 -4.2435  0.5007
 6800SOL    HW232037   2.901   2.722   8.540  0.5601 -1.9189  0.2851
 6801SOL     OW32038   1.852   1.739   2.434 -0.0535  0.4846  0.0079
 6801SOL    HW132039   1.872   1.810   2.374  1.1024 -1.3957 -1.8137
 6801SOL    HW232040   1.849   1.796   2.511 -1.9447 -1.1935  1.1919
 6802SOL     OW32041   1.017   3.983  12.340 -0.6576 -0.2146  0.6867
 6802SOL    HW132042   1.096   4.001  12.291  0.2833 -1.8513  1.6116
 6802SOL    HW232043   0.949   4.019  12.282 -0.0181  2.9042  1.8522
 6803SOL     OW32044   0.264   1.936   3.179  0.1301  0.2401 -0.0831
 6803SOL    HW132045   0.348   1.947   3.135  1.3913 -0.1726  2.2027
 6803SOL    HW232046   0.294   1.887   3.256 -0.9186  1.3920  1.0653
 6804SOL     OW32047   0.449   4.527   0.819 -1.0115  0.0502  0.3334
 6804SOL    HW132048   0.440   4.622   0.809 -0.7102 -0.1939 -2.2187
 6804SOL    HW232049   0.449   4.516   0.914  0.4973 -0.4614  0.2663
 6805SOL     OW32050   2.729   4.421   5.193  0.4264  0.1633  0.0522
 6805SOL    HW132051   2.654   4.379   5.151 -0.2617  0.3239  1.1163
 6805SOL    HW232052   2.796   4.407   5.126  1.8469 -0.4239  1.5991
 6806SOL     OW32053   2.370   4.427   3.262 -0.2554  0.2257 -0.2396
 6806SOL    HW132054   2.297   4.374   3.294 -2.2066  3.6145  0.9116
 6806SOL    HW232055   2.414   4.444   3.346 -1.5481 -0.6000  0.6085
 6807SOL     OW32056   1.087   2.584   3.449 -0.1195  0.4787  0.3666
 6807SOL    HW132057   1.054   2.496   3.428  0.6693  0.0087  1.0974
 6807SOL    HW232058   1.022   2.639   3.405 -0.6926 -0.5097 -0.0191
 6808SOL     OW32059   4.682   3.050   4.395  0.2556  0.2198 -0.3760
 6808SOL    HW132060   4.652   2.965   4.425  1.0238  0.1816  0.2802
 6808SOL    HW232061   0.036   3.038   4.375  0.6426  2.0326  0.2856
 6809SOL     OW32062   0.260   2.531   5.372 -0.2441  0.3808 -0.7033
 6809SOL    HW132063   0.216   2.488   5.445  1.8536  0.7964  0.7780
 6809SOL    HW232064   0.304   2.605   5.414 -0.9809 -2.0054  4.2192
 6810SOL     OW32065   2.259   4.525  10.238  0.2160 -0.5367 -1.1408
 6810SOL    HW132066   2.217   4.524  10.152 -1.3000 -0.9961 -0.4081
 6810SOL    HW232067   2.350   4.500  10.229 -0.2518 -2.2804 -0.9816
 6811SOL     OW32068   0.877   2.340   1.834 -0.4491  0.4646 -0.7075
 6811SOL    HW132069   0.796   2.328   1.784 -0.0497 -1.7825 -0.8152
 6811SOL    HW232070   0.844   2.341   1.923 -0.7141 -0.0270 -0.7968
 6812SOL     OW32071   1.139   0.974  10.773 -0.1829 -0.0516 -0.6104
 6812SOL    HW132072   1.142   0.887  10.813 -0.3109  1.1996  2.0917
 6812SOL    HW232073   1.095   0.944  10.693 -0.4789  1.8351 -1.1568
 6813SOL     OW32074   2.720   1.504   8.495  0.1406 -0.3320  0.3102
 6813SOL    HW132075   2.676   1.427   8.532  1.4379 -1.1429  0.1524
 6813SOL    HW232076   2.758   1.553   8.568  2.9234  0.4447 -1.6525
 6814SOL     OW32077   3.305   1.225   5.364 -0.8958  0.1813  0.3344
 6814SOL    HW132078   3.230   1.235   5.305  0.0293  2.3675 -0.4484
 6814SOL    HW232079   3.274   1.173   5.439  0.6931 -1.4507 -0.1433
 6815SOL     OW32080   3.268   2.654   5.125  0.0567  0.6706 -0.3509
 6815SOL    HW132081   3.306   2.570   5.100  1.6830  2.1198 -2.7568
 6815SOL    HW232082   3.210   2.630   5.198 -0.1157  0.6711 -0.4866
 6816SOL     OW32083   0.701   2.950   7.981  0.3469 -0.4010 -0.2029
 6816SOL    HW132084   0.768   3.018   7.974  0.1156 -0.1997 -0.4506
 6816SOL    HW232085   0.744   2.867   8.004  1.8011  0.2477 -0.5716
 6817SOL     OW32086   3.998   3.994  15.216  0.4684  0.1877  0.5800
 6817SOL    HW132087   4.062   3.925  15.200 -0.8600 -0.9604  0.2137
 6817SOL    HW232088   4.061   4.064  15.230  0.9465 -0.2345  0.5290
 6818SOL     OW32089   1.004   0.934   0.805  0.1439 -0.3725  0.1050
 6818SOL    HW132090   0.993   0.871   0.876 -2.1525 -2.2256 -1.9001
 6818SOL    HW232091   0.940   0.913   0.737  1.7040  0.7705 -1.7234
 6819SOL     OW32092   0.178   1.311   7.313 -0.3905 -0.4430  0.3540
 6819SOL    HW132093   0.162   1.382   7.249 -3.9001 -0.9731  0.6328
 6819SOL    HW232094   0.165   1.354   7.398  0.5097 -0.9771  0.7519
 6820SOL     OW32095   1.578   0.957  13.419 -0.2172 -0.1856 -0.3295
 6820SOL    HW132096   1.528   1.002  13.488  0.7309  1.9522 -1.0394
 6820SOL    HW232097   1.522   0.989  13.349 -1.6370  0.9410  1.3114
 6821SOL     OW32098   3.013   1.696   5.684 -0.0512  0.1253  0.1914
 6821SOL    HW132099   2.935   1.745   5.709 -1.6380 -3.1475  1.6480
 6821SOL    HW232100   2.991   1.603   5.681 -0.1705  0.1391  0.6064
 6822SOL     OW32101   3.388   1.000  17.525 -0.8152  0.2566  0.5343
 6822SOL    HW132102   3.425   1.023  17.611  1.2551 -2.9523  0.5318
 6822SOL    HW232103   3.438   1.055  17.465  0.9101 -1.9568 -0.0840
 6823SOL     OW32104   2.527   1.218   9.465 -0.0837 -0.5084  0.2545
 6823SOL    HW132105   2.533   1.129   9.431  1.4009  0.0205 -0.9203
 6823SOL    HW232106   2.599   1.222   9.528  0.2239 -2.4585  0.0425
 6824SOL     OW32107   4.424   2.911   2.604  0.1658 -0.3791 -0.4312
 6824SOL    HW132108   4.471   2.855   2.666 -0.7656  0.4248  1.0036
 6824SOL    HW232109   4.433   2.996   2.648 -4.3453 -0.8111  1.2454
 6825SOL     OW32110   2.972   1.783  16.010 -0.2493 -0.2179 -0.2291
 6825SOL    HW132111   2.941   1.730  15.937 -0.6516  0.7011 -0.7274
 6825SOL    HW232112   2.996   1.718  16.077 -0.5528 -0.1002 -0.0087
 6826SOL     OW32113   3.320   2.974   4.910 -0.0252 -0.8318 -0.2879
 6826SOL    HW132114   3.349   3.033   4.980  1.1222 -1.4332 -0.2507
 6826SOL    HW232115   3.253   3.025   4.865 -0.1150  0.7285  1.6254
 6827SOL     OW32116   1.227   4.375   8.834 -0.4576 -0.1203  0.5241
 6827SOL    HW132117   1.213   4.414   8.748 -0.4510 -0.2634  0.4583
 6827SOL    HW232118   1.209   4.285   8.806 -3.2795  0.4828  0.3871
 6828SOL     OW32119   2.364   2.635   4.437 -0.1791  0.3926 -0.0005
 6828SOL    HW132120   2.426   2.635   4.365 -0.6915 -0.9384 -0.4467
 6828SOL    HW232121   2.407   2.692   4.501 -0.2949  1.1030 -0.5626
 6829SOL     OW32122   1.456   0.983   6.198 -0.3165 -0.4006 -0.2359
 6829SOL    HW132123   1.543   0.951   6.173  0.5420  1.0425  0.9465
 6829SOL    HW232124   1.403   0.909   6.169 -0.0847 -1.2115  1.4103
 6830SOL     OW32125   2.470   1.322   2.340 -0.0377  0.2514 -0.3284
 6830SOL    HW132126   2.506   1.406   2.311 -1.0216  0.0180 -2.2322
 6830SOL    HW232127   2.425   1.356   2.417  0.5397  0.3418 -0.0301
 6831SOL     OW32128   0.253   2.223   9.161 -0.1450 -0.0428  0.4168
 6831SOL    HW132129   0.313   2.271   9.219 -0.2262 -0.6080  0.9731
 6831SOL    HW232130   0.289   2.245   9.075  0.8967 -2.4284  0.2510
 6832SOL     OW32131   4.457   0.948  13.646 -0.2238 -1.0884  0.3070
 6832SOL    HW132132   4.407   0.927  13.568 -0.8704 -0.3770  0.5332
 6832SOL    HW232133   4.388   0.984  13.702  0.9088 -0.0361  1.0448
 6833SOL     OW32134   3.698   3.377   6.365 -0.7895  0.2206  0.0078
 6833SOL    HW132135   3.697   3.455   6.309 -1.1980  0.4632  0.3529
 6833SOL    HW232136   3.700   3.411   6.454 -0.4967 -0.0884  0.1171
 6834SOL     OW32137   3.336   0.215   4.409 -0.0705 -0.0649 -0.0997
 6834SOL    HW132138   3.305   0.128   4.434  2.6541 -1.1064 -0.3520
 6834SOL    HW232139   3.259   0.272   4.418  0.4672  0.7314 -0.5865
 6835SOL     OW32140   0.122   2.756  10.055  0.4756 -0.4059 -0.4829
 6835SOL    HW132141   0.208   2.737  10.016 -0.6375 -1.0422 -2.6450
 6835SOL    HW232142   0.135   2.838  10.101  2.2574 -0.6507 -0.5601
 6836SOL     OW32143   4.098   0.501   2.015  0.1468  0.4952  0.0267
 6836SOL    HW132144   4.003   0.492   2.025 -0.2166  1.4818 -2.4944
 6836SOL    HW232145   4.125   0.460   2.097  0.6753  2.4212  0.8008
 6837SOL     OW32146   1.286   4.562   5.476 -0.0241 -0.2720 -0.0480
 6837SOL    HW132147   1.277   4.654   5.501  1.2719 -0.0090 -0.5686
 6837SOL    HW232148   1.302   4.572   5.382 -1.5359 -1.5219 -0.4366
 6838SOL     OW32149   0.077   1.881  10.254 -0.6744  0.1661  0.3687
 6838SOL    HW132150   0.047   1.799  10.216  2.8825 -2.0167  2.2188
 6838SOL    HW232151   0.001   1.929  10.287  0.5379  1.4215  1.3662
 6839SOL     OW32152   4.298   4.033   9.764  0.0754  0.2815  0.3683
 6839SOL    HW132153   4.316   4.127   9.763  0.2642  0.2411 -0.1147
 6839SOL    HW232154   4.276   4.012   9.673 -0.8650  0.3435  0.5814
 6840SOL     OW32155   0.062   0.552  10.180 -0.0449  0.3849  0.0290
 6840SOL    HW132156   0.131   0.582  10.239  1.6627  3.9320 -3.8008
 6840SOL    HW232157   4.730   0.604  10.218  0.6277  1.2302  0.1226
 6841SOL     OW32158   4.685   0.378   8.823 -0.2110  0.1731 -0.4397
 6841SOL    HW132159   0.024   0.400   8.875 -0.3138 -0.6629  0.0747
 6841SOL    HW232160   4.654   0.468   8.816 -1.8863 -0.4859 -1.4971
 6842SOL     OW32161   1.624   4.147   5.892  0.1360  0.0783  0.4270
 6842SOL    HW132162   1.645   4.085   5.962 -1.2583  0.8212  1.5064
 6842SOL    HW232163   1.550   4.193   5.932  1.5508  1.6183  1.2482
 6843SOL     OW32164   0.465   3.593  11.581  0.3778  0.5832  0.2258
 6843SOL    HW132165   0.380   3.627  11.551 -0.4097  0.6294  2.5184
 6843SOL    HW232166   0.436   3.516  11.630  0.1197 -0.4429 -1.5382
 6844SOL     OW32167   1.926   1.908   1.002 -0.0319 -1.2568 -0.3806
 6844SOL    HW132168   1.968   1.842   0.946  1.8402 -1.3752  1.1684
 6844SOL    HW232169   1.835   1.879   1.008 -0.2943 -0.4425 -0.4341
 6845SOL     OW32170   0.418   1.676  13.688 -0.0202  0.1030 -0.2923
 6845SOL    HW132171   0.428   1.742  13.756  1.6135  0.0934 -0.5296
 6845SOL    HW232172   0.334   1.699  13.649  0.1092  0.0155 -0.6183
 6846SOL     OW32173   1.941   1.251   2.445 -0.3662  0.2646 -0.4221
 6846SOL    HW132174   1.977   1.339   2.437  0.1333  0.1000  0.0296
 6846SOL    HW232175   1.895   1.256   2.528  1.0734 -0.6549  0.4327
 6847SOL     OW32176   3.429   0.533  12.397  0.5159  0.4067 -0.3993
 6847SOL    HW132177   3.394   0.523  12.308 -1.1146 -0.8119  0.3932
 6847SOL    HW232178   3.449   0.439  12.403  1.4654  0.7657  1.9353
 6848SOL     OW32179   1.815   4.118   8.876  0.3709  0.0801  0.2702
 6848SOL    HW132180   1.780   4.141   8.962  1.8499  1.3641  0.5517
 6848SOL    HW232181   1.737   4.126   8.821 -0.2277 -1.0341  0.9678
 6849SOL     OW32182   2.412   4.513  12.457  0.4744  0.4593  0.1370
 6849SOL    HW132183   2.439   4.423  12.469 -0.5861  0.3429  1.6004
 6849SOL    HW232184   2.343   4.525  12.522  0.0403 -1.6976  0.0688
 6850SOL     OW32185   0.953   2.052   5.726  0.1202  0.1007 -0.4049
 6850SOL    HW132186   0.987   2.130   5.680 -0.3257 -0.1891 -1.2303
 6850SOL    HW232187   0.862   2.053   5.695 -0.2546  0.8767  0.7359
 6851SOL     OW32188   1.860   0.895  13.900 -0.3070 -0.3043 -0.1105
 6851SOL    HW132189   1.841   0.847  13.981  2.3044 -1.4972 -0.2294
 6851SOL    HW232190   1.775   0.923  13.866  0.3152  0.5489 -0.9665
 6852SOL     OW32191   1.352   0.720   6.108  0.7645 -0.8205  0.6750
 6852SOL    HW132192   1.332   0.661   6.180 -0.7711  3.4034  3.7519
 6852SOL    HW232193   1.427   0.678   6.066  0.4826  0.6329 -1.2618
 6853SOL     OW32194   1.967   4.098   3.564  0.5340 -0.4549  0.3806
 6853SOL    HW132195   1.920   4.085   3.481  0.0762  0.0361  0.5634
 6853SOL    HW232196   2.008   4.184   3.548 -1.6092  0.8271  1.8337
 6854SOL     OW32197   4.519   3.785   7.043  0.6253 -0.0778 -0.2848
 6854SOL    HW132198   4.609   3.799   7.074  1.2062 -2.7008 -0.8237
 6854SOL    HW232199   4.486   3.735   7.118 -0.3550  0.4551 -0.3616
 6855SOL     OW32200   1.260   2.671  12.218  0.1503 -0.3506 -0.5012
 6855SOL    HW132201   1.285   2.667  12.126 -0.0316  2.7633 -0.6621
 6855SOL    HW232202   1.338   2.644  12.266 -0.4681  1.0346  1.2894
 6856SOL     OW32203   2.522   0.269  16.566  0.5522  0.4569 -0.4038
 6856SOL    HW132204   2.578   0.276  16.489  0.8132  0.4270 -0.2138
 6856SOL    HW232205   2.469   0.349  16.558 -0.8069 -0.3967  0.0752
 6857SOL     OW32206   2.051   2.370   8.067  0.5540 -0.3758 -0.5063
 6857SOL    HW132207   2.045   2.466   8.068  0.9152 -0.3427 -1.8506
 6857SOL    HW232208   2.121   2.377   8.002  3.0900  1.4291  2.3445
 6858SOL     OW32209   3.887   2.891   6.297  0.1809  0.2510 -0.1352
 6858SOL    HW132210   3.851   2.973   6.330  2.2656  1.6035 -1.1846
 6858SOL    HW232211   3.915   2.925   6.212 -2.4832 -0.7821 -1.4283
 6859SOL     OW32212   1.918   4.400  16.341 -0.1932 -0.3276 -0.2764
 6859SOL    HW132213   1.915   4.469  16.275  1.9007  0.8189  0.8121
 6859SOL    HW232214   1.884   4.329  16.288 -2.3778  0.2988  0.2883
 6860SOL     OW32215   2.768   3.562   8.065 -0.3534 -0.8517 -0.5964
 6860SOL    HW132216   2.727   3.607   8.138  0.3790 -1.5287  0.2240
 6860SOL    HW232217   2.805   3.485   8.108  0.9035 -0.7614 -1.5186
 6861SOL     OW32218   2.564   0.689   8.612 -0.1362  0.6518 -0.1453
 6861SOL    HW132219   2.494   0.674   8.548 -1.2418  2.0516  0.7128
 6861SOL    HW232220   2.596   0.772   8.576 -0.4504  0.5475 -0.6694
 6862SOL     OW32221   2.905   4.026   3.904  0.2734  0.0417 -0.1795
 6862SOL    HW132222   2.918   3.938   3.941 -0.1285  0.1513  0.2192
 6862SOL    HW232223   2.921   4.082   3.980  0.1069 -1.0709  0.6831
 6863SOL     OW32224   4.275   1.767   4.061 -0.0037 -0.2706  0.1350
 6863SOL    HW132225   4.191   1.805   4.033  0.3184 -0.3668 -0.9881
 6863SOL    HW232226   4.308   1.753   3.972 -1.6986  3.1982 -1.0339
 6864SOL     OW32227   1.686   2.654   8.022  0.2655  0.5627 -0.3841
 6864SOL    HW132228   1.598   2.668   8.058  0.5252  1.3500 -0.0472
 6864SOL    HW232229   1.672   2.572   7.975  0.8070  1.7361 -2.5583
 6865SOL     OW32230   0.871   0.692   5.295 -0.5665  0.2433  0.0487
 6865SOL    HW132231   0.861   0.781   5.328  0.3426 -0.0280  1.0441
 6865SOL    HW232232   0.782   0.659   5.286  0.3104 -2.1180  0.0953
 6866SOL     OW32233   4.149   2.002   8.829 -0.3054 -0.1309 -0.4455
 6866SOL    HW132234   4.202   2.075   8.796 -1.8776  2.0046  1.7222
 6866SOL    HW232235   4.143   1.948   8.750  0.5666 -0.0138 -0.5852
 6867SOL     OW32236   3.899   2.132   3.339 -0.2305  0.1715  0.3595
 6867SOL    HW132237   3.959   2.147   3.412  0.8546  0.7041 -0.6462
 6867SOL    HW232238   3.878   2.222   3.314  1.8942  1.2700  2.6035
 6868SOL     OW32239   2.834   2.072   0.755 -0.0259  0.0882 -0.6180
 6868SOL    HW132240   2.886   1.995   0.733  2.7409  2.2767 -1.7873
 6868SOL    HW232241   2.796   2.092   0.669 -1.0497  0.9074  0.0294
 6869SOL     OW32242   0.470   1.926   3.886 -0.2080 -0.1646 -0.1490
 6869SOL    HW132243   0.432   1.922   3.974  3.4036 -4.1297  1.2396
 6869SOL    HW232244   0.397   1.893   3.833  1.4314 -3.4486 -0.3943
 6870SOL     OW32245   3.519   1.087   1.749 -0.1973 -0.0653 -0.3748
 6870SOL    HW132246   3.563   1.002   1.756  1.4763  0.9594  1.7572
 6870SOL    HW232247   3.554   1.116   1.665 -0.1056 -1.0470 -0.6782
 6871SOL     OW32248   1.592   1.462   5.823  1.0738  1.0467  0.3090
 6871SOL    HW132249   1.536   1.527   5.781  2.0563  0.3762 -2.0509
 6871SOL    HW232250   1.631   1.430   5.742  1.9048  1.3319  0.6005
 6872SOL     OW32251   4.140   3.785   9.249  0.0731 -0.6547 -0.5971
 6872SOL    HW132252   4.096   3.788   9.333  0.1743 -3.2559 -0.4410
 6872SOL    HW232253   4.207   3.717   9.260  0.9163  0.2342 -0.1698
 6873SOL     OW32254   3.931   1.363   6.214 -0.3832  0.5787  0.1098
 6873SOL    HW132255   3.864   1.430   6.226  0.3323  1.5220 -1.2078
 6873SOL    HW232256   3.874   1.288   6.232 -0.7459  1.1388  1.2802
 6874SOL     OW32257   4.308   1.560   9.763  0.2441  0.2569 -0.0013
 6874SOL    HW132258   4.230   1.568   9.818 -1.1694 -2.2539 -1.6419
 6874SOL    HW232259   4.279   1.501   9.694 -2.1106  1.7829 -0.3199
 6875SOL     OW32260   0.951   4.453  10.423  0.2377  0.3165  0.2945
 6875SOL    HW132261   1.000   4.393  10.479 -3.4785 -3.5023 -0.4596
 6875SOL    HW232262   0.943   4.395  10.347  0.3619 -0.5137  0.9058
 6876SOL     OW32263   4.486   2.737  11.133 -0.4607 -0.2336 -0.0786
 6876SOL    HW132264   4.457   2.659  11.179  2.6253 -1.9613 -1.0047
 6876SOL    HW232265   4.563   2.696  11.093  1.1872  3.5845 -0.8390
 6877SOL     OW32266   0.027   2.493   4.847  0.1268  0.4496 -0.2891
 6877SOL    HW132267   0.013   2.496   4.752 -3.2407 -1.4879  0.1308
 6877SOL    HW232268   0.121   2.479   4.856  0.1447  0.6895 -0.1028
 6878SOL     OW32269   3.809   0.191   1.694 -0.1116  0.1907  0.4171
 6878SOL    HW132270   3.737   0.225   1.641  0.5566  0.4781 -0.3111
 6878SOL    HW232271   3.765   0.110   1.717  0.6940 -0.8975 -1.9230
 6879SOL     OW32272   1.514   0.190   3.397 -0.4232  0.4057  0.6277
 6879SOL    HW132273   1.604   0.209   3.422 -0.0494  1.0866 -1.1966
 6879SOL    HW232274   1.478   0.203   3.485 -2.8286 -0.1011 -0.2605
 6880SOL     OW32275   2.631   1.136   8.322 -0.3234 -0.5449  0.3351
 6880SOL    HW132276   2.590   1.059   8.282 -0.2986 -1.0684  1.3244
 6880SOL    HW232277   2.576   1.140   8.400  0.7665 -0.9153  1.1134
 6881SOL     OW32278   1.873   3.905   4.582  0.0643  0.0548  0.3546
 6881SOL    HW132279   1.933   3.869   4.646  0.8704 -1.2599 -1.1611
 6881SOL    HW232280   1.830   3.823   4.558  0.9338 -0.2203 -0.2286
 6882SOL     OW32281   0.912   2.393   2.505  0.4952  0.5631 -0.0175
 6882SOL    HW132282   0.884   2.482   2.484 -1.6920  0.0091  0.5242
 6882SOL    HW232283   0.844   2.357   2.562 -0.4222  0.3690 -1.2393
 6883SOL     OW32284   2.666   0.967   3.259 -0.1328  0.2756  0.4347
 6883SOL    HW132285   2.613   1.017   3.197 -1.4385 -0.1609  1.1774
 6883SOL    HW232286   2.718   1.037   3.297  0.8346 -0.6699  0.8572
 6884SOL     OW32287   1.851   2.302   1.932 -0.6152 -0.6112  0.6939
 6884SOL    HW132288   1.894   2.278   1.850 -1.0048 -1.2280  0.6710
 6884SOL    HW232289   1.820   2.391   1.917 -1.5351 -0.5610  2.8374
 6885SOL     OW32290   3.669   3.562  16.918  0.4973 -0.3842 -0.3377
 6885SOL    HW132291   3.713   3.528  16.996 -0.1665 -0.5090 -0.0178
 6885SOL    HW232292   3.708   3.514  16.845  2.2652 -0.5199  0.7037
 6886SOL     OW32293   2.943   3.033   8.363  0.0760 -0.1889  0.2300
 6886SOL    HW132294   2.888   3.000   8.434  0.0894 -0.3440  0.1682
 6886SOL    HW232295   2.917   3.125   8.360  0.9913  0.0646  0.2908
 6887SOL     OW32296   4.726   2.720   1.895 -0.6940  0.0353  0.0841
 6887SOL    HW132297   4.638   2.747   1.922 -0.7011  0.1838 -0.0941
 6887SOL    HW232298   0.032   2.690   1.975  1.5245  1.1210 -0.7568
 6888SOL     OW32299   1.510   0.750   4.567  0.1470 -0.5531  0.3212
 6888SOL    HW132300   1.579   0.763   4.632 -1.0009 -1.3864  1.7123
 6888SOL    HW232301   1.484   0.659   4.582 -2.8226  0.4155  1.0021
 6889SOL     OW32302   3.837   4.115   4.564  0.4047 -0.5617 -0.8798
 6889SOL    HW132303   3.775   4.187   4.555  0.5391 -0.1611  1.3053
 6889SOL    HW232304   3.917   4.141   4.518  1.0166 -2.2818 -0.8047
 6890SOL     OW32305   3.605   3.230   8.636  0.1014  0.2972  0.3431
 6890SOL    HW132306   3.648   3.150   8.664 -1.7028 -0.1458  1.8364
 6890SOL    HW232307   3.661   3.258   8.563  1.9510 -1.7243  1.0159
 6891SOL     OW32308   4.695   0.957   3.955  0.1267 -0.4200 -0.4554
 6891SOL    HW132309   0.040   0.925   3.987 -0.2908  0.8729  1.9450
 6891SOL    HW232310   4.657   1.003   4.030  2.2098 -1.6339  1.3469
 6892SOL     OW32311   4.659   0.733  14.547  0.4134 -0.2845  0.1089
 6892SOL    HW132312   4.575   0.769  14.575 -1.0949 -4.2728  0.6881
 6892SOL    HW232313   4.686   0.813  14.500  1.5922 -0.6540  0.1467
 6893SOL     OW32314   2.060   1.832   6.871  0.1575  0.0390  0.1400
 6893SOL    HW132315   2.129   1.804   6.812 -0.5851  1.5149 -1.4123
 6893SOL    HW232316   1.986   1.772   6.856  1.0234 -0.8871 -0.3965
 6894SOL     OW32317   3.294   2.135   0.601 -0.3563  0.5677  0.3553
 6894SOL    HW132318   3.265   2.070   0.536  0.6870 -1.4159  1.8522
 6894SOL    HW232319   3.233   2.207   0.586  1.9744  2.6169  0.8109
 6895SOL     OW32320   3.385   0.893   2.060 -0.7285  0.6689 -0.7389
 6895SOL    HW132321   3.336   0.843   1.994  0.9996 -0.5860 -1.0672
 6895SOL    HW232322   3.362   0.844   2.139  0.3962 -0.6663 -1.2320
 6896SOL     OW32323   4.701   4.646  13.295 -0.5737 -1.0360  1.0868
 6896SOL    HW132324   4.648   4.674  13.370 -0.4580  0.5888  0.5678
 6896SOL    HW232325   4.669   4.561  13.265  2.0066 -1.2643 -1.0856
 6897SOL     OW32326   2.552   0.263   5.520 -0.0981 -0.2313 -0.2935
 6897SOL    HW132327   2.567   0.235   5.610  1.5335 -0.6670 -0.7011
 6897SOL    HW232328   2.620   0.330   5.511  1.8073 -1.9530  1.2619
 6898SOL     OW32329   0.747   0.048   5.659  0.0688 -0.6766  0.5716
 6898SOL    HW132330   0.682   4.723   5.630  0.9093 -1.1904 -0.1695
 6898SOL    HW232331   0.830   0.021   5.619  0.3870 -0.4413  1.0644
 6899SOL     OW32332   1.963   2.936   3.713  1.1676  0.4719  0.0740
 6899SOL    HW132333   1.925   2.967   3.631 -0.0971 -1.5870 -0.1184
 6899SOL    HW232334   1.908   2.975   3.781  1.2823 -1.2065  1.1383
 6900SOL     OW32335   2.144   0.937   1.762  0.4580 -0.2252  0.6336
 6900SOL    HW132336   2.239   0.948   1.755  0.6325 -1.7280  0.7587
 6900SOL    HW232337   2.124   0.939   1.855 -0.2161 -1.5919  0.5128
 6901SOL     OW32338   3.029   3.062   4.558  0.3348  0.1813 -0.4972
 6901SOL    HW132339   3.091   3.058   4.485 -0.1080  2.7273 -0.9973
 6901SOL    HW232340   2.992   2.974   4.554  1.3910 -0.3411  1.3803
 6902SOL     OW32341   2.908   0.442   2.697 -0.2516 -0.2026  0.7658
 6902SOL    HW132342   2.841   0.407   2.757  1.1116  1.2373  3.1313
 6902SOL    HW232343   2.853   0.446   2.619  1.2242  4.9535  0.0469
 6903SOL     OW32344   1.707   1.289   4.283 -0.0949  0.8100  0.4332
 6903SOL    HW132345   1.780   1.328   4.331  1.3014  0.5529 -1.4678
 6903SOL    HW232346   1.711   1.335   4.199  0.3823  0.4958  0.2836
 6904SOL     OW32347   0.262   0.942  17.095 -0.0767 -0.0516 -0.5132
 6904SOL    HW132348   0.228   0.900  17.016 -0.7781  1.2274 -0.9035
 6904SOL    HW232349   0.191   0.991  17.136 -0.1486  0.9876 -1.8546
 6905SOL     OW32350   0.023   2.206   4.639  0.1122  0.1781 -0.0834
 6905SOL    HW132351   4.717   2.224   4.722  2.1488 -2.0372  1.4985
 6905SOL    HW232352   4.695   2.229   4.575 -0.0318 -0.1229 -0.0382
 6906SOL     OW32353   2.890   0.718   8.750  0.1697 -0.1407  0.2893
 6906SOL    HW132354   2.832   0.645   8.772  1.7724 -1.2453  0.8856
 6906SOL    HW232355   2.950   0.714   8.825 -0.6749 -1.4926  0.9012
 6907SOL     OW32356   4.238   0.160   1.460 -0.1680 -0.2666  0.3152
 6907SOL    HW132357   4.325   0.123   1.476 -0.1514  0.7882  2.5739
 6907SOL    HW232358   4.199   0.161   1.547 -0.4374  0.0997  0.1896
 6908SOL     OW32359   2.633   2.589  10.888 -0.5281 -0.5140 -0.3269
 6908SOL    HW132360   2.724   2.616  10.890 -0.6619 -0.3007  2.5253
 6908SOL    HW232361   2.623   2.578  10.983 -0.4163 -1.1203 -0.3848
 6909SOL     OW32362   0.988   1.206   4.024 -0.0537 -1.1743 -0.6669
 6909SOL    HW132363   0.976   1.285   3.970  1.6241  0.7607  1.7826
 6909SOL    HW232364   0.902   1.199   4.065 -0.9450 -1.7882 -2.6528
 6910SOL     OW32365   2.093   0.244   9.384 -0.0262 -0.3340  0.2241
 6910SOL    HW132366   2.056   0.206   9.305 -1.8004  1.1400  0.3417
 6910SOL    HW232367   2.087   0.339   9.374 -1.4113 -0.2500  1.8038
 6911SOL     OW32368   2.889   0.058   7.527 -0.7570  0.1498 -0.1011
 6911SOL    HW132369   2.934   0.002   7.464 -1.1294 -1.4577  1.0688
 6911SOL    HW232370   2.868   4.736   7.598  0.2486  0.3137  0.3339
 6912SOL     OW32371   0.219   0.479   5.770  0.0168  0.3408 -0.0372
 6912SOL    HW132372   0.181   0.466   5.857 -0.4851  3.7495  0.2654
 6912SOL    HW232373   0.167   0.541   5.718 -1.7756  0.2351  1.6227
 6913SOL     OW32374   3.208   0.140   1.747 -0.2342  0.1278 -0.0047
 6913SOL    HW132375   3.143   0.081   1.785 -1.7262  2.1457  0.5928
 6913SOL    HW232376   3.282   0.128   1.806 -2.2097 -0.5017  2.3287
 6914SOL     OW32377   2.131   4.221   3.092 -0.0444  0.1434 -0.1076
 6914SOL    HW132378   2.141   4.316   3.087  0.7212  0.0434 -0.4887
 6914SOL    HW232379   2.210   4.180   3.057 -1.1878 -1.4313 -0.8402
 6915SOL     OW32380   2.648   3.144   2.778  0.0897  0.8972 -0.2517
 6915SOL    HW132381   2.656   3.236   2.805 -2.7496  1.7455 -2.2991
 6915SOL    HW232382   2.569   3.146   2.724  1.8328  0.1677 -2.8476
 6916SOL     OW32383   2.250   1.075   1.317  0.0366 -0.0164 -0.4210
 6916SOL    HW132384   2.322   1.117   1.363  0.3655  0.7627 -1.6650
 6916SOL    HW232385   2.263   0.983   1.341 -0.9792  0.0037  0.2317
 6917SOL     OW32386   1.275   2.921   1.025  0.4102  0.0732  0.2459
 6917SOL    HW132387   1.216   2.989   0.993  0.1691 -0.0082  0.5198
 6917SOL    HW232388   1.221   2.883   1.094  0.2707  2.7107  1.5984
 6918SOL     OW32389   4.111   3.280  17.575 -0.9864 -0.2516  0.1517
 6918SOL    HW132390   4.047   3.312  17.511  0.7784  0.5460 -1.1978
 6918SOL    HW232391   4.171   3.233  17.517 -0.6667  1.6588 -1.0710
 6919SOL     OW32392   1.128   3.091   6.072  0.0404  0.1462  0.0277
 6919SOL    HW132393   1.050   3.120   6.120 -0.0913 -2.9559  1.6464
 6919SOL    HW232394   1.101   3.111   5.982 -1.7237 -0.9563  0.3270
 6920SOL     OW32395   4.506   4.662   2.531  0.3134  0.5777 -0.3288
 6920SOL    HW132396   4.542   4.580   2.564 -1.0324  0.2940  0.4355
 6920SOL    HW232397   4.414   4.643   2.512  0.5365 -0.7039 -0.1310
 6921SOL     OW32398   2.912   3.342   4.674  0.0321  0.0684 -0.0838
 6921SOL    HW132399   2.987   3.389   4.637  0.5309 -1.0275 -0.4537
 6921SOL    HW232400   2.888   3.292   4.597 -0.1330  0.4389 -0.2751
 6922SOL     OW32401   3.673   4.545   9.520  0.0986  0.3971 -0.1391
 6922SOL    HW132402   3.582   4.520   9.506 -0.3269  1.4053  0.8098
 6922SOL    HW232403   3.699   4.493   9.597  0.2470  1.8859  0.8185
 6923SOL     OW32404   0.489   3.541   1.879  0.3327 -0.0584 -0.0459
 6923SOL    HW132405   0.529   3.475   1.936 -0.9127  0.3160  1.2413
 6923SOL    HW232406   0.525   3.623   1.913 -0.6957  1.2076 -2.0308
 6924SOL     OW32407   2.265   0.912  10.902  0.1957  0.0301  1.0412
 6924SOL    HW132408   2.301   1.001  10.900 -0.0501  0.1058  0.1202
 6924SOL    HW232409   2.225   0.906  10.816 -0.0532  1.9877  1.0246
 6925SOL     OW32410   0.755   3.797   2.960  0.3702  0.2702 -0.3077
 6925SOL    HW132411   0.708   3.771   2.881 -1.2070  1.8736  0.1061
 6925SOL    HW232412   0.755   3.714   3.008 -2.8618 -0.8039 -2.1897
 6926SOL     OW32413   2.897   4.493  15.985 -0.2894 -0.3385  0.1704
 6926SOL    HW132414   2.944   4.493  16.069 -1.1678  0.4760  0.6627
 6926SOL    HW232415   2.911   4.586  15.967 -0.3422 -0.3790 -0.0729
 6927SOL     OW32416   3.963   2.866  16.122  0.3574  0.1739 -0.7641
 6927SOL    HW132417   3.878   2.903  16.146  0.6747  0.1539  0.3826
 6927SOL    HW232418   4.020   2.942  16.126 -0.1372  0.5506 -0.8780
 6928SOL     OW32419   0.898   4.517   8.253  0.1036  0.3700 -0.1201
 6928SOL    HW132420   0.811   4.499   8.219 -0.8799  3.3402  0.8085
 6928SOL    HW232421   0.894   4.612   8.243 -0.8630  0.3427  0.0154
 6929SOL     OW32422   0.227   0.702  11.378 -0.0051  0.1816 -0.0070
 6929SOL    HW132423   0.291   0.771  11.358  0.3230  0.4015  1.7512
 6929SOL    HW232424   0.261   0.631  11.324  1.2973 -0.5625  1.7871
 6930SOL     OW32425   3.864   0.281  17.299  0.2396  0.2651  0.1877
 6930SOL    HW132426   3.953   0.259  17.274  0.0988  0.1501 -0.2081
 6930SOL    HW232427   3.868   0.267  17.394 -1.1666  0.0081  0.2100
 6931SOL     OW32428   2.110   4.644   6.696  0.4947  0.1408  0.5476
 6931SOL    HW132429   2.177   4.605   6.752  0.4185  1.7522  1.7639
 6931SOL    HW232430   2.043   4.669   6.760  0.7997  0.7734  0.6247
 6932SOL     OW32431   1.585   0.979   6.444  0.5289 -0.0214  0.6022
 6932SOL    HW132432   1.535   0.990   6.364 -2.0611 -0.6060  2.1346
 6932SOL    HW232433   1.515   0.971   6.509  0.8324  3.2752  1.3360
 6933SOL     OW32434   1.685   2.247   0.978 -0.3291  0.5680 -0.1040
 6933SOL    HW132435   1.706   2.322   0.923 -1.3023  0.4280 -0.6534
 6933SOL    HW232436   1.592   2.254   0.999 -0.6392 -1.8846 -0.6651
 6934SOL     OW32437   1.840   2.181   4.642  0.0409  0.4614  0.2344
 6934SOL    HW132438   1.792   2.109   4.602 -0.4773  0.6223  0.5712
 6934SOL    HW232439   1.832   2.159   4.735 -1.1121  0.6686  0.1894
 6935SOL     OW32440   2.102   0.069  17.736  0.0852 -0.5322 -0.4208
 6935SOL    HW132441   2.077   4.737   0.042 -0.0452 -0.5784 -0.5332
 6935SOL    HW232442   2.091   0.026  17.651 -1.4914  1.1440 -1.0645
 6936SOL     OW32443   4.507   3.936   3.460  0.0699  0.3495  0.1797
 6936SOL    HW132444   4.593   3.895   3.471 -0.2053  0.0344  1.2048
 6936SOL    HW232445   4.448   3.865   3.437  2.2589 -1.5754  0.5702
 6937SOL     OW32446   2.136   3.982   6.367 -0.0338  0.1645  0.2750
 6937SOL    HW132447   2.103   3.994   6.278 -1.1312 -0.9166  0.5347
 6937SOL    HW232448   2.139   4.070   6.403 -0.0697  0.1799  0.2406
 6938SOL     OW32449   0.267   1.168   5.979  0.6237 -0.5202  0.1300
 6938SOL    HW132450   0.288   1.080   6.011 -1.7557 -1.1349 -0.0164
 6938SOL    HW232451   0.176   1.177   6.007  0.4365 -0.2451 -0.5678
 6939SOL     OW32452   2.895   2.295   8.120 -0.2347 -0.5848 -0.1308
 6939SOL    HW132453   2.958   2.240   8.167  0.6242  1.3724  1.0048
 6939SOL    HW232454   2.820   2.295   8.179 -2.2315  0.2198 -2.6669
 6940SOL     OW32455   0.278   0.001   3.949 -0.1271  0.7023 -0.3577
 6940SOL    HW132456   0.190   0.036   3.964 -0.4171  0.2383 -0.9812
 6940SOL    HW232457   0.287   4.672   4.016 -0.5928 -0.5761 -1.5825
 6941SOL     OW32458   0.694   0.034   4.577  0.4009  0.0124 -0.7487
 6941SOL    HW132459   0.631   4.720   4.624  1.0068 -0.2389 -0.2092
 6941SOL    HW232460   0.769   4.717   4.554  0.0894 -0.7210  0.0308
 6942SOL     OW32461   4.345   3.995   4.699 -0.2608 -0.2267  0.1383
 6942SOL    HW132462   4.341   3.914   4.750 -1.7530  0.8045  1.6533
 6942SOL    HW232463   4.373   4.052   4.771  0.1580 -1.0411  0.6239
 6943SOL     OW32464   1.497   1.275  12.084  0.1848 -0.3547  0.5767
 6943SOL    HW132465   1.487   1.353  12.138  1.8284 -0.7967  1.4974
 6943SOL    HW232466   1.406   1.245  12.093  0.1097 -0.9720 -2.2418
 6944SOL     OW32467   2.153   3.983  11.348  0.5306  0.0663  0.3209
 6944SOL    HW132468   2.069   3.983  11.394  0.4177  0.0566  0.1123
 6944SOL    HW232469   2.139   3.920  11.277 -1.0974 -0.7753  1.3983
 6945SOL     OW32470   3.371   3.210   5.099 -0.1643 -0.1707 -0.0085
 6945SOL    HW132471   3.404   3.251   5.179  1.5512  0.2030 -0.9312
 6945SOL    HW232472   3.442   3.223   5.037  0.0197 -1.3685 -0.0526
 6946SOL     OW32473   1.237   0.677  14.866  0.0356  0.1478 -0.1759
 6946SOL    HW132474   1.327   0.647  14.873  0.5806  1.8571  0.1177
 6946SOL    HW232475   1.248   0.750  14.805 -1.2579  1.3622  1.0541
 6947SOL     OW32476   0.851   4.738   7.371  0.3906 -0.1363  0.0517
 6947SOL    HW132477   0.917   4.684   7.415  0.0238  0.2162  1.0489
 6947SOL    HW232478   0.827   0.061   7.440 -0.7729 -1.1143  0.5342
 6948SOL     OW32479   1.333   1.566   2.252  0.6816  0.0719  0.3766
 6948SOL    HW132480   1.333   1.480   2.294 -2.0165 -0.6034 -1.0504
 6948SOL    HW232481   1.321   1.532   2.163  1.0430  0.9428 -0.0089
 6949SOL     OW32482   0.295   3.224  16.532  0.3409 -0.3542 -0.1226
 6949SOL    HW132483   0.208   3.185  16.521  0.5215 -1.1868  1.2635
 6949SOL    HW232484   0.320   3.252  16.444  3.8756  0.5146  1.1695
 6950SOL     OW32485   3.555   0.237  13.255 -0.2653 -0.5296 -0.1086
 6950SOL    HW132486   3.632   0.227  13.311  0.2548 -1.8436 -1.0306
 6950SOL    HW232487   3.599   0.261  13.173  1.7304 -1.9177  0.5407
 6951SOL     OW32488   1.988   1.762   4.826  0.2884  0.0600  0.5307
 6951SOL    HW132489   2.066   1.778   4.879  1.2649 -1.6283 -0.3921
 6951SOL    HW232490   2.030   1.706   4.761 -1.1598  0.4867 -0.7703
 6952SOL     OW32491   4.293   3.175   8.568  0.1625  0.2459 -0.0390
 6952SOL    HW132492   4.249   3.253   8.537  1.9818  2.0288  1.8646
 6952SOL    HW232493   4.327   3.219   8.645  0.5628  0.7171 -0.4864
 6953SOL     OW32494   1.773   2.111  14.477  0.2718 -0.0138 -0.3242
 6953SOL    HW132495   1.730   2.118  14.392  0.3030 -2.2541 -0.5361
 6953SOL    HW232496   1.710   2.172  14.514  1.5891  0.7500  0.6778
 6954SOL     OW32497   1.506   0.954   6.966  0.3915 -0.0026 -0.2840
 6954SOL    HW132498   1.455   0.963   7.047  0.6724 -1.7708  0.0841
 6954SOL    HW232499   1.431   0.992   6.919  0.3039 -1.1251 -1.0579
 6955SOL     OW32500   0.199   0.751  13.390 -0.1716 -0.0192 -0.4807
 6955SOL    HW132501   0.129   0.755  13.456  1.0658  1.3410  0.7316
 6955SOL    HW232502   0.263   0.695  13.434 -1.1258 -1.3421 -0.7619
 6956SOL     OW32503   2.779   2.076  14.968 -0.0884  0.6563 -0.0658
 6956SOL    HW132504   2.725   2.038  14.898  1.5341 -0.3131 -0.7969
 6956SOL    HW232505   2.842   2.004  14.969  0.4019  1.0801 -1.2587
 6957SOL     OW32506   4.228   4.414   2.689 -0.3716  0.3079  0.0546
 6957SOL    HW132507   4.170   4.490   2.697 -1.2423 -0.3340 -0.0843
 6957SOL    HW232508   4.258   4.404   2.780 -0.0577 -0.8477 -0.1707
 6958SOL     OW32509   3.832   0.933  16.785  0.1261 -0.3206 -0.2252
 6958SOL    HW132510   3.793   1.019  16.801  0.8740  0.0190 -0.2264
 6958SOL    HW232511   3.887   0.918  16.862  0.8179  1.4518 -0.3589
 6959SOL     OW32512   3.166   3.662   3.930 -0.2499  0.2721  0.8560
 6959SOL    HW132513   3.229   3.702   3.871 -0.6127  0.8235  0.8386
 6959SOL    HW232514   3.112   3.619   3.864 -0.3924 -1.4297  2.0854
 6960SOL     OW32515   2.669   1.757   7.980 -0.0605 -0.6447  0.5193
 6960SOL    HW132516   2.750   1.708   7.995 -0.0982 -0.2969  1.8340
 6960SOL    HW232517   2.653   1.738   7.887  2.0784 -1.5145  0.3428
 6961SOL     OW32518   3.827   0.826   5.620  0.1267  0.1798 -0.2824
 6961SOL    HW132519   3.767   0.753   5.604  1.4140 -0.7851 -0.6850
 6961SOL    HW232520   3.821   0.857   5.530 -0.6405  2.3470  0.4961
 6962SOL     OW32521   3.773   3.038   8.796  0.0463 -0.5167  0.1082
 6962SOL    HW132522   3.866   3.057   8.783  0.1343 -1.9497 -1.3772
 6962SOL    HW232523   3.753   3.101   8.865  0.5474 -0.8249  0.5377
 6963SOL     OW32524   2.173   2.519   7.654  0.4714 -0.3219 -0.4625
 6963SOL    HW132525   2.233   2.554   7.719 -0.5760  0.4278  0.0954
 6963SOL    HW232526   2.112   2.465   7.703 -1.7249  2.1632 -0.4703
 6964SOL     OW32527   1.276   1.989   7.595  0.5348  0.1904  0.1374
 6964SOL    HW132528   1.264   2.070   7.644  0.4452  0.3442 -0.1374
 6964SOL    HW232529   1.332   1.938   7.653  2.4652  0.0228 -1.8533
 6965SOL     OW32530   3.889   2.896   1.673 -0.1993 -0.1256  0.9145
 6965SOL    HW132531   3.853   2.924   1.589  1.7657  1.0052  0.4609
 6965SOL    HW232532   3.892   2.800   1.668 -0.3131 -0.0008 -1.5882
 6966SOL     OW32533   1.643   1.993   3.415  0.5881  0.2603  0.5001
 6966SOL    HW132534   1.584   1.990   3.491  1.3470 -3.2352  0.9348
 6966SOL    HW232535   1.619   2.070   3.364 -1.6432 -0.4547  0.4507
 6967SOL     OW32536   2.510   2.899   8.164  0.1574 -0.0708 -0.2963
 6967SOL    HW132537   2.554   2.980   8.188 -0.4718  0.8230 -2.1135
 6967SOL    HW232538   2.564   2.835   8.210 -0.3968  0.1730  0.6711
 6968SOL     OW32539   1.682   3.908  12.312  0.1523 -0.0292  0.3067
 6968SOL    HW132540   1.735   3.954  12.377  0.5980 -0.3638  0.1838
 6968SOL    HW232541   1.740   3.857  12.255  1.4166 -0.1765  1.7337
 6969SOL     OW32542   0.763   2.721   7.468 -0.5350 -0.5664 -0.4722
 6969SOL    HW132543   0.820   2.733   7.545 -1.2282 -0.6246  0.0504
 6969SOL    HW232544   0.728   2.635   7.490 -1.4684  0.4660  2.1159
 6970SOL     OW32545   4.042   2.542   7.267 -0.3665  0.0062  0.1424
 6970SOL    HW132546   4.090   2.601   7.209  1.6689 -0.8209  0.9535
 6970SOL    HW232547   4.036   2.591   7.349 -0.8190 -0.8151  0.5998
 6971SOL     OW32548   1.838   1.187   2.189 -0.0109  0.2700  0.2517
 6971SOL    HW132549   1.774   1.116   2.196 -1.0293  1.0621 -0.8953
 6971SOL    HW232550   1.829   1.227   2.276  0.0015 -0.4057  0.5612
 6972SOL     OW32551   4.589   2.184  16.426  0.3707  0.1117 -0.2507
 6972SOL    HW132552   4.518   2.188  16.490  0.5320  0.9119 -0.1121
 6972SOL    HW232553   4.648   2.254  16.458 -0.2054  0.1444  0.7578
 6973SOL     OW32554   4.501   1.546   1.768  0.4371 -0.0862 -0.1558
 6973SOL    HW132555   4.575   1.534   1.709 -0.3138 -2.0320 -0.7152
 6973SOL    HW232556   4.504   1.467   1.823 -2.2125 -1.1420 -1.4877
 6974SOL     OW32557   1.587   3.062  13.058 -0.3933  0.0054 -1.1236
 6974SOL    HW132558   1.629   3.092  13.138 -1.6615 -0.8444 -0.1600
 6974SOL    HW232559   1.588   2.966  13.052 -0.0443 -0.0834  0.4537
 6975SOL     OW32560   2.766   4.597   8.683 -0.1837  0.0426  0.3633
 6975SOL    HW132561   2.672   4.613   8.690  0.2838  1.3610  3.5025
 6975SOL    HW232562   2.785   4.549   8.764  1.5283  0.5312  0.2484
 6976SOL     OW32563   0.152   1.556  11.926 -0.2035 -0.1220 -0.2512
 6976SOL    HW132564   0.148   1.464  11.952 -1.7210  0.3756  1.2435
 6976SOL    HW232565   0.150   1.597  12.012  2.6967 -1.0439  0.2514
 6977SOL     OW32566   3.916   1.210   5.916  0.4875  0.0345 -0.1058
 6977SOL    HW132567   3.954   1.190   5.831 -0.2431  1.4925 -0.7676
 6977SOL    HW232568   3.950   1.299   5.923 -2.8042  1.3456 -1.0164
 6978SOL     OW32569   1.524   0.206  14.306  0.9101  0.0760 -0.2200
 6978SOL    HW132570   1.461   0.195  14.377  1.7704  1.6998  0.7826
 6978SOL    HW232571   1.563   0.119  14.312 -0.2964 -0.4731 -0.4187
 6979SOL     OW32572   3.058   3.591   8.244  0.2245  0.3655 -0.2245
 6979SOL    HW132573   2.971   3.551   8.238  0.6255 -0.4041 -0.9461
 6979SOL    HW232574   3.093   3.548   8.322  2.7835 -0.3909 -1.7850
 6980SOL     OW32575   2.110   0.535  14.594  0.0495  0.5619 -0.7763
 6980SOL    HW132576   2.026   0.569  14.565  0.1976  2.2594  0.7975
 6980SOL    HW232577   2.076   0.466  14.650  1.9820  1.2147  1.1997
 6981SOL     OW32578   1.927   3.619   5.943 -0.0570  0.0123  0.4025
 6981SOL    HW132579   1.840   3.609   5.904  0.2533 -0.1586 -0.2513
 6981SOL    HW232580   1.955   3.527   5.945 -1.5862 -0.4660 -0.0905
 6982SOL     OW32581   3.161   4.614   7.074  0.1905  0.4809 -0.1700
 6982SOL    HW132582   3.217   4.541   7.048 -0.4931 -0.2487  0.3964
 6982SOL    HW232583   3.086   4.608   7.015  0.3227 -1.8272 -0.1057
 6983SOL     OW32584   3.567   0.543   2.755  0.6705 -0.2417 -0.5315
 6983SOL    HW132585   3.595   0.614   2.697 -1.7512  0.6434 -0.6226
 6983SOL    HW232586   3.472   0.542   2.757  0.7465 -3.3150  1.2537
 6984SOL     OW32587   2.586   1.769   5.529 -0.7238 -0.1081 -0.9389
 6984SOL    HW132588   2.620   1.723   5.606  0.2890  1.2509 -0.5583
 6984SOL    HW232589   2.613   1.857   5.554  0.4506 -0.4226 -1.0956
 6985SOL     OW32590   0.268   3.534   4.392 -0.2660 -0.8259  0.5579
 6985SOL    HW132591   0.339   3.585   4.354 -1.8893  0.6624 -0.4989
 6985SOL    HW232592   0.220   3.600   4.443  1.2474  0.0189  0.8686
 6986SOL     OW32593   0.442   3.586   3.469 -0.1334 -0.0732  0.1639
 6986SOL    HW132594   0.506   3.595   3.398 -0.6426 -0.2897 -0.3105
 6986SOL    HW232595   0.374   3.530   3.434 -0.4605  0.2795  0.2394
 6987SOL     OW32596   0.062   2.038   7.178 -0.0015  0.1721  0.0178
 6987SOL    HW132597   0.093   2.041   7.269 -1.3622  1.3561  0.4426
 6987SOL    HW232598   4.719   2.087   7.176  0.5355  1.0659  0.0063
 6988SOL     OW32599   2.529   2.443   8.700  0.4540  0.0849 -0.1121
 6988SOL    HW132600   2.490   2.441   8.787  0.9375  2.6421  0.1653
 6988SOL    HW232601   2.600   2.381   8.712 -0.3037 -0.7577 -0.0466
 6989SOL     OW32602   2.973   3.458  16.239 -0.6687 -0.0203  0.2647
 6989SOL    HW132603   2.944   3.421  16.156  0.3661 -1.5696  0.5899
 6989SOL    HW232604   3.008   3.541  16.207  0.8967 -0.0689  1.8451
 6990SOL     OW32605   1.947   4.325   0.705  0.3563 -0.3090  0.3386
 6990SOL    HW132606   1.929   4.262   0.774  1.0758  0.3784  1.1639
 6990SOL    HW232607   1.943   4.408   0.753 -0.6284 -0.0995 -0.1169
 6991SOL     OW32608   0.530   1.241   6.014 -0.1676 -0.4288  0.3380
 6991SOL    HW132609   0.548   1.265   6.105 -2.4256  1.6901  0.2447
 6991SOL    HW232610   0.435   1.229   6.022 -0.3224 -1.1198 -2.4898
 6992SOL     OW32611   4.021   0.725   3.372 -0.1135 -0.5791 -0.3772
 6992SOL    HW132612   4.037   0.637   3.337  1.3504 -0.1086 -0.9206
 6992SOL    HW232613   4.049   0.777   3.297 -1.2869 -2.6109 -2.2160
 6993SOL     OW32614   4.726   4.417   6.963 -0.2164 -0.6684  0.3544
 6993SOL    HW132615   4.724   4.419   7.059  2.5191 -0.6622  0.4244
 6993SOL    HW232616   0.045   4.491   6.948  0.2337 -1.0343  0.2778
 6994SOL     OW32617   3.534   0.619   1.876  0.0733 -0.2676 -0.3125
 6994SOL    HW132618   3.511   0.618   1.969  1.0346  1.0424 -0.0573
 6994SOL    HW232619   3.578   0.536   1.860  2.0710  0.6331  0.5008
 6995SOL     OW32620   4.497   1.696  17.644 -0.3269  0.0279  0.1196
 6995SOL    HW132621   4.573   1.753  17.635  0.3572 -0.7582  0.8641
 6995SOL    HW232622   4.537   1.609  17.641  1.7914  0.9656  1.1420
 6996SOL     OW32623   2.025   1.873   0.375 -0.0421 -0.0186 -0.0519
 6996SOL    HW132624   2.044   1.945   0.435  0.3887  0.5936 -0.9275
 6996SOL    HW232625   2.099   1.853   0.319  0.6253  1.4000  0.3276
 6997SOL     OW32626   2.204   0.324   6.818 -0.3595 -0.0093 -0.2264
 6997SOL    HW132627   2.158   0.241   6.806 -0.8119  0.2534 -0.3021
 6997SOL    HW232628   2.146   0.377   6.872  2.7460  3.7336 -0.5009
 6998SOL     OW32629   3.486   2.852   7.140  0.3608  0.1478  0.2863
 6998SOL    HW132630   3.546   2.859   7.215  0.4399  0.3268  0.2056
 6998SOL    HW232631   3.550   2.870   7.071 -2.1825  2.1784 -1.5524
 6999SOL     OW32632   1.429   0.915   9.079 -0.8383 -0.9946  0.3445
 6999SOL    HW132633   1.506   0.907   9.022 -0.2886 -0.2540  0.9883
 6999SOL    HW232634   1.466   0.970   9.148  0.5601 -0.3908 -0.8866
 7000SOL     OW32635   3.671   1.369   1.446  0.4703 -0.5410 -0.6012
 7000SOL    HW132636   3.672   1.382   1.540 -0.7081  0.3293 -0.7018
 7000SOL    HW232637   3.766   1.378   1.436  0.7215  1.0098  3.4257
 7001SOL     OW32638   1.554   2.879   7.227 -0.3416  0.3272  0.6962
 7001SOL    HW132639   1.532   2.970   7.244 -0.8194  0.5040 -0.8328
 7001SOL    HW232640   1.490   2.862   7.157 -0.2362 -0.1289  0.7105
 7002SOL     OW32641   1.106   1.026  13.249 -0.0205  0.0764  0.4747
 7002SOL    HW132642   1.091   0.934  13.228 -4.1033  0.7127  0.7160
 7002SOL    HW232643   1.127   1.062  13.163  0.2069 -0.9324  0.1004
 7003SOL     OW32644   1.167   3.913   5.629  0.0729  0.1493  0.4512
 7003SOL    HW132645   1.228   3.922   5.556 -0.4371  2.7739  0.3802
 7003SOL    HW232646   1.107   3.987   5.623 -0.1827  0.0958  2.3251
 7004SOL     OW32647   2.710   1.088   3.775  0.0217 -0.3906  0.2010
 7004SOL    HW132648   2.644   1.053   3.716 -0.9281  0.6709  0.6392
 7004SOL    HW232649   2.680   1.177   3.793 -0.3653 -0.5508  0.3492
 7005SOL     OW32650   2.693   3.749   2.354 -0.1787  0.1640  0.2774
 7005SOL    HW132651   2.734   3.678   2.304 -2.0579 -0.4979 -0.3155
 7005SOL    HW232652   2.612   3.756   2.304  0.6514 -0.1549 -1.1018
 7006SOL     OW32653   3.243   0.397   3.470 -0.1553 -0.2448 -0.7096
 7006SOL    HW132654   3.171   0.336   3.456 -1.2320  0.5225  1.5916
 7006SOL    HW232655   3.283   0.398   3.383 -1.0290 -0.4038 -1.1193
 7007SOL     OW32656   0.671   3.026   6.775 -0.0669 -0.1755 -0.0558
 7007SOL    HW132657   0.605   3.068   6.830  0.6127 -1.2777  1.6136
 7007SOL    HW232658   0.640   3.044   6.686  1.3763  0.9373 -0.3197
 7008SOL     OW32659   4.583   1.305   5.208 -0.0137  0.6643  0.0211
 7008SOL    HW132660   4.577   1.318   5.114  0.3940 -2.3857 -0.4500
 7008SOL    HW232661   4.598   1.210   5.203  0.7448  0.7906 -0.0162
 7009SOL     OW32662   3.737   1.843   5.293  0.1579 -0.2875  0.2719
 7009SOL    HW132663   3.782   1.791   5.360  0.4377  0.1342  0.4087
 7009SOL    HW232664   3.655   1.866   5.336  0.3595  0.1274  0.4374
 7010SOL     OW32665   2.796   2.175   2.952 -0.3069 -0.0181 -0.1138
 7010SOL    HW132666   2.874   2.140   2.997 -0.4783  0.0090  0.2057
 7010SOL    HW232667   2.826   2.149   2.865  0.6374  0.6514  0.0051
 7011SOL     OW32668   1.078   4.262   7.816  0.1586  0.3627 -0.2847
 7011SOL    HW132669   1.114   4.310   7.742 -0.3670 -0.9963 -1.4237
 7011SOL    HW232670   1.004   4.321   7.830  0.1314  0.0108  1.0976
 7012SOL     OW32671   2.199   3.767  15.283 -0.8765 -0.0155 -0.4501
 7012SOL    HW132672   2.225   3.681  15.315  0.9886  1.6489  2.4558
 7012SOL    HW232673   2.142   3.813  15.345 -0.5120  0.4979 -0.4972
 7013SOL     OW32674   3.390   3.135   8.411 -0.6704 -0.2365 -0.6624
 7013SOL    HW132675   3.333   3.165   8.340 -1.8732 -1.1693 -0.1036
 7013SOL    HW232676   3.358   3.182   8.488 -0.6141 -1.4629  0.1024
 7014SOL     OW32677   1.628   2.640   1.316 -0.2623  0.4662  0.4179
 7014SOL    HW132678   1.624   2.735   1.328 -1.6171  0.7243 -2.2372
 7014SOL    HW232679   1.599   2.621   1.227 -2.5249  0.4303  1.1639
 7015SOL     OW32680   0.118   3.918  11.160  0.1644  0.2345  0.4270
 7015SOL    HW132681   0.202   3.872  11.163 -0.1854 -0.3217  1.5804
 7015SOL    HW232682   0.067   3.841  11.135  1.1317  0.0246 -0.9314
 7016SOL     OW32683   1.177   2.350   7.352 -0.0185  0.4505 -0.1317
 7016SOL    HW132684   1.221   2.418   7.403  2.5228 -1.3791  0.0565
 7016SOL    HW232685   1.180   2.279   7.415  1.2631 -1.1770 -2.0273
 7017SOL     OW32686   0.675   2.786   6.921  0.2200  0.5395 -0.2144
 7017SOL    HW132687   0.678   2.862   6.863 -2.2457 -0.0386 -1.0714
 7017SOL    HW232688   0.665   2.726   6.848  1.3158  0.0491  0.0376
 7018SOL     OW32689   0.314   4.021  13.649  0.3855  0.5372 -0.2776
 7018SOL    HW132690   0.248   4.064  13.595  1.2288  0.3364 -1.4905
 7018SOL    HW232691   0.351   4.103  13.683  2.5666 -0.9797  1.0010
 7019SOL     OW32692   3.020   4.536   5.369  0.5456  0.1113  0.3570
 7019SOL    HW132693   2.962   4.588   5.313 -0.5208  1.4140  2.6604
 7019SOL    HW232694   3.105   4.578   5.352 -0.2046  1.0033 -1.1771
 7020SOL     OW32695   0.089   0.175   9.102  0.1862 -0.5078 -0.3594
 7020SOL    HW132696   0.157   0.131   9.152  1.6796  2.6797  0.3648
 7020SOL    HW232697   0.140   0.216   9.032  0.9563 -0.5543  0.1825
 7021SOL     OW32698   3.049   1.561   5.093 -0.5974  0.5235  0.4535
 7021SOL    HW132699   2.959   1.589   5.080  0.3203  2.7574 -1.1258
 7021SOL    HW232700   3.037   1.483   5.147 -1.2037 -0.2448 -0.7774
 7022SOL     OW32701   4.197   0.171   5.298  0.1107  0.0925  0.1934
 7022SOL    HW132702   4.245   0.236   5.247  2.4098  0.0646  2.3193
 7022SOL    HW232703   4.126   0.214   5.345  0.1655 -0.4106  0.7441
 7023SOL     OW32704   3.613   4.309  17.659 -0.5530 -0.7317 -0.3885
 7023SOL    HW132705   3.579   4.238  17.715  2.2531 -1.8751 -0.1526
 7023SOL    HW232706   3.544   4.313  17.593 -3.2164 -2.0259  2.2627
 7024SOL     OW32707   0.905   3.197   4.942  0.1716  0.5191 -0.3302
 7024SOL    HW132708   0.886   3.197   5.036  4.5058 -2.5146  0.5398
 7024SOL    HW232709   0.815   3.206   4.912  0.1228  0.5434 -0.1769
 7025SOL     OW32710   0.041   1.647   8.386 -0.0797  0.5766  0.3448
 7025SOL    HW132711   0.091   1.569   8.362  0.7997  1.8276 -1.8063
 7025SOL    HW232712   0.088   1.682   8.462  1.6722 -0.9975 -0.0201
 7026SOL     OW32713   1.457   4.232  16.335 -0.1156 -0.7398  0.0924
 7026SOL    HW132714   1.382   4.222  16.394  1.0694  1.4775  1.9828
 7026SOL    HW232715   1.505   4.307  16.370  1.1192 -1.4380 -0.0915
 7027SOL     OW32716   0.937   4.013   7.108  0.3294  0.1803  1.0369
 7027SOL    HW132717   0.930   3.929   7.061 -0.4799  0.8759 -0.0975
 7027SOL    HW232718   1.012   4.051   7.062 -0.9394 -1.4243 -2.3758
 7028SOL     OW32719   3.097   2.988   5.165 -0.0090  0.1073 -0.6701
 7028SOL    HW132720   3.166   3.007   5.229  1.6706 -1.1631 -2.1108
 7028SOL    HW232721   3.095   3.070   5.115 -0.7785  1.3455  1.4016
 7029SOL     OW32722   1.315   0.912   4.701  0.2377 -0.4159 -0.2113
 7029SOL    HW132723   1.335   0.879   4.788 -0.8535 -0.0360  0.1785
 7029SOL    HW232724   1.374   0.860   4.647  0.4388 -2.2271  1.7737
 7030SOL     OW32725   3.146   1.113   1.242  0.2800 -0.1833 -0.1368
 7030SOL    HW132726   3.202   1.082   1.313 -0.3743 -2.8403 -0.8054
 7030SOL    HW232727   3.169   1.205   1.226  0.8039 -0.5075 -1.2160
 7031SOL     OW32728   3.988   4.055   3.796  0.4554  0.3808  0.5460
 7031SOL    HW132729   3.974   4.034   3.889 -0.0424  0.3070  0.4531
 7031SOL    HW232730   4.065   4.006   3.764 -0.7220 -1.9942  1.3346
 7032SOL     OW32731   2.514   2.399   4.098  0.3610  0.5986  0.7049
 7032SOL    HW132732   2.574   2.388   4.023 -0.4625 -1.6729  0.3993
 7032SOL    HW232733   2.480   2.486   4.077  0.5208  0.1540 -1.4803
 7033SOL     OW32734   3.368   4.227   3.049  0.2496  0.1737 -0.6994
 7033SOL    HW132735   3.391   4.317   3.072  1.5032 -0.1048 -0.8976
 7033SOL    HW232736   3.457   4.202   3.025  0.3831  0.5053 -0.5593
 7034SOL     OW32737   1.087   3.270   2.866  0.7155  0.6104 -0.4144
 7034SOL    HW132738   1.142   3.293   2.941  0.4726  0.8220 -0.2979
 7034SOL    HW232739   1.017   3.229   2.917  0.8423  0.3253 -0.4687
 7035SOL     OW32740   2.515   3.508   4.280 -0.2702  0.1680 -0.0312
 7035SOL    HW132741   2.430   3.507   4.325 -0.3003 -1.4466 -0.1425
 7035SOL    HW232742   2.503   3.435   4.219  0.9387 -1.7214  2.0362
 7036SOL     OW32743   4.381   0.785  15.182 -0.1638 -0.8291 -0.3073
 7036SOL    HW132744   4.465   0.805  15.225 -0.1502  0.7373 -1.0655
 7036SOL    HW232745   4.339   0.869  15.201  0.1513 -0.7886  0.2099
 7037SOL     OW32746   3.071   3.051   5.665 -0.0666  0.5121  0.4350
 7037SOL    HW132747   3.050   3.115   5.596 -2.4156  0.9155  1.5327
 7037SOL    HW232748   3.148   3.085   5.710 -1.5342  0.1766  3.1500
 7038SOL     OW32749   4.638   1.317   4.093 -0.4266  0.0381 -0.2082
 7038SOL    HW132750   4.666   1.323   4.002  0.5429 -2.4793 -0.0816
 7038SOL    HW232751   4.694   1.242   4.117  2.1618  2.4015  1.2001
 7039SOL     OW32752   0.502   3.677   4.319  0.4160  0.3304 -0.2992
 7039SOL    HW132753   0.556   3.706   4.393 -0.3670 -0.9756  0.7817
 7039SOL    HW232754   0.558   3.693   4.243 -0.5628 -1.7946 -1.4804
 7040SOL     OW32755   3.978   3.884  10.535 -0.5759 -0.1971  0.3120
 7040SOL    HW132756   4.048   3.943  10.510 -1.0726  0.9499  1.6437
 7040SOL    HW232757   4.003   3.849  10.621  2.4140  2.2817  0.4455
 7041SOL     OW32758   2.617   2.983  16.253 -0.1148  0.0706 -0.3255
 7041SOL    HW132759   2.523   2.994  16.264 -0.3762 -0.6061 -1.8680
 7041SOL    HW232760   2.652   2.969  16.341  2.9640  1.9712 -1.2310
 7042SOL     OW32761   1.304   3.584   3.513  0.4435 -0.9350 -0.1040
 7042SOL    HW132762   1.281   3.519   3.447  1.7127 -1.2146 -0.2632
 7042SOL    HW232763   1.241   3.561   3.582 -0.7719 -1.3849 -1.3648
 7043SOL     OW32764   1.307   0.505  12.756  0.0910  0.2408 -0.3697
 7043SOL    HW132765   1.367   0.453  12.809  0.7056  1.3942  0.0564
 7043SOL    HW232766   1.226   0.480  12.801 -0.1400 -1.2096 -1.5850
 7044SOL     OW32767   3.220   1.491   3.433  0.5302  0.5199  0.1778
 7044SOL    HW132768   3.228   1.438   3.354  0.3863 -0.3206  0.7241
 7044SOL    HW232769   3.283   1.451   3.493 -1.3732 -2.7088  0.0471
 7045SOL     OW32770   1.075   0.023   6.192  0.0472  0.1391 -0.1789
 7045SOL    HW132771   1.060   4.667   6.200  3.1210 -0.2989  0.4100
 7045SOL    HW232772   0.985   0.056   6.192 -0.3900 -0.9928  1.6004
 7046SOL     OW32773   4.669   4.596   8.666 -0.4942  0.2859 -0.5419
 7046SOL    HW132774   4.609   4.595   8.591 -0.9419 -3.0638 -0.1438
 7046SOL    HW232775   4.678   4.691   8.671  1.5935 -0.0133  1.0132
 7047SOL     OW32776   3.223   0.017   2.591 -0.0025  0.1068  0.4147
 7047SOL    HW132777   3.166   4.720   2.523  0.2876  2.3570 -1.0002
 7047SOL    HW232778   3.185   0.105   2.597  0.8121  0.4270  0.9781
 7048SOL     OW32779   2.385   3.594  10.446 -0.1621  0.0799  0.3671
 7048SOL    HW132780   2.357   3.514  10.492 -1.4858  0.9811  1.1507
 7048SOL    HW232781   2.479   3.580  10.435  0.1624  2.4594  0.1934
 7049SOL     OW32782   3.360   4.521  15.737  0.0917  0.2451 -0.2402
 7049SOL    HW132783   3.332   4.556  15.653 -0.3955 -0.9907 -0.5989
 7049SOL    HW232784   3.381   4.433  15.704  2.1653  1.2729 -1.6680
 7050SOL     OW32785   3.416   1.929   2.039  0.4088 -0.1724  0.0786
 7050SOL    HW132786   3.375   2.013   2.060  0.4783 -0.8628  2.9755
 7050SOL    HW232787   3.505   1.948   2.069  0.5924 -0.9477  0.0341
 7051SOL     OW32788   4.738   1.872   3.272  0.1215 -0.1470 -0.3583
 7051SOL    HW132789   4.708   1.949   3.223 -1.2495 -0.8104 -0.5512
 7051SOL    HW232790   0.090   1.859   3.242  0.8369  0.3780  1.5923
 7052SOL     OW32791   1.171   0.976   9.141  0.0840 -0.1194 -0.4792
 7052SOL    HW132792   1.205   1.064   9.125  1.1512 -0.6317 -1.0718
 7052SOL    HW232793   1.248   0.924   9.116 -0.2803 -0.7045 -0.3688
 7053SOL     OW32794   2.445   4.018   0.055  0.0196  0.1832  0.1931
 7053SOL    HW132795   2.480   3.967   0.129  0.2653 -0.1058 -0.1264
 7053SOL    HW232796   2.421   4.103   0.091 -2.3995 -0.2690 -0.3508
 7054SOL     OW32797   4.676   1.852  11.574  0.4280 -0.7036  0.3442
 7054SOL    HW132798   4.721   1.807  11.645  0.4948 -0.4306  0.4763
 7054SOL    HW232799   0.012   1.890  11.528  0.3631  0.2299  1.0069
 7055SOL     OW32800   2.417   0.872   1.987 -0.2857 -0.5380 -0.6636
 7055SOL    HW132801   2.452   0.798   1.939  1.1586 -1.0551  1.2083
 7055SOL    HW232802   2.442   0.934   1.919 -0.4734  2.7769  2.2318
 7056SOL     OW32803   2.719   1.711   2.452 -0.2198  0.5005  0.0372
 7056SOL    HW132804   2.747   1.764   2.526  0.2235 -1.7074  1.4570
 7056SOL    HW232805   2.750   1.771   2.384 -0.1351  1.6603  1.1102
 7057SOL     OW32806   3.505   2.917  15.722  0.0885 -0.2375 -0.2075
 7057SOL    HW132807   3.571   2.848  15.728  1.1080  0.8117  0.4929
 7057SOL    HW232808   3.428   2.861  15.731 -1.0936  1.4076 -0.0971
 7058SOL     OW32809   1.402   1.619   3.971 -0.0216  0.0542 -0.3272
 7058SOL    HW132810   1.345   1.670   3.913 -0.2905  2.9784  2.4754
 7058SOL    HW232811   1.381   1.663   4.054 -2.0021  3.2764 -2.5360
 7059SOL     OW32812   1.974   2.961  14.719 -0.6155  0.4327 -0.3869
 7059SOL    HW132813   2.031   2.953  14.642 -1.2435 -1.0766 -0.6866
 7059SOL    HW232814   1.944   2.871  14.728  1.5402 -0.1624  0.6521
 7060SOL     OW32815   0.012   2.001   6.349  0.0348  0.4798 -0.1278
 7060SOL    HW132816   0.008   2.078   6.405 -1.6395  0.1556  0.2139
 7060SOL    HW232817   4.683   2.018   6.283 -0.5576  0.6136  0.5087
 7061SOL     OW32818   3.242   0.896   4.777  0.3320 -0.6567 -0.4703
 7061SOL    HW132819   3.241   0.801   4.761  1.8011 -0.3911 -2.0752
 7061SOL    HW232820   3.286   0.923   4.697 -1.9657  0.1381 -1.4738
 7062SOL     OW32821   1.368   3.933   1.810  0.9355  0.1840  0.0724
 7062SOL    HW132822   1.282   3.897   1.833  0.9805 -0.0251 -0.0831
 7062SOL    HW232823   1.396   3.976   1.891  4.0850 -2.0433  0.1683
 7063SOL     OW32824   2.095   3.519   2.818  0.9321 -0.0854  0.0160
 7063SOL    HW132825   2.044   3.588   2.860  0.9743 -0.5153  0.7902
 7063SOL    HW232826   2.186   3.541   2.838  1.4374 -0.2617 -2.0961
 7064SOL     OW32827   0.202   4.534  13.215  0.0342 -0.0906  0.3869
 7064SOL    HW132828   0.154   4.575  13.287  0.0870 -1.7561  1.3778
 7064SOL    HW232829   0.123   4.505  13.168 -0.4480  3.1380 -0.7899
 7065SOL     OW32830   1.672   0.179  12.804 -0.6254  0.2863 -0.1815
 7065SOL    HW132831   1.705   0.096  12.838 -1.6482 -0.7525 -1.7006
 7065SOL    HW232832   1.754   0.214  12.771 -0.2606  1.0943  1.6078
 7066SOL     OW32833   3.992   3.791   2.521 -0.5147 -0.8864  0.2236
 7066SOL    HW132834   4.032   3.874   2.492 -1.9415 -0.5461 -0.7594
 7066SOL    HW232835   3.900   3.797   2.495 -0.2328 -2.0823 -1.0202
 7067SOL     OW32836   4.492   1.599   4.533  0.7095 -0.1525  0.1075
 7067SOL    HW132837   4.587   1.601   4.525  0.4806  1.6469 -1.9134
 7067SOL    HW232838   4.466   1.514   4.569 -1.8063  0.8075  0.6272
 7068SOL     OW32839   4.266   2.906   8.558  0.0008  0.1163  0.1989
 7068SOL    HW132840   4.288   2.999   8.563 -2.1119  0.7065 -1.6655
 7068SOL    HW232841   4.181   2.922   8.517  0.4952 -1.1297 -1.2679
 7069SOL     OW32842   4.682   1.296   1.278  0.0725  0.0102 -0.3936
 7069SOL    HW132843   4.725   1.241   1.344 -2.8542 -0.4878  1.0834
 7069SOL    HW232844   0.002   1.372   1.286 -1.2824  0.9577  0.5473
 7070SOL     OW32845   1.423   2.595   5.291 -0.1272  0.0108 -0.1245
 7070SOL    HW132846   1.373   2.521   5.256 -0.5996 -0.6538  1.9777
 7070SOL    HW232847   1.430   2.659   5.220 -2.5479  1.5145  1.0188
 7071SOL     OW32848   0.093   3.987   3.837  0.5120  0.2454 -0.5283
 7071SOL    HW132849   0.086   3.910   3.892  0.6964 -0.0823 -0.9590
 7071SOL    HW232850   0.125   3.950   3.754 -0.6301 -0.3118 -0.7136
 7072SOL     OW32851   3.952   2.207   3.627  0.5514 -0.1042 -0.2517
 7072SOL    HW132852   4.037   2.249   3.640  0.9892 -1.1126  0.1400
 7072SOL    HW232853   3.953   2.146   3.702  2.6756 -0.4839 -0.6135
 7073SOL     OW32854   1.687   4.472   4.567  0.5058  0.2056 -0.0421
 7073SOL    HW132855   1.703   4.435   4.480 -1.2467 -0.9514  0.1324
 7073SOL    HW232856   1.616   4.418   4.604  1.4993 -1.2301 -0.2322
 7074SOL     OW32857   2.396   1.200   2.791  0.0223  0.3249 -0.0849
 7074SOL    HW132858   2.371   1.184   2.700  0.9835 -2.7226  0.1734
 7074SOL    HW232859   2.397   1.110   2.826  2.6815  0.0594 -0.8655
 7075SOL     OW32860   1.634   3.921   3.491 -0.0248 -0.4307  0.0537
 7075SOL    HW132861   1.591   3.941   3.574  1.5238  0.6189  0.6139
 7075SOL    HW232862   1.558   3.888   3.444  0.0791  1.1553 -1.2015
 7076SOL     OW32863   0.515   3.595   2.268  0.2492 -0.5017  0.1461
 7076SOL    HW132864   0.546   3.618   2.181 -1.3296 -1.2882 -0.6087
 7076SOL    HW232865   0.428   3.634   2.264  0.9825  1.2686  1.6029
 7077SOL     OW32866   1.319   2.548  10.890  0.1191  0.0668 -0.2084
 7077SOL    HW132867   1.320   2.618  10.825 -0.7052  0.5590  0.3091
 7077SOL    HW232868   1.402   2.504  10.875  0.8830  1.9006 -1.3877
 7078SOL     OW32869   2.625   0.740   4.674 -0.3020 -0.1113  0.1485
 7078SOL    HW132870   2.569   0.694   4.737  0.3518 -0.0355  0.7818
 7078SOL    HW232871   2.558   0.749   4.606 -1.1888 -2.9121  0.6640
 7079SOL     OW32872   3.374   4.650   7.656  0.0355  0.4142  0.1830
 7079SOL    HW132873   3.395   4.737   7.621 -0.9570 -0.6202 -3.0102
 7079SOL    HW232874   3.381   4.597   7.577 -2.1523  0.8935 -0.3500
 7080SOL     OW32875   1.606   0.917  12.226  0.0186  0.2076 -0.2426
 7080SOL    HW132876   1.691   0.947  12.193  0.7041 -1.9132 -0.4036
 7080SOL    HW232877   1.611   0.935  12.320  2.5192 -1.9239  0.0262
 7081SOL     OW32878   1.460   2.039  17.327 -0.1424  0.4370 -0.0197
 7081SOL    HW132879   1.492   2.093  17.255 -2.3000 -0.4195 -1.6372
 7081SOL    HW232880   1.373   2.012  17.295 -0.4190  1.0752  0.2038
 7082SOL     OW32881   4.686   3.624   6.726  0.0449  0.2937 -0.1438
 7082SOL    HW132882   4.673   3.673   6.645 -1.4225 -0.1806 -0.2088
 7082SOL    HW232883   4.601   3.634   6.769  0.3257 -3.3236  1.2850
 7083SOL     OW32884   1.432   4.091   4.788  0.1559  0.6474  0.1006
 7083SOL    HW132885   1.516   4.044   4.786 -0.1927  0.0562 -0.8796
 7083SOL    HW232886   1.385   4.039   4.723  0.4576 -0.8544  1.0828
 7084SOL     OW32887   0.072   4.175   5.857 -0.2613  0.5858 -0.1603
 7084SOL    HW132888   0.121   4.180   5.940 -2.0915  0.9505  0.8917
 7084SOL    HW232889   0.102   4.254   5.812  0.4039 -0.9931 -2.4441
 7085SOL     OW32890   3.719   4.584   4.979  0.6922 -0.5955 -0.2997
 7085SOL    HW132891   3.696   4.628   4.898  1.2543 -2.1735 -1.3235
 7085SOL    HW232892   3.627   4.567   4.999  0.3923  1.5228  0.0771
 7086SOL     OW32893   3.534   0.312   6.280  0.0734  0.2192  0.2292
 7086SOL    HW132894   3.581   0.290   6.360 -0.1366 -0.9035  0.0340
 7086SOL    HW232895   3.543   0.234   6.225  0.9846  1.7127 -1.7689
 7087SOL     OW32896   2.579   2.653   3.008 -0.0508 -0.0187 -0.0749
 7087SOL    HW132897   2.658   2.698   2.978 -1.2194  2.4866  0.5703
 7087SOL    HW232898   2.608   2.566   3.033  0.1678  0.3127  0.8080
 7088SOL     OW32899   3.451   4.149   6.218  0.6175  0.5694  0.3136
 7088SOL    HW132900   3.457   4.244   6.211 -1.9580  0.4380 -3.6131
 7088SOL    HW232901   3.372   4.124   6.169 -0.1938  1.1712  1.2942
 7089SOL     OW32902   1.557   2.202   6.363 -1.1180  0.1579 -0.3263
 7089SOL    HW132903   1.481   2.172   6.314  0.2500 -0.2422 -2.2080
 7089SOL    HW232904   1.532   2.155   6.443 -3.0300  1.4056 -0.1972
 7090SOL     OW32905   2.446   2.258   5.867 -0.3601  0.0200 -0.0747
 7090SOL    HW132906   2.511   2.220   5.927  0.6439 -1.0534 -1.8503
 7090SOL    HW232907   2.502   2.320   5.820 -1.5745  0.5601 -0.8054
 7091SOL     OW32908   3.067   0.417   5.892 -0.2946 -0.1888 -0.1579
 7091SOL    HW132909   3.085   0.495   5.841  3.0963  1.9611  4.2628
 7091SOL    HW232910   3.139   0.423   5.956 -0.9267  3.5809  0.1701
 7092SOL     OW32911   4.069   3.056  15.550  0.2405 -0.4581  0.4407
 7092SOL    HW132912   4.050   3.086  15.638 -1.5353  0.0973 -0.1273
 7092SOL    HW232913   4.149   3.004  15.558  1.0455  0.7201  0.0204
 7093SOL     OW32914   3.146   4.463   1.751  0.4381 -0.1014  0.0745
 7093SOL    HW132915   3.073   4.429   1.801  1.0885 -0.8649  0.5085
 7093SOL    HW232916   3.218   4.429   1.804  0.3105  0.6508  0.7353
 7094SOL     OW32917   3.852   2.218   4.303  0.5742 -0.1088  0.7271
 7094SOL    HW132918   3.773   2.271   4.296  0.3321 -0.5873 -0.2266
 7094SOL    HW232919   3.878   2.236   4.213 -4.0657 -0.9972 -0.7620
 7095SOL     OW32920   0.385   1.766   6.590  0.2132  0.0548  0.1613
 7095SOL    HW132921   0.328   1.808   6.525 -0.0117  0.0526  0.3555
 7095SOL    HW232922   0.469   1.796   6.556  0.8905 -3.6876 -1.5119
 7096SOL     OW32923   1.801   0.210   4.995  0.1023 -0.3457 -0.7489
 7096SOL    HW132924   1.789   0.115   4.999  1.3802 -0.4688  0.0945
 7096SOL    HW232925   1.883   0.216   5.044 -0.4560 -0.1643  0.1569
 7097SOL     OW32926   4.665   3.138  12.789 -0.3882 -0.4771  0.6313
 7097SOL    HW132927   4.706   3.216  12.828  0.6003  1.2476 -3.8224
 7097SOL    HW232928   4.589   3.173  12.744  0.4562  0.2241 -0.2411
 7098SOL     OW32929   1.714   3.634  13.875  0.5497 -0.5754 -0.3939
 7098SOL    HW132930   1.718   3.550  13.922 -2.1622  1.1028  2.8602
 7098SOL    HW232931   1.740   3.613  13.786  1.6867 -0.8055 -0.0038
 7099SOL     OW32932   4.402   0.040  12.441  0.0162  0.0851 -0.2710
 7099SOL    HW132933   4.360   0.123  12.422  1.9909  1.2581  0.4541
 7099SOL    HW232934   4.349   4.737  12.509  0.8538  0.9426  0.9189
 7100SOL     OW32935   0.508   2.810   5.188  0.1764  0.1830  0.4424
 7100SOL    HW132936   0.494   2.783   5.279  0.4812 -0.1749  0.3830
 7100SOL    HW232937   0.601   2.792   5.179 -0.1327 -0.5988 -1.1638
 7101SOL     OW32938   0.049   0.228   6.782 -0.8406 -0.0306  0.4517
 7101SOL    HW132939   0.096   0.154   6.743  1.2678  0.0402  2.8224
 7101SOL    HW232940   0.050   0.189   6.870  1.4099  1.2504  0.9867
 7102SOL     OW32941   2.697   1.467   5.522  0.1907  0.1935  0.2670
 7102SOL    HW132942   2.626   1.409   5.495  0.6440 -1.6919  3.0985
 7102SOL    HW232943   2.654   1.509   5.597 -1.3906 -2.4874  0.8656
 7103SOL     OW32944   2.884   0.887   7.729  0.4647  0.2756 -1.0358
 7103SOL    HW132945   2.973   0.881   7.696  1.4712  1.0468  1.5377
 7103SOL    HW232946   2.873   0.969   7.777 -1.2606 -1.7737  2.0929
 7104SOL     OW32947   4.050   3.418   5.236 -0.2506  0.0838  0.5753
 7104SOL    HW132948   4.040   3.508   5.206  0.6907  0.1067  0.3314
 7104SOL    HW232949   3.964   3.381   5.213  0.2701 -0.4955 -0.4446
 7105SOL     OW32950   3.409   0.781   1.508  0.2447  0.4434 -0.4540
 7105SOL    HW132951   3.494   0.786   1.553  0.2125  3.9184 -0.7282
 7105SOL    HW232952   3.377   0.704   1.554  0.0060  1.1062  0.4952
 7106SOL     OW32953   4.525   1.357   8.450 -0.2873  0.9135  0.1692
 7106SOL    HW132954   4.436   1.348   8.484 -1.1508  0.8255 -2.1083
 7106SOL    HW232955   4.551   1.276   8.405  0.7140  1.4750 -0.2443
 7107SOL     OW32956   3.583   2.421   4.822 -0.3137 -0.9267  0.0034
 7107SOL    HW132957   3.603   2.479   4.748  0.3196  0.3717  1.1923
 7107SOL    HW232958   3.530   2.482   4.874 -0.0243 -1.4717  0.9211
 7108SOL     OW32959   2.050   1.501   0.652 -0.2029 -0.5212  0.8052
 7108SOL    HW132960   1.985   1.484   0.720 -1.6777  0.5153 -0.3298
 7108SOL    HW232961   2.101   1.421   0.657 -1.1967 -1.2566 -0.7334
 7109SOL     OW32962   0.849   1.933   7.342 -0.4786 -0.0773  0.4673
 7109SOL    HW132963   0.803   1.855   7.374 -2.8857  0.5063 -1.6180
 7109SOL    HW232964   0.930   1.914   7.390  0.1272 -1.5181 -1.1369
 7110SOL     OW32965   2.798   4.290  16.784 -0.1103  0.0831 -0.3151
 7110SOL    HW132966   2.798   4.372  16.834 -1.2346  0.2827 -0.6307
 7110SOL    HW232967   2.824   4.324  16.699  2.0190  0.9185  0.6665
 7111SOL     OW32968   2.416   2.418   6.386  0.0382  0.1867  0.4747
 7111SOL    HW132969   2.390   2.502   6.421 -1.7289 -0.4819  0.7285
 7111SOL    HW232970   2.408   2.441   6.293 -0.3930 -1.8062  0.0100
 7112SOL     OW32971   1.391   2.711   7.866  0.1070  0.1218 -0.3662
 7112SOL    HW132972   1.448   2.652   7.816 -1.1418 -1.6427  0.2982
 7112SOL    HW232973   1.399   2.784   7.804  3.1944 -0.5659 -0.7564
 7113SOL     OW32974   1.396   3.017   7.907  0.2691  0.2443 -0.0824
 7113SOL    HW132975   1.477   2.974   7.878 -0.8536 -1.7158 -0.2912
 7113SOL    HW232976   1.407   3.104   7.869  0.7930 -0.5287 -1.7037
 7114SOL     OW32977   0.720   1.598  15.844  0.6615  0.0424  0.3565
 7114SOL    HW132978   0.756   1.565  15.926 -1.3760 -2.2886  0.3033
 7114SOL    HW232979   0.639   1.642  15.872  0.0416 -0.3202 -0.8731
 7115SOL     OW32980   1.686   0.313   4.780 -0.2413  0.5977  0.1566
 7115SOL    HW132981   1.741   0.290   4.855  0.3285 -1.5186 -0.9326
 7115SOL    HW232982   1.748   0.289   4.712  1.6016 -1.0079  2.4001
 7116SOL     OW32983   0.322   4.585  14.884 -0.2686  0.1017  0.1034
 7116SOL    HW132984   0.243   4.639  14.875 -0.2134  0.1996  0.2033
 7116SOL    HW232985   0.381   4.659  14.902 -0.7144 -0.0243  2.0608
 7117SOL     OW32986   3.136   3.475   4.582 -0.4240 -0.3465  0.6922
 7117SOL    HW132987   3.205   3.417   4.550 -1.0337 -1.3142  1.1256
 7117SOL    HW232988   3.187   3.499   4.659 -0.5710  0.3596  0.5742
 7118SOL     OW32989   1.631   2.702   6.809  0.0472  0.0247  0.5151
 7118SOL    HW132990   1.566   2.761   6.772 -2.1994 -1.3606  2.1763
 7118SOL    HW232991   1.615   2.630   6.749  2.5541 -0.3363  0.2912
 7119SOL     OW32992   0.337   1.090   9.872 -0.3366 -0.4271  1.0691
 7119SOL    HW132993   0.274   1.130   9.933 -0.1632  1.6039 -0.0905
 7119SOL    HW232994   0.413   1.085   9.930 -0.5029 -1.2151  1.2200
 7120SOL     OW32995   3.229   3.061   2.459 -0.4329  1.6551 -0.4069
 7120SOL    HW132996   3.200   3.028   2.374  0.7726 -2.3403  0.6967
 7120SOL    HW232997   3.218   2.980   2.510  0.9506  1.1211 -0.9538
 7121SOL     OW32998   4.209   1.210  12.867  0.4935  0.0064  0.4883
 7121SOL    HW132999   4.266   1.238  12.939  1.5509 -1.7562  0.3443
 7121SOL    HW233000   4.169   1.140  12.918  1.2898 -0.5267  0.3716
 7122SOL     OW33001   0.882   1.105  12.074 -0.2278 -0.1486 -0.4647
 7122SOL    HW133002   0.872   1.107  12.169 -0.1240 -0.7496 -0.4444
 7122SOL    HW233003   0.793   1.083  12.047 -0.2499  0.3542 -0.8000
 7123SOL     OW33004   3.832   0.138   6.153 -0.0304  0.0064 -0.4154
 7123SOL    HW133005   3.785   0.103   6.229  0.8478  2.2164  1.1470
 7123SOL    HW233006   3.873   0.217   6.189 -1.0214  1.2629 -2.0168
 7124SOL     OW33007   3.133   3.826   8.045 -0.8015 -0.4330 -0.3110
 7124SOL    HW133008   3.065   3.794   7.985 -0.2874 -1.7359 -0.2105
 7124SOL    HW233009   3.093   3.797   8.127 -2.6396  0.3039 -0.9546
 7125SOL     OW33010   0.510   1.167   8.255  0.2425 -0.3376  0.2970
 7125SOL    HW133011   0.602   1.170   8.230  0.1744 -0.3567  0.0398
 7125SOL    HW233012   0.517   1.218   8.335  1.7942 -2.2767  1.4095
 7126SOL     OW33013   1.894   0.749   2.067 -0.4053 -0.0406 -0.2574
 7126SOL    HW133014   1.935   0.688   2.006  0.2391  1.5411 -1.4081
 7126SOL    HW233015   1.960   0.753   2.136 -1.7434 -2.1403  1.1390
 7127SOL     OW33016   1.571   1.458   5.215  0.3890  0.7471  0.6476
 7127SOL    HW133017   1.642   1.522   5.219  0.6350  0.5667 -0.8091
 7127SOL    HW233018   1.506   1.520   5.183  0.2238 -0.0939 -0.6548
 7128SOL     OW33019   1.735   4.502   3.844  0.2900  0.1116 -0.8180
 7128SOL    HW133020   1.755   4.460   3.760 -0.4954 -0.5865 -0.6510
 7128SOL    HW233021   1.675   4.435   3.875 -1.5351  2.3468  0.4541
 7129SOL     OW33022   1.761   0.577   1.744 -0.3031 -0.2133 -0.4310
 7129SOL    HW133023   1.819   0.547   1.814 -0.3468 -0.6684 -0.5893
 7129SOL    HW233024   1.680   0.526   1.753 -0.4829  0.1440 -0.0200
 7130SOL     OW33025   3.968   4.440  12.275  0.6011  0.1825 -0.2757
 7130SOL    HW133026   4.013   4.505  12.221 -1.2904  0.8111 -1.0787
 7130SOL    HW233027   4.034   4.371  12.287 -0.2199 -0.7843 -1.3288
 7131SOL     OW33028   1.061   0.466   2.549 -0.5549  0.2524 -0.3278
 7131SOL    HW133029   0.980   0.482   2.596  0.9255 -1.0607  2.6699
 7131SOL    HW233030   1.025   0.419   2.474 -0.6037  0.8470 -0.6853
 7132SOL     OW33031   3.063   0.599   7.413  0.0818  0.3268 -0.4601
 7132SOL    HW133032   3.107   0.659   7.474  0.9460 -0.1837 -0.5799
 7132SOL    HW233033   3.037   0.670   7.353 -0.7448 -1.0668 -1.7367
 7133SOL     OW33034   4.337   1.390   3.406 -0.0391  0.3250  0.1011
 7133SOL    HW133035   4.355   1.375   3.498 -0.2077  1.2055  0.2779
 7133SOL    HW233036   4.241   1.382   3.400 -0.2146  1.8877  0.8661
 7134SOL     OW33037   3.070   1.687   8.501  0.0714 -0.4814  0.2001
 7134SOL    HW133038   3.151   1.681   8.551  0.0965  1.0233  0.3307
 7134SOL    HW233039   3.011   1.688   8.577 -2.2939  0.1419 -1.6556
 7135SOL     OW33040   2.558   1.856   2.738 -0.6284  0.5059  0.1986
 7135SOL    HW133041   2.478   1.859   2.791  0.6880 -0.2349  2.2117
 7135SOL    HW233042   2.552   1.942   2.695 -1.4256  0.0217 -0.6510
 7136SOL     OW33043   3.963   3.885   7.024 -0.5618 -0.0383  0.0090
 7136SOL    HW133044   3.900   3.939   6.976 -0.8783 -0.1385  0.3062
 7136SOL    HW233045   4.007   3.846   6.948  1.0285  1.9044 -0.0542
 7137SOL     OW33046   3.022   4.701   1.925  0.4809 -0.4952  0.3346
 7137SOL    HW133047   2.981   4.685   2.011 -0.6593  0.6911  0.0162
 7137SOL    HW233048   3.021   4.614   1.884 -1.8415 -0.0099 -0.6236
 7138SOL     OW33049   0.561   4.330   8.410 -0.2479 -0.0227  0.4048
 7138SOL    HW133050   0.549   4.324   8.505  0.9439  1.5908  0.6538
 7138SOL    HW233051   0.657   4.326   8.404 -0.2130  0.0990  0.8723
 7139SOL     OW33052   4.692   2.504   8.076 -0.2332  0.1241  0.2656
 7139SOL    HW133053   4.653   2.550   8.150  0.4989 -3.7852  3.0293
 7139SOL    HW233054   4.628   2.434   8.064 -1.4579  0.8104  2.8723
 7140SOL     OW33055   1.126   4.696   6.826  0.0209 -0.3563 -0.6037
 7140SOL    HW133056   1.182   4.622   6.846  0.4076  0.3260  0.8482
 7140SOL    HW233057   1.200   0.013   6.804 -0.1446  0.1471  0.1406
 7141SOL     OW33058   0.712   4.109   6.519 -0.6858 -0.3248 -0.9531
 7141SOL    HW133059   0.698   4.083   6.610  0.1481 -1.7218 -1.2153
 7141SOL    HW233060   0.757   4.192   6.536 -1.5143 -0.1291  0.2281
 7142SOL     OW33061   2.544   3.961   8.085 -0.6537  0.2628  0.2273
 7142SOL    HW133062   2.587   4.004   8.011  0.9974  1.6029  1.9744
 7142SOL    HW233063   2.550   3.867   8.064  1.3337  0.6446 -0.8905
 7143SOL     OW33064   3.669   2.948   7.976 -0.6043 -0.6822  0.2928
 7143SOL    HW133065   3.622   2.977   8.054 -0.0395 -2.4103  1.2669
 7143SOL    HW233066   3.677   2.855   7.997 -0.0536 -0.1068  2.5770
 7144SOL     OW33067   2.641   1.471   4.174  0.2850  0.2621 -0.1749
 7144SOL    HW133068   2.628   1.378   4.153  2.3359 -0.8518  3.4153
 7144SOL    HW233069   2.732   1.493   4.155 -0.4543  0.5209 -3.4325
 7145SOL     OW33070   1.090   0.303   9.925 -0.6505  0.2257 -0.1611
 7145SOL    HW133071   1.052   0.215   9.924  0.0314 -0.0610 -0.2869
 7145SOL    HW233072   1.110   0.312   9.832  1.8957 -0.3553  0.3504
 7146SOL     OW33073   3.596   3.144   7.596 -0.4296  0.4851  0.3828
 7146SOL    HW133074   3.550   3.065   7.624  2.3152 -1.3046 -0.1370
 7146SOL    HW233075   3.618   3.172   7.684 -1.5968 -0.2090  0.8861
 7147SOL     OW33076   2.145   1.327  13.395 -0.0085  0.2769  0.0868
 7147SOL    HW133077   2.205   1.267  13.352 -1.4643 -2.4442  1.7936
 7147SOL    HW233078   2.062   1.288  13.367  1.2437 -1.0000 -1.8157
 7148SOL     OW33079   1.912   0.178   7.622  0.6829 -0.2358 -0.4230
 7148SOL    HW133080   1.927   0.255   7.567  1.5532 -0.5655 -0.6470
 7148SOL    HW233081   1.971   0.207   7.691 -2.7319 -2.6440  3.5377
 7149SOL     OW33082   2.291   4.059   2.311 -0.1660  0.6641 -0.3045
 7149SOL    HW133083   2.208   4.106   2.322 -0.1335  0.4190  1.0814
 7149SOL    HW233084   2.280   3.997   2.383 -1.4250 -2.1552 -2.9667
 7150SOL     OW33085   4.451   1.915   8.612  0.0347 -0.5544  0.3421
 7150SOL    HW133086   4.523   1.948   8.560 -0.6007  1.0929  0.5039
 7150SOL    HW233087   4.408   1.850   8.557 -1.5071  0.2029  0.6479
 7151SOL     OW33088   2.019   3.334   5.979 -0.2091  0.2371 -0.2046
 7151SOL    HW133089   2.103   3.361   5.943  1.0558 -0.3936  2.2710
 7151SOL    HW233090   2.017   3.240   5.962  2.7462  0.1911 -0.3188
 7152SOL     OW33091   2.135   0.509   1.602 -0.8048  0.3037  0.0829
 7152SOL    HW133092   2.176   0.527   1.518 -0.5086  3.3891  0.8991
 7152SOL    HW233093   2.102   0.597   1.620  1.1134  1.3020 -1.3721
 7153SOL     OW33094   3.233   4.367   5.830 -0.2974  0.6823 -0.3352
 7153SOL    HW133095   3.248   4.282   5.872 -1.1975  0.5513 -0.2933
 7153SOL    HW233096   3.160   4.407   5.876  0.7630  2.4848 -0.2005
 7154SOL     OW33097   2.863   3.115   0.417  0.1251  0.3708  0.2201
 7154SOL    HW133098   2.928   3.154   0.476  0.0348  0.4824  0.2455
 7154SOL    HW233099   2.913   3.101   0.336  1.4374  0.3231  1.0253
 7155SOL     OW33100   2.204   4.657   5.674  0.5580 -0.1733 -0.5815
 7155SOL    HW133101   2.275   4.709   5.711 -0.7887  0.9941  0.3856
 7155SOL    HW233102   2.189   4.587   5.738 -1.2456  0.5663 -0.2026
 7156SOL     OW33103   2.913   3.561   2.505 -0.4574  0.5020 -0.1295
 7156SOL    HW133104   2.995   3.606   2.484  0.1211 -0.7773 -0.5970
 7156SOL    HW233105   2.945   3.473   2.524 -1.5567  0.0981 -0.1621
 7157SOL     OW33106   1.472   4.408   7.446  0.5114 -0.0551  0.1807
 7157SOL    HW133107   1.422   4.343   7.396  0.3851 -1.2432  1.8571
 7157SOL    HW233108   1.563   4.377   7.444 -0.3343 -2.4468 -2.0125
 7158SOL     OW33109   3.306   3.723  15.063  0.1240  0.0330 -0.8191
 7158SOL    HW133110   3.351   3.745  14.981 -0.9538 -0.8685 -1.6578
 7158SOL    HW233111   3.224   3.682  15.035  0.5081 -1.5245  0.3933
 7159SOL     OW33112   3.118   0.162  10.586  0.0329 -0.6770  1.0894
 7159SOL    HW133113   3.202   0.193  10.553  0.6669 -0.8683  2.5606
 7159SOL    HW233114   3.129   0.067  10.585  0.2870 -0.6342 -0.9194
 7160SOL     OW33115   2.847   3.684   4.725  0.6753  0.2730  0.3327
 7160SOL    HW133116   2.794   3.661   4.648 -0.2206  3.1666  0.0948
 7160SOL    HW233117   2.894   3.758   4.686  0.2040 -0.0588 -0.8898
 7161SOL     OW33118   2.475   3.093   8.559 -0.6794 -0.1786  0.2388
 7161SOL    HW133119   2.506   3.003   8.567  0.5818  0.1336 -1.1967
 7161SOL    HW233120   2.386   3.081   8.527  0.7791 -1.6802 -3.2479
 7162SOL     OW33121   2.324   2.637   6.513 -0.7141 -0.0941 -0.0897
 7162SOL    HW133122   2.313   2.718   6.464  1.7375  0.0219 -0.4739
 7162SOL    HW233123   2.362   2.661   6.598 -0.0472 -2.2491  0.2415
 7163SOL     OW33124   1.887   3.326   3.333 -0.1877 -0.7683 -0.7079
 7163SOL    HW133125   1.809   3.377   3.313  1.1514  2.0551  1.2405
 7163SOL    HW233126   1.957   3.390   3.345 -0.6059 -0.2198 -1.1955
 7164SOL     OW33127   1.626   3.444  14.542  0.0848  0.1572  0.2924
 7164SOL    HW133128   1.647   3.451  14.449 -0.3600 -0.1321  0.1699
 7164SOL    HW233129   1.681   3.517  14.571 -3.2837  2.9667 -0.4101
 7165SOL     OW33130   3.817   2.163  13.521 -0.1403 -0.0462 -0.1406
 7165SOL    HW133131   3.878   2.237  13.524 -2.2545  1.6438  0.8647
 7165SOL    HW233132   3.731   2.205  13.518 -1.8090 -3.5353 -0.6439
 7166SOL     OW33133   1.665   2.088  15.122 -0.0896 -0.3867 -0.1635
 7166SOL    HW133134   1.658   2.087  15.218 -1.3549  1.3856 -0.2298
 7166SOL    HW233135   1.626   2.003  15.101  0.5076 -0.8310  0.5287
 7167SOL     OW33136   2.918   2.431   1.417 -0.1359  0.0523 -0.5112
 7167SOL    HW133137   2.956   2.495   1.356  0.4198 -1.2740 -1.5732
 7167SOL    HW233138   2.826   2.448   1.397 -0.4577  0.1648  1.1084
 7168SOL     OW33139   1.209   3.256   7.489  0.3642  0.1081  0.2472
 7168SOL    HW133140   1.124   3.291   7.465  1.1239  1.1216 -0.9533
 7168SOL    HW233141   1.186   3.195   7.559  0.6451  1.2220  1.3135
 7169SOL     OW33142   4.097   2.022   1.988  0.8606 -0.3296  0.2097
 7169SOL    HW133143   4.070   2.097   2.041 -1.0202 -1.6879  1.1642
 7169SOL    HW233144   4.019   1.966   1.998 -1.3457  2.3449 -2.0269
 7170SOL     OW33145   0.564   0.201   2.857 -0.3416  0.3073  0.0669
 7170SOL    HW133146   0.597   0.186   2.946  1.3353 -0.8245 -0.7569
 7170SOL    HW233147   0.591   0.293   2.850  1.2683 -0.2027 -0.3042
 7171SOL     OW33148   1.178   3.511  12.847 -0.1877  0.0166  0.1266
 7171SOL    HW133149   1.169   3.582  12.910 -0.5422 -0.6318  0.7980
 7171SOL    HW233150   1.142   3.560  12.773 -0.6343 -0.8365 -0.2244
 7172SOL     OW33151   1.679   3.242   6.200 -0.2080  0.2846  0.0021
 7172SOL    HW133152   1.603   3.195   6.166  0.4274 -0.7980  0.0686
 7172SOL    HW233153   1.646   3.327   6.228  0.2385  0.6010 -0.4325
 7173SOL     OW33154   4.491   4.027   9.259  0.8789 -0.0787 -0.2489
 7173SOL    HW133155   4.519   4.106   9.303 -1.1367 -0.3483  1.4893
 7173SOL    HW233156   4.399   4.045   9.242  0.2093  1.0750  4.7566
 7174SOL     OW33157   4.416   1.140  16.701  0.3263  0.0167  0.0055
 7174SOL    HW133158   4.410   1.143  16.606  1.0045  2.1653  0.0281
 7174SOL    HW233159   4.338   1.093  16.729  0.1837 -0.0305 -0.4849
 7175SOL     OW33160   0.156   3.526   4.915  0.4385 -0.3129  0.0407
 7175SOL    HW133161   0.128   3.532   5.006 -1.4821  1.4238 -0.6742
 7175SOL    HW233162   0.229   3.587   4.913 -0.7472  1.0966  0.0982
 7176SOL     OW33163   3.767   1.233   5.546  0.2633  0.2792  0.0179
 7176SOL    HW133164   3.732   1.301   5.488  1.1055 -1.5239 -2.6297
 7176SOL    HW233165   3.825   1.204   5.476 -0.6313  3.0873 -1.8676
 7177SOL     OW33166   0.918   0.398   0.384  0.2387 -0.5984  0.3098
 7177SOL    HW133167   0.900   0.482   0.342  3.1492  0.3295  0.9157
 7177SOL    HW233168   0.922   0.333   0.313  1.1156 -0.6455  0.3970
 7178SOL     OW33169   4.600   0.800   6.543 -0.2468 -0.2901  0.2026
 7178SOL    HW133170   4.506   0.792   6.527  0.0330 -2.3605 -0.4395
 7178SOL    HW233171   4.637   0.846   6.467  1.6550 -3.2368 -0.6576
 7179SOL     OW33172   1.898   1.740  12.035 -0.4188 -0.0443  0.2954
 7179SOL    HW133173   1.820   1.796  12.030  1.0455  1.8384 -1.4857
 7179SOL    HW233174   1.930   1.756  12.124 -0.1673  2.3956 -0.2273
 7180SOL     OW33175   4.356   3.505   8.965 -0.2088 -0.1781  0.4434
 7180SOL    HW133176   4.271   3.535   8.934 -0.3605 -0.3795  0.6743
 7180SOL    HW233177   4.393   3.591   8.987 -0.9644  0.2409  0.1008
 7181SOL     OW33178   4.710   3.999   2.247  0.4216  0.0287 -0.6880
 7181SOL    HW133179   0.002   4.086   2.275  0.7680 -0.6405  0.9974
 7181SOL    HW233180   0.034   3.948   2.297  0.8611  0.3371 -0.9245
 7182SOL     OW33181   0.529   3.920   6.143  0.0549 -0.0103 -0.1736
 7182SOL    HW133182   0.474   3.853   6.184  1.0884  1.1176  3.0996
 7182SOL    HW233183   0.531   3.994   6.204 -0.6676  0.4078 -0.6580
 7183SOL     OW33184   0.777   3.895   5.080  0.1817 -0.2963  0.5723
 7183SOL    HW133185   0.710   3.961   5.065  0.5017 -0.3953 -1.3074
 7183SOL    HW233186   0.793   3.853   4.995  0.3293  1.1376 -0.1137
 7184SOL     OW33187   4.316   2.411  15.026  0.4729  0.0052  0.2342
 7184SOL    HW133188   4.399   2.406  14.980  1.2751  2.1680  1.4756
 7184SOL    HW233189   4.263   2.464  14.967  1.2272 -0.3482 -0.7563
 7185SOL     OW33190   1.930   0.981   7.950 -0.5911 -0.2249 -0.1059
 7185SOL    HW133191   1.919   0.886   7.937  1.2244 -0.7270  2.2392
 7185SOL    HW233192   2.017   0.986   7.988  0.3169 -0.5127 -2.1107
 7186SOL     OW33193   0.798   3.512   3.432 -0.3257 -0.1444 -0.2954
 7186SOL    HW133194   0.733   3.551   3.373  1.2817  3.4347  0.2820
 7186SOL    HW233195   0.783   3.420   3.412  1.4780  0.0332 -2.5149
 7187SOL     OW33196   2.268   0.976   2.190 -0.1241  0.0820  0.1990
 7187SOL    HW133197   2.323   1.054   2.192 -0.3741  0.2373  1.1155
 7187SOL    HW233198   2.333   0.920   2.148 -0.0544  1.3171 -1.3282
 7188SOL     OW33199   2.472   4.467   8.140 -0.2229 -0.0920 -0.1120
 7188SOL    HW133200   2.470   4.462   8.045  0.4960  0.3964 -0.1542
 7188SOL    HW233201   2.424   4.546   8.164 -2.0311 -1.1900 -0.1160
 7189SOL     OW33202   4.711   1.435   0.862  0.5923  0.2113 -0.2263
 7189SOL    HW133203   4.644   1.477   0.808  0.6148  0.5096 -0.0226
 7189SOL    HW233204   4.657   1.427   0.940 -1.3375 -2.0662 -1.7925
 7190SOL     OW33205   0.170   0.033   7.300 -0.0154 -0.1657 -0.2434
 7190SOL    HW133206   0.215   0.040   7.384  1.1235 -0.1289 -0.8419
 7190SOL    HW233207   0.104   0.101   7.314 -0.8026 -1.0869  0.4458
 7191SOL     OW33208   0.618   1.054   6.331 -0.7954  0.2153  0.1643
 7191SOL    HW133209   0.570   0.978   6.366 -0.4305  0.9689  2.2753
 7191SOL    HW233210   0.682   1.007   6.278  0.4393  1.9686  0.1274
 7192SOL     OW33211   1.301   2.245   1.607  0.7908  0.5173  0.1223
 7192SOL    HW133212   1.310   2.313   1.540 -0.4054 -0.2174 -0.7844
 7192SOL    HW233213   1.392   2.216   1.606  0.3829 -0.7975  1.4362
 7193SOL     OW33214   0.211   4.528   5.162 -0.6091  0.1140 -0.0494
 7193SOL    HW133215   0.283   4.475   5.197 -0.9245 -0.4773 -0.3025
 7193SOL    HW233216   0.246   4.568   5.082  1.2697  1.1639  1.2720
 7194SOL     OW33217   3.837   2.542   4.424  0.5365 -0.0150 -0.3945
 7194SOL    HW133218   3.767   2.526   4.361 -0.1589 -2.6612  1.0631
 7194SOL    HW233219   3.801   2.495   4.499  1.9856 -0.3002  0.1162
 7195SOL     OW33220   3.505   3.229  13.363  0.1679  0.1019  0.5272
 7195SOL    HW133221   3.470   3.317  13.382 -0.9043 -0.2102  0.0016
 7195SOL    HW233222   3.508   3.216  13.268 -0.5720 -1.3300  0.7013
 7196SOL     OW33223   3.567   2.980   5.623 -0.1508 -0.0184 -0.4601
 7196SOL    HW133224   3.525   3.018   5.546  0.6053 -2.3809 -2.0437
 7196SOL    HW233225   3.488   2.945   5.663 -0.1385 -0.8232 -1.1327
 7197SOL     OW33226   3.637   2.995   3.514  0.4994  0.3544 -0.0717
 7197SOL    HW133227   3.665   3.082   3.543  0.6772 -0.9907  3.7696
 7197SOL    HW233228   3.711   2.934   3.516  1.5226  1.6108  0.5059
 7198SOL     OW33229   2.516   4.723   9.832  0.2066 -0.5476 -0.4057
 7198SOL    HW133230   2.439   0.014   9.880  1.1400  0.7450  0.2808
 7198SOL    HW233231   2.526   4.640   9.878  2.1449 -0.6625 -1.0381
 7199SOL     OW33232   0.225   2.183   7.032 -0.2123  0.0379 -0.3491
 7199SOL    HW133233   0.187   2.130   7.101 -1.1019  0.8202 -0.2379
 7199SOL    HW233234   0.153   2.246   7.035  0.4573  0.7942 -0.2310
 7200SOL     OW33235   0.696   3.290  16.832  0.4210 -0.4078 -0.2740
 7200SOL    HW133236   0.639   3.325  16.764  1.4300 -0.1985 -1.0110
 7200SOL    HW233237   0.736   3.374  16.857 -0.3748  0.6042 -2.3970
 7201SOL     OW33238   0.004   2.338   7.034  0.0726  0.1583 -0.1133
 7201SOL    HW133239   4.699   2.312   7.115 -0.9367  1.2274 -0.3173
 7201SOL    HW233240   0.039   2.423   7.060 -1.3613 -0.0777  2.5331
 7202SOL     OW33241   3.014   2.000   7.128 -0.3150 -0.2765 -0.2455
 7202SOL    HW133242   3.091   1.950   7.103  0.7428  1.8032 -1.1035
 7202SOL    HW233243   2.986   1.960   7.211  0.5850 -0.3800  0.0031
 7203SOL     OW33244   3.240   1.143   5.626  0.4185 -0.0027 -0.2897
 7203SOL    HW133245   3.276   1.057   5.603  0.9866  0.5056 -1.3009
 7203SOL    HW233246   3.197   1.123   5.709  0.2995  2.3936  0.2307
 7204SOL     OW33247   3.108   4.048   7.829 -0.4392  0.0441 -0.2661
 7204SOL    HW133248   3.182   4.072   7.773 -0.3761  0.9928  0.2336
 7204SOL    HW233249   3.130   3.955   7.840  0.1692  0.1823 -0.3000
 7205SOL     OW33250   4.733   4.549  17.077 -0.3470  0.0817 -0.7427
 7205SOL    HW133251   4.724   4.635  17.118  0.2960 -0.1886 -0.0402
 7205SOL    HW233252   4.649   4.503  17.073  0.7683 -1.7972 -2.5380
 7206SOL     OW33253   3.104   4.258  11.528  0.4786  0.4551  0.6008
 7206SOL    HW133254   3.099   4.162  11.523  0.6282  0.4860 -0.1259
 7206SOL    HW233255   3.084   4.276  11.620 -0.7029  0.2239  0.3901
 7207SOL     OW33256   2.704   2.748   3.551 -0.1389 -0.1523  0.0200
 7207SOL    HW133257   2.791   2.786   3.564 -0.2726 -0.3888  1.5428
 7207SOL    HW233258   2.722   2.687   3.480  3.2024  1.0253 -0.1397
 7208SOL     OW33259   2.945   3.445   9.447 -0.5053  0.1311  0.6409
 7208SOL    HW133260   2.896   3.397   9.380  0.0808  1.9570 -1.0575
 7208SOL    HW233261   2.885   3.415   9.517 -1.0406 -0.0240  0.1178
 7209SOL     OW33262   2.453   4.103   7.068 -0.3970 -0.0384 -0.1801
 7209SOL    HW133263   2.497   4.048   7.003 -0.2907 -0.2558  0.0758
 7209SOL    HW233264   2.364   4.093   7.035 -0.5180  0.7717 -0.0982
 7210SOL     OW33265   4.621   3.424   8.417 -0.0796  0.6063  0.8453
 7210SOL    HW133266   4.616   3.336   8.378 -1.1027  0.0356  2.2301
 7210SOL    HW233267   4.590   3.477   8.345  1.9630  2.1806  1.1262
 7211SOL     OW33268   1.067   2.539   3.904 -0.1901 -0.1393 -0.2494
 7211SOL    HW133269   1.088   2.499   3.988 -0.0167 -0.2917 -0.3660
 7211SOL    HW233270   1.085   2.631   3.923  1.2036 -0.4250 -0.1979
 7212SOL     OW33271   0.271   0.605   2.413  0.6183  0.2107  0.7500
 7212SOL    HW133272   0.227   0.521   2.416 -0.2411  0.6645  0.8262
 7212SOL    HW233273   0.198   0.651   2.373 -0.2034 -2.4086 -0.7450
 7213SOL     OW33274   2.717   2.582  16.348 -0.6339 -0.1986 -0.3340
 7213SOL    HW133275   2.718   2.510  16.285  3.9333 -0.3084 -0.1643
 7213SOL    HW233276   2.795   2.635  16.329  0.6930 -2.8247 -2.1699
 7214SOL     OW33277   3.372   1.486   2.746 -0.2059 -0.0988 -0.2570
 7214SOL    HW133278   3.359   1.555   2.811  0.1905  1.0479 -1.3804
 7214SOL    HW233279   3.467   1.491   2.757  0.0358  0.7986 -2.6670
 7215SOL     OW33280   2.731   2.837   2.855  0.1880 -0.1320 -0.6070
 7215SOL    HW133281   2.823   2.861   2.863 -0.6990  2.6933  1.2112
 7215SOL    HW233282   2.702   2.927   2.842 -0.1306 -0.3939 -1.7352
 7216SOL     OW33283   2.125   0.065  10.311 -0.4560 -0.0326 -0.1181
 7216SOL    HW133284   2.169   0.113  10.381 -1.6407  0.3382  0.3617
 7216SOL    HW233285   2.183   4.728  10.302  0.9001  0.7070  2.2285
 7217SOL     OW33286   0.161   2.031  13.791 -0.0326  0.1144  0.4631
 7217SOL    HW133287   0.181   2.119  13.760 -1.0746 -0.4385 -1.7319
 7217SOL    HW233288   0.222   2.039  13.865 -0.4494  2.4303  0.5552
 7218SOL     OW33289   4.227   1.959  11.691  0.2005 -0.0390  0.2758
 7218SOL    HW133290   4.305   1.903  11.683 -0.0231 -0.7825  3.3592
 7218SOL    HW233291   4.201   1.983  11.602  0.5254 -0.1421  0.1534
 7219SOL     OW33292   1.920   1.431  12.281  0.2878 -0.1863  0.0238
 7219SOL    HW133293   1.919   1.343  12.244 -0.0520 -0.6532  1.1329
 7219SOL    HW233294   2.012   1.458  12.285 -0.1991  1.6701 -1.4392
 7220SOL     OW33295   3.780   0.915   7.048 -0.2486 -0.4342  0.2083
 7220SOL    HW133296   3.789   0.838   7.104 -0.7861 -0.0897  0.7550
 7220SOL    HW233297   3.865   0.953   7.066  0.6168 -2.5081  0.5331
 7221SOL     OW33298   1.461   4.156   7.306 -0.3671 -0.0611 -0.3609
 7221SOL    HW133299   1.409   4.076   7.304  0.3347 -0.5130 -0.3836
 7221SOL    HW233300   1.516   4.145   7.384  0.0543 -0.3289 -0.6978
 7222SOL     OW33301   3.768   2.170   9.623  0.0794  0.3829  0.1531
 7222SOL    HW133302   3.717   2.164   9.543 -0.8492 -1.0591  0.8441
 7222SOL    HW233303   3.853   2.200   9.592 -0.2808 -0.7881 -1.9361
 7223SOL     OW33304   0.699   2.128   0.659  0.7211  0.0737  0.0325
 7223SOL    HW133305   0.706   2.210   0.611  0.0506 -0.9882 -1.8819
 7223SOL    HW233306   0.700   2.066   0.586 -0.5961  0.9795 -0.7680
 7224SOL     OW33307   0.995   2.570   6.144  0.2680  0.0178  0.4403
 7224SOL    HW133308   1.031   2.642   6.093  0.3726  1.5578  2.7065
 7224SOL    HW233309   0.912   2.557   6.098  0.7285  3.2297 -1.2347
 7225SOL     OW33310   1.462   0.753  12.076 -0.7645 -0.6611 -0.1385
 7225SOL    HW133311   1.417   0.732  12.157 -0.8862  0.1772  0.0159
 7225SOL    HW233312   1.530   0.810  12.111 -1.3773 -0.3050  0.4648
 7226SOL     OW33313   0.375   2.054   4.881  0.1162 -0.7361  0.5492
 7226SOL    HW133314   0.325   2.016   4.953 -1.7305  0.3036 -0.1857
 7226SOL    HW233315   0.453   2.085   4.927  0.7505  1.9408 -2.2962
 7227SOL     OW33316   4.431   3.350   2.319  0.0388  0.2252 -0.3082
 7227SOL    HW133317   4.354   3.383   2.272  0.3142 -0.4461 -1.2314
 7227SOL    HW233318   4.422   3.255   2.314  0.8824  0.0622  1.4171
 7228SOL     OW33319   0.488   0.553   4.462  0.2475 -0.7253  0.7052
 7228SOL    HW133320   0.536   0.510   4.392 -1.1465  0.1359 -0.7909
 7228SOL    HW233321   0.488   0.493   4.536  1.4047 -2.7931 -1.0125
 7229SOL     OW33322   1.814   1.173   9.620  0.7262 -0.1696  0.0852
 7229SOL    HW133323   1.855   1.113   9.683 -0.1024  0.2058  0.9881
 7229SOL    HW233324   1.889   1.230   9.602 -0.2445  1.3928  1.0130
 7230SOL     OW33325   3.815   2.234   7.574  0.3127 -0.0492 -0.4643
 7230SOL    HW133326   3.766   2.261   7.497  0.8592  0.3281 -0.6836
 7230SOL    HW233327   3.893   2.186   7.546 -0.5361 -0.7704 -1.5770
 7231SOL     OW33328   3.332   4.622   6.099  0.0019  0.0502 -0.2186
 7231SOL    HW133329   3.364   4.706   6.066  0.7392  0.1331  0.7080
 7231SOL    HW233330   3.238   4.638   6.104  0.1613  0.2651  1.9317
 7232SOL     OW33331   4.481   0.439   4.664  0.3826  0.1001  0.2903
 7232SOL    HW133332   4.502   0.410   4.753 -0.5183 -0.6158  0.2745
 7232SOL    HW233333   4.547   0.396   4.609  0.0509 -0.2711  0.1843
 7233SOL     OW33334   3.438   2.376  15.270  0.0260  0.3012  0.4672
 7233SOL    HW133335   3.369   2.342  15.326  0.3516  1.7276  1.7479
 7233SOL    HW233336   3.396   2.459  15.246 -0.5646  0.0420  0.6104
 7234SOL     OW33337   0.202   2.421   4.230  0.0708  0.0935  0.2585
 7234SOL    HW133338   0.118   2.382   4.255  0.8533 -0.6871  1.6803
 7234SOL    HW233339   0.260   2.345   4.229 -1.0651 -0.7868  2.1194
 7235SOL     OW33340   0.151   3.301   3.205 -0.3231  0.5487 -0.2496
 7235SOL    HW133341   0.190   3.321   3.290  0.3482  1.2104 -0.7168
 7235SOL    HW233342   0.102   3.221   3.225 -0.6388  0.7308 -0.2926
 7236SOL     OW33343   4.335   2.343   9.244 -0.4388 -0.0452 -0.0192
 7236SOL    HW133344   4.342   2.248   9.254 -0.3860 -0.1446 -1.0080
 7236SOL    HW233345   4.338   2.375   9.334  0.6200 -1.1501  0.3334
 7237SOL     OW33346   3.160   4.555  12.878  1.0757  0.6326 -0.2937
 7237SOL    HW133347   3.250   4.585  12.866  1.3617  0.3628  1.1361
 7237SOL    HW233348   3.161   4.521  12.789 -0.4016 -2.1101  0.7151
 7238SOL     OW33349   4.690   1.782   5.329  0.0823 -0.0878 -0.1576
 7238SOL    HW133350   0.024   1.836   5.361  1.2026 -1.8054  0.1642
 7238SOL    HW233351   4.718   1.696   5.361  0.6680  0.0691 -0.2331
 7239SOL     OW33352   3.128   4.652   1.539 -0.5284 -0.0769  0.4206
 7239SOL    HW133353   3.171   4.587   1.594 -0.5886  0.9185  1.6585
 7239SOL    HW233354   3.041   4.647   1.577 -0.6745  2.8727  0.5251
 7240SOL     OW33355   0.547   4.422   7.902  0.1215  0.1226 -0.2325
 7240SOL    HW133356   0.470   4.399   7.850  0.2810 -0.7487 -0.0945
 7240SOL    HW233357   0.567   4.506   7.861 -1.3609  0.9350  0.7279
 7241SOL     OW33358   3.927   1.556   1.801  0.6256 -0.3371  0.0502
 7241SOL    HW133359   3.895   1.646   1.803  0.1618 -0.5460  1.8073
 7241SOL    HW233360   4.017   1.568   1.770  1.0959 -2.8507  0.4100
 7242SOL     OW33361   3.472   1.862   7.766  0.4505 -0.0681 -0.2090
 7242SOL    HW133362   3.486   1.893   7.855 -0.5852  2.1297 -0.7905
 7242SOL    HW233363   3.377   1.871   7.757  0.5454 -0.4541 -1.6851
 7243SOL     OW33364   2.919   0.556   9.490 -0.3607  0.0950  0.1819
 7243SOL    HW133365   2.858   0.579   9.420  1.2468  1.2057 -0.8432
 7243SOL    HW233366   2.857   0.503   9.540 -0.2990 -0.7688 -0.6589
 7244SOL     OW33367   3.670   3.865   4.911  0.0489  0.3659  0.3019
 7244SOL    HW133368   3.762   3.866   4.883 -0.3824  0.4989 -1.0968
 7244SOL    HW233369   3.656   3.956   4.938  0.1902 -0.0136  1.6688
 7245SOL     OW33370   4.483   1.034   6.022 -0.3125 -0.3897 -0.3872
 7245SOL    HW133371   4.504   1.083   6.101  1.5203  1.7833 -2.1863
 7245SOL    HW233372   4.409   1.087   5.991 -0.7396  0.5011  2.1865
 7246SOL     OW33373   0.926   1.975   8.886  0.3212  0.1597  0.1479
 7246SOL    HW133374   1.015   1.950   8.910  0.1933 -1.5584 -1.2003
 7246SOL    HW233375   0.902   2.047   8.945 -0.5090  0.8318 -1.0047
 7247SOL     OW33376   3.921   3.484  17.044  0.0551  0.0259 -0.3252
 7247SOL    HW133377   3.955   3.571  17.024 -0.3081  0.2595  0.0764
 7247SOL    HW233378   3.998   3.428  17.053 -0.7997 -0.9653  0.9392
 7248SOL     OW33379   4.036   4.493   2.963  0.5155 -0.6295 -0.6335
 7248SOL    HW133380   4.002   4.464   3.047 -2.3282  0.9321 -1.2585
 7248SOL    HW233381   3.994   4.436   2.898  3.1524 -1.9583 -1.2107
 7249SOL     OW33382   3.471   4.370   6.868  0.2814 -0.0895  0.2054
 7249SOL    HW133383   3.513   4.453   6.893  1.6262 -0.8272  0.3889
 7249SOL    HW233384   3.485   4.322   6.950  0.3571  0.1225  0.3179
 7250SOL     OW33385   2.563   1.307  16.686  0.2712 -0.1893 -0.1752
 7250SOL    HW133386   2.505   1.296  16.761  1.2179 -1.7417  0.3321
 7250SOL    HW233387   2.543   1.394  16.651  0.9757  0.1343  0.2090
 7251SOL     OW33388   2.613   1.179  14.682  0.1304 -0.1581  0.2173
 7251SOL    HW133389   2.676   1.148  14.617 -0.3684 -1.5760  0.4042
 7251SOL    HW233390   2.673   1.214  14.748 -1.0638  1.0987  0.6192
 7252SOL     OW33391   2.802   0.040   1.365 -0.6297 -0.3694  0.0196
 7252SOL    HW133392   2.792   4.736   1.450  0.7911  1.0442  0.9027
 7252SOL    HW233393   2.837   4.705   1.315 -2.4605 -0.1379 -1.6106
 7253SOL     OW33394   0.036   0.272   5.899  0.8729  0.5542 -0.1660
 7253SOL    HW133395   0.059   0.187   5.864 -3.6239 -0.0194 -1.7671
 7253SOL    HW233396   4.721   0.295   5.823  1.6051 -0.7382 -1.0523
 7254SOL     OW33397   3.161   0.810   7.543 -0.1985  0.0699 -0.1528
 7254SOL    HW133398   3.104   0.877   7.504  0.6264  0.8706  0.0239
 7254SOL    HW233399   3.234   0.854   7.587 -1.8412  1.1554  1.5118
 7255SOL     OW33400   3.476   0.918   3.926  0.4624  0.6566  0.5945
 7255SOL    HW133401   3.479   0.948   4.017 -0.6124 -1.1982  1.2454
 7255SOL    HW233402   3.413   0.847   3.929  1.3507 -0.0833  1.8491
 7256SOL     OW33403   0.535   1.979   4.219  0.1476 -0.1763 -0.5527
 7256SOL    HW133404   0.614   2.033   4.221 -0.1956  0.3259 -0.4050
 7256SOL    HW233405   0.524   1.959   4.312  1.1526 -2.0445 -0.8410
 7257SOL     OW33406   2.048   3.519   7.693  0.1492  0.0808  0.6638
 7257SOL    HW133407   2.013   3.596   7.737  1.1685  1.9346 -1.7309
 7257SOL    HW233408   2.059   3.459   7.767 -0.7421 -0.5266  0.3161
 7258SOL     OW33409   4.300   2.400   8.168 -0.0068  0.1087  0.0697
 7258SOL    HW133410   4.261   2.447   8.242 -1.6527  1.5157 -1.6935
 7258SOL    HW233411   4.227   2.345   8.142  1.0890 -1.2838 -0.0687
 7259SOL     OW33412   1.546   3.246   7.867  0.1958  0.1539  0.2221
 7259SOL    HW133413   1.606   3.249   7.792 -0.7074  0.8467 -0.4814
 7259SOL    HW233414   1.481   3.302   7.826 -0.3607 -1.4784 -1.1331
 7260SOL     OW33415   2.022   1.535   8.821  0.0352  0.2361  0.5112
 7260SOL    HW133416   1.975   1.501   8.745 -0.6578  1.3944  0.4258
 7260SOL    HW233417   2.087   1.589   8.776 -0.2237  0.4819  0.4360
 7261SOL     OW33418   4.373   1.542   5.377  0.1849 -0.6075 -0.3548
 7261SOL    HW133419   4.294   1.534   5.430  2.1216  0.0292  2.6376
 7261SOL    HW233420   4.412   1.616   5.424  1.4910 -0.3982 -1.7499
 7262SOL     OW33421   1.756   0.507   5.052  0.5882 -0.0689  0.1749
 7262SOL    HW133422   1.767   0.416   5.026  0.4216 -0.1609  0.4247
 7262SOL    HW233423   1.840   0.551   5.038  0.7049  0.2345  1.8514
 7263SOL     OW33424   3.233   3.759   9.258 -0.7680  0.3648  0.4276
 7263SOL    HW133425   3.301   3.791   9.317  0.2615  0.2263 -0.6795
 7263SOL    HW233426   3.244   3.824   9.189  0.0914  1.4722  1.6156
 7264SOL     OW33427   2.639   2.702   8.292 -0.1904 -0.4821 -0.3670
 7264SOL    HW133428   2.575   2.649   8.340  2.1226 -2.0931  0.9237
 7264SOL    HW233429   2.704   2.713   8.361  0.0159  1.9036 -0.9555
 7265SOL     OW33430   3.600   2.978  14.427 -0.2590 -0.4444  0.3178
 7265SOL    HW133431   3.567   2.972  14.516 -0.2382 -1.7341  0.2298
 7265SOL    HW233432   3.629   3.069  14.434 -1.0191 -0.1227 -0.6992
 7266SOL     OW33433   3.231   0.536   2.976  0.2348  0.6945 -0.0470
 7266SOL    HW133434   3.147   0.533   2.931  0.1338  1.5358  0.0825
 7266SOL    HW233435   3.292   0.544   2.902 -1.5340 -0.2236 -1.6068
 7267SOL     OW33436   4.642   2.960   2.972 -0.8478  0.3172 -0.2495
 7267SOL    HW133437   4.678   3.015   2.902  1.8652 -0.3193  0.6608
 7267SOL    HW233438   4.697   2.984   3.046 -2.3148 -1.5695  1.4494
 7268SOL     OW33439   2.894   3.336  10.225  0.1652  0.3464  0.1223
 7268SOL    HW133440   2.964   3.374  10.279  0.7922  1.8371 -1.7179
 7268SOL    HW233441   2.821   3.365  10.280 -2.2173 -0.6229 -2.5724
 7269SOL     OW33442   0.718   1.381   5.873 -0.0144  0.0869  0.1803
 7269SOL    HW133443   0.631   1.359   5.907 -0.1346 -1.5399 -1.1623
 7269SOL    HW233444   0.774   1.346   5.943  0.0372  0.0113  0.1008
 7270SOL     OW33445   3.836   1.701   5.532  0.4028  0.1969  0.1612
 7270SOL    HW133446   3.885   1.778   5.560 -1.0122  0.8191  0.9143
 7270SOL    HW233447   3.806   1.664   5.615  1.9800  0.5908  0.9021
 7271SOL     OW33448   2.725   1.125   0.639  0.5147  0.3972  0.2015
 7271SOL    HW133449   2.776   1.162   0.567 -0.0615  1.1754  0.1950
 7271SOL    HW233450   2.723   1.031   0.621 -0.4327  0.8158 -1.8276
 7272SOL     OW33451   4.440   3.649   9.725 -0.3391 -0.7378 -0.4666
 7272SOL    HW133452   4.399   3.582   9.670  0.0939 -0.7516 -0.7645
 7272SOL    HW233453   4.455   3.603   9.808 -0.9226 -0.3893 -0.1616
 7273SOL     OW33454   1.017   0.433   5.330  0.0798  0.4730 -0.4696
 7273SOL    HW133455   0.981   0.407   5.414 -3.5344  0.7460 -1.9400
 7273SOL    HW233456   0.973   0.513   5.303 -0.6291  0.7608  1.5458
 7274SOL     OW33457   1.680   1.035   5.218 -0.7439 -0.0846 -0.3359
 7274SOL    HW133458   1.598   0.986   5.226 -1.6467  1.5514  0.3741
 7274SOL    HW233459   1.706   1.041   5.126 -0.8798  0.5324 -0.3294
 7275SOL     OW33460   1.211   1.176  13.010  0.0893 -0.0481  0.0191
 7275SOL    HW133461   1.193   1.247  13.071 -1.2858  0.5684 -1.1222
 7275SOL    HW233462   1.140   1.183  12.947  1.8111  0.8099 -1.8414
 7276SOL     OW33463   4.030   1.422   3.384  0.3649 -0.0740  0.1388
 7276SOL    HW133464   4.016   1.498   3.327 -0.1965  1.6657  2.5931
 7276SOL    HW233465   3.942   1.402   3.413  0.8382 -0.7252  1.1310
 7277SOL     OW33466   1.724   0.454  16.404  0.6470 -0.1033  0.6487
 7277SOL    HW133467   1.798   0.507  16.377 -1.2715  0.5172 -3.4812
 7277SOL    HW233468   1.661   0.453  16.332  1.4208  2.4597 -0.0585
 7278SOL     OW33469   3.170   0.115   6.941  0.4759  0.4267  0.6974
 7278SOL    HW133470   3.083   0.156   6.944  0.6886  0.8677  0.8465
 7278SOL    HW233471   3.147   0.042   6.998  1.3577 -0.7413 -0.4787
 7279SOL     OW33472   4.050   3.806  10.786 -0.4239 -0.2130  0.4011
 7279SOL    HW133473   4.023   3.867  10.855 -1.3718 -1.6867  1.3338
 7279SOL    HW233474   3.980   3.740  10.791 -0.3644 -0.4076 -1.2339
 7280SOL     OW33475   2.286   1.448  16.620  0.2006 -0.1320 -0.0653
 7280SOL    HW133476   2.204   1.460  16.669  0.3648  1.3051 -0.1433
 7280SOL    HW233477   2.276   1.360  16.584 -3.3154  0.5873 -0.8582
 7281SOL     OW33478   0.568   4.261   5.530  0.4173  0.1666  0.4696
 7281SOL    HW133479   0.515   4.185   5.553 -0.2335  0.8085  1.1192
 7281SOL    HW233480   0.646   4.220   5.493 -0.3265 -2.8220  2.1880
 7282SOL     OW33481   1.305   4.022   8.089  0.0732 -0.0008 -0.2323
 7282SOL    HW133482   1.225   4.073   8.096  0.8442  1.4301 -1.8689
 7282SOL    HW233483   1.354   4.092   8.045  0.1975  0.4244  0.5671
 7283SOL     OW33484   2.868   3.379   8.254  0.4358  0.7534  0.1182
 7283SOL    HW133485   2.824   3.428   8.324  1.3817 -3.0151  3.3359
 7283SOL    HW233486   2.815   3.299   8.249 -2.4260  2.4949  2.2903
 7284SOL     OW33487   0.459   4.190  17.164  0.3583  0.0411  0.3446
 7284SOL    HW133488   0.431   4.100  17.182 -2.3625  0.4797 -1.6898
 7284SOL    HW233489   0.374   4.232  17.179 -1.8671 -4.1136 -0.6351
 7285SOL     OW33490   2.235   1.708  15.322 -0.0668  0.0332  0.1116
 7285SOL    HW133491   2.230   1.615  15.346  2.4847  0.5432  2.6078
 7285SOL    HW233492   2.233   1.708  15.226 -0.0143 -0.3145  0.1087
 7286SOL     OW33493   4.638   3.324  10.138 -0.2720 -0.1348 -0.5232
 7286SOL    HW133494   4.610   3.242  10.096 -1.9353  0.1350  0.0479
 7286SOL    HW233495   4.666   3.293  10.225 -0.4053 -2.0438 -1.1549
 7287SOL     OW33496   1.961   2.021   6.258 -0.0313 -0.4553 -0.4956
 7287SOL    HW133497   1.987   2.063   6.177 -0.8839 -0.2346 -0.6490
 7287SOL    HW233498   1.913   2.092   6.301 -1.6063 -1.7147 -0.1432
 7288SOL     OW33499   0.052   1.053  17.212  0.1824  0.2745 -0.2532
 7288SOL    HW133500   4.717   1.080  17.157  1.3159  1.6393 -1.1072
 7288SOL    HW233501   0.014   1.088  17.293  1.8473  0.8653  0.2667
 7289SOL     OW33502   2.314   4.027   6.075 -0.1805  0.1164  0.2304
 7289SOL    HW133503   2.356   3.955   6.027  0.2238  0.2678  0.3629
 7289SOL    HW233504   2.366   4.031   6.154  0.5859 -1.0262 -0.2104
 7290SOL     OW33505   2.783   0.846   9.409 -0.1226 -0.0165  0.5018
 7290SOL    HW133506   2.783   0.813   9.499 -0.4271 -0.3343  0.3897
 7290SOL    HW233507   2.873   0.877   9.409 -1.1738  3.0384  0.4113
 7291SOL     OW33508   4.460   0.567   9.140  0.0585 -0.4057 -0.2718
 7291SOL    HW133509   4.540   0.533   9.180 -0.1356 -1.1822 -0.5437
 7291SOL    HW233510   4.481   0.621   9.063  0.2627  0.2851  0.2717
 7292SOL     OW33511   1.904   0.689   0.787  0.0227  0.0271  0.0777
 7292SOL    HW133512   1.975   0.631   0.816 -0.4945 -0.0451  1.2150
 7292SOL    HW233513   1.844   0.626   0.748  0.5157 -0.1606 -0.3879
 7293SOL     OW33514   4.367   2.313   2.743  0.6027  0.5140 -0.4708
 7293SOL    HW133515   4.281   2.297   2.705  0.3032  1.6102 -0.2744
 7293SOL    HW233516   4.425   2.326   2.668 -1.2977  0.8357 -1.8594
 7294SOL     OW33517   4.128   3.952   8.141 -0.0273  0.0029 -0.1051
 7294SOL    HW133518   4.213   3.970   8.182  0.6589  0.3120 -1.6707
 7294SOL    HW233519   4.130   3.856   8.143  1.6459  0.0470  0.8014
 7295SOL     OW33520   3.762   1.937   1.433 -0.3873  0.2283 -0.6319
 7295SOL    HW133521   3.839   1.890   1.466 -1.5678 -0.4685  1.1299
 7295SOL    HW233522   3.689   1.879   1.455  0.6968 -1.2185 -0.8565
 7296SOL     OW33523   4.145   0.881   9.010  0.2450  0.0272 -0.0044
 7296SOL    HW133524   4.176   0.892   9.100 -0.9364  2.1185  0.1393
 7296SOL    HW233525   4.225   0.852   8.967  0.3920 -1.0584  1.0026
 7297SOL     OW33526   0.818   4.259   8.377 -0.2663 -0.2009 -0.5475
 7297SOL    HW133527   0.846   4.343   8.342  1.9766  0.3887  2.6958
 7297SOL    HW233528   0.889   4.206   8.342 -0.6118 -2.0953  1.6288
 7298SOL     OW33529   2.614   0.596   6.733  0.2446  0.4185 -0.3435
 7298SOL    HW133530   2.569   0.512   6.745  0.6205  0.1582 -0.7975
 7298SOL    HW233531   2.555   0.645   6.791 -3.1565 -2.8436 -1.0068
 7299SOL     OW33532   2.086   3.704   1.932 -0.1280  0.1625  0.4206
 7299SOL    HW133533   2.138   3.671   1.859 -2.0212  1.8775 -1.7007
 7299SOL    HW233534   2.081   3.631   1.994  1.5974  1.4848  2.1070
 7300SOL     OW33535   3.365   3.549   4.100 -0.1849 -0.3114  0.2638
 7300SOL    HW133536   3.303   3.573   4.031 -0.7387 -3.0401 -0.1863
 7300SOL    HW233537   3.345   3.612   4.170  2.5200 -0.2452  1.0026
 7301SOL     OW33538   2.724   1.596   7.512  0.1686 -0.3771 -0.3994
 7301SOL    HW133539   2.787   1.572   7.444 -0.4426 -0.2216 -1.0119
 7301SOL    HW233540   2.653   1.642   7.467 -0.0881 -1.1269 -0.7543
 7302SOL     OW33541   0.371   4.279   5.045 -0.3157 -0.8876 -0.3108
 7302SOL    HW133542   0.356   4.305   5.136 -0.2072  0.2047 -0.6074
 7302SOL    HW233543   0.280   4.255   5.028 -0.5257 -1.0233  1.0205
 7303SOL     OW33544   2.956   1.937  15.612 -0.2674 -0.1349  0.5783
 7303SOL    HW133545   3.029   1.933  15.550 -0.6110  0.6303  0.1169
 7303SOL    HW233546   2.893   1.988  15.560 -1.1335  0.8755  2.6536
 7304SOL     OW33547   1.478   0.304   8.700 -0.0573 -0.0895 -0.4984
 7304SOL    HW133548   1.567   0.272   8.686 -0.1604 -0.8941  0.6353
 7304SOL    HW233549   1.427   0.230   8.668  1.3423 -0.8056 -1.0706
 7305SOL     OW33550   3.198   3.114   6.999 -0.3040  0.1311 -0.0944
 7305SOL    HW133551   3.221   3.044   7.060  0.9366  1.1597  0.6350
 7305SOL    HW233552   3.188   3.189   7.057 -3.5403  1.5558 -2.5127
 7306SOL     OW33553   4.710   0.208   7.349 -0.3717  0.2348 -0.3685
 7306SOL    HW133554   4.640   0.195   7.413 -0.8844  0.5532 -0.8642
 7306SOL    HW233555   4.711   0.303   7.351  0.7504  0.2276 -0.9729
 7307SOL     OW33556   2.561   0.396   1.810 -0.1230 -0.0860  0.1377
 7307SOL    HW133557   2.585   0.342   1.885 -2.2510 -0.2020  0.7357
 7307SOL    HW233558   2.647   0.427   1.780 -0.4340 -1.3839 -2.1046
 7308SOL     OW33559   1.032   0.460  13.895 -0.1633 -0.0512  0.3085
 7308SOL    HW133560   1.061   0.432  13.981  3.0543  0.9611 -0.4292
 7308SOL    HW233561   1.020   0.378  13.848 -3.0125  0.4177  0.2079
 7309SOL     OW33562   4.367   3.200   3.228 -0.0165  0.3388 -0.0649
 7309SOL    HW133563   4.335   3.122   3.272 -0.9053  0.0259 -1.2656
 7309SOL    HW233564   4.423   3.235   3.297 -1.9023 -0.0209  1.6390
 7310SOL     OW33565   4.447   0.806   7.410 -0.4920  0.2760  0.1760
 7310SOL    HW133566   4.422   0.784   7.321 -2.8556  0.9832  0.6508
 7310SOL    HW233567   4.542   0.802   7.412 -0.4704  0.9986  0.3009
 7311SOL     OW33568   4.373   1.672   3.545  0.1987 -0.2500  0.1987
 7311SOL    HW133569   4.413   1.609   3.484  2.3758 -0.1367  1.5166
 7311SOL    HW233570   4.456   1.702   3.584  1.5690 -1.3125 -1.8671
 7312SOL     OW33571   1.878   3.246   1.758  0.8855 -0.1553 -0.4935
 7312SOL    HW133572   1.851   3.281   1.842  0.7908  0.0493 -0.6085
 7312SOL    HW233573   1.971   3.271   1.760  0.1626  2.5694 -0.8882
 7313SOL     OW33574   0.243   0.135   1.589 -0.4634  0.3179  0.4608
 7313SOL    HW133575   0.153   0.123   1.559 -1.0227 -0.5190  2.4430
 7313SOL    HW233576   0.233   0.076   1.664  0.4741  0.7850  0.9648
 7314SOL     OW33577   0.461   0.626   7.529 -0.1492  0.1519  0.3222
 7314SOL    HW133578   0.396   0.567   7.568 -1.2511  1.2077  0.0799
 7314SOL    HW233579   0.486   0.574   7.453 -0.4834 -1.3148  1.2037
 7315SOL     OW33580   0.486   1.182  11.822  0.7110 -0.1193 -0.1037
 7315SOL    HW133581   0.525   1.240  11.757  0.2714  0.7522  0.4052
 7315SOL    HW233582   0.429   1.122  11.774 -0.5292  0.2263  0.9369
 7316SOL     OW33583   3.801   1.129  17.038  0.3523 -0.3460 -0.1333
 7316SOL    HW133584   3.892   1.156  17.022 -0.5612  2.3733 -0.8825
 7316SOL    HW233585   3.822   1.068  17.108  0.5997 -0.4035 -0.2569
 7317SOL     OW33586   4.661   1.824   7.389  0.1017 -0.2982  0.1442
 7317SOL    HW133587   4.587   1.792   7.337 -0.5675 -0.7402  1.3604
 7317SOL    HW233588   4.615   1.841   7.472  2.6380 -1.3958  1.7639
 7318SOL     OW33589   4.138   3.340   4.044 -0.4316  0.1907  0.3866
 7318SOL    HW133590   4.218   3.309   4.086 -0.0203 -0.4791 -0.8697
 7318SOL    HW233591   4.078   3.323   4.117  0.5809 -0.5868  1.0416
 7319SOL     OW33592   3.961   4.366   0.572  0.6900  0.2162  0.0678
 7319SOL    HW133593   4.033   4.418   0.536  0.7392 -0.2119 -0.4435
 7319SOL    HW233594   3.891   4.432   0.574 -0.6476 -1.2110 -0.0935
 7320SOL     OW33595   4.184   2.215   3.241  0.0167  0.4172  0.1573
 7320SOL    HW133596   4.146   2.298   3.270  0.4235  1.1596 -1.4457
 7320SOL    HW233597   4.150   2.208   3.152 -0.8420  1.5274  0.3860
 7321SOL     OW33598   3.293   2.385   5.352 -0.5944  0.7620  0.1063
 7321SOL    HW133599   3.381   2.368   5.319 -0.8482  1.2098 -0.8180
 7321SOL    HW233600   3.271   2.296   5.379  1.4672  0.7533  1.6886
 7322SOL     OW33601   0.095   3.148   6.993  0.5036  0.0176  0.4172
 7322SOL    HW133602   0.160   3.096   7.039 -1.0822 -1.8598  0.5436
 7322SOL    HW233603   0.069   3.213   7.059  0.8463 -0.7942  1.3511
 7323SOL     OW33604   3.725   3.798  10.016 -0.2129 -0.5290 -0.0958
 7323SOL    HW133605   3.732   3.813  10.111 -0.8332  2.7489 -0.5492
 7323SOL    HW233606   3.797   3.856   9.992 -0.5904  1.1724  2.8304
 7324SOL     OW33607   3.921   0.783   0.806  0.0301  0.1293  0.1041
 7324SOL    HW133608   3.914   0.715   0.738 -2.4486  0.1066  0.3844
 7324SOL    HW233609   3.854   0.747   0.864 -0.3022 -1.2849 -1.1480
 7325SOL     OW33610   1.143   4.347   4.707 -0.1890 -0.3273  0.1851
 7325SOL    HW133611   1.135   4.435   4.742 -2.1471  0.2326 -1.6740
 7325SOL    HW233612   1.154   4.295   4.786 -0.9806  1.1810  1.2776
 7326SOL     OW33613   1.030   0.141   4.591  0.6553 -0.0858 -0.1501
 7326SOL    HW133614   0.950   0.192   4.579  0.2670 -0.9907 -1.3103
 7326SOL    HW233615   1.018   0.115   4.683 -2.3355  0.3974 -0.4085
 7327SOL     OW33616   3.430   3.901  10.494  0.0480  0.2955 -0.7740
 7327SOL    HW133617   3.475   3.969  10.444  1.1581  0.6726  0.7212
 7327SOL    HW233618   3.338   3.917  10.474 -0.7622  1.1773  3.5618
 7328SOL     OW33619   2.350   0.969  11.242 -0.0525 -0.5412  0.4894
 7328SOL    HW133620   2.441   0.955  11.267  0.0815 -1.9592 -0.7430
 7328SOL    HW233621   2.361   1.061  11.218  0.9370 -0.6083  0.6861
 7329SOL     OW33622   0.042   3.515   7.654 -0.0306  0.4129  0.4216
 7329SOL    HW133623   4.716   3.551   7.714  2.9208  1.9893  2.6839
 7329SOL    HW233624   0.007   3.431   7.623 -0.8376  0.1859  1.9365
 7330SOL     OW33625   2.247   2.817  14.397 -0.0958 -0.4990  0.2974
 7330SOL    HW133626   2.289   2.736  14.426  3.9675  1.8572  0.8705
 7330SOL    HW233627   2.301   2.890  14.426 -0.9842  1.3178 -2.5767
 7331SOL     OW33628   3.018   3.373   1.861  0.0378 -0.1467 -0.0736
 7331SOL    HW133629   3.059   3.460   1.857  0.1065 -0.2189 -1.0111
 7331SOL    HW233630   3.096   3.321   1.879 -0.0884 -0.8927 -1.6578
 7332SOL     OW33631   0.041   0.604   3.212 -0.0823  0.3145  0.6880
 7332SOL    HW133632   4.701   0.575   3.259 -1.3963  1.3919 -0.8432
 7332SOL    HW233633   0.002   0.633   3.130 -0.0741 -1.3648  0.0928
 7333SOL     OW33634   1.147   2.900   5.547  0.0077 -0.5116  0.0854
 7333SOL    HW133635   1.072   2.850   5.515 -0.2322 -0.1336  0.0481
 7333SOL    HW233636   1.150   2.969   5.480 -1.9253 -2.9619 -2.5206
 7334SOL     OW33637   2.113   0.316   2.533  0.2337  0.1059 -0.2121
 7334SOL    HW133638   2.059   0.263   2.592  0.4043  0.1942  0.0221
 7334SOL    HW233639   2.119   0.402   2.575 -1.9325  0.3437 -0.3755
 7335SOL     OW33640   3.648   0.620  12.184  0.4959  0.0150 -0.1934
 7335SOL    HW133641   3.653   0.565  12.262  1.0429  0.7911  0.3213
 7335SOL    HW233642   3.565   0.590  12.149  0.8387  0.9520 -1.8384
 7336SOL     OW33643   1.892   3.804   0.743  0.3469  0.0305  0.0625
 7336SOL    HW133644   1.938   3.886   0.759 -0.8700  0.2009  2.7386
 7336SOL    HW233645   1.951   3.752   0.798 -1.7311 -1.5615  0.7866
 7337SOL     OW33646   3.136   0.683   5.983 -0.4407 -0.0682  0.0039
 7337SOL    HW133647   3.076   0.643   6.046 -0.7162  0.2950 -0.0294
 7337SOL    HW233648   3.102   0.772   5.989  0.2834  0.3659 -2.4393
 7338SOL     OW33649   2.796   2.568   3.364  0.1729 -0.0046  0.0199
 7338SOL    HW133650   2.815   2.601   3.276  1.0952 -0.4991  0.0361
 7338SOL    HW233651   2.877   2.522   3.387  1.4397  1.3618 -1.6573
 7339SOL     OW33652   4.445   1.598   7.366  0.1588 -0.3468 -0.2118
 7339SOL    HW133653   4.473   1.506   7.363 -0.5347 -0.5084 -1.8724
 7339SOL    HW233654   4.462   1.614   7.459  0.8778  1.0463 -0.6036
 7340SOL     OW33655   3.830   0.186   8.952  0.8113 -0.5769  0.1777
 7340SOL    HW133656   3.775   0.219   9.023  1.3482 -1.8404  1.1840
 7340SOL    HW233657   3.767   0.170   8.881 -0.4080  1.7487  0.7305
 7341SOL     OW33658   2.709   0.060   2.951  0.4654  0.1627 -0.1833
 7341SOL    HW133659   2.623   0.101   2.954  1.8337  2.6905  3.9650
 7341SOL    HW233660   2.716   0.028   3.041 -1.7676  0.2433  0.0129
 7342SOL     OW33661   3.197   0.273   3.911  0.4922  0.0349 -0.8237
 7342SOL    HW133662   3.140   0.331   3.962  0.0785  0.2076 -1.4799
 7342SOL    HW233663   3.282   0.296   3.947 -0.4429  1.8949  0.2012
 7343SOL     OW33664   0.543   1.444   3.572 -0.4727  0.1009 -0.0091
 7343SOL    HW133665   0.577   1.371   3.623 -0.2983 -2.2533 -3.4831
 7343SOL    HW233666   0.452   1.450   3.601 -0.4460 -0.2621  0.1414
 7344SOL     OW33667   1.872   4.098  13.208 -0.4486  0.2731 -0.8010
 7344SOL    HW133668   1.795   4.079  13.155  0.6400 -1.6567 -1.6876
 7344SOL    HW233669   1.883   4.006  13.232  0.3200  0.8032  0.8613
 7345SOL     OW33670   1.514   0.814   3.084 -0.2094 -0.3033  0.4758
 7345SOL    HW133671   1.441   0.868   3.114  1.6093  1.7816  1.1404
 7345SOL    HW233672   1.486   0.723   3.070  0.2056 -0.5205  1.0266
 7346SOL     OW33673   0.420   1.116   1.755 -0.3081 -0.3583 -0.0190
 7346SOL    HW133674   0.423   1.209   1.779  0.5379 -0.8460  1.7557
 7346SOL    HW233675   0.494   1.082   1.804 -0.2605 -0.3597 -0.0915
 7347SOL     OW33676   1.698   4.064   1.542  0.2562  0.2718  0.1123
 7347SOL    HW133677   1.752   4.005   1.595  1.4454  1.5013  0.2787
 7347SOL    HW233678   1.624   4.004   1.542  1.1385 -0.7925  2.4475
 7348SOL     OW33679   1.697   0.506   3.000  0.4569  0.4966 -0.0094
 7348SOL    HW133680   1.605   0.535   3.003 -0.2819 -1.9091  0.6115
 7348SOL    HW233681   1.694   0.432   2.938 -0.0214 -0.5310  1.2409
 7349SOL     OW33682   1.437   2.564   8.088 -0.1582  0.4840  0.1211
 7349SOL    HW133683   1.378   2.601   8.023  1.6492  2.8873 -0.1413
 7349SOL    HW233684   1.380   2.493   8.117 -1.4529  1.1837 -0.7045
 7350SOL     OW33685   1.863   0.009   8.089  0.5020 -0.4557 -0.4278
 7350SOL    HW133686   1.857   0.098   8.053 -0.8930  0.1970  1.4447
 7350SOL    HW233687   1.804   0.009   8.164  1.5864  0.1737  0.4194
 7351SOL     OW33688   1.841   2.018   1.425  0.3663 -0.2522 -0.3637
 7351SOL    HW133689   1.822   2.095   1.371 -0.5506 -0.7563 -0.7503
 7351SOL    HW233690   1.750   1.991   1.421  0.2573  0.3573 -2.1054
 7352SOL     OW33691   0.300   1.135  11.071  0.5261  0.2894 -0.2292
 7352SOL    HW133692   0.274   1.214  11.023 -0.8576 -0.0396 -0.0246
 7352SOL    HW233693   0.390   1.128  11.040  0.2609 -1.8594 -0.5251
 7353SOL     OW33694   3.583   0.277   4.428  0.0134  0.3828 -0.1422
 7353SOL    HW133695   3.492   0.247   4.419  0.2428 -0.2355 -0.3683
 7353SOL    HW233696   3.567   0.353   4.484 -0.8516 -0.2467  0.4651
 7354SOL     OW33697   1.032   0.665   9.532  0.1424 -0.0964  0.7247
 7354SOL    HW133698   1.047   0.684   9.625 -3.2429  4.1883  0.3867
 7354SOL    HW233699   1.040   0.754   9.498 -1.0746 -1.2788 -2.6593
 7355SOL     OW33700   0.902   3.285   3.165  0.0420 -0.0259  0.2544
 7355SOL    HW133701   0.962   3.212   3.151 -0.3598 -0.6629  1.9237
 7355SOL    HW233702   0.821   3.236   3.150 -1.1249  1.2965  2.2809
 7356SOL     OW33703   4.270   3.754  12.093 -0.3810 -0.2666 -0.0973
 7356SOL    HW133704   4.287   3.764  12.000  1.5938 -0.2848  0.2561
 7356SOL    HW233705   4.339   3.800  12.140 -1.0969  1.9731 -1.2597
 7357SOL     OW33706   0.627   2.911   4.614  0.2239 -0.3751 -0.4166
 7357SOL    HW133707   0.716   2.913   4.649  0.5338  1.9332 -1.3384
 7357SOL    HW233708   0.611   2.992   4.566  2.4287 -0.8625 -1.9797
 7358SOL     OW33709   0.600   3.310  14.423 -0.5055  0.0579  0.1597
 7358SOL    HW133710   0.525   3.367  14.439 -0.7091 -0.0311 -0.4899
 7358SOL    HW233711   0.588   3.236  14.483 -3.8241  1.8016  1.6684
 7359SOL     OW33712   0.113   3.530  12.202  0.1664 -0.0256 -0.1996
 7359SOL    HW133713   0.089   3.442  12.175  2.9663 -0.7645 -0.2366
 7359SOL    HW233714   0.142   3.567  12.118  1.5152 -1.2789 -0.2820
 7360SOL     OW33715   4.334   0.454  12.170 -0.1463 -0.2440  0.0398
 7360SOL    HW133716   4.373   0.496  12.094  0.2200 -1.0216 -0.2002
 7360SOL    HW233717   4.281   0.529  12.198  1.4321  1.1410 -0.6389
 7361SOL     OW33718   0.749   3.233   8.332  0.8033 -0.2959  0.2905
 7361SOL    HW133719   0.750   3.246   8.237 -3.1635  0.6865  0.4029
 7361SOL    HW233720   0.812   3.300   8.360  2.8138 -2.1121  0.1170
 7362SOL     OW33721   4.425   0.553   2.162 -1.2284 -0.1187 -0.0332
 7362SOL    HW133722   4.481   0.629   2.149 -1.1225 -0.0911  0.5663
 7362SOL    HW233723   4.476   0.489   2.112  1.4397  0.8655  1.4683
 7363SOL     OW33724   2.444   2.792  16.062 -0.1736  0.4820 -0.4738
 7363SOL    HW133725   2.457   2.744  16.143 -0.2633 -0.7305 -1.1866
 7363SOL    HW233726   2.409   2.875  16.096  0.1601  1.2536 -2.0061
 7364SOL     OW33727   0.609   2.347  10.847 -0.1954  0.6116  0.1473
 7364SOL    HW133728   0.657   2.422  10.811 -0.1788 -0.1065 -1.2976
 7364SOL    HW233729   0.664   2.309  10.916  0.3992  1.6511  0.2444
 7365SOL     OW33730   1.499   3.973  11.801  0.4250 -0.2395 -0.0099
 7365SOL    HW133731   1.482   3.881  11.780  1.8026 -0.7511  1.1544
 7365SOL    HW233732   1.523   4.000  11.712  0.1938  0.3734  0.1111
 7366SOL     OW33733   1.581   2.836   8.702 -0.0542  0.4883  0.9864
 7366SOL    HW133734   1.507   2.797   8.747 -1.2761 -2.4165 -3.5379
 7366SOL    HW233735   1.542   2.916   8.666  3.1094  0.4911 -2.4899
 7367SOL     OW33736   3.048   1.321   5.258 -0.1376  0.0642 -0.4443
 7367SOL    HW133737   3.031   1.354   5.347  0.9615  0.3630 -0.3416
 7367SOL    HW233738   2.984   1.250   5.264 -0.7735  0.5988 -0.8915
 7368SOL     OW33739   0.682   3.872   5.344  0.2252 -0.8747  0.3915
 7368SOL    HW133740   0.718   3.784   5.359  0.9784 -0.3194  1.8195
 7368SOL    HW233741   0.697   3.878   5.250 -0.5186  1.9365  0.4650
 7369SOL     OW33742   1.772   4.004   3.810 -0.1187  0.7179 -0.0174
 7369SOL    HW133743   1.824   4.067   3.760  1.2457  1.5290  2.4175
 7369SOL    HW233744   1.688   4.046   3.831  0.2767  2.3340 -1.6701
 7370SOL     OW33745   0.974   4.035   6.068  0.1269 -0.2864  0.0130
 7370SOL    HW133746   0.900   3.994   6.024  0.0205 -1.0433  0.9050
 7370SOL    HW233747   1.031   4.061   5.995 -0.3861  0.1191 -0.2345
 7371SOL     OW33748   0.071   3.446   5.733 -0.3446  0.5259 -0.1958
 7371SOL    HW133749   0.149   3.501   5.726  0.4181 -0.6226 -0.7100
 7371SOL    HW233750   0.009   3.502   5.686 -1.3449 -0.9584 -0.6656
 7372SOL     OW33751   1.779   2.478  16.306  0.1658 -0.6184  0.3383
 7372SOL    HW133752   1.863   2.523  16.295 -0.7869  0.8761 -0.8332
 7372SOL    HW233753   1.732   2.513  16.231  1.4395 -1.4960 -0.8878
 7373SOL     OW33754   2.267   3.419   5.912 -0.2347 -0.1104  0.1930
 7373SOL    HW133755   2.307   3.504   5.896  2.7044 -1.5759 -0.3670
 7373SOL    HW233756   2.315   3.386   5.989  0.7470 -0.5630 -0.6122
 7374SOL     OW33757   0.273   1.357   3.608  0.6253 -0.4724  0.2176
 7374SOL    HW133758   0.272   1.266   3.638  0.2335 -0.2584  0.8694
 7374SOL    HW233759   0.228   1.404   3.679  1.2099 -1.5856  1.3377
 7375SOL     OW33760   2.704   2.399   2.250  0.2779 -0.2163  0.2837
 7375SOL    HW133761   2.656   2.450   2.185 -0.5787  1.4005  2.1616
 7375SOL    HW233762   2.733   2.324   2.198 -0.8341 -1.2755  1.2062
 7376SOL     OW33763   1.069   3.928   9.216  0.7187  0.3174  0.1236
 7376SOL    HW133764   1.086   3.963   9.304 -0.9925  0.3519  0.4311
 7376SOL    HW233765   1.055   3.836   9.238  2.8379  0.2315  1.0890
 7377SOL     OW33766   0.861   2.215   5.073 -0.4845 -0.4713 -0.2302
 7377SOL    HW133767   0.779   2.260   5.096 -0.6881 -1.1499  0.3707
 7377SOL    HW233768   0.892   2.191   5.161 -0.9723 -2.4495 -0.5982
 7378SOL     OW33769   1.191   0.816  12.232  0.3422 -0.2654 -0.1414
 7378SOL    HW133770   1.247   0.742  12.255 -0.3502 -0.8747 -0.4148
 7378SOL    HW233771   1.187   0.871  12.311  0.8533  1.1820 -1.1221
 7379SOL     OW33772   2.062   0.577   5.137  0.0201 -0.1618  0.1498
 7379SOL    HW133773   2.029   0.519   5.205 -1.6024 -0.0728 -0.5710
 7379SOL    HW233774   2.135   0.621   5.181 -0.7791 -1.5885  2.8979
 7380SOL     OW33775   0.839   1.951   2.065 -0.5202 -0.1334 -0.2353
 7380SOL    HW133776   0.851   1.886   2.135 -1.1863 -0.4053 -0.3780
 7380SOL    HW233777   0.758   1.994   2.092 -1.1822 -1.4079 -0.1579
 7381SOL     OW33778   4.191   4.048  17.281  0.4807  0.4215 -0.2048
 7381SOL    HW133779   4.124   3.995  17.323  2.7031 -1.0759  1.4871
 7381SOL    HW233780   4.155   4.059  17.193 -0.3489  3.1171  0.4630
 7382SOL     OW33781   2.403   0.654   2.345  0.7055  0.4091  0.2565
 7382SOL    HW133782   2.477   0.638   2.286 -0.1127 -0.6497 -0.4781
 7382SOL    HW233783   2.321   0.635   2.299 -0.0478 -0.3467  1.9232
 7383SOL     OW33784   0.358   3.017   6.116 -0.1401 -0.1141  0.2212
 7383SOL    HW133785   0.300   3.044   6.187  0.0257  2.7028 -0.6957
 7383SOL    HW233786   0.338   3.093   6.061  0.0365 -0.0959  0.1806
 7384SOL     OW33787   2.136   0.617   5.696  0.3248 -0.1838 -0.4344
 7384SOL    HW133788   2.062   0.676   5.677 -2.3276 -3.0089  1.1492
 7384SOL    HW233789   2.120   0.620   5.790  1.0096 -1.1844 -0.2887
 7385SOL     OW33790   2.341   1.719  16.562 -0.0275  0.5866 -0.1858
 7385SOL    HW133791   2.329   1.628  16.589  0.1534  0.4600 -0.5286
 7385SOL    HW233792   2.275   1.763  16.616 -0.5896 -0.4486 -0.0044
 7386SOL     OW33793   4.048   1.394  10.820  0.0232  0.2775 -0.3296
 7386SOL    HW133794   4.020   1.447  10.895  2.3187 -0.4397  1.0362
 7386SOL    HW233795   4.109   1.458  10.782  1.6254 -1.2584 -0.3731
 7387SOL     OW33796   3.902   4.217   5.190 -0.0046  0.5673  0.2037
 7387SOL    HW133797   3.928   4.125   5.190  1.1724  0.8935 -1.4871
 7387SOL    HW233798   3.954   4.243   5.267  0.9528 -1.5431  0.2718
 7388SOL     OW33799   2.790   0.370   4.156 -0.9126 -0.4110 -0.1393
 7388SOL    HW133800   2.762   0.279   4.160  1.5795 -1.1700  0.4346
 7388SOL    HW233801   2.718   0.412   4.109 -0.9123  1.1133  1.2108
 7389SOL     OW33802   3.709   1.016   6.529  0.0368 -0.2422 -0.1599
 7389SOL    HW133803   3.722   0.931   6.570  0.7728 -0.4883 -0.9133
 7389SOL    HW233804   3.640   1.063   6.577 -0.4497  0.8571 -1.9076
 7390SOL     OW33805   0.110   1.340   9.390 -0.5089 -0.2637  0.1962
 7390SOL    HW133806   0.177   1.332   9.458  1.0381  0.8673 -1.2218
 7390SOL    HW233807   0.167   1.348   9.314  0.4520 -2.9757  0.6274
 7391SOL     OW33808   1.291   3.763   5.855  0.0136  0.2633 -0.4245
 7391SOL    HW133809   1.221   3.701   5.875 -1.2248  0.6458 -3.4883
 7391SOL    HW233810   1.246   3.814   5.787  0.8703 -1.5499 -2.3174
 7392SOL     OW33811   4.001   0.809  13.559  0.1824 -0.4188 -0.2383
 7392SOL    HW133812   3.916   0.790  13.598  0.9804 -2.0403  0.7446
 7392SOL    HW233813   4.036   0.725  13.529  0.1475 -1.0682  1.5311
 7393SOL     OW33814   3.402   1.675   4.288  0.0007 -0.3159  0.3021
 7393SOL    HW133815   3.408   1.756   4.338 -3.2247  0.3125 -0.3466
 7393SOL    HW233816   3.478   1.687   4.230  1.6630  1.5506  2.8790
 7394SOL     OW33817   3.930   0.529   6.488 -0.1463  0.5490  0.5190
 7394SOL    HW133818   3.926   0.511   6.582  2.5029 -0.7399  0.3783
 7394SOL    HW233819   3.877   0.607   6.505  2.0529  2.2859 -0.7508
 7395SOL     OW33820   4.258   3.531  13.848  0.0189 -0.4889  0.2837
 7395SOL    HW133821   4.314   3.513  13.772 -0.3526 -0.1262 -0.0700
 7395SOL    HW233822   4.318   3.558  13.918  0.9289  0.8261 -1.0100
 7396SOL     OW33823   0.552   4.600   6.131  0.2856  0.3490  0.0206
 7396SOL    HW133824   0.622   4.625   6.071  0.1935 -0.0266 -0.2405
 7396SOL    HW233825   0.595   4.631   6.210 -1.6868  1.0764  0.8089
 7397SOL     OW33826   4.701   3.189  10.356 -0.2247  0.2815  0.1487
 7397SOL    HW133827   0.044   3.164  10.399  0.8925 -0.3518 -2.3474
 7397SOL    HW233828   4.657   3.213  10.438 -0.2262  0.2480  0.1578
 7398SOL     OW33829   3.950   4.279   7.797  0.1735  0.7086 -0.0070
 7398SOL    HW133830   3.992   4.221   7.734  2.0079  2.1827 -0.1252
 7398SOL    HW233831   4.024   4.339   7.800  1.0487 -0.4843  1.9977
 7399SOL     OW33832   2.628   1.130   5.581 -0.1091  0.6527 -0.2386
 7399SOL    HW133833   2.600   1.159   5.668 -0.0734 -1.3637  0.4488
 7399SOL    HW233834   2.552   1.096   5.533 -0.4875  2.1465 -0.7180
 7400SOL     OW33835   3.373   0.268   2.179 -0.4067 -0.0962  0.1936
 7400SOL    HW133836   3.465   0.292   2.175 -0.2418 -0.6936  0.3813
 7400SOL    HW233837   3.349   0.308   2.262  0.9598  1.9186 -0.3899
 7401SOL     OW33838   0.186   3.318   3.507  0.1410  0.3344  0.2466
 7401SOL    HW133839   0.148   3.406   3.505  2.8632  1.4892 -0.5694
 7401SOL    HW233840   0.202   3.318   3.602 -0.9144 -0.4119  0.4214
 7402SOL     OW33841   2.437   4.553   9.622 -0.2739  0.4797  0.6911
 7402SOL    HW133842   2.489   4.611   9.678 -1.5044  0.1637  2.1680
 7402SOL    HW233843   2.399   4.489   9.682  1.0468  0.2652  1.2782
 7403SOL     OW33844   2.801   1.730   2.792  0.4226  0.0632  0.1154
 7403SOL    HW133845   2.804   1.726   2.887 -1.9330  0.2883  0.2090
 7403SOL    HW233846   2.735   1.799   2.783 -0.9076 -1.3055 -0.4560
 7404SOL     OW33847   3.913   4.722   0.707 -0.4081 -0.0836  0.4036
 7404SOL    HW133848   3.829   4.677   0.698 -0.9822  1.1492 -0.3432
 7404SOL    HW233849   3.935   4.697   0.797 -0.2927  3.0595  1.2530
 7405SOL     OW33850   1.535   1.808  12.358  0.1992 -0.6436  0.3487
 7405SOL    HW133851   1.586   1.819  12.277  0.7677  0.0915  0.8187
 7405SOL    HW233852   1.527   1.712  12.361 -2.4223 -0.4921 -1.3995
 7406SOL     OW33853   0.150   4.692  10.651  0.0590 -0.4505  0.4756
 7406SOL    HW133854   0.132   4.606  10.612  0.8762 -0.4912  0.1995
 7406SOL    HW233855   0.078   4.704  10.713 -0.2267  0.8514 -0.1093
 7407SOL     OW33856   1.905   3.079   8.570  0.7957  0.2498 -0.0803
 7407SOL    HW133857   1.842   3.123   8.513 -0.3414 -0.0379  0.9832
 7407SOL    HW233858   1.972   3.055   8.505 -1.1683 -1.4373 -1.4916
 7408SOL     OW33859   3.880   3.788   0.860 -0.6400  1.1706 -0.1675
 7408SOL    HW133860   3.862   3.769   0.768 -0.3072 -0.2819  0.0596
 7408SOL    HW233861   3.820   3.861   0.873 -1.5605  0.4659 -0.4758
 7409SOL     OW33862   3.693   4.553   6.065  0.6718  0.0202 -0.0278
 7409SOL    HW133863   3.672   4.620   6.000  1.7379  0.2506 -0.1433
 7409SOL    HW233864   3.741   4.605   6.129  0.7677 -1.1563  0.8654
 7410SOL     OW33865   3.096   3.782   2.173  0.8213 -0.3808 -0.2315
 7410SOL    HW133866   3.072   3.716   2.238 -3.2738  1.2789 -0.0842
 7410SOL    HW233867   3.012   3.828   2.168  1.8166  1.2630 -1.9272
 7411SOL     OW33868   2.096   4.670   8.696  0.0344 -0.1025  0.2815
 7411SOL    HW133869   2.072   4.703   8.609 -2.6593  0.1907  1.1428
 7411SOL    HW233870   2.122   0.016   8.732 -2.0625  0.9888 -0.7470
 7412SOL     OW33871   0.281   2.566   9.273  0.3782  0.2016 -0.4574
 7412SOL    HW133872   0.237   2.650   9.289 -1.3980 -0.7950 -0.1515
 7412SOL    HW233873   0.310   2.548   9.363 -1.2869 -3.0439 -0.5970
 7413SOL     OW33874   1.353   3.499   0.390 -0.4727  0.1315 -0.0350
 7413SOL    HW133875   1.292   3.551   0.442 -0.3498  2.0973 -1.8737
 7413SOL    HW233876   1.299   3.509   0.312  0.7837  2.2450 -0.6319
 7414SOL     OW33877   0.524   1.836   2.343 -0.3685 -0.3259  0.1248
 7414SOL    HW133878   0.439   1.846   2.384 -1.4237  0.7327 -2.2939
 7414SOL    HW233879   0.511   1.763   2.283  0.6231  0.4932 -1.0990
 7415SOL     OW33880   1.644   3.953   7.925 -0.0277 -0.4959 -0.2519
 7415SOL    HW133881   1.604   3.894   7.988  1.3935  1.0118  2.0647
 7415SOL    HW233882   1.729   3.940   7.967  0.4176  1.2937 -0.5595
 7416SOL     OW33883   1.602   1.201   2.885 -0.0749  0.1506  0.1442
 7416SOL    HW133884   1.512   1.232   2.875 -0.5619 -1.6705 -1.1201
 7416SOL    HW233885   1.630   1.241   2.967 -0.2783 -1.8122  1.1618
 7417SOL     OW33886   1.153   4.016  17.516  0.0288 -0.2873  0.0382
 7417SOL    HW133887   1.165   4.092  17.459  1.0231 -0.1737  0.4058
 7417SOL    HW233888   1.133   3.942  17.460  6.1523 -0.9790 -1.2269
 7418SOL     OW33889   1.450   2.643   1.728 -0.3598  0.3572 -0.7937
 7418SOL    HW133890   1.486   2.615   1.644 -1.8929 -1.2467 -0.9332
 7418SOL    HW233891   1.452   2.559   1.775 -2.4355  0.9533  0.3600
 7419SOL     OW33892   3.870   3.208   3.812  0.4284 -0.1905 -0.3976
 7419SOL    HW133893   3.797   3.212   3.874 -0.4495 -0.2178 -1.4422
 7419SOL    HW233894   3.832   3.259   3.740 -0.6176 -1.0050 -0.4200
 7420SOL     OW33895   4.302   0.819  15.554  0.5751 -0.1052  0.0076
 7420SOL    HW133896   4.301   0.867  15.637  0.8743 -1.7016  0.9317
 7420SOL    HW233897   4.395   0.832  15.534  0.4230  0.8111 -0.1219
 7421SOL     OW33898   1.627   3.511  15.079 -0.5662  0.5914 -0.4676
 7421SOL    HW133899   1.533   3.529  15.077 -1.0250 -1.5946  1.2403
 7421SOL    HW233900   1.659   3.592  15.119  2.0179 -0.9813  0.6407
 7422SOL     OW33901   3.657   1.235   5.880 -0.0817 -0.6351 -0.0970
 7422SOL    HW133902   3.750   1.212   5.884 -0.0424 -0.5376 -0.4196
 7422SOL    HW233903   3.625   1.161   5.828  0.0897 -0.5176 -0.3700
 7423SOL     OW33904   1.038   0.473   5.872  0.2921 -0.1034 -0.4235
 7423SOL    HW133905   0.982   0.535   5.918 -0.0150 -1.9360  1.6817
 7423SOL    HW233906   0.983   0.410   5.826  1.3606 -0.6227 -1.0057
 7424SOL     OW33907   2.517   2.980  15.762 -0.1737 -0.3087  0.1273
 7424SOL    HW133908   2.583   2.925  15.720 -2.1231 -1.1758 -1.7781
 7424SOL    HW233909   2.552   2.996  15.850  2.1187 -1.1408 -0.6422
 7425SOL     OW33910   0.062   2.170  13.526  0.8047 -0.1388 -0.4713
 7425SOL    HW133911   0.015   2.224  13.463  0.3455  2.3575  1.9748
 7425SOL    HW233912   0.147   2.168  13.482  0.7915  0.1397 -0.5129
 7426SOL     OW33913   0.775   4.364  16.782  0.4094  0.7975 -0.0047
 7426SOL    HW133914   0.709   4.340  16.716  1.0693 -0.3295 -0.2499
 7426SOL    HW233915   0.729   4.335  16.861  1.2068  0.0179  0.1617
 7427SOL     OW33916   1.347   2.890  14.035 -0.1169 -0.0434 -0.5761
 7427SOL    HW133917   1.253   2.908  14.031 -0.3701 -1.3312 -0.3321
 7427SOL    HW233918   1.377   2.972  14.074  0.6279  0.6287 -2.5218
 7428SOL     OW33919   3.805   1.230   7.199  0.0596 -0.4899  1.0674
 7428SOL    HW133920   3.852   1.261   7.120 -1.8057 -3.1259 -1.0488
 7428SOL    HW233921   3.854   1.272   7.270  0.5709  0.3484  0.2282
 7429SOL     OW33922   3.147   0.018  10.904  0.0850 -0.0211  0.1782
 7429SOL    HW133923   3.201   0.095  10.920  1.4030 -0.7615 -0.6679
 7429SOL    HW233924   3.183   4.727  10.821 -0.0306  2.3579 -0.7317
 7430SOL     OW33925   4.406   3.396   3.843  0.1366  0.1027 -0.0209
 7430SOL    HW133926   4.483   3.419   3.894  0.7179  0.2621 -0.9760
 7430SOL    HW233927   4.442   3.313   3.813  0.5616  0.3719 -0.2407
 7431SOL     OW33928   3.030   1.641  15.613  0.2471  1.0264  0.4249
 7431SOL    HW133929   2.943   1.662  15.580  0.3148 -1.3563 -1.2614
 7431SOL    HW233930   3.084   1.691  15.551  0.3919 -0.7941 -0.9304
 7432SOL     OW33931   0.098   2.891   1.123 -0.4458 -0.3223 -0.4029
 7432SOL    HW133932   0.016   2.899   1.170 -0.8756  0.4930 -1.3002
 7432SOL    HW233933   0.151   2.877   1.201  0.9209 -0.4316 -1.3460
 7433SOL     OW33934   2.181   2.112   3.041  0.6332  0.4752  0.0595
 7433SOL    HW133935   2.263   2.114   2.991  2.1433  1.7737  2.6083
 7433SOL    HW233936   2.214   2.135   3.128 -1.4777 -0.7796  1.1989
 7434SOL     OW33937   0.716   1.451  11.956 -0.4129  0.1352  0.2766
 7434SOL    HW133938   0.621   1.445  11.957 -0.4597  0.6396 -1.3187
 7434SOL    HW233939   0.736   1.536  11.995 -0.2783  0.1001  0.2870
 7435SOL     OW33940   3.093   4.666   4.090 -0.0292  0.7059 -0.1520
 7435SOL    HW133941   3.155   4.684   4.019 -0.0577  1.9582  0.1318
 7435SOL    HW233942   3.101   0.012   4.134 -0.8613  1.3015 -1.1577
 7436SOL     OW33943   4.653   3.837   7.305 -0.8281  0.6116  0.4772
 7436SOL    HW133944   4.582   3.800   7.358 -1.1920 -1.2240 -1.3091
 7436SOL    HW233945   4.718   3.836   7.375  1.4004 -1.5507 -1.6634
 7437SOL     OW33946   1.643   1.892   0.149 -0.6413  0.1404 -0.1794
 7437SOL    HW133947   1.558   1.933   0.165 -0.8717  0.0775 -1.2153
 7437SOL    HW233948   1.688   1.904   0.232  0.1158 -0.0003 -0.5721
 7438SOL     OW33949   2.138   2.084   7.317  0.3428  0.4443  0.1145
 7438SOL    HW133950   2.097   2.060   7.234  1.8254  2.1710 -1.1119
 7438SOL    HW233951   2.154   2.179   7.317 -2.7209  0.9568  2.8623
 7439SOL     OW33952   4.553   1.933   1.474 -0.4890  0.1067  0.1337
 7439SOL    HW133953   4.637   1.931   1.519 -1.5451  0.2740  2.1348
 7439SOL    HW233954   4.576   1.956   1.384 -2.5641  2.1375  0.1190
 7440SOL     OW33955   3.802   4.372  16.877 -0.0767  0.3584 -0.4095
 7440SOL    HW133956   3.813   4.414  16.962 -1.9229 -0.3182  0.1669
 7440SOL    HW233957   3.759   4.434  16.817  0.1974  1.8515  0.9425
 7441SOL     OW33958   2.407   2.482   1.337 -0.3830  0.4592  0.4871
 7441SOL    HW133959   2.321   2.442   1.330  0.8819 -2.1875  0.0934
 7441SOL    HW233960   2.381   2.571   1.313  0.2747 -0.8608 -5.1926
 7442SOL     OW33961   4.710   1.626   9.106 -0.4552 -0.0233 -0.0681
 7442SOL    HW133962   4.649   1.696   9.132  1.4551  1.5512  0.1150
 7442SOL    HW233963   4.651   1.579   9.047  1.3602  0.0323 -1.9087
 7443SOL     OW33964   4.680   3.706   6.019 -0.7990 -0.5170 -0.0178
 7443SOL    HW133965   4.629   3.785   6.036  1.3210  0.8463 -0.0439
 7443SOL    HW233966   0.025   3.751   6.007 -0.8871 -0.4709 -0.4805
 7444SOL     OW33967   3.341   3.481   6.921  0.2782 -0.2142  0.5247
 7444SOL    HW133968   3.266   3.533   6.892 -0.4397 -1.2493  0.5342
 7444SOL    HW233969   3.313   3.454   7.008  1.2091  1.4795  1.3400
 7445SOL     OW33970   3.489   1.358   6.482 -0.4175 -0.3416 -0.2996
 7445SOL    HW133971   3.414   1.302   6.463  0.2707 -1.9368  1.7358
 7445SOL    HW233972   3.449   1.427   6.430  0.5833  0.0835 -0.5088
 7446SOL     OW33973   4.305   3.636   8.591  0.2802 -0.8684  0.1958
 7446SOL    HW133974   4.350   3.720   8.603 -0.4253 -0.1546 -2.0245
 7446SOL    HW233975   4.254   3.635   8.672  0.1288 -1.9597  0.0800
 7447SOL     OW33976   3.488   3.490  10.748  0.1843 -0.1396 -0.3998
 7447SOL    HW133977   3.468   3.583  10.754  0.8158  0.0080 -0.5756
 7447SOL    HW233978   3.549   3.479  10.822 -0.8401 -2.0907  0.1692
 7448SOL     OW33979   0.961   4.424   8.658  0.0763  0.1974  0.5337
 7448SOL    HW133980   0.953   4.427   8.753 -0.7231  0.2906  0.4706
 7448SOL    HW233981   1.055   4.419   8.642 -0.1414 -0.7785 -0.4764
 7449SOL     OW33982   2.046   1.798   8.027  0.2729 -0.5570  0.1689
 7449SOL    HW133983   2.007   1.878   7.993  2.1369 -0.3314 -1.4707
 7449SOL    HW233984   2.139   1.800   8.006 -0.2041  3.0545 -1.5148
 7450SOL     OW33985   3.046   1.055   6.229  0.2046 -0.4063  0.2154
 7450SOL    HW133986   3.098   1.129   6.198  0.0968 -0.5892 -0.3943
 7450SOL    HW233987   3.004   1.098   6.303 -0.1155 -0.1941 -0.0948
 7451SOL     OW33988   2.549   3.266  13.861 -0.1031  0.0532  0.7732
 7451SOL    HW133989   2.622   3.266  13.800  1.0152 -0.7156  2.1023
 7451SOL    HW233990   2.543   3.360  13.880  1.6026 -0.2714  2.9225
 7452SOL     OW33991   3.437   0.346   1.798  0.1454 -0.0415 -0.5807
 7452SOL    HW133992   3.415   0.263   1.841 -1.3707 -0.0655 -1.4018
 7452SOL    HW233993   3.487   0.316   1.722 -0.1408 -0.0654 -0.7594
 7453SOL     OW33994   2.271   1.580  10.793  0.4504 -0.3984  0.3526
 7453SOL    HW133995   2.195   1.522  10.798  2.1879 -2.6005  1.2266
 7453SOL    HW233996   2.278   1.613  10.883  1.7949  1.0633 -0.2988
 7454SOL     OW33997   1.263   3.092  11.368 -0.0870  0.5773 -0.4364
 7454SOL    HW133998   1.277   3.184  11.389  0.3637  0.4565 -0.2249
 7454SOL    HW233999   1.167   3.092  11.364 -0.2348 -0.7901  3.7576
 7455SOL     OW34000   4.001   1.160   6.502  0.4330  0.1127 -0.0953
 7455SOL    HW134001   4.084   1.184   6.461  1.9124 -0.0303  2.8038
 7455SOL    HW234002   3.953   1.118   6.431  0.6657 -0.6319  0.1872
 7456SOL     OW34003   0.558   0.648   8.081 -0.4951  0.1026  0.2902
 7456SOL    HW134004   0.641   0.659   8.127 -0.0324  0.6442 -0.6638
 7456SOL    HW234005   0.560   0.727   8.027  0.4176  1.8196  2.8262
 7457SOL     OW34006   4.723   3.610  13.141 -0.5474 -0.2513 -0.0447
 7457SOL    HW134007   0.023   3.540  13.192  0.1922  0.2499  0.0678
 7457SOL    HW234008   4.737   3.690  13.191  2.6867  0.4023 -1.9885
 7458SOL     OW34009   0.554   2.155   3.707  0.0017  0.1157 -0.2860
 7458SOL    HW134010   0.551   2.144   3.802 -2.5936 -0.6137 -0.4386
 7458SOL    HW234011   0.627   2.099   3.684 -0.1511 -0.7898  1.4577
 7459SOL     OW34012   2.935   0.055   5.380  0.1280 -0.1847  0.0812
 7459SOL    HW134013   2.917   0.019   5.467 -0.3280  3.0133  1.3090
 7459SOL    HW234014   2.847   0.042   5.345  0.2569 -1.6910  0.3118
 7460SOL     OW34015   0.688   2.669   3.330  0.5042 -0.0805 -0.6643
 7460SOL    HW134016   0.678   2.634   3.419 -2.0712 -0.5625 -1.1296
 7460SOL    HW234017   0.599   2.667   3.294  0.0758 -1.5496  0.4811
 7461SOL     OW34018   1.972   1.524   6.284 -0.2594 -0.0079  0.6717
 7461SOL    HW134019   2.042   1.529   6.349 -1.2639  1.4605  1.6382
 7461SOL    HW234020   1.969   1.617   6.262  0.1769  0.1455  1.2400
 7462SOL     OW34021   0.730   2.540   6.089 -0.5994 -0.3207  0.3008
 7462SOL    HW134022   0.668   2.609   6.111  0.8023  1.0364 -0.0055
 7462SOL    HW234023   0.672   2.496   6.027 -0.5628 -1.9396  1.4323
 7463SOL     OW34024   4.326   2.017   7.101  0.3075 -0.1441  0.4216
 7463SOL    HW134025   4.366   1.941   7.143 -0.2161 -0.5619  0.1767
 7463SOL    HW234026   4.288   1.974   7.024 -1.8095  0.2762  1.2050
 7464SOL     OW34027   2.508   3.283   4.095 -0.1170 -0.1940 -0.5137
 7464SOL    HW134028   2.456   3.204   4.107  1.5276 -1.2331 -0.2571
 7464SOL    HW234029   2.535   3.284   4.004 -0.8564  0.6461 -0.7315
 7465SOL     OW34030   2.006   1.725   9.031 -0.9490  0.0114 -0.4096
 7465SOL    HW134031   2.003   1.646   8.977  0.9291 -0.3198 -0.0131
 7465SOL    HW234032   1.915   1.737   9.060 -1.1150 -2.9050  0.3274
 7466SOL     OW34033   4.375   4.255   2.519  0.0934 -0.1505  0.2990
 7466SOL    HW134034   4.299   4.299   2.557 -1.0613 -0.5309 -1.5895
 7466SOL    HW234035   4.444   4.314   2.550 -0.0970  1.7969 -3.0246
 7467SOL     OW34036   3.202   4.266   4.205 -0.1138 -0.4052 -0.0442
 7467SOL    HW134037   3.282   4.218   4.181 -0.3834 -1.4287  1.1258
 7467SOL    HW234038   3.205   4.256   4.300  0.3916  0.1911  0.0062
 7468SOL     OW34039   3.235   2.981   6.539 -0.0604  0.0363 -0.0036
 7468SOL    HW134040   3.238   2.900   6.590  1.2306  0.1572  0.1147
 7468SOL    HW234041   3.177   2.960   6.465  0.9154  0.6570 -0.9574
 7469SOL     OW34042   4.625   3.910  13.078 -0.1552  0.1494  0.0222
 7469SOL    HW134043   4.542   3.867  13.060  0.0147  0.0405 -0.5073
 7469SOL    HW234044   4.656   3.938  12.992  1.2881  1.0536  0.8323
 7470SOL     OW34045   0.410   0.770  17.717 -0.2545 -0.7458 -0.0196
 7470SOL    HW134046   0.323   0.742  17.691 -0.4381 -1.8209  1.7498
 7470SOL    HW234047   0.385   0.862  17.708  2.7917  0.2879  1.9448
 7471SOL     OW34048   1.678   2.900   4.402  0.3904 -0.3822  0.4757
 7471SOL    HW134049   1.663   2.883   4.309  0.9535 -0.3719  0.3809
 7471SOL    HW234050   1.602   2.861   4.444 -2.4497  4.5200 -0.1870
 7472SOL     OW34051   4.550   3.936   6.071  0.0989  0.0502  0.2236
 7472SOL    HW134052   4.643   3.959   6.081 -0.2284  1.0446  0.9495
 7472SOL    HW234053   4.507   3.948   6.155 -0.6742  0.0277 -0.1701
 7473SOL     OW34054   3.625   4.533  15.524  0.0186  0.0061  0.8762
 7473SOL    HW134055   3.669   4.466  15.472 -0.1169 -1.8120  3.1190
 7473SOL    HW234056   3.535   4.541  15.491  0.0143 -0.6945  0.7132
 7474SOL     OW34057   4.404   4.708   3.371  0.0604 -0.3662  0.2940
 7474SOL    HW134058   4.381   4.618   3.394 -1.0870 -0.3654 -0.8459
 7474SOL    HW234059   4.325   0.024   3.375  1.1758  1.1989  1.1348
 7475SOL     OW34060   2.269   4.610   3.542  0.5504  0.1559  0.0086
 7475SOL    HW134061   2.344   4.556   3.515 -0.0093  0.0382 -1.3112
 7475SOL    HW234062   2.305   4.682   3.594  1.0085 -0.9792  1.2605
 7476SOL     OW34063   2.409   2.711   5.029 -0.4101  0.0082  0.2855
 7476SOL    HW134064   2.336   2.656   5.056 -1.1882  3.0976  4.4935
 7476SOL    HW234065   2.395   2.799   5.065 -2.8186 -0.9052  1.5788
 7477SOL     OW34066   4.132   4.022   1.758  0.8919 -0.0947  0.0443
 7477SOL    HW134067   4.140   3.979   1.673  0.4084  0.1918 -0.1457
 7477SOL    HW234068   4.155   3.950   1.816 -2.4276 -0.9198  0.3262
 7478SOL     OW34069   3.639   3.453   7.149 -0.5507  0.2709  0.0031
 7478SOL    HW134070   3.629   3.381   7.212  1.7259  0.2863  0.3981
 7478SOL    HW234071   3.556   3.450   7.102  0.9484 -1.8247 -2.5208
 7479SOL     OW34072   1.282   4.707   4.205 -0.1714 -0.6728  0.2002
 7479SOL    HW134073   1.207   0.025   4.225 -0.7804 -1.3540 -0.1443
 7479SOL    HW234074   1.277   4.712   4.110  1.9191 -0.8771  0.0912
 7480SOL     OW34075   1.106   2.266  12.043  0.0509  0.1204 -0.0470
 7480SOL    HW134076   1.150   2.290  12.125  0.6828 -0.2742 -0.2758
 7480SOL    HW234077   1.174   2.222  11.994 -1.2265 -2.7367  0.7706
 7481SOL     OW34078   0.207   0.101   9.502 -0.4148 -0.3837 -0.5831
 7481SOL    HW134079   0.181   0.019   9.544 -0.8980 -0.4594 -1.0123
 7481SOL    HW234080   0.123   0.143   9.522  0.9100  1.4863  0.9060
 7482SOL     OW34081   2.475   3.016   5.346 -0.3296 -0.4874  0.4628
 7482SOL    HW134082   2.546   3.007   5.282 -1.3043  2.4470 -1.0211
 7482SOL    HW234083   2.430   3.095   5.314  1.2061  0.9339  1.8172
 7483SOL     OW34084   1.375   0.292  11.900  0.1994 -0.0599  0.1936
 7483SOL    HW134085   1.336   0.334  11.824  1.9429  1.8003  0.3206
 7483SOL    HW234086   1.443   0.358  11.913  0.6788 -1.0280  2.5131
 7484SOL     OW34087   4.198   0.280   6.414  0.2194  0.1293 -0.1286
 7484SOL    HW134088   4.243   0.221   6.353 -1.3427 -0.4590 -0.6995
 7484SOL    HW234089   4.197   0.240   6.501 -2.0314 -0.6471 -0.5145
 7485SOL     OW34090   1.705   3.086   8.069 -0.0037  0.1641  0.0894
 7485SOL    HW134091   1.661   3.145   8.008  0.6292  1.9523  1.3974
 7485SOL    HW234092   1.774   3.147   8.094  1.0579 -0.6682 -0.7621
 7486SOL     OW34093   3.969   1.777  13.259 -0.0222 -0.1041  0.7202
 7486SOL    HW134094   4.055   1.786  13.218  0.8314  1.5839  2.8690
 7486SOL    HW234095   3.916   1.809  13.186  1.8104 -0.3198 -0.7058
 7487SOL     OW34096   3.462   2.341  11.189  0.0631  0.1866  0.2014
 7487SOL    HW134097   3.394   2.275  11.178  0.0671 -0.0370  1.4580
 7487SOL    HW234098   3.419   2.420  11.160  1.9931  0.7524 -1.1115
 7488SOL     OW34099   1.762   3.713  15.746  0.0471  0.3104 -0.1428
 7488SOL    HW134100   1.791   3.748  15.662 -0.4316 -0.4467 -0.6211
 7488SOL    HW234101   1.795   3.624  15.729 -1.0961 -0.1015 -0.2218
 7489SOL     OW34102   3.346   3.608   7.968  0.0944  0.2421 -0.6445
 7489SOL    HW134103   3.295   3.672   7.918 -1.1529  0.2711  0.6757
 7489SOL    HW234104   3.415   3.577   7.909  0.8658  1.8530 -0.5871
 7490SOL     OW34105   2.970   2.956   2.950 -0.5292 -0.6968  0.5184
 7490SOL    HW134106   2.995   3.002   2.871 -0.8114 -1.0441  0.2286
 7490SOL    HW234107   3.015   2.871   2.945  0.7475 -0.1411  2.3523
 7491SOL     OW34108   1.498   1.741  15.577  0.3537  0.6512 -0.1478
 7491SOL    HW134109   1.474   1.798  15.504 -0.6035 -0.1254 -0.4324
 7491SOL    HW234110   1.495   1.795  15.656 -2.6693 -0.9451  0.8134
 7492SOL     OW34111   3.067   4.442   6.148 -0.5995  1.0041  0.4738
 7492SOL    HW134112   3.072   4.534   6.175  1.1600  1.5328 -1.6918
 7492SOL    HW234113   3.014   4.447   6.069 -0.2532  1.5288  0.2712
 7493SOL     OW34114   3.807   1.161  10.021 -0.7148 -0.0193  0.0632
 7493SOL    HW134115   3.767   1.149  10.108 -0.1571  2.2141  0.6196
 7493SOL    HW234116   3.890   1.113  10.020  0.6093  2.3410 -1.5084
 7494SOL     OW34117   4.324   3.975   6.970 -0.0328  0.4152 -0.0602
 7494SOL    HW134118   4.390   3.917   7.008  1.1317  1.6816 -0.1218
 7494SOL    HW234119   4.287   4.018   7.046  0.0607 -2.9478  1.8808
 7495SOL     OW34120   0.029   0.578   9.920  0.1605  0.5065 -0.1314
 7495SOL    HW134121   4.673   0.569   9.911  0.3426  0.2516 -1.8611
 7495SOL    HW234122   0.041   0.557  10.013 -0.7886 -1.1560 -0.3712
 7496SOL     OW34123   0.997   0.511   8.641  0.1132  0.6593  0.0775
 7496SOL    HW134124   0.993   0.606   8.629  2.3147  0.8394  0.8215
 7496SOL    HW234125   1.039   0.503   8.727 -1.8145 -2.0457  0.7680
 7497SOL     OW34126   4.124   3.146   6.494 -0.3337 -0.4053 -0.4671
 7497SOL    HW134127   4.038   3.104   6.504  0.5355 -1.9153  0.6723
 7497SOL    HW234128   4.114   3.228   6.542 -0.8704 -0.5452 -0.3390
 7498SOL     OW34129   1.845   0.448   0.963 -0.0285 -0.0310  0.1459
 7498SOL    HW134130   1.935   0.437   0.994 -0.6384  1.0460  2.3321
 7498SOL    HW234131   1.826   0.527   1.013  0.8890 -0.3359  0.9713
 7499SOL     OW34132   4.043   2.420  10.024  0.2179 -0.4714  0.4543
 7499SOL    HW134133   4.113   2.485  10.026 -0.5793  0.3792  0.4323
 7499SOL    HW234134   4.054   2.406   9.930  0.0508 -0.7311  0.4709
 7500SOL     OW34135   3.135   1.960   8.771 -0.3700 -0.0423  0.2933
 7500SOL    HW134136   3.175   1.997   8.692  0.0828  1.4357  1.1971
 7500SOL    HW234137   3.203   1.917   8.824  1.0915  1.5142 -0.3102
 7501SOL     OW34138   4.307   4.242   1.496 -0.3579 -0.0022 -0.1635
 7501SOL    HW134139   4.392   4.286   1.500 -0.6126  0.4211  0.6007
 7501SOL    HW234140   4.283   4.251   1.588  2.3813  0.7811  0.4865
 7502SOL     OW34141   0.790   0.958  13.090  0.2805  0.1360 -0.2661
 7502SOL    HW134142   0.700   0.927  13.089  0.7853 -1.4137  1.2743
 7502SOL    HW234143   0.831   0.905  13.022  1.1154  1.6479 -0.9284
 7503SOL     OW34144   1.032   3.063   4.463 -0.3013 -0.7306 -1.5079
 7503SOL    HW134145   1.001   3.126   4.398 -0.3443 -0.4247 -1.1934
 7503SOL    HW234146   1.081   2.998   4.413  0.4216 -1.8323  0.6523
 7504SOL     OW34147   3.431   3.831   7.560 -0.2374 -0.0405 -0.4187
 7504SOL    HW134148   3.455   3.765   7.495 -0.3941 -0.3009 -0.2119
 7504SOL    HW234149   3.420   3.902   7.496  2.6165 -1.0166 -1.9855
 7505SOL     OW34150   0.707   2.519   4.457 -0.3792  0.1481  0.1226
 7505SOL    HW134151   0.644   2.455   4.487  0.6851 -1.5484 -1.2774
 7505SOL    HW234152   0.770   2.525   4.529 -0.4136  1.2138  0.0715
 7506SOL     OW34153   0.172   0.574   5.022  0.5237 -0.0078 -0.6812
 7506SOL    HW134154   0.086   0.546   5.054  0.7064 -0.2184 -0.3754
 7506SOL    HW234155   0.231   0.521   5.076 -4.9726 -2.3211  3.0492
 7507SOL     OW34156   3.851   3.934   4.315  0.2079  0.0116 -0.1200
 7507SOL    HW134157   3.884   3.853   4.352 -1.0157 -0.2309  0.4550
 7507SOL    HW234158   3.810   3.983   4.386 -1.3388 -2.0712  0.4124
 7508SOL     OW34159   0.595   1.927   8.141  0.3748  0.3452  0.3678
 7508SOL    HW134160   0.545   1.871   8.199  0.0023  0.5106  0.2060
 7508SOL    HW234161   0.521   1.959   8.089  3.0468  1.6388 -2.6960
 7509SOL     OW34162   4.092   0.192   3.317  0.0092  0.1400  0.1074
 7509SOL    HW134163   4.065   0.100   3.322  1.1243 -0.1530  0.7365
 7509SOL    HW234164   4.122   0.190   3.226 -1.0356 -0.4820 -0.2215
 7510SOL     OW34165   1.879   4.429  10.460 -0.0581  0.0273  0.0540
 7510SOL    HW134166   1.874   4.524  10.453 -0.1637  0.1561  1.9551
 7510SOL    HW234167   1.975   4.426  10.460  0.0517  3.6028 -0.9566
 7511SOL     OW34168   0.886   2.800   1.990  0.2332  0.2270 -0.2353
 7511SOL    HW134169   0.852   2.837   1.908 -0.8260 -2.1376 -0.8574
 7511SOL    HW234170   0.909   2.710   1.967  1.7951  0.0255  2.1524
 7512SOL     OW34171   0.294   4.393  16.224 -0.6494  0.3492  0.0922
 7512SOL    HW134172   0.367   4.419  16.280 -0.0671 -0.1167 -0.4603
 7512SOL    HW234173   0.241   4.471  16.243 -1.9581 -0.0763 -1.9154
 7513SOL     OW34174   3.621   1.880   8.258 -0.3726  0.5834  0.6141
 7513SOL    HW134175   3.698   1.908   8.307 -0.1283  3.2303 -1.2548
 7513SOL    HW234176   3.618   1.951   8.193 -0.7016  1.1886  1.2885
 7514SOL     OW34177   2.045   3.955   8.866 -0.1181 -0.4472  0.5470
 7514SOL    HW134178   2.028   3.937   8.959  1.6163  1.9570  1.3071
 7514SOL    HW234179   1.979   4.024   8.856  0.0632 -0.3550  0.0174
 7515SOL     OW34180   0.878   2.718  16.189 -0.1435  0.0923  0.2641
 7515SOL    HW134181   0.948   2.673  16.142  0.1158 -1.2224  1.8831
 7515SOL    HW234182   0.830   2.769  16.124 -2.1692 -2.9556 -0.6255
 7516SOL     OW34183   1.758   4.255  12.959 -0.1456 -0.1185 -0.1468
 7516SOL    HW134184   1.773   4.317  13.031  0.1249 -1.4150  0.9137
 7516SOL    HW234185   1.707   4.309  12.898 -1.7279 -1.3789  0.0542
 7517SOL     OW34186   3.653   1.460   2.717 -0.5594  0.4860 -0.4911
 7517SOL    HW134187   3.684   1.507   2.794 -2.0483 -0.3435  0.6250
 7517SOL    HW234188   3.741   1.434   2.689  0.0511  1.4960  0.4978
 7518SOL     OW34189   3.396   2.860   2.337  0.9036 -0.6009  0.0276
 7518SOL    HW134190   3.480   2.864   2.291  1.0015 -2.2259  0.0594
 7518SOL    HW234191   3.389   2.939   2.392  0.2433 -1.6514  1.4609
 7519SOL     OW34192   1.966   1.917   1.643 -0.1851  0.0506 -0.6325
 7519SOL    HW134193   1.932   1.977   1.709 -0.3908  0.9508 -1.5618
 7519SOL    HW234194   1.932   1.954   1.562 -0.1547 -1.9327 -1.5648
 7520SOL     OW34195   2.283   3.368   7.336  0.7090 -0.1294 -0.3990
 7520SOL    HW134196   2.319   3.304   7.274  1.4896  0.3691 -0.4603
 7520SOL    HW234197   2.289   3.449   7.285 -1.0768  0.6166  0.5720
 7521SOL     OW34198   0.040   4.331   3.147 -0.2980 -0.9787  0.4259
 7521SOL    HW134199   0.022   4.353   3.239  2.1085  0.4389  0.5594
 7521SOL    HW234200   0.100   4.256   3.154  0.0849 -0.7360 -0.3228
 7522SOL     OW34201   4.281   3.151   0.376 -0.0953  0.0057  0.5015
 7522SOL    HW134202   4.299   3.128   0.467 -2.4190  1.6376  1.3740
 7522SOL    HW234203   4.337   3.225   0.355  0.7801 -1.0010 -0.7392
 7523SOL     OW34204   4.387   2.560   6.086  0.2073  0.0995 -0.2786
 7523SOL    HW134205   4.400   2.652   6.110  2.9574 -0.5243  0.6773
 7523SOL    HW234206   4.360   2.526   6.170 -2.2589  0.0095 -1.1155
 7524SOL     OW34207   2.818   2.250  17.587  0.3568  0.6163 -0.1286
 7524SOL    HW134208   2.727   2.254  17.617  0.8364  0.6786  1.3487
 7524SOL    HW234209   2.829   2.159  17.614 -1.8609  0.6963  1.0620
 7525SOL     OW34210   1.208   4.315  12.492  0.0555 -0.5041  0.5096
 7525SOL    HW134211   1.247   4.232  12.463 -2.5943 -0.9598 -1.7505
 7525SOL    HW234212   1.113   4.312  12.478 -0.0513  1.5663  0.8455
 7526SOL     OW34213   1.919   1.556   7.913 -0.1153  0.0275 -0.6908
 7526SOL    HW134214   1.845   1.599   7.958 -0.0430 -1.0665  0.4855
 7526SOL    HW234215   1.982   1.624   7.890 -1.4823  0.9477 -1.7429
 7527SOL     OW34216   0.960   0.309   7.061  0.1663  0.6042 -0.2308
 7527SOL    HW134217   0.937   0.261   6.981 -0.1547 -0.3693  0.4543
 7527SOL    HW234218   0.909   0.390   7.054  0.6891  0.9501  0.0642
 7528SOL     OW34219   3.815   4.738  17.158  0.0190 -0.0995 -0.4990
 7528SOL    HW134220   3.836   0.083  17.198 -0.5669 -0.9174  1.5725
 7528SOL    HW234221   3.729   0.026  17.126  0.0029  0.1450 -0.2518
 7529SOL     OW34222   3.846   1.226  17.380  0.2318 -0.0322  0.4530
 7529SOL    HW134223   3.849   1.303  17.322  2.0953  0.8511  1.7466
 7529SOL    HW234224   3.848   1.259  17.470 -0.6993 -0.8158  0.7680
 7530SOL     OW34225   3.647   2.225   4.543 -0.1411 -0.0022  0.0042
 7530SOL    HW134226   3.657   2.134   4.569  0.7210 -0.1271 -0.7541
 7530SOL    HW234227   3.723   2.260   4.589  0.1942  0.1131 -0.6376
 7531SOL     OW34228   3.326   3.262   9.856 -0.0068  0.3572 -0.6081
 7531SOL    HW134229   3.386   3.303   9.918 -0.0629 -0.6014  0.0910
 7531SOL    HW234230   3.357   3.285   9.769  0.9636 -0.5390 -0.4912
 7532SOL     OW34231   3.709   0.733   6.443  0.1239 -0.0228 -0.1831
 7532SOL    HW134232   3.690   0.678   6.367  0.7774 -0.5017  0.0012
 7532SOL    HW234233   3.631   0.789   6.438  1.2885  1.5997 -0.0108
 7533SOL     OW34234   0.791   4.240  11.452  0.5252 -0.3901  0.1919
 7533SOL    HW134235   0.752   4.272  11.533 -0.8235  1.1780 -1.0722
 7533SOL    HW234236   0.797   4.323  11.404 -0.3105 -1.1531 -1.2358
 7534SOL     OW34237   4.672   3.587   5.566 -0.3348  0.0816  0.0330
 7534SOL    HW134238   4.616   3.511   5.553  0.1185 -0.2608  0.0885
 7534SOL    HW234239   4.625   3.623   5.641 -0.7978 -0.2942 -0.0763
 7535SOL     OW34240   3.914   3.070   8.251  0.3145  0.0924  0.2733
 7535SOL    HW134241   3.851   3.141   8.239  0.2462  0.3635  2.2084
 7535SOL    HW234242   3.976   3.077   8.179  2.0744 -0.2575  1.7494
 7536SOL     OW34243   1.916   4.666   1.755  0.0872 -0.4043 -0.9675
 7536SOL    HW134244   1.897   4.626   1.670  0.0546  1.7857 -1.9780
 7536SOL    HW234245   1.893   4.595   1.815  0.4547  1.5550  1.4874
 7537SOL     OW34246   4.169   0.720   3.608  0.5460  0.2117 -0.4103
 7537SOL    HW134247   4.131   0.650   3.661 -0.1682  0.2577 -0.8742
 7537SOL    HW234248   4.135   0.709   3.520 -1.4513  1.4964  0.2100
 7538SOL     OW34249   1.618   3.937   6.071  0.0038 -0.0338  0.6184
 7538SOL    HW134250   1.622   3.860   6.128  2.3707  0.5231  1.1909
 7538SOL    HW234251   1.616   3.885   5.991  2.1591  0.2166  0.4048
 7539SOL     OW34252   4.428   1.498   1.454 -0.7522 -0.3641 -0.3409
 7539SOL    HW134253   4.483   1.565   1.494  0.7525 -0.3592 -2.4516
 7539SOL    HW234254   4.443   1.410   1.490 -0.7085  0.0929  0.7644
 7540SOL     OW34255   2.057   0.708   0.388 -0.2292 -0.2425 -0.0062
 7540SOL    HW134256   2.134   0.651   0.387  2.2860  3.1192 -1.2575
 7540SOL    HW234257   2.095   0.792   0.360  0.0513 -0.4050 -0.1164
 7541SOL     OW34258   1.166   3.758   3.148 -0.2420  0.1373  0.6108
 7541SOL    HW134259   1.105   3.687   3.170  0.6085 -0.8829 -0.3202
 7541SOL    HW234260   1.108   3.833   3.159 -2.3660 -1.4333  0.0703
 7542SOL     OW34261   0.286   3.618   7.664  0.9295  0.1049 -0.7739
 7542SOL    HW134262   0.350   3.563   7.710 -1.4506 -2.5103 -0.6058
 7542SOL    HW234263   0.206   3.570   7.686  1.2970  0.7960  2.1221
 7543SOL     OW34264   3.121   4.492   3.022  0.7965  0.2882 -0.1747
 7543SOL    HW134265   3.120   4.552   3.097 -0.2394  1.5624 -1.2138
 7543SOL    HW234266   3.126   4.556   2.951  0.7381  2.0693  1.4033
 7544SOL     OW34267   0.968   3.919  12.591  0.0007 -0.5561 -0.5191
 7544SOL    HW134268   1.007   3.906  12.504  1.0815 -0.2346 -0.0759
 7544SOL    HW234269   0.907   3.992  12.579  0.5273 -0.0437 -0.0947
 7545SOL     OW34270   0.899   1.435   2.069 -0.3688  0.7351  0.6615
 7545SOL    HW134271   0.933   1.348   2.053 -0.5212  0.9474 -0.7809
 7545SOL    HW234272   0.978   1.488   2.057  0.9636 -1.6239 -1.0244
 7546SOL     OW34273   2.848   2.339  14.952  0.2557  0.4520 -0.1856
 7546SOL    HW134274   2.785   2.268  14.961  0.3544  0.3718 -0.1210
 7546SOL    HW234275   2.931   2.290  14.955  0.3588  0.7218  1.4010
 7547SOL     OW34276   1.687   3.470   8.513  0.6104 -0.0096  0.1888
 7547SOL    HW134277   1.728   3.542   8.464 -2.2054 -1.3655 -4.1606
 7547SOL    HW234278   1.685   3.501   8.603 -1.7114 -1.4181  0.6008
 7548SOL     OW34279   3.455   2.916  11.983  0.3569 -0.2018 -0.2445
 7548SOL    HW134280   3.434   3.009  11.995  1.1014  0.4409 -3.9745
 7548SOL    HW234281   3.492   2.913  11.895 -0.3837 -0.1779 -0.5500
 7549SOL     OW34282   0.044   1.506  17.078 -0.1140 -0.0823  0.6264
 7549SOL    HW134283   0.123   1.453  17.092 -0.3238 -0.8865 -1.2367
 7549SOL    HW234284   4.717   1.442  17.053  1.0084 -2.3011  3.3976
 7550SOL     OW34285   0.253   1.305   5.745  0.1438 -0.4026  0.0286
 7550SOL    HW134286   0.245   1.251   5.823 -0.2365  0.8125  0.8178
 7550SOL    HW234287   0.250   1.225   5.692 -0.3042 -0.6566  0.4364
 7551SOL     OW34288   4.491   4.428   6.053 -0.4193  0.3426 -0.2900
 7551SOL    HW134289   4.567   4.420   6.112 -0.6694 -1.8758 -0.2886
 7551SOL    HW234290   4.449   4.355   6.098 -0.9768  1.1557  0.5142
 7552SOL     OW34291   1.884   0.365   6.587  0.3378 -0.1192  0.3309
 7552SOL    HW134292   1.876   0.450   6.629  0.7801  0.6810 -1.2152
 7552SOL    HW234293   1.870   0.305   6.661 -1.7012  0.4068  0.3780
 7553SOL     OW34294   3.282   1.715  16.626  0.8290 -0.0235 -0.1014
 7553SOL    HW134295   3.296   1.784  16.690 -1.7512  0.0960  0.3197
 7553SOL    HW234296   3.212   1.665  16.666 -0.9696  0.8818 -2.0870
 7554SOL     OW34297   0.604   3.698  13.437 -0.4284 -0.1327 -0.3928
 7554SOL    HW134298   0.588   3.642  13.361  2.4504 -1.4647 -0.0229
 7554SOL    HW234299   0.700   3.703  13.434 -0.3386 -1.4658  0.3511
 7555SOL     OW34300   4.163   4.704   2.746  0.0504  0.2879 -0.3836
 7555SOL    HW134301   4.188   4.738   2.660 -1.9537  0.3874 -0.9268
 7555SOL    HW234302   4.246   4.723   2.790 -0.5122  0.4270  0.6104
 7556SOL     OW34303   3.487   3.598   3.262  0.2951 -0.6446 -0.3646
 7556SOL    HW134304   3.542   3.594   3.341 -2.8340  0.6810  1.8746
 7556SOL    HW234305   3.451   3.686   3.268 -0.1224 -0.9039  0.8895
 7557SOL     OW34306   1.457   3.759  10.265  0.4647 -0.1725  0.4130
 7557SOL    HW134307   1.426   3.761  10.175  1.9679 -0.8602 -0.1201
 7557SOL    HW234308   1.471   3.666  10.282  1.5664 -0.0221  0.3079
 7558SOL     OW34309   4.195   1.988   5.420 -0.1143  0.4006  0.6596
 7558SOL    HW134310   4.286   1.965   5.405 -0.2255 -0.0427  0.6506
 7558SOL    HW234311   4.156   1.935   5.350 -0.3546  0.6631  0.5956
 7559SOL     OW34312   0.500   4.507  16.377 -0.0107  0.0328  0.1625
 7559SOL    HW134313   0.513   4.474  16.466 -0.6696 -0.4333  0.0782
 7559SOL    HW234314   0.546   4.591  16.375 -1.6115  0.8844 -0.5044
 7560SOL     OW34315   0.334   0.880  11.951 -0.1412  0.0157  0.0602
 7560SOL    HW134316   0.286   0.820  11.894  0.0267 -0.9029  0.8903
 7560SOL    HW234317   0.422   0.847  11.935 -0.2661 -0.0672 -0.4665
 7561SOL     OW34318   0.172   3.289  14.985 -0.3826 -0.9344 -0.0915
 7561SOL    HW134319   0.108   3.241  15.037 -0.4451 -0.3396  0.3841
 7561SOL    HW234320   0.122   3.354  14.936  0.8111  0.8622  1.0574
 7562SOL     OW34321   4.454   1.164   8.043  0.1904  0.2285 -0.1874
 7562SOL    HW134322   4.364   1.133   8.059  0.4484  0.4553  1.6996
 7562SOL    HW234323   4.427   1.239   7.989 -1.1779  1.4991  2.2664
 7563SOL     OW34324   4.083   2.378   2.906  0.3208 -0.4099 -0.0240
 7563SOL    HW134325   4.175   2.369   2.927  0.9034  2.2317 -1.4185
 7563SOL    HW234326   4.040   2.296   2.931 -0.2286 -0.7185 -2.0176
 7564SOL     OW34327   1.996   3.345  16.562  0.2804  0.0125 -0.1802
 7564SOL    HW134328   2.015   3.314  16.650 -2.8999 -0.3191  0.3572
 7564SOL    HW234329   2.004   3.439  16.581  1.4673 -0.5824  2.2370
 7565SOL     OW34330   1.227   3.443   1.367 -0.6103 -0.5851  0.1238
 7565SOL    HW134331   1.285   3.518   1.354 -1.6650 -0.3049 -2.8701
 7565SOL    HW234332   1.285   3.370   1.347 -0.8536 -0.4078 -1.1935
 7566SOL     OW34333   0.945   4.640  16.534  0.3865 -0.3378  0.1371
 7566SOL    HW134334   0.962   4.683  16.450  0.5945  0.5515  0.6375
 7566SOL    HW234335   0.895   4.564  16.507 -1.3005  0.4064  1.1635
 7567SOL     OW34336   1.618   2.899   6.399  0.9586  0.1836 -0.4267
 7567SOL    HW134337   1.555   2.933   6.335  1.5555  1.6749 -0.2091
 7567SOL    HW234338   1.693   2.936   6.353 -2.3958  3.4591 -3.3045
 7568SOL     OW34339   1.195   4.330   5.584 -0.1666  0.0811 -0.7150
 7568SOL    HW134340   1.229   4.420   5.582  0.1927 -0.0252  0.6891
 7568SOL    HW234341   1.128   4.348   5.650  0.2025 -2.0720  0.2540
 7569SOL     OW34342   1.758   3.169   5.406  0.0323 -0.2265 -0.2012
 7569SOL    HW134343   1.825   3.206   5.349  1.3114 -2.2567 -0.0181
 7569SOL    HW234344   1.809   3.127   5.475 -0.2463  1.6550  1.1282
 7570SOL     OW34345   2.284   3.967  17.606 -0.5431 -0.3464 -0.4472
 7570SOL    HW134346   2.338   3.970  17.685  0.9643  0.4560 -1.4938
 7570SOL    HW234347   2.253   3.878  17.623 -1.4546 -0.3181 -1.9366
 7571SOL     OW34348   4.404   2.160  13.508  0.2235  0.2141  0.6033
 7571SOL    HW134349   4.451   2.129  13.431 -0.5816 -0.5915  0.4358
 7571SOL    HW234350   4.457   2.121  13.577 -2.3147  0.2884  2.6136
 7572SOL     OW34351   1.003   2.304   4.269  0.7411  0.1912  0.1822
 7572SOL    HW134352   1.061   2.271   4.200  0.3881 -0.9706  0.4459
 7572SOL    HW234353   0.968   2.382   4.225  1.6130  0.0552 -0.7673
 7573SOL     OW34354   4.185   2.020  13.464  0.2819  0.8833  0.0061
 7573SOL    HW134355   4.164   2.027  13.371  1.1505  0.5226 -0.2167
 7573SOL    HW234356   4.267   2.070  13.465 -0.4255  2.0485 -1.1560
 7574SOL     OW34357   0.870   1.409   7.537  0.2482 -0.3269  0.0727
 7574SOL    HW134358   0.780   1.384   7.516  1.1970 -2.4240 -1.5188
 7574SOL    HW234359   0.870   1.502   7.559  0.5605  0.1150 -1.7803
 7575SOL     OW34360   1.186   4.726   7.322 -0.0865 -0.3325 -0.0014
 7575SOL    HW134361   1.154   0.072   7.354 -1.3866  0.6749 -3.8805
 7575SOL    HW234362   1.133   4.718   7.243 -2.1211  0.7518  1.2502
 7576SOL     OW34363   3.240   0.369   6.121 -0.0679  0.3812 -0.1997
 7576SOL    HW134364   3.223   0.427   6.195 -0.6120 -0.0741  0.0320
 7576SOL    HW234365   3.268   0.293   6.172  0.3822  1.2828  0.8945
 7577SOL     OW34366   1.703   2.165   8.635 -0.2183  0.2279  0.7657
 7577SOL    HW134367   1.780   2.127   8.678 -0.0551  0.5602  0.7660
 7577SOL    HW234368   1.693   2.128   8.547 -1.7595 -1.5176  1.6696
 7578SOL     OW34369   3.214   1.390   7.998 -0.6131 -0.6263 -0.1909
 7578SOL    HW134370   3.180   1.449   8.065 -1.0033  1.3982 -2.1819
 7578SOL    HW234371   3.182   1.433   7.919 -0.6280 -0.0159  0.1480
 7579SOL     OW34372   0.822   2.211   3.200 -0.4811  0.0266  0.3267
 7579SOL    HW134373   0.835   2.165   3.117  1.3016  0.4938  0.3411
 7579SOL    HW234374   0.732   2.242   3.194 -0.0019  1.3323 -0.2710
 7580SOL     OW34375   4.703   2.173   3.830  0.1877  0.3605  0.3332
 7580SOL    HW134376   4.671   2.263   3.832 -2.1464 -0.4155 -2.4936
 7580SOL    HW234377   0.056   2.199   3.837  0.0388  1.0106 -0.0668
 7581SOL     OW34378   2.545   3.777  11.740 -0.3628 -0.1923  0.3124
 7581SOL    HW134379   2.586   3.810  11.819  2.9491  1.8208 -2.2461
 7581SOL    HW234380   2.605   3.813  11.675  0.3243 -1.7797  0.0588
 7582SOL     OW34381   4.730   4.405  13.105 -0.3602 -0.2339 -0.1388
 7582SOL    HW134382   4.649   4.372  13.065 -0.9721  0.5378  0.4466
 7582SOL    HW234383   0.053   4.377  13.038 -3.1455 -2.7223 -1.6776
 7583SOL     OW34384   2.237   0.752   2.971 -0.3969 -0.2778  0.5605
 7583SOL    HW134385   2.161   0.695   2.989 -0.9498  0.5878  0.9829
 7583SOL    HW234386   2.271   0.753   3.061 -0.3654 -0.8510  0.5535
 7584SOL     OW34387   3.081   2.677   6.442 -0.6305 -0.0019  0.0513
 7584SOL    HW134388   3.084   2.593   6.488  0.2106  0.2763  0.5065
 7584SOL    HW234389   3.107   2.661   6.351  2.1596  0.7904  0.6996
 7585SOL     OW34390   3.197   3.734   8.851  0.5682  0.1714 -0.6221
 7585SOL    HW134391   3.152   3.660   8.892  0.5847  1.8018  2.3612
 7585SOL    HW234392   3.127   3.799   8.860  0.8929  0.3055  0.8990
 7586SOL     OW34393   3.038   1.444   1.317 -0.1476 -0.3781 -0.1699
 7586SOL    HW134394   3.111   1.465   1.375  0.8457  1.1084 -1.9762
 7586SOL    HW234395   3.065   1.479   1.233  1.5610 -0.7511  0.2194
 7587SOL     OW34396   3.026   1.869   0.767 -0.1364  0.0994  0.5218
 7587SOL    HW134397   3.115   1.840   0.748 -0.0836 -0.1707  1.2089
 7587SOL    HW234398   2.986   1.784   0.786  0.5159 -0.6270 -1.3567
 7588SOL     OW34399   2.071   0.296   7.797 -0.4673 -0.3771  0.0037
 7588SOL    HW134400   2.056   0.372   7.852  1.1153  1.2983 -1.9066
 7588SOL    HW234401   2.163   0.306   7.776 -0.0583 -0.8070  1.5704
 7589SOL     OW34402   1.298   2.031  15.536  0.1468 -0.5816  0.2194
 7589SOL    HW134403   1.312   2.002  15.446 -0.3303 -0.6854  0.1771
 7589SOL    HW234404   1.377   2.081  15.555 -1.2494  1.3735  0.8470
 7590SOL     OW34405   2.712   4.247   3.863 -0.2747  0.1252  0.1001
 7590SOL    HW134406   2.776   4.298   3.814  0.5079 -1.7175 -0.8056
 7590SOL    HW234407   2.760   4.170   3.897  0.5841  1.0138  0.9023
 7591SOL     OW34408   3.208   0.498   6.367 -0.0799 -0.2002 -0.3358
 7591SOL    HW134409   3.245   0.585   6.351 -3.3608  0.9287 -1.8213
 7591SOL    HW234410   3.129   0.515   6.417 -1.0091 -1.4021 -1.3945
 7592SOL     OW34411   4.323   3.352  14.944  0.3649 -0.1381 -0.5121
 7592SOL    HW134412   4.280   3.271  14.971 -1.5830  1.1141  0.1419
 7592SOL    HW234413   4.241   3.396  14.922 -0.8152 -1.3148  1.5971
 7593SOL     OW34414   0.243   0.462   9.584 -0.2594  0.0329 -0.1177
 7593SOL    HW134415   0.185   0.392   9.615  2.1079 -1.8187  0.1035
 7593SOL    HW234416   0.284   0.492   9.665 -0.2674  0.2417 -0.1900
 7594SOL     OW34417   3.382   0.693   5.124  0.3886 -0.3202  0.0782
 7594SOL    HW134418   3.384   0.663   5.033  1.0795  2.9118 -0.9715
 7594SOL    HW234419   3.476   0.713   5.133 -0.3243  2.5415  1.2448
 7595SOL     OW34420   2.835   1.382   7.893 -0.2719 -0.0140 -0.6117
 7595SOL    HW134421   2.843   1.321   7.967 -1.5069  0.0846 -0.4017
 7595SOL    HW234422   2.878   1.326   7.828 -1.1194 -1.8313  0.3842
 7596SOL     OW34423   4.538   1.177  12.953 -0.1670 -0.1887  0.1656
 7596SOL    HW134424   4.466   1.179  12.889  1.4943 -2.0930 -1.7683
 7596SOL    HW234425   4.511   1.228  13.029  0.3441  1.3308 -0.6763
 7597SOL     OW34426   1.597   3.763   2.087  0.3659 -0.3029  0.2353
 7597SOL    HW134427   1.675   3.801   2.046 -0.0351 -0.9265 -1.1085
 7597SOL    HW234428   1.567   3.841   2.134 -0.9932 -1.1112  0.7001
 7598SOL     OW34429   1.337   3.685   2.342  0.0475 -0.9594 -0.1914
 7598SOL    HW134430   1.336   3.620   2.273  1.5321  0.7093 -1.7721
 7598SOL    HW234431   1.243   3.698   2.352  0.2170  0.1001  0.0016
 7599SOL     OW34432   1.403   1.766  16.996  0.0098  0.0382 -0.0005
 7599SOL    HW134433   1.343   1.796  16.928 -0.6441 -2.0749 -0.3587
 7599SOL    HW234434   1.451   1.849  17.000 -0.2641  0.2653 -1.5852
 7600SOL     OW34435   3.477   1.721   6.732 -0.4842  0.2136 -0.2612
 7600SOL    HW134436   3.542   1.791   6.744 -0.0958 -0.1177 -0.4225
 7600SOL    HW234437   3.459   1.697   6.822 -0.4473 -1.4542 -0.7055
 7601SOL     OW34438   3.675   2.701   6.297  0.4105  0.1133  0.6879
 7601SOL    HW134439   3.667   2.606   6.307 -1.8640  0.0603 -1.6088
 7601SOL    HW234440   3.768   2.721   6.303  0.9821 -2.3889  0.2879
 7602SOL     OW34441   2.140   0.858   2.733 -0.7362 -0.0751  0.0202
 7602SOL    HW134442   2.210   0.834   2.672 -1.4893  2.5130 -1.8842
 7602SOL    HW234443   2.184   0.830   2.813 -2.4917  0.1416  1.0733
 7603SOL     OW34444   4.410   3.842  12.320 -0.3997  0.2939 -0.4968
 7603SOL    HW134445   4.497   3.803  12.317  0.7729  2.8448  0.6502
 7603SOL    HW234446   4.419   3.912  12.385 -0.3251 -1.2645  1.1470
 7604SOL     OW34447   2.591   1.712   4.439  0.0377  0.3502  0.0214
 7604SOL    HW134448   2.603   1.807   4.436 -1.4243  0.6143  2.4927
 7604SOL    HW234449   2.507   1.703   4.394  1.6857  4.3935 -3.8048
 7605SOL     OW34450   2.965   2.405  11.895 -0.2972  0.2180 -0.1628
 7605SOL    HW134451   3.060   2.399  11.885 -0.0313  1.7673  1.3570
 7605SOL    HW234452   2.972   2.486  11.946 -1.1712 -0.2899  0.7627
 7606SOL     OW34453   0.585   3.473   7.937  0.0506  0.3353  0.1261
 7606SOL    HW134454   0.632   3.463   7.854 -1.8464 -2.7652 -0.5642
 7606SOL    HW234455   0.582   3.382   7.966 -1.2927 -0.2709 -1.8663
 7607SOL     OW34456   1.448   1.317   1.876 -0.5406  0.5678  0.5839
 7607SOL    HW134457   1.503   1.265   1.818  0.3215  1.6225  0.4345
 7607SOL    HW234458   1.519   1.366   1.919  1.8278 -1.6764 -0.7413
 7608SOL     OW34459   0.410   1.108   4.138 -0.5751 -0.7042  0.6497
 7608SOL    HW134460   0.482   1.169   4.156  0.0065 -1.0752 -0.4461
 7608SOL    HW234461   0.403   1.054   4.217 -4.5888  1.4073  1.7373
 7609SOL     OW34462   1.271   2.372   8.165 -0.5198 -0.1879 -0.1918
 7609SOL    HW134463   1.197   2.313   8.177 -0.9877  0.2724 -0.8043
 7609SOL    HW234464   1.340   2.309   8.186 -0.0396  0.3953 -0.0132
 7610SOL     OW34465   0.275   4.593   2.788 -0.5409  0.0304  0.0255
 7610SOL    HW134466   0.224   4.569   2.866  0.0569  0.6467  0.6119
 7610SOL    HW234467   0.357   4.548   2.804  0.4724  1.5845 -0.7773
 7611SOL     OW34468   0.500   0.741   8.941  0.8635  0.0665  0.1914
 7611SOL    HW134469   0.538   0.750   9.028 -0.5932  1.2696  0.7047
 7611SOL    HW234470   0.473   0.649   8.939  0.6908  0.1158  0.2643
 7612SOL     OW34471   2.700   2.816   6.946  0.9620 -0.6241 -0.3723
 7612SOL    HW134472   2.698   2.809   6.850 -1.7052  1.2063 -0.4532
 7612SOL    HW234473   2.665   2.730   6.971 -0.7657  0.3326  0.4387
 7613SOL     OW34474   2.676   3.808   9.511  0.5774  0.8461  0.2922
 7613SOL    HW134475   2.730   3.865   9.456  0.5682 -0.0854 -0.6953
 7613SOL    HW234476   2.741   3.770   9.570  0.7063  0.7718  0.1039
 7614SOL     OW34477   1.866   3.584   1.614  0.9604  0.0569 -0.0326
 7614SOL    HW134478   1.843   3.677   1.607 -1.3284 -0.5581 -0.7333
 7614SOL    HW234479   1.805   3.555   1.682 -1.7613 -0.3284 -2.6026
 7615SOL     OW34480   1.802   1.040   6.717 -0.2401  0.2209  0.1348
 7615SOL    HW134481   1.745   1.027   6.642 -0.6437 -1.3976  0.7173
 7615SOL    HW234482   1.890   1.034   6.680 -2.1047 -1.0104 -4.0847
 7616SOL     OW34483   3.889   3.556   7.481 -0.1820  0.1119  0.4323
 7616SOL    HW134484   3.808   3.606   7.484 -1.5675 -2.3147  2.8714
 7616SOL    HW234485   3.930   3.569   7.566  0.8004  3.3534 -0.5336
 7617SOL     OW34486   4.102   3.482  10.216  0.0123  0.1026 -0.4573
 7617SOL    HW134487   4.171   3.416  10.206 -1.5273 -1.6238  0.1072
 7617SOL    HW234488   4.146   3.539  10.154 -0.2577  0.9748  0.1542
 7618SOL     OW34489   2.495   2.904   7.276 -0.1955 -0.3047 -0.3647
 7618SOL    HW134490   2.550   2.981   7.269  1.9815 -1.7804  0.5987
 7618SOL    HW234491   2.450   2.909   7.191  1.1029  2.5207 -0.8674
 7619SOL     OW34492   0.136   0.213   5.151 -0.7538  0.5103 -0.0696
 7619SOL    HW134493   0.071   0.283   5.146  0.2811  1.3780 -1.5980
 7619SOL    HW234494   0.086   0.134   5.133 -0.9542  0.5674  0.2496
 7620SOL     OW34495   3.116   2.419   6.550  0.7731 -0.4764  0.0538
 7620SOL    HW134496   3.186   2.449   6.609 -0.5022  2.8895 -0.1096
 7620SOL    HW234497   3.176   2.371   6.494  1.3850 -0.3071  0.5645
 7621SOL     OW34498   0.165   0.425   4.154  0.0235 -0.2139 -0.7865
 7621SOL    HW134499   0.078   0.392   4.133 -0.2102  0.6395 -1.1846
 7621SOL    HW234500   0.159   0.424   4.249 -5.1575 -0.7052 -1.1268
 7622SOL     OW34501   2.098   3.481   3.369  0.6034 -0.0030  0.2732
 7622SOL    HW134502   2.116   3.575   3.360  1.8712 -0.1198  1.7525
 7622SOL    HW234503   2.169   3.453   3.426  1.0095  1.2842  0.3977
 7623SOL     OW34504   1.987   4.312  16.651 -0.0042 -0.0433 -0.5611
 7623SOL    HW134505   2.054   4.248  16.673 -1.3719 -1.7723 -1.4603
 7623SOL    HW234506   2.007   4.335  16.560  1.2984  4.0036  0.7338
 7624SOL     OW34507   0.730   1.754   4.379  0.1110  0.0676  0.3917
 7624SOL    HW134508   0.806   1.800   4.414 -0.1207  1.1234 -0.4799
 7624SOL    HW234509   0.658   1.813   4.401 -0.4903 -0.7643  0.6676
 7625SOL     OW34510   3.621   3.183   1.752 -0.3527 -0.2700  0.0049
 7625SOL    HW134511   3.589   3.235   1.825  0.6141 -1.9666  1.6445
 7625SOL    HW234512   3.701   3.146   1.788 -0.1492 -1.8655 -2.0777
 7626SOL     OW34513   1.362   4.708   3.228  0.2701  0.6888  0.1461
 7626SOL    HW134514   1.414   0.034   3.276  0.9284 -0.4178  0.9361
 7626SOL    HW234515   1.413   4.631   3.254  1.1572  0.8621 -1.0650
 7627SOL     OW34516   4.344   0.647   2.894 -0.1326 -0.4693 -0.4611
 7627SOL    HW134517   4.421   0.612   2.939  0.2538  1.4412  0.3725
 7627SOL    HW234518   4.313   0.579   2.835  0.2648 -1.0891  0.0504
 7628SOL     OW34519   3.960   2.431   6.496 -0.3053 -0.1371  0.5855
 7628SOL    HW134520   4.029   2.402   6.556  0.2186 -0.0353  0.0380
 7628SOL    HW234521   4.006   2.423   6.412 -1.7662 -2.2216 -0.0344
 7629SOL     OW34522   2.446   0.885   7.938 -0.0706 -0.2219 -0.2638
 7629SOL    HW134523   2.459   0.969   7.895 -1.6760  0.2291  0.1114
 7629SOL    HW234524   2.499   0.891   8.018  1.8255 -0.4006 -1.5121
 7630SOL     OW34525   1.027   3.515   2.740 -0.8347 -0.1534 -0.6384
 7630SOL    HW134526   1.050   3.427   2.769 -1.9735 -0.7937 -1.6376
 7630SOL    HW234527   1.057   3.514   2.649 -0.4193 -1.0803 -0.4848
 7631SOL     OW34528   4.141   4.641  10.809 -0.1065 -0.8308 -0.6466
 7631SOL    HW134529   4.079   4.627  10.881 -0.1310  0.4840 -0.4054
 7631SOL    HW234530   4.098   4.695  10.742 -0.3797 -0.0946  0.1162
 7632SOL     OW34531   0.220   1.394   1.015  0.4186 -0.1471  0.4235
 7632SOL    HW134532   0.172   1.428   1.091  1.3398 -0.3111  1.0828
 7632SOL    HW234533   0.151   1.402   0.949  0.0910 -0.9746  0.6640
 7633SOL     OW34534   0.881   3.671  13.435 -0.0704  0.7763  0.1597
 7633SOL    HW134535   0.944   3.605  13.406 -1.3716  0.5928 -2.3262
 7633SOL    HW234536   0.922   3.705  13.514  1.1460  0.9907 -0.5517
 7634SOL     OW34537   0.799   4.368   7.504 -0.2568  0.4639  0.7383
 7634SOL    HW134538   0.879   4.369   7.451 -1.0816  1.3159 -0.4839
 7634SOL    HW234539   0.827   4.438   7.563  0.9596  0.7204 -0.1307
 7635SOL     OW34540   2.863   0.283   7.718 -0.2895  0.4178 -0.3785
 7635SOL    HW134541   2.919   0.214   7.683 -2.0135 -1.4471  0.6005
 7635SOL    HW234542   2.845   0.332   7.637 -2.3308  2.2643  1.1881
 7636SOL     OW34543   2.103   1.495   4.052  0.0848 -0.0842 -0.0034
 7636SOL    HW134544   2.084   1.455   4.137 -0.2567  1.7271  0.7540
 7636SOL    HW234545   2.097   1.588   4.071 -2.5243 -0.4345  0.9092
 7637SOL     OW34546   0.820   1.744   2.656 -0.1598 -0.1149  0.1178
 7637SOL    HW134547   0.904   1.727   2.615 -0.8178 -0.4445 -1.1074
 7637SOL    HW234548   0.844   1.795   2.733  1.2829 -1.6716  0.7062
 7638SOL     OW34549   2.187   2.835  10.916 -0.5088 -0.0837 -0.1616
 7638SOL    HW134550   2.149   2.899  10.977  1.8383 -0.7632  2.0246
 7638SOL    HW234551   2.108   2.795  10.880 -0.8888  0.8603 -0.3736
 7639SOL     OW34552   0.502   0.867   9.736 -0.2743 -0.1718  0.0297
 7639SOL    HW134553   0.413   0.893   9.761  0.1884  0.4324  1.0806
 7639SOL    HW234554   0.562   0.910   9.796 -1.7964  1.0241  0.6889
 7640SOL     OW34555   1.782   0.423  11.593  0.0150  0.3691 -0.5576
 7640SOL    HW134556   1.863   0.442  11.641  0.1473  0.6924 -0.9050
 7640SOL    HW234557   1.797   0.334  11.561 -2.5175 -0.5350  0.7620
 7641SOL     OW34558   3.656   2.839   7.354  0.0916 -0.2771 -0.0146
 7641SOL    HW134559   3.696   2.752   7.358  0.3993 -0.2226 -2.4615
 7641SOL    HW234560   3.727   2.902   7.355 -0.6588  0.5679 -1.3581
 7642SOL     OW34561   0.186   0.215  13.408  0.5979  0.1484  0.3514
 7642SOL    HW134562   0.212   0.143  13.466 -2.0335 -0.9211  0.2278
 7642SOL    HW234563   0.267   0.229  13.359  1.2071  1.7845  1.8693
 7643SOL     OW34564   2.379   1.636   5.413  0.2322 -0.5257  0.2855
 7643SOL    HW134565   2.438   1.687   5.468  0.3303 -2.0392  1.6122
 7643SOL    HW234566   2.335   1.704   5.363 -1.2175 -2.1800 -0.7061
 7644SOL     OW34567   0.564   3.088  13.040  0.0902 -0.4604 -0.1258
 7644SOL    HW134568   0.640   3.094  13.097  0.1380  2.4596 -0.5359
 7644SOL    HW234569   0.605   3.126  12.962  0.3671  1.1998  0.8374
 7645SOL     OW34570   0.794   2.141   8.481  0.8929 -0.2175 -0.2340
 7645SOL    HW134571   0.808   2.235   8.496  0.5739 -0.4934  1.9094
 7645SOL    HW234572   0.701   2.137   8.457  1.3507 -0.1196 -1.9826
 7646SOL     OW34573   4.190   0.979  16.739  0.6148  0.4184  0.0811
 7646SOL    HW134574   4.192   0.902  16.683  1.0441 -0.4938  1.3564
 7646SOL    HW234575   4.129   1.038  16.695  2.2770  1.2482 -1.1482
 7647SOL     OW34576   1.442   1.375  16.057 -0.3367 -0.3317  0.0326
 7647SOL    HW134577   1.521   1.325  16.077  0.7737  1.6649  0.6150
 7647SOL    HW234578   1.390   1.361  16.136  0.2495 -2.3158  0.0635
 7648SOL     OW34579   2.876   2.310   5.054 -0.9446 -0.4424  0.0451
 7648SOL    HW134580   2.887   2.387   5.111 -0.9664 -0.4951  0.1212
 7648SOL    HW234581   2.852   2.241   5.117 -3.8648  0.6584  0.1176
 7649SOL     OW34582   1.050   2.638   9.017  0.7003 -0.0525 -0.0549
 7649SOL    HW134583   1.060   2.544   9.000 -2.1742 -0.2227 -0.7269
 7649SOL    HW234584   1.140   2.655   9.046  0.0680  0.8731  1.3486
 7650SOL     OW34585   3.051   4.636   2.405  0.3417 -0.1271 -0.0611
 7650SOL    HW134586   3.070   4.620   2.313 -1.5505 -0.8578 -0.3269
 7650SOL    HW234587   2.988   4.707   2.416  0.9049  0.7254 -2.3093
 7651SOL     OW34588   1.978   3.384   2.616 -0.5241 -1.0361  0.4021
 7651SOL    HW134589   1.977   3.294   2.648 -0.5649 -0.8728  0.8692
 7651SOL    HW234590   2.029   3.422   2.688  2.4216 -0.4018 -2.0237
 7652SOL     OW34591   1.358   2.189  10.057 -0.3122 -0.1789  1.0146
 7652SOL    HW134592   1.333   2.165  10.146 -1.9047 -0.0262  0.6014
 7652SOL    HW234593   1.443   2.231  10.071  0.6412 -1.4973 -0.8531
 7653SOL     OW34594   4.518   2.007  17.643  0.6500 -0.2145  0.3752
 7653SOL    HW134595   4.477   2.055  17.715  0.0858  1.6920 -1.2417
 7653SOL    HW234596   4.499   2.065  17.570  0.1361  2.0036  2.2897
 7654SOL     OW34597   0.147   0.925   2.118 -0.0814 -0.3014 -0.4095
 7654SOL    HW134598   0.197   0.899   2.041  2.5140 -0.2605  1.2634
 7654SOL    HW234599   0.063   0.938   2.074 -0.3037 -0.8197 -0.1477
 7655SOL     OW34600   3.549   0.219   1.582  0.0658  0.0726 -0.2756
 7655SOL    HW134601   3.482   0.151   1.579 -0.4765  0.5909  0.0878
 7655SOL    HW234602   3.539   0.268   1.500 -1.1155 -2.3062 -1.5554
 7656SOL     OW34603   3.503   3.604   7.377 -0.4886  0.0179 -0.5342
 7656SOL    HW134604   3.483   3.516   7.410  0.2915 -0.6866 -1.9456
 7656SOL    HW234605   3.454   3.610   7.295  2.1458  0.6259 -2.0300
 7657SOL     OW34606   0.617   0.425   9.517 -0.0608 -0.4180  0.2680
 7657SOL    HW134607   0.677   0.400   9.587  0.7423  3.0570  0.8462
 7657SOL    HW234608   0.614   0.521   9.520 -2.5216 -0.4836 -0.0992
 7658SOL     OW34609   2.886   2.883   5.315 -0.2486  0.4733  0.6445
 7658SOL    HW134610   2.905   2.798   5.276  0.1128  1.7816 -2.0393
 7658SOL    HW234611   2.957   2.932   5.274 -1.6167  1.9873  0.0430
 7659SOL     OW34612   3.449   1.410  10.562  0.2664 -0.1141  0.4586
 7659SOL    HW134613   3.438   1.375  10.474 -2.1816  1.0195  0.3175
 7659SOL    HW234614   3.536   1.385  10.593 -0.6938 -2.6792  1.1410
 7660SOL     OW34615   0.913   1.313   8.488  0.2385 -0.0030  0.4301
 7660SOL    HW134616   0.852   1.386   8.475  0.0698 -0.0553  0.9291
 7660SOL    HW234617   0.859   1.235   8.479 -0.9698  0.9797 -0.8846
 7661SOL     OW34618   4.383   2.398   6.372 -0.3760  0.1967 -0.5538
 7661SOL    HW134619   4.457   2.379   6.430  0.3816  0.5797 -1.3992
 7661SOL    HW234620   4.341   2.469   6.420 -2.0446 -0.9422 -0.3165
 7662SOL     OW34621   0.203   2.269   9.799 -0.1838  0.1976  0.2459
 7662SOL    HW134622   0.126   2.221   9.769 -0.6569  0.0038  1.7741
 7662SOL    HW234623   0.274   2.213   9.768  0.5851  2.2558 -1.6738
 7663SOL     OW34624   4.550   3.564  12.626  0.6116  0.1091 -0.2784
 7663SOL    HW134625   4.598   3.615  12.692  0.8375 -0.3967 -0.0503
 7663SOL    HW234626   4.607   3.512  12.570  1.2144 -2.7394  2.9324
 7664SOL     OW34627   3.831   0.604   5.135 -0.0165 -0.2400 -0.4708
 7664SOL    HW134628   3.907   0.552   5.112 -0.0663 -0.0920 -0.9786
 7664SOL    HW234629   3.851   0.644   5.219  2.9397  2.3236 -2.4000
 7665SOL     OW34630   3.533   2.685   6.051  0.6161 -0.0641  0.9995
 7665SOL    HW134631   3.557   2.776   6.032  0.1422 -0.0209  0.6054
 7665SOL    HW234632   3.572   2.682   6.138  0.5334 -1.0739  1.0038
 7666SOL     OW34633   4.455   3.923  10.821 -0.0571 -0.4842 -0.1265
 7666SOL    HW134634   4.412   3.854  10.770 -1.7366  1.4135 -1.2766
 7666SOL    HW234635   4.492   3.862  10.885 -0.1597 -0.9289 -0.4895
 7667SOL     OW34636   3.491   3.225   6.289  0.2171 -0.2164 -0.1741
 7667SOL    HW134637   3.561   3.289   6.283 -1.0791  1.1212 -1.0658
 7667SOL    HW234638   3.504   3.181   6.373  0.8312 -1.8565 -1.1274
 7668SOL     OW34639   0.035   2.236   1.315 -0.6034  0.8884  0.0078
 7668SOL    HW134640   0.015   2.142   1.315  2.5053  0.2186  1.5938
 7668SOL    HW234641   0.042   2.260   1.223 -1.2091 -0.7811 -0.4812
 7669SOL     OW34642   3.867   2.981  15.368  0.3595  0.3928 -0.2216
 7669SOL    HW134643   3.953   2.999  15.406  0.5132 -1.1082  0.1483
 7669SOL    HW234644   3.826   2.947  15.447 -1.5743  0.9583 -1.0002
 7670SOL     OW34645   3.822   3.481   2.211 -0.1024 -0.0283  0.2100
 7670SOL    HW134646   3.841   3.413   2.147  0.5519 -1.2038  1.6384
 7670SOL    HW234647   3.757   3.436   2.264 -0.0356 -3.4371 -2.6317
 7671SOL     OW34648   3.120   0.824   1.587 -0.0909  0.3174  0.4928
 7671SOL    HW134649   3.127   0.785   1.500  1.0132 -2.3123  1.7774
 7671SOL    HW234650   3.177   0.898   1.565 -0.0617  0.6388  1.6386
 7672SOL     OW34651   3.542   1.071  16.975  0.0394  0.2597 -0.3639
 7672SOL    HW134652   3.530   1.090  16.882  0.7304  0.6509 -0.3715
 7672SOL    HW234653   3.623   1.119  16.991  0.3856 -0.2683 -0.5663
 7673SOL     OW34654   3.628   2.005   3.986 -0.4733 -0.0073  0.3716
 7673SOL    HW134655   3.556   1.979   4.044  0.8368 -0.8494  1.6219
 7673SOL    HW234656   3.626   2.100   3.995 -1.1366 -0.0237  0.3823
 7674SOL     OW34657   0.234   2.673   3.016  0.3522 -0.3034  0.7763
 7674SOL    HW134658   0.217   2.711   2.930  0.3645  1.9537  1.7783
 7674SOL    HW234659   0.154   2.628   3.042 -0.4629  1.2396  0.8798
 7675SOL     OW34660   3.240   3.257  14.618  0.1013 -0.1953  0.0596
 7675SOL    HW134661   3.253   3.199  14.543 -0.5690 -1.5380  0.9924
 7675SOL    HW234662   3.310   3.320  14.596  0.5811 -1.0075 -0.7325
 7676SOL     OW34663   1.558   3.821   9.537 -0.4060 -0.0284  0.9657
 7676SOL    HW134664   1.545   3.915   9.544 -0.1524  0.0373  0.5773
 7676SOL    HW234665   1.648   3.820   9.504 -1.2469  0.0486 -1.3170
 7677SOL     OW34666   4.284   3.054   5.814 -0.1639  0.0763  0.1051
 7677SOL    HW134667   4.290   2.962   5.839  1.0626  0.3225  0.6917
 7677SOL    HW234668   4.356   3.094   5.862  1.4302 -3.5205  0.6667
 7678SOL     OW34669   4.690   1.784   6.516  0.1187 -0.0402 -0.3820
 7678SOL    HW134670   4.701   1.700   6.473 -0.6598 -0.3583  0.0551
 7678SOL    HW234671   4.704   1.838   6.438 -0.6756 -0.7269 -0.9914
 7679SOL     OW34672   3.039   2.325   3.105 -0.1053  0.2132  0.0267
 7679SOL    HW134673   3.040   2.235   3.139  1.5123  0.8435  1.6703
 7679SOL    HW234674   3.115   2.359   3.153 -0.6751  0.8428  0.4727
 7680SOL     OW34675   1.532   1.785   0.504 -0.2383 -0.4597 -0.4730
 7680SOL    HW134676   1.530   1.695   0.470 -0.7542 -0.6377  0.0337
 7680SOL    HW234677   1.626   1.802   0.516 -0.5501  0.1963  1.0242
 7681SOL     OW34678   1.076   3.471   8.060 -0.5007 -0.5058  0.5126
 7681SOL    HW134679   1.116   3.524   8.129  1.1034 -0.6139 -0.3150
 7681SOL    HW234680   0.986   3.498   8.076  0.6294  2.3934  2.0610
 7682SOL     OW34681   0.736   3.643  12.962 -0.3280  0.5049  0.0726
 7682SOL    HW134682   0.801   3.650  12.891  0.2122 -0.3545  0.4777
 7682SOL    HW234683   0.789   3.638  13.041 -0.2096  2.8644  0.1211
 7683SOL     OW34684   3.221   3.733   6.080 -0.0220 -1.0521  0.2316
 7683SOL    HW134685   3.262   3.814   6.109 -0.0934  0.0059 -2.6049
 7683SOL    HW234686   3.259   3.737   5.992  2.2402 -1.5615  1.1972
 7684SOL     OW34687   4.418   4.157   8.995 -0.6120  0.1251  0.1681
 7684SOL    HW134688   4.374   4.219   8.937 -0.0132  1.0823  0.7563
 7684SOL    HW234689   4.412   4.198   9.081  0.6761  0.0030  0.3165
 7685SOL     OW34690   2.219   4.227   6.479 -0.5771  0.5844  0.2341
 7685SOL    HW134691   2.227   4.322   6.489  2.3640  0.2335  1.1253
 7685SOL    HW234692   2.249   4.194   6.564  0.3103 -0.8695 -0.6502
 7686SOL     OW34693   1.670   1.344   8.720  0.4640  0.1361  0.8397
 7686SOL    HW134694   1.592   1.301   8.683  0.5828  1.4593 -0.9709
 7686SOL    HW234695   1.639   1.430   8.747  2.5080  1.1753 -0.1907
 7687SOL     OW34696   4.189   2.264   5.499 -0.8283 -0.4527 -0.1165
 7687SOL    HW134697   4.153   2.178   5.475  1.6094 -1.3909 -0.4880
 7687SOL    HW234698   4.121   2.321   5.462  0.8675  1.1184 -0.7909
 7688SOL     OW34699   2.031   2.844   7.696 -0.4777  0.0735  0.2282
 7688SOL    HW134700   1.952   2.793   7.676  0.0860 -0.8037  0.2265
 7688SOL    HW234701   2.039   2.891   7.613 -0.9899 -2.3588 -1.2251
 7689SOL     OW34702   2.455   0.027   5.727 -0.1943 -0.3276 -0.3778
 7689SOL    HW134703   2.539   0.073   5.735  0.3797 -1.3638 -0.4242
 7689SOL    HW234704   2.391   0.084   5.770  0.5529  3.0292 -3.6869
 7690SOL     OW34705   1.306   2.122   2.595 -0.4021 -0.3139  0.4936
 7690SOL    HW134706   1.316   2.034   2.630  0.1025 -0.1836  0.6778
 7690SOL    HW234707   1.368   2.166   2.655 -1.8692  0.2097  1.6368
 7691SOL     OW34708   0.383   1.370  11.568 -0.0129  0.1245  0.3413
 7691SOL    HW134709   0.472   1.335  11.570 -0.2680 -0.5512  0.1291
 7691SOL    HW234710   0.345   1.329  11.646 -1.0372  0.0842 -0.1803
 7692SOL     OW34711   1.105   1.474  16.738  0.0821 -0.3569  0.1096
 7692SOL    HW134712   1.115   1.567  16.720  1.7970 -0.5065  0.2823
 7692SOL    HW234713   1.112   1.427  16.655 -1.4610  0.3004 -0.3830
 7693SOL     OW34714   1.392   3.826   3.406  0.3001 -0.3402  0.7249
 7693SOL    HW134715   1.338   3.761   3.450 -0.9706  0.1408 -0.1413
 7693SOL    HW234716   1.331   3.899   3.399  0.3366 -0.2751  1.0932
 7694SOL     OW34717   0.351   1.430  12.828  0.1384 -0.3424  0.0875
 7694SOL    HW134718   0.396   1.505  12.866  0.9473  0.1538 -1.8595
 7694SOL    HW234719   0.260   1.445  12.851 -0.1878  1.8317 -2.6114
 7695SOL     OW34720   2.703   2.379   8.288 -0.2426  0.4723 -0.1978
 7695SOL    HW134721   2.657   2.456   8.320 -3.0600 -0.5811 -1.7559
 7695SOL    HW234722   2.645   2.313   8.325  2.6547 -1.0691  1.6412
 7696SOL     OW34723   1.635   4.721  14.345 -0.2202  0.5634 -0.1916
 7696SOL    HW134724   1.713   4.669  14.323  0.3454  2.3179 -2.2955
 7696SOL    HW234725   1.602   4.662  14.413  0.3486 -0.6092 -0.9398
 7697SOL     OW34726   2.095   2.508   4.032 -0.2836  0.1496 -0.3129
 7697SOL    HW134727   2.080   2.419   4.001 -1.2075  0.1400  0.1731
 7697SOL    HW234728   2.073   2.560   3.954 -0.2331  2.4599  1.2150
 7698SOL     OW34729   0.970   2.694   5.592 -0.2164 -0.0250  0.0947
 7698SOL    HW134730   1.054   2.650   5.594 -2.4879 -4.3341 -0.7721
 7698SOL    HW234731   0.904   2.628   5.574 -0.3523  0.5342 -1.4404
 7699SOL     OW34732   0.721   2.482  13.890 -0.4320  0.4088  0.1279
 7699SOL    HW134733   0.657   2.487  13.962 -1.3237 -0.7676 -0.5816
 7699SOL    HW234734   0.667   2.488  13.811 -2.3790 -1.4128  1.3255
 7700SOL     OW34735   4.416   2.819   4.448 -0.3217 -0.2005  0.2084
 7700SOL    HW134736   4.496   2.791   4.494 -0.9573 -1.6423  0.4325
 7700SOL    HW234737   4.426   2.775   4.363 -0.5475  2.4924 -1.2059
 7701SOL     OW34738   3.076   1.847   6.525  0.4567  0.5415  0.4391
 7701SOL    HW134739   3.105   1.892   6.605  2.2943 -1.2104  0.7680
 7701SOL    HW234740   3.149   1.784   6.519 -0.1111 -0.3423  2.6267
 7702SOL     OW34741   1.181   0.576   7.007  0.2920  0.2621 -0.4325
 7702SOL    HW134742   1.162   0.628   6.928 -0.2735  3.3176  1.7311
 7702SOL    HW234743   1.268   0.543   6.983 -1.2539 -2.1222 -2.7827
 7703SOL     OW34744   0.668   0.439   6.732  0.3571 -0.5143 -0.1423
 7703SOL    HW134745   0.623   0.493   6.797 -0.2829 -0.0570 -0.9690
 7703SOL    HW234746   0.720   0.506   6.688  0.6999 -1.0190 -0.5007
 7704SOL     OW34747   3.618   0.812   2.698 -0.4206 -0.2769  0.0421
 7704SOL    HW134748   3.682   0.811   2.627 -1.5092 -3.2455 -0.9058
 7704SOL    HW234749   3.539   0.844   2.655  0.1197 -0.0857 -0.8117
 7705SOL     OW34750   1.529   2.003   1.493  0.4923 -0.0958 -0.4288
 7705SOL    HW134751   1.472   2.002   1.416  0.7410  0.9053 -0.6256
 7705SOL    HW234752   1.510   1.922   1.540 -0.7821  0.0222 -0.7421
 7706SOL     OW34753   2.538   1.099   7.559 -0.1027  0.7222  0.0650
 7706SOL    HW134754   2.480   1.053   7.499  2.0786 -2.2442  0.1801
 7706SOL    HW234755   2.622   1.053   7.547 -0.6441 -0.5331  1.0383
 7707SOL     OW34756   1.951   2.402   2.637  0.0020  0.3004  0.1780
 7707SOL    HW134757   1.886   2.357   2.583  0.5753 -0.1723 -0.1072
 7707SOL    HW234758   1.948   2.494   2.609 -0.3102  0.3166  0.2651
 7708SOL     OW34759   0.427   0.209   9.602 -0.8007 -0.1355 -0.0026
 7708SOL    HW134760   0.343   0.179   9.567 -0.8502 -0.6928  0.6097
 7708SOL    HW234761   0.431   0.296   9.561  1.1186  0.2225  0.9550
 7709SOL     OW34762   3.670   2.420   0.013 -0.0892  0.0524  0.5391
 7709SOL    HW134763   3.592   2.368   0.034  1.8402 -2.2526  2.0310
 7709SOL    HW234764   3.621   2.476  17.705 -0.4369 -1.1613 -0.2963
 7710SOL     OW34765   1.656   0.003  10.098  0.1496 -0.8000 -0.1441
 7710SOL    HW134766   1.733   0.048  10.133 -1.0686  1.2736 -0.0786
 7710SOL    HW234767   1.669   0.023  10.005  0.3577 -1.3232 -0.2260
 7711SOL     OW34768   3.484   2.543  17.587  0.0858  0.4225  0.2297
 7711SOL    HW134769   3.521   2.504  17.508  2.2187  2.5771  0.1819
 7711SOL    HW234770   3.416   2.600  17.551 -0.2983 -1.2874 -1.7341
 7712SOL     OW34771   4.052   1.985  10.001 -0.1686 -0.2123 -1.0269
 7712SOL    HW134772   3.968   1.950   9.971 -1.4601  2.8872 -0.9930
 7712SOL    HW234773   4.041   1.968  10.095 -1.1740 -0.1791 -1.1361
 7713SOL     OW34774   3.920   1.778   8.419 -0.3713 -0.2347  0.4431
 7713SOL    HW134775   3.886   1.704   8.369  1.1731  0.2930 -1.3571
 7713SOL    HW234776   3.891   1.741   8.503  3.5239 -0.1867  1.8004
 7714SOL     OW34777   0.338   3.147   9.097  0.6394 -0.1464 -0.0163
 7714SOL    HW134778   0.371   3.214   9.037  0.7437  1.6209  2.0297
 7714SOL    HW234779   0.354   3.069   9.045 -0.4993  0.9331 -2.0172
 7715SOL     OW34780   4.530   0.582   8.787  0.2638 -0.5357  0.1828
 7715SOL    HW134781   4.541   0.675   8.766 -1.0236 -0.3054  0.5430
 7715SOL    HW234782   4.461   0.560   8.723 -2.0387 -0.3875  2.6272
 7716SOL     OW34783   3.901   0.766  10.448 -0.3993 -0.1334 -0.3799
 7716SOL    HW134784   3.980   0.742  10.495  1.0999  0.3698 -2.6546
 7716SOL    HW234785   3.913   0.861  10.446  4.0744 -0.7086  0.4040
 7717SOL     OW34786   3.134   2.027   6.236  0.2180 -0.2435 -0.4812
 7717SOL    HW134787   3.199   2.086   6.198 -1.1349 -0.1323 -2.6347
 7717SOL    HW234788   3.131   1.953   6.175 -1.9319 -1.4852  1.1390
 7718SOL     OW34789   4.326   2.786   5.865 -0.8674  0.3566  0.1752
 7718SOL    HW134790   4.383   2.747   5.798  1.0159  0.3101  1.7853
 7718SOL    HW234791   4.275   2.709   5.887  1.2276 -1.1939 -0.3414
 7719SOL     OW34792   0.575   1.421   7.541  0.6205  0.3077  0.7244
 7719SOL    HW134793   0.527   1.501   7.563  0.9731  0.4336  1.0435
 7719SOL    HW234794   0.543   1.363   7.610 -0.8192 -0.8080 -0.8534
 7720SOL     OW34795   1.170   1.417  10.152 -0.5450 -0.2529  0.6697
 7720SOL    HW134796   1.149   1.441  10.061 -0.9766 -1.2357  0.5144
 7720SOL    HW234797   1.260   1.387  10.142 -0.0074  1.3185  0.8455
 7721SOL     OW34798   2.123   4.013   8.393 -0.0232 -0.7064  0.3666
 7721SOL    HW134799   2.036   4.045   8.368  0.4433  0.6565  0.4872
 7721SOL    HW234800   2.167   4.098   8.384 -0.8704 -0.5530 -2.4130
 7722SOL     OW34801   0.206   4.240  11.560  0.4376  0.1308  0.1840
 7722SOL    HW134802   0.297   4.212  11.547  0.6504  1.5287 -1.3964
 7722SOL    HW234803   0.206   4.331  11.532 -1.5297 -0.5085 -1.8857
 7723SOL     OW34804   0.023   0.301   3.425  0.3982 -0.5380 -0.2656
 7723SOL    HW134805   0.046   0.220   3.378  0.5290 -0.7202  0.1134
 7723SOL    HW234806   4.683   0.326   3.377  1.3461 -0.2521 -1.6676
 7724SOL     OW34807   1.168   1.699   2.768  0.1979  0.3800  0.6840
 7724SOL    HW134808   1.234   1.654   2.716 -0.8027  0.8010 -0.9546
 7724SOL    HW234809   1.142   1.756   2.695 -0.7196 -0.0396  0.6844
 7725SOL     OW34810   4.418   3.372   5.721 -0.0675  0.2417  0.0110
 7725SOL    HW134811   4.451   3.452   5.761 -1.0667  0.6360  0.0269
 7725SOL    HW234812   4.357   3.343   5.788  1.5746 -2.0304  0.5474
 7726SOL     OW34813   3.081   1.993  13.829  0.0599 -0.4568 -0.2356
 7726SOL    HW134814   3.023   1.926  13.794  0.5357 -1.5679  1.1241
 7726SOL    HW234815   3.113   2.032  13.747 -2.0907  0.7919 -0.4722
 7727SOL     OW34816   2.414   4.560   1.808 -0.4077  0.3371  0.3822
 7727SOL    HW134817   2.409   4.647   1.848 -3.8622  0.1323  0.3498
 7727SOL    HW234818   2.361   4.571   1.730  1.0300 -1.5683 -0.8862
 7728SOL     OW34819   0.549   3.734   7.101 -0.3593  0.1964  0.3561
 7728SOL    HW134820   0.530   3.694   7.186 -0.1052 -0.3201  0.1685
 7728SOL    HW234821   0.549   3.827   7.124  0.4387  0.8201 -2.1549
 7729SOL     OW34822   4.596   2.067   2.176  0.4328  0.3519 -0.0207
 7729SOL    HW134823   4.677   2.058   2.126  0.7283 -0.4100  0.5872
 7729SOL    HW234824   4.550   2.126   2.117  1.2835  1.7163  0.6769
 7730SOL     OW34825   0.247   2.651   3.453 -0.3502 -0.2733 -0.7520
 7730SOL    HW134826   0.159   2.686   3.464 -0.2756  0.1297 -1.4347
 7730SOL    HW234827   0.234   2.558   3.467 -0.5125  0.3047  2.8227
 7731SOL     OW34828   3.870   1.352   2.623  0.1139  0.3509  0.3369
 7731SOL    HW134829   3.887   1.382   2.534  1.2553  1.0358  0.7886
 7731SOL    HW234830   3.959   1.364   2.657  0.3772  1.6470 -0.7929
 7732SOL     OW34831   4.528   1.678  15.090 -0.1005  0.4551 -0.0949
 7732SOL    HW134832   4.501   1.765  15.061  0.2933  0.0781 -1.5926
 7732SOL    HW234833   4.571   1.645  15.011  0.4075  2.3136 -0.5925
 7733SOL     OW34834   3.298   3.972   6.669 -0.0285 -0.2455  0.5922
 7733SOL    HW134835   3.332   3.915   6.600  0.1857  3.0456 -2.0289
 7733SOL    HW234836   3.258   4.045   6.622  1.5205  0.6694  0.6927
 7734SOL     OW34837   0.767   3.336   6.991  0.0392  0.4428  0.0648
 7734SOL    HW134838   0.694   3.292   7.035 -2.0681  2.2541 -1.6434
 7734SOL    HW234839   0.736   3.353   6.902  3.6582  3.0073 -0.6916
 7735SOL     OW34840   0.034   2.274   6.108 -0.4851 -0.4581 -0.0751
 7735SOL    HW134841   4.731   2.310   6.029  0.9512  0.6662 -0.3166
 7735SOL    HW234842   4.715   2.198   6.118  0.1542 -0.8290  0.7557
 7736SOL     OW34843   2.036   0.877  12.394  0.5903  0.1349  0.1681
 7736SOL    HW134844   1.967   0.944  12.396  5.2848  4.8963  1.0062
 7736SOL    HW234845   2.075   0.872  12.481 -1.4434 -0.3383  1.0583
 7737SOL     OW34846   1.102   4.428  13.951  0.5469 -0.0078 -0.2236
 7737SOL    HW134847   1.080   4.495  13.887  2.9920  0.2795 -0.7887
 7737SOL    HW234848   1.067   4.359  13.894  0.0002  0.4319 -0.4171
 7738SOL     OW34849   4.654   3.811  15.535  0.1438 -0.4840 -0.0753
 7738SOL    HW134850   0.002   3.848  15.555 -0.2510 -0.3253  1.3983
 7738SOL    HW234851   4.658   3.805  15.440  2.8760  2.2922 -0.1138
 7739SOL     OW34852   4.448   1.524  10.471  0.2375  0.2085  0.3731
 7739SOL    HW134853   4.466   1.597  10.412  2.6674 -0.6733  0.0175
 7739SOL    HW234854   4.532   1.499  10.510  1.0005  2.5840  0.2645
 7740SOL     OW34855   4.110   2.150   2.284  0.1202 -0.4318  0.1465
 7740SOL    HW134856   4.130   2.186   2.370 -3.2537  0.3172  0.5949
 7740SOL    HW234857   4.079   2.061   2.303 -0.7166  0.0033  0.7809
 7741SOL     OW34858   3.667   2.069   2.100 -0.2432  0.2157  0.7078
 7741SOL    HW134859   3.607   2.144   2.094 -0.6138 -0.5448 -5.1897
 7741SOL    HW234860   3.733   2.099   2.038 -0.7273 -0.6470 -0.2099
 7742SOL     OW34861   2.777   1.022   6.543 -0.4746  0.3648 -0.2167
 7742SOL    HW134862   2.861   0.978   6.527 -0.2511  1.0600 -0.9623
 7742SOL    HW234863   2.710   0.954   6.541 -0.0649 -0.0261 -0.5141
 7743SOL     OW34864   1.509   0.899   8.299 -0.4755  0.1220 -1.0588
 7743SOL    HW134865   1.490   0.962   8.230  3.0492 -0.3724 -2.4997
 7743SOL    HW234866   1.442   0.919   8.365 -1.1471 -1.8705 -1.1326
 7744SOL     OW34867   3.580   4.008   5.274 -0.7241  0.4695  0.2338
 7744SOL    HW134868   3.551   4.033   5.361  1.9683 -0.3671  1.3448
 7744SOL    HW234869   3.504   4.015   5.215  1.1068  1.1040 -2.0859
 7745SOL     OW34870   1.019   0.898   3.751 -0.3187 -0.4585 -0.0365
 7745SOL    HW134871   0.994   0.806   3.756 -2.2783  0.0974  0.2666
 7745SOL    HW234872   1.102   0.894   3.799 -0.1684 -0.2644 -0.2846
 7746SOL     OW34873   0.342   0.731  12.228  0.3528  0.3677  0.5887
 7746SOL    HW134874   0.307   0.702  12.144  0.1517  1.0229  0.4486
 7746SOL    HW234875   0.359   0.824  12.213 -2.9212  0.8777  0.0304
 7747SOL     OW34876   0.333   4.284   7.572  0.2358 -0.5668 -0.5377
 7747SOL    HW134877   0.374   4.370   7.579  1.0017 -0.9336 -0.4935
 7747SOL    HW234878   0.275   4.286   7.648  1.7388 -1.3179  0.6274
 7748SOL     OW34879   1.111   1.570   1.343 -0.2374  0.0953  0.2727
 7748SOL    HW134880   1.129   1.483   1.306 -1.7261 -0.9535  2.0201
 7748SOL    HW234881   1.016   1.578   1.347 -0.5647 -1.7686 -3.7003
 7749SOL     OW34882   2.062   2.854  14.194 -0.0878  0.1418 -0.1075
 7749SOL    HW134883   2.095   2.772  14.160 -0.0842 -0.6321  1.7391
 7749SOL    HW234884   2.128   2.863  14.262 -0.1327 -0.9496  0.0804
 7750SOL     OW34885   0.676   0.824  16.224 -0.5521  0.1848 -0.2034
 7750SOL    HW134886   0.637   0.884  16.287  0.6272  1.3319 -0.5747
 7750SOL    HW234887   0.612   0.753  16.228  0.6806 -0.8373  1.3912
 7751SOL     OW34888   4.160   0.679  15.369 -0.0591  0.1567 -0.1818
 7751SOL    HW134889   4.210   0.716  15.442  0.1145 -0.9668  0.2695
 7751SOL    HW234890   4.222   0.715  15.306 -2.5116  0.7001 -2.2908
 7752SOL     OW34891   0.259   1.870   0.456 -0.1350 -0.3349  0.6215
 7752SOL    HW134892   0.278   1.957   0.421 -0.8416 -0.0908  0.8461
 7752SOL    HW234893   0.170   1.864   0.422  0.4942 -1.7006 -0.7509
 7753SOL     OW34894   1.439   0.443   8.924  0.4264 -0.0366 -0.1577
 7753SOL    HW134895   1.446   0.404   8.837 -0.6180  0.3697 -0.4186
 7753SOL    HW234896   1.426   0.368   8.981  0.1927  0.1068 -0.0219
 7754SOL     OW34897   3.652   4.286   1.854 -0.0485  0.1033  0.6315
 7754SOL    HW134898   3.671   4.199   1.890 -3.2441 -0.9934 -0.3270
 7754SOL    HW234899   3.576   4.323   1.900  1.5273  1.4663  2.1040
 7755SOL     OW34900   3.669   3.459   5.254 -0.1710  0.4882  0.1911
 7755SOL    HW134901   3.697   3.519   5.322  1.1507 -0.3818  0.4178
 7755SOL    HW234902   3.582   3.426   5.275 -0.3927 -0.4344 -2.1272
 7756SOL     OW34903   1.846   4.241   7.061  0.1903  0.1809 -0.1838
 7756SOL    HW134904   1.750   4.249   7.054  0.5521  1.8036 -3.2005
 7756SOL    HW234905   1.858   4.177   7.131  1.7096  1.1125  0.3827
 7757SOL     OW34906   1.832   0.236   6.821 -0.4339 -0.6916  0.3090
 7757SOL    HW134907   1.860   0.144   6.814 -0.1479 -0.6164  0.4603
 7757SOL    HW234908   1.853   0.246   6.914  0.4770 -0.9812  0.1415
 7758SOL     OW34909   1.275   2.256   9.366  0.7186 -0.0189 -0.0322
 7758SOL    HW134910   1.202   2.312   9.395 -1.0437 -1.8794 -0.8655
 7758SOL    HW234911   1.338   2.317   9.328 -0.7502  2.3463  1.3256
 7759SOL     OW34912   0.224   2.732   8.766  0.2198  0.1907  0.1355
 7759SOL    HW134913   0.190   2.667   8.828  1.2629 -0.3270  0.1652
 7759SOL    HW234914   0.142   2.763   8.728  0.2827 -1.1292 -1.0516
 7760SOL     OW34915   3.378   3.844   5.441 -0.0950 -0.0783  1.0478
 7760SOL    HW134916   3.421   3.888   5.514 -0.3305 -0.7516  1.5945
 7760SOL    HW234917   3.304   3.905   5.440 -0.5020 -0.5272  2.7151
 7761SOL     OW34918   2.347   1.426   4.370 -0.1871  0.0597 -0.6411
 7761SOL    HW134919   2.382   1.379   4.446 -2.1943 -1.0520 -0.3832
 7761SOL    HW234920   2.279   1.364   4.341  1.3089 -1.7418 -0.2823
 7762SOL     OW34921   1.405   1.210   6.335  0.4699 -0.5324  0.1402
 7762SOL    HW134922   1.492   1.243   6.360  0.2307 -0.7513  1.2694
 7762SOL    HW234923   1.423   1.143   6.270  2.9283  0.5049 -0.2512
 7763SOL     OW34924   3.938   0.220   8.637 -0.4595  0.2027 -0.1901
 7763SOL    HW134925   4.025   0.185   8.654  0.1841  2.2617  0.8457
 7763SOL    HW234926   3.908   0.161   8.569  1.3644  0.5489 -1.2921
 7764SOL     OW34927   0.139   1.811  12.063  0.3242  0.3098 -0.7680
 7764SOL    HW134928   0.226   1.850  12.066  0.4394 -0.2542  3.2747
 7764SOL    HW234929   0.082   1.874  12.018  0.9823  0.9708 -0.6807
 7765SOL     OW34930   2.503   1.903   0.807 -0.6816 -0.1289 -0.0150
 7765SOL    HW134931   2.483   1.908   0.901 -0.5146  0.7158 -0.0258
 7765SOL    HW234932   2.520   1.996   0.791  0.8031 -0.5464 -0.8526
 7766SOL     OW34933   0.951   4.415   0.644  0.1658 -0.2240 -0.1116
 7766SOL    HW134934   0.884   4.393   0.579  1.0924 -1.0851 -0.7822
 7766SOL    HW234935   0.965   4.496   0.594 -0.1542 -0.1863 -0.1387
 7767SOL     OW34936   1.934   0.156  12.756 -0.3565 -0.2147  0.1268
 7767SOL    HW134937   1.996   0.226  12.739  1.0633 -1.8052 -1.3385
 7767SOL    HW234938   1.990   0.107  12.816  0.9427  1.3070  0.1288
 7768SOL     OW34939   0.497   0.738   6.165  0.4522 -0.0607 -0.1284
 7768SOL    HW134940   0.587   0.760   6.139  0.4845 -1.8047 -1.4558
 7768SOL    HW234941   0.506   0.643   6.170  1.4165  0.0694  0.5590
 7769SOL     OW34942   4.042   4.341  15.606  0.0986 -0.3393  0.4060
 7769SOL    HW134943   3.995   4.260  15.588 -1.5459  0.7850 -0.3361
 7769SOL    HW234944   4.071   4.317  15.694 -0.1777 -0.0038  0.5879
 7770SOL     OW34945   3.323   0.417   6.735  0.1126 -0.1718  0.5039
 7770SOL    HW134946   3.318   0.323   6.720  0.2610 -0.4628  2.2779
 7770SOL    HW234947   3.243   0.432   6.784 -1.3860 -0.9932 -1.6866
 7771SOL     OW34948   3.597   3.206  10.956  0.7481  0.4422  0.3158
 7771SOL    HW134949   3.534   3.170  10.894 -0.1880  1.2763  0.7896
 7771SOL    HW234950   3.630   3.283  10.909 -0.5302  0.6365 -0.2651
 7772SOL     OW34951   1.327   3.499   9.309 -0.0140  0.6261 -0.6546
 7772SOL    HW134952   1.264   3.463   9.371  0.9041  3.4412  1.9282
 7772SOL    HW234953   1.360   3.412   9.286 -0.5357  0.0323  0.8656
 7773SOL     OW34954   0.397   4.609   9.201  0.1983 -0.2232  0.0382
 7773SOL    HW134955   0.376   4.702   9.202  0.5031 -0.1433 -0.6145
 7773SOL    HW234956   0.437   4.596   9.287 -0.0913 -0.2184  0.1745
 7774SOL     OW34957   1.612   4.711  10.593 -0.6548  0.7689  0.5656
 7774SOL    HW134958   1.573   4.721  10.680  1.1585 -2.0771  1.6787
 7774SOL    HW234959   1.555   0.027  10.538  0.3809 -0.1012 -1.3549
 7775SOL     OW34960   4.401   3.612   7.203  0.0584 -0.1444 -0.0833
 7775SOL    HW134961   4.386   3.518   7.193 -0.9834  0.0213 -0.0571
 7775SOL    HW234962   4.312   3.642   7.187 -0.4415 -2.2371 -1.0902
 7776SOL     OW34963   3.606   2.641   4.035 -0.1560  0.1128 -0.4467
 7776SOL    HW134964   3.615   2.588   4.114 -1.7992  2.7890  1.5559
 7776SOL    HW234965   3.536   2.595   3.989  0.9679  0.6844 -2.6881
 7777SOL     OW34966   2.908   1.618   7.305  0.4063 -0.1250  0.1768
 7777SOL    HW134967   2.923   1.711   7.323  1.6492 -0.4658  0.9000
 7777SOL    HW234968   2.933   1.626   7.213  2.0209  3.1441  0.8947
 7778SOL     OW34969   3.783   0.510   3.806  0.2289 -0.0494 -0.6741
 7778SOL    HW134970   3.764   0.599   3.836 -2.4351 -0.7552 -0.2757
 7778SOL    HW234971   3.718   0.510   3.737 -2.6153  0.2344  2.0202
 7779SOL     OW34972   4.058   4.187  13.112  0.0584  0.1386 -0.0058
 7779SOL    HW134973   4.152   4.174  13.100  0.1900  1.6785 -0.6350
 7779SOL    HW234974   4.059   4.266  13.166  0.3359 -0.2284  0.5268
 7780SOL     OW34975   2.675   4.107   5.287  0.2962 -0.6316  0.2531
 7780SOL    HW134976   2.599   4.161   5.264 -1.1404 -2.6011  0.4495
 7780SOL    HW234977   2.656   4.069   5.373  0.5401 -2.2052 -0.3957
 7781SOL     OW34978   0.671   1.458   4.755 -0.1259 -0.1113  0.1044
 7781SOL    HW134979   0.711   1.373   4.775  1.4912  0.7974  0.8027
 7781SOL    HW234980   0.725   1.494   4.685 -0.2863 -2.3188 -1.1311
 7782SOL     OW34981   2.494   0.233   2.999 -0.5305  0.2396 -0.0907
 7782SOL    HW134982   2.449   0.164   3.047 -0.6739  0.9753  0.8328
 7782SOL    HW234983   2.480   0.315   3.047  3.6243 -1.7411  4.5079
 7783SOL     OW34984   1.713   3.205   8.417  0.4701 -0.3382 -0.0540
 7783SOL    HW134985   1.691   3.295   8.442  0.8317 -0.3150  0.1883
 7783SOL    HW234986   1.662   3.199   8.337  1.0830 -0.3942 -0.4404
 7784SOL     OW34987   4.645   0.210   7.811 -0.1786 -0.1993 -0.0534
 7784SOL    HW134988   4.568   0.209   7.753 -0.0568  1.2116 -0.2205
 7784SOL    HW234989   4.615   0.259   7.887  0.2102  1.0260 -0.6947
 7785SOL     OW34990   1.747   0.781   2.920  0.1591  0.0826  0.1980
 7785SOL    HW134991   1.660   0.797   2.957  0.5228  0.8202  0.7196
 7785SOL    HW234992   1.782   0.702   2.962 -2.1988 -0.5870  0.8954
 7786SOL     OW34993   1.349   3.568   6.398  0.4762  0.1109  0.1353
 7786SOL    HW134994   1.260   3.556   6.431  1.1141  0.1825  1.8822
 7786SOL    HW234995   1.355   3.664   6.397 -0.3739  0.2080  3.6399
 7787SOL     OW34996   4.068   4.288   1.764  0.1467  0.0841  0.0634
 7787SOL    HW134997   4.140   4.328   1.812  0.6575  0.3933 -0.9507
 7787SOL    HW234998   4.108   4.202   1.751  1.2547  0.6477 -0.2533
 7788SOL     OW34999   0.745   3.483   2.746 -0.0163  0.0622 -0.1894
 7788SOL    HW135000   0.838   3.493   2.768 -0.2533 -0.9770  1.3025
 7788SOL    HW235001   0.747   3.419   2.675  2.0061  0.1099 -0.1889
 7789SOL     OW35002   0.224   3.766  13.617  0.1830  0.1926 -0.5514
 7789SOL    HW135003   0.192   3.731  13.700 -0.3723 -2.1960 -1.7684
 7789SOL    HW235004   0.246   3.852  13.653  0.2114  0.6522 -1.6509
 7790SOL     OW35005   0.176   4.189   2.313 -0.2705 -0.5811 -0.9521
 7790SOL    HW135006   0.214   4.238   2.240  2.5821  0.8295  1.4933
 7790SOL    HW235007   0.232   4.112   2.315 -1.0057 -1.0830  1.0954
 7791SOL     OW35008   4.319   1.877   1.620  0.1959 -0.5171 -0.1112
 7791SOL    HW135009   4.398   1.902   1.572 -0.4871  2.0264  0.1181
 7791SOL    HW235010   4.331   1.931   1.699  0.8100  0.9980 -1.2579
 7792SOL     OW35011   1.345   1.154   5.839 -0.1413 -0.1784  0.0952
 7792SOL    HW135012   1.288   1.079   5.859  0.3466 -0.5282  0.1954
 7792SOL    HW235013   1.339   1.205   5.920  1.6478 -0.2149  0.2471
 7793SOL     OW35014   1.474   4.304   5.119 -0.1402 -0.0109 -0.1224
 7793SOL    HW135015   1.487   4.380   5.063 -1.0314  1.0232  1.0825
 7793SOL    HW235016   1.552   4.308   5.174  0.8145  0.8789 -1.5424
 7794SOL     OW35017   1.671   4.002  14.432 -0.7073  0.0007 -0.3728
 7794SOL    HW135018   1.605   4.031  14.369  1.8948  3.0149 -1.7496
 7794SOL    HW235019   1.757   4.021  14.394 -0.8943  1.0229 -0.2770
 7795SOL     OW35020   2.811   3.725   5.753 -0.2381 -0.5260 -0.2804
 7795SOL    HW135021   2.791   3.818   5.766 -0.7905 -0.5175 -1.2609
 7795SOL    HW235022   2.793   3.722   5.659  0.0075 -1.0450 -0.3088
 7796SOL     OW35023   0.401   3.807  13.264  0.3162  0.0283  0.1258
 7796SOL    HW135024   0.464   3.793  13.334  0.1585  1.7521  0.6050
 7796SOL    HW235025   0.464   3.849  13.206 -1.6496 -0.7052 -2.5422
 7797SOL     OW35026   2.753   4.556   8.063 -0.7953 -0.0125 -0.1791
 7797SOL    HW135027   2.705   4.551   8.146 -0.1360  0.5863  0.2369
 7797SOL    HW235028   2.703   4.618   8.010 -1.1184  0.5186  0.7590
 7798SOL     OW35029   0.184   1.037  12.160  0.1056  0.7283  0.0477
 7798SOL    HW135030   0.224   0.991  12.087 -1.7499  0.7066 -0.9609
 7798SOL    HW235031   0.127   1.100  12.115  1.4044  1.9074  0.0509
 7799SOL     OW35032   4.238   2.727   9.008  0.4462  0.1657 -0.6656
 7799SOL    HW135033   4.241   2.728   8.913  0.9614  2.0681 -0.6189
 7799SOL    HW235034   4.146   2.745   9.029  0.7621  1.0412 -0.0239
 7800SOL     OW35035   2.526   3.092   4.363 -0.0115  0.4965  0.4130
 7800SOL    HW135036   2.478   3.148   4.424 -1.8465 -1.3658  0.6742
 7800SOL    HW235037   2.456   3.089   4.298 -2.1980  0.6243  2.7827
 7801SOL     OW35038   0.127   3.617   6.316  0.5753  0.1044 -0.0554
 7801SOL    HW135039   0.071   3.557   6.267  0.1097 -1.4466  2.4192
 7801SOL    HW235040   0.051   3.652   6.363  0.1016 -0.8587 -0.1187
 7802SOL     OW35041   2.260   2.170   1.767  0.5534  0.0857  0.0043
 7802SOL    HW135042   2.239   2.257   1.802 -1.1630 -0.7686  1.1081
 7802SOL    HW235043   2.219   2.188   1.682  0.1149 -0.9408 -0.0040
 7803SOL     OW35044   3.688   4.690   1.698 -0.3112  0.8039  0.4341
 7803SOL    HW135045   3.615   4.645   1.655  0.3779  0.1148  0.0046
 7803SOL    HW235046   3.766   4.637   1.683 -0.4044  1.0800 -1.0796
 7804SOL     OW35047   1.480   4.723  10.326 -0.0617  0.5125  0.3546
 7804SOL    HW135048   1.534   0.013  10.253  1.6060 -2.9037  0.2244
 7804SOL    HW235049   1.401   4.692  10.282  0.2185 -0.9719  0.8765
 7805SOL     OW35050   2.563   2.264   3.505  0.3975  0.1946 -0.0836
 7805SOL    HW135051   2.574   2.325   3.431  0.8710  0.4006  0.1609
 7805SOL    HW235052   2.487   2.305   3.546 -1.6994 -3.2718 -0.4693
 7806SOL     OW35053   1.917   0.686   4.447 -0.6711  0.3360 -0.4931
 7806SOL    HW135054   1.921   0.699   4.542  0.8418  1.6745 -0.7526
 7806SOL    HW235055   1.917   0.590   4.446  2.1124  0.3217  1.4632
 7807SOL     OW35056   2.779   1.441  11.879 -0.3601  0.0286  0.2559
 7807SOL    HW135057   2.713   1.499  11.842 -1.9214 -0.9283  1.5633
 7807SOL    HW235058   2.764   1.462  11.971  0.4652 -1.5136  0.7499
 7808SOL     OW35059   2.593   1.233   9.124 -0.1885 -0.2764  0.0489
 7808SOL    HW135060   2.677   1.201   9.157 -0.3802 -1.4643 -0.6431
 7808SOL    HW235061   2.537   1.165   9.160 -1.0670  0.3593 -0.1113
 7809SOL     OW35062   4.133   4.733   7.368  0.3464  0.7240 -0.5581
 7809SOL    HW135063   4.118   0.086   7.394 -1.2711  0.0919  0.7262
 7809SOL    HW235064   4.217   0.013   7.326  0.0865  0.9499 -0.9790
 7810SOL     OW35065   0.764   2.301   6.815 -0.1545  0.0145  0.8174
 7810SOL    HW135066   0.849   2.307   6.770 -0.6954  0.9728 -0.0731
 7810SOL    HW235067   0.708   2.271   6.743  0.9164  0.5092 -0.2239
 7811SOL     OW35068   2.019   4.598   0.792  0.2160  0.4282 -0.0748
 7811SOL    HW135069   1.941   4.644   0.823  0.2911  0.0173  0.7296
 7811SOL    HW235070   2.081   4.621   0.862  0.1773 -0.6792  0.3282
 7812SOL     OW35071   0.848   2.688   2.449 -0.0803 -0.0996  0.1732
 7812SOL    HW135072   0.849   2.676   2.544 -1.1259 -0.9756  0.0780
 7812SOL    HW235073   0.944   2.693   2.439 -0.1414  0.1153 -0.2947
 7813SOL     OW35074   4.562   2.822   2.283  0.6332  0.0135 -0.3255
 7813SOL    HW135075   4.507   2.849   2.210  0.9740  1.0522 -0.1987
 7813SOL    HW235076   4.544   2.883   2.355 -0.5636  3.1224 -3.2383
 7814SOL     OW35077   1.151   1.269   7.688 -0.1746 -0.4712  0.5909
 7814SOL    HW135078   1.076   1.219   7.722  0.6920 -2.3139 -0.2301
 7814SOL    HW235079   1.143   1.257   7.594 -0.5437 -1.4326  0.7386
 7815SOL     OW35080   3.554   3.791   4.331 -0.0659 -0.5071 -0.0021
 7815SOL    HW135081   3.464   3.820   4.347 -0.1421 -1.2058  0.8435
 7815SOL    HW235082   3.598   3.818   4.412  0.4353  1.0384 -0.7999
 7816SOL     OW35083   0.894   4.703  16.029 -0.1590 -0.4500 -0.0868
 7816SOL    HW135084   0.828   4.644  15.993  0.6114 -1.8755  0.8315
 7816SOL    HW235085   0.968   4.690  15.969  1.1292 -3.5294  2.1370
 7817SOL     OW35086   4.687   4.464   4.931 -0.4420  0.2284  0.0749
 7817SOL    HW135087   4.670   4.474   5.025  2.2722  0.5461  0.5468
 7817SOL    HW235088   4.622   4.520   4.890 -1.7345 -1.7676 -0.6129
 7818SOL     OW35089   4.544   1.992   2.731 -0.5932 -0.1370  0.0657
 7818SOL    HW135090   4.616   2.043   2.693  0.0546 -0.9079  0.2590
 7818SOL    HW235091   4.574   1.954   2.813 -1.0991  0.5577  0.5764
 7819SOL     OW35092   2.773   3.477   7.633  0.1403 -0.1952 -0.1335
 7819SOL    HW135093   2.823   3.432   7.700 -0.2561  1.1263  1.0343
 7819SOL    HW235094   2.709   3.409   7.612  1.2246 -1.3572  0.2938
 7820SOL     OW35095   0.230   1.869  13.336 -0.0404  0.7560 -0.6606
 7820SOL    HW135096   0.170   1.929  13.293  0.2946  0.8366 -1.0190
 7820SOL    HW235097   0.285   1.924  13.392 -0.0707 -0.0847  0.2006
 7821SOL     OW35098   4.383   4.062   2.019 -0.3832  0.1632  0.0275
 7821SOL    HW135099   4.375   4.050   2.113  1.7910  1.5025  0.3701
 7821SOL    HW235100   4.310   4.011   1.984  0.3644 -0.5775 -0.4633
 7822SOL     OW35101   1.918   3.533   7.408 -0.3303  0.9398  0.1855
 7822SOL    HW135102   1.879   3.527   7.495  1.2943 -0.0669  0.8530
 7822SOL    HW235103   1.954   3.446   7.394 -1.3693  0.5156  0.2156
 7823SOL     OW35104   2.680   4.589  17.062 -0.3980  0.3714 -0.0110
 7823SOL    HW135105   2.593   4.550  17.074 -0.0879  0.0164  1.0777
 7823SOL    HW235106   2.695   4.567  16.970 -0.0692 -1.5616  0.4876
 7824SOL     OW35107   0.814   4.580   0.892 -0.3621 -0.5997 -0.5913
 7824SOL    HW135108   0.896   4.629   0.893 -0.0072 -1.1775 -1.4366
 7824SOL    HW235109   0.842   4.494   0.924 -2.3548 -0.7921  0.6337
 7825SOL     OW35110   4.381   4.100   2.293  0.3968 -0.1415 -0.1942
 7825SOL    HW135111   4.409   4.136   2.377 -1.7088  2.9964 -0.8351
 7825SOL    HW235112   4.351   4.178   2.248 -0.0157  0.4536  1.1021
 7826SOL     OW35113   2.822   3.120   6.660  0.8062  0.2679  0.1663
 7826SOL    HW135114   2.814   3.053   6.592 -1.5183  0.6413  0.0725
 7826SOL    HW235115   2.914   3.101   6.677  0.6524 -0.0487  0.6618
 7827SOL     OW35116   2.646   3.560   5.586  0.3017 -0.1466 -0.0791
 7827SOL    HW135117   2.665   3.603   5.502 -0.6909 -0.1236 -0.2949
 7827SOL    HW235118   2.624   3.469   5.566 -0.7030 -0.0370  0.5005
 7828SOL     OW35119   3.108   3.999   2.417 -0.1133 -0.3508 -0.1241
 7828SOL    HW135120   3.068   4.035   2.496 -2.2783 -3.4686  0.1847
 7828SOL    HW235121   3.029   3.982   2.365  0.2437 -0.8803 -0.4890
 7829SOL     OW35122   4.179   1.125  11.521 -0.8501  0.1226  0.2816
 7829SOL    HW135123   4.186   1.182  11.598  0.8796 -0.0372  0.2377
 7829SOL    HW235124   4.219   1.042  11.547 -2.7290 -0.9545 -0.2882
 7830SOL     OW35125   2.137   3.012  11.893  0.3021 -0.5920 -0.6832
 7830SOL    HW135126   2.077   3.041  11.961 -0.6447 -1.0531 -1.3327
 7830SOL    HW235127   2.083   3.024  11.815 -1.0286 -1.1606  0.1591
 7831SOL     OW35128   3.955   3.956   8.645 -0.2831 -0.3905 -0.0883
 7831SOL    HW135129   3.866   3.990   8.634  0.1925  0.9027  0.0991
 7831SOL    HW235130   3.938   3.862   8.644 -1.1661 -0.2361  0.0417
 7832SOL     OW35131   1.023   2.525   2.171  0.2659  0.2275 -0.0489
 7832SOL    HW135132   1.041   2.529   2.077 -0.2355 -2.0408 -0.2496
 7832SOL    HW235133   0.928   2.514   2.173  0.1999  0.2987 -2.7795
 7833SOL     OW35134   0.449   2.050   7.333 -0.4464  0.3667  0.2005
 7833SOL    HW135135   0.450   1.959   7.363  0.4211 -0.6917 -3.0607
 7833SOL    HW235136   0.356   2.072   7.331 -1.0536 -2.0454  1.5443
 7834SOL     OW35137   0.405   4.344   4.087 -0.3795  0.3537 -0.8944
 7834SOL    HW135138   0.474   4.278   4.097 -1.0236 -0.0673  0.7519
 7834SOL    HW235139   0.365   4.310   4.007  0.7128 -0.2238 -1.1957
 7835SOL     OW35140   2.053   0.992  11.597  0.2543 -0.2807  0.1664
 7835SOL    HW135141   1.999   1.003  11.675 -1.7268 -0.8825 -1.1037
 7835SOL    HW235142   2.007   0.925  11.547 -0.1713  0.5077 -0.4990
 7836SOL     OW35143   1.001   3.569   3.270  0.2713 -0.3431  0.3848
 7836SOL    HW135144   0.931   3.571   3.336 -1.3423 -1.1042 -1.3244
 7836SOL    HW235145   0.959   3.496   3.225  1.4961 -0.3227 -0.7848
 7837SOL     OW35146   3.469   1.322   4.035  0.6714  0.0734  0.4858
 7837SOL    HW135147   3.457   1.347   3.943  0.3667 -0.7527  0.3021
 7837SOL    HW235148   3.389   1.345   4.083  0.9246  0.3255  0.7948
 7838SOL     OW35149   0.116   2.634   1.001  0.4359  0.1471 -0.3292
 7838SOL    HW135150   0.095   2.718   1.042  0.1168 -0.3093  0.4439
 7838SOL    HW235151   0.047   2.574   1.029  0.9675  0.5568  1.9262
 7839SOL     OW35152   2.521   2.122   2.664 -0.0162 -0.2097 -0.3605
 7839SOL    HW135153   2.476   2.183   2.606 -1.3492 -0.9982 -0.1481
 7839SOL    HW235154   2.606   2.130   2.621  0.3227  0.7435  0.5011
 7840SOL     OW35155   1.751   2.094   2.339 -0.0938 -0.0148  0.1550
 7840SOL    HW135156   1.824   2.032   2.333 -1.0540 -1.1844  0.6090
 7840SOL    HW235157   1.727   2.097   2.247  2.3496  1.1354 -0.4532
 7841SOL     OW35158   4.443   4.327  12.955  0.2007 -0.1729  0.0837
 7841SOL    HW135159   4.371   4.386  12.932  1.0133 -0.1346 -2.3631
 7841SOL    HW235160   4.398   4.271  13.019  0.1527  2.0416  2.0029
 7842SOL     OW35161   1.105   2.893   9.238  0.5302 -0.5605 -0.1183
 7842SOL    HW135162   1.177   2.838   9.268  0.8890  0.0833  0.1763
 7842SOL    HW235163   1.032   2.832   9.251  0.6937 -0.1684  2.6952
 7843SOL     OW35164   1.630   1.717   3.321 -0.2586  0.1098 -0.0649
 7843SOL    HW135165   1.717   1.682   3.303 -0.3513 -0.2525  0.1839
 7843SOL    HW235166   1.636   1.806   3.356 -0.6275 -0.3494  1.1569
 7844SOL     OW35167   2.051   3.618   4.270  0.4046 -0.0770 -0.4446
 7844SOL    HW135168   2.081   3.635   4.180 -0.6862  1.9026 -0.4399
 7844SOL    HW235169   1.961   3.641   4.249  0.3343  0.4334  0.4123
 7845SOL     OW35170   0.497   2.277   5.417  0.4707  0.0173 -0.4147
 7845SOL    HW135171   0.488   2.357   5.469 -1.8246 -0.4496 -0.1196
 7845SOL    HW235172   0.410   2.240   5.402  0.1562  0.3403  0.6100
 7846SOL     OW35173   4.036   2.013   7.577  0.2306  0.3635 -0.8807
 7846SOL    HW135174   4.052   2.101   7.612 -0.8386 -0.9235  2.7625
 7846SOL    HW235175   4.118   1.974   7.606 -0.3988 -0.6823 -0.5177
 7847SOL     OW35176   3.491   1.090   6.731  0.4348  1.0376 -0.7796
 7847SOL    HW135177   3.536   1.124   6.809  1.8040 -2.3252 -0.1194
 7847SOL    HW235178   3.444   1.170   6.706 -1.0693  0.3896 -0.0224
 7848SOL     OW35179   0.824   1.825   2.342 -0.1730  0.0364 -0.1697
 7848SOL    HW135180   0.875   1.827   2.423  1.8307  3.1378 -1.4813
 7848SOL    HW235181   0.735   1.810   2.374  1.0647 -1.8462  2.3972
 7849SOL     OW35182   3.076   2.124   4.080 -0.5650 -0.4553  0.8940
 7849SOL    HW135183   3.052   2.039   4.116 -1.5000  1.6035  5.1215
 7849SOL    HW235184   3.131   2.087   4.011 -1.3409 -0.5822  0.3379
 7850SOL     OW35185   2.258   4.721   9.129  1.0071 -0.4000 -0.3369
 7850SOL    HW135186   2.166   0.004   9.145  1.0103 -0.9260  0.3808
 7850SOL    HW235187   2.299   0.062   9.162  0.1639  0.2138 -0.7805
 7851SOL     OW35188   0.649   2.756  16.567 -0.1886  0.0834  0.5470
 7851SOL    HW135189   0.565   2.723  16.537 -0.0616  1.3273 -1.1825
 7851SOL    HW235190   0.638   2.748  16.661 -1.0505  1.0535  0.5258
 7852SOL     OW35191   2.670   2.376   4.587  0.1863  0.3959 -0.0886
 7852SOL    HW135192   2.749   2.421   4.556 -0.2279  0.6987 -0.7012
 7852SOL    HW235193   2.610   2.377   4.512  0.4798 -0.9375 -0.3433
 7853SOL     OW35194   3.889   1.156   7.886  0.5709 -0.0708 -0.1924
 7853SOL    HW135195   3.984   1.153   7.887  0.6845  3.5063 -0.9931
 7853SOL    HW235196   3.878   1.113   7.801 -3.5903 -0.2459  0.4317
 7854SOL     OW35197   0.292   3.736   2.222  0.2827  0.0617 -0.5455
 7854SOL    HW135198   0.325   3.807   2.167  0.2092  1.2656  0.9707
 7854SOL    HW235199   0.252   3.789   2.290  2.1302  0.5006  0.2068
 7855SOL     OW35200   1.735   4.496   5.660  0.2959  0.3189  0.2199
 7855SOL    HW135201   1.706   4.406   5.643 -1.8469  0.8829  0.9434
 7855SOL    HW235202   1.820   4.509   5.618 -0.1203 -1.2908 -1.1307
 7856SOL     OW35203   4.029   0.735   7.460 -0.2853  0.1321  0.7457
 7856SOL    HW135204   3.997   0.658   7.508 -0.3009 -0.3687 -0.0531
 7856SOL    HW235205   4.114   0.701   7.434  0.8749  1.3731  2.9281
 7857SOL     OW35206   3.547   2.933   8.588 -0.2310 -0.1668 -0.0395
 7857SOL    HW135207   3.503   3.006   8.544 -0.4011 -0.6809 -0.7143
 7857SOL    HW235208   3.510   2.863   8.534 -0.0875 -0.1138 -0.2065
 7858SOL     OW35209   1.783   3.072   1.072 -0.4636  0.3976  0.5754
 7858SOL    HW135210   1.833   3.109   0.999  0.5626  1.4446  1.7989
 7858SOL    HW235211   1.854   3.033   1.124  1.9748  0.2430 -2.8694
 7859SOL     OW35212   2.093   2.215   9.523  0.1595 -0.1235  0.2599
 7859SOL    HW135213   2.017   2.169   9.559 -0.0583 -1.6323 -2.1436
 7859SOL    HW235214   2.125   2.259   9.601 -1.1328  1.9445 -0.3781
 7860SOL     OW35215   4.463   4.076   8.657  0.3866 -0.1579  0.2240
 7860SOL    HW135216   4.434   4.001   8.606  1.2769 -0.4703  0.1885
 7860SOL    HW235217   4.553   4.048   8.672 -0.0351 -1.9896 -0.7089
 7861SOL     OW35218   2.389   4.482   7.868 -0.0977 -0.1098 -0.4555
 7861SOL    HW135219   2.356   4.479   7.778 -2.0608  2.6174  0.2180
 7861SOL    HW235220   2.390   4.576   7.884  0.1943 -0.1348 -0.3230
 7862SOL     OW35221   3.655   2.967   2.254  0.7364  0.4598  0.4252
 7862SOL    HW135222   3.708   2.889   2.269 -2.9471 -1.8170  1.6330
 7862SOL    HW235223   3.675   3.022   2.330 -1.6299  3.0553 -0.8254
 7863SOL     OW35224   2.775   2.742  11.239  0.0149  0.1710  0.1838
 7863SOL    HW135225   2.844   2.727  11.174 -0.1878 -2.7373  0.6490
 7863SOL    HW235226   2.711   2.675  11.214 -0.0357  0.6716 -1.0523
 7864SOL     OW35227   0.609   0.712   6.993  0.1281 -0.3372 -0.1570
 7864SOL    HW135228   0.594   0.798   6.955 -0.0804  0.1050  0.9363
 7864SOL    HW235229   0.525   0.667   6.995  0.2751 -0.5844  0.7477
 7865SOL     OW35230   3.481   3.482  14.807  0.0929 -0.1879 -0.1612
 7865SOL    HW135231   3.492   3.576  14.819  1.8833  0.0105 -3.2886
 7865SOL    HW235232   3.442   3.471  14.894  0.9515 -1.2162  0.0983
 7866SOL     OW35233   1.836   3.035   6.256 -0.0222 -0.6991  0.4678
 7866SOL    HW135234   1.826   3.117   6.208  0.0771 -1.5070 -0.9355
 7866SOL    HW235235   1.866   2.975   6.188  0.3414 -1.5298  1.3556
 7867SOL     OW35236   4.077   1.085   7.050 -0.0932  0.1094 -0.0859
 7867SOL    HW135237   4.031   1.146   6.993 -2.5452 -1.1925  0.5278
 7867SOL    HW235238   4.098   1.146   7.122 -0.0310  0.4227 -0.3690
 7868SOL     OW35239   1.150   2.429  14.029  0.0998  0.2216 -0.0363
 7868SOL    HW135240   1.207   2.449  14.104 -0.2098  3.0355 -0.5462
 7868SOL    HW235241   1.073   2.484  14.044 -0.1296 -0.0092 -0.3765
 7869SOL     OW35242   1.349   1.104   8.854  0.2652 -0.0779  0.3833
 7869SOL    HW135243   1.406   1.052   8.911  0.3690  0.7375  1.0297
 7869SOL    HW235244   1.315   1.167   8.918  0.5713  0.3173  0.1583
 7870SOL     OW35245   4.070   3.717   2.249  0.0805 -0.2409  0.1519
 7870SOL    HW135246   4.086   3.755   2.336 -1.8393 -0.7076  0.7125
 7870SOL    HW235247   4.000   3.656   2.270  1.1331 -0.8526  1.8899
 7871SOL     OW35248   3.498   0.343   5.640  0.1053 -0.0659  0.0445
 7871SOL    HW135249   3.490   0.250   5.664 -0.9120 -0.4782 -1.9299
 7871SOL    HW235250   3.565   0.375   5.700 -0.9870 -1.4960  2.0422
 7872SOL     OW35251   0.993   0.061   2.029 -0.0581  0.2843  0.1607
 7872SOL    HW135252   0.945   0.119   1.969 -0.2936  0.3608  0.4199
 7872SOL    HW235253   1.036   4.737   1.971 -2.1081 -2.1557  1.2782
 7873SOL     OW35254   1.270   1.532   8.071  0.0342 -0.0040 -0.0263
 7873SOL    HW135255   1.179   1.545   8.097  0.3841  1.1716  0.6137
 7873SOL    HW235256   1.264   1.447   8.029  0.4917 -1.1141  2.1519
 7874SOL     OW35257   3.872   4.257   4.063 -0.8328  0.9303  0.0615
 7874SOL    HW135258   3.946   4.197   4.067 -0.3658  1.6889  2.5568
 7874SOL    HW235259   3.823   4.209   3.996  0.1482 -0.4230  0.3194
 7875SOL     OW35260   1.218   0.090   2.635  0.3068  0.3301 -0.6139
 7875SOL    HW135261   1.194   0.179   2.609 -0.3458  0.1716 -0.5362
 7875SOL    HW235262   1.203   0.037   2.557  1.6393 -0.7192 -0.1537
 7876SOL     OW35263   1.155   1.695  14.938  0.0914  0.5466  0.4923
 7876SOL    HW135264   1.170   1.633  15.010  0.4451  1.1601  0.9549
 7876SOL    HW235265   1.238   1.743  14.945 -0.3024  1.0395  1.8313
 7877SOL     OW35266   4.054   2.418   6.182 -0.4690  0.0424  0.0532
 7877SOL    HW135267   3.959   2.431   6.188 -0.6078  0.1306 -2.3989
 7877SOL    HW235268   4.086   2.504   6.155  1.1477 -0.3767  0.6417
 7878SOL     OW35269   2.567   0.744   3.912  0.0985  0.1612 -0.1542
 7878SOL    HW135270   2.587   0.768   3.821 -1.6498  0.5312 -0.4503
 7878SOL    HW235271   2.570   0.648   3.910  2.6103  0.2129  1.3272
 7879SOL     OW35272   2.274   1.986   3.736 -0.4532  0.3501 -0.0303
 7879SOL    HW135273   2.326   1.917   3.695 -1.4776 -0.3543 -0.1087
 7879SOL    HW235274   2.283   1.970   3.830 -0.6077  0.4650  0.0035
 7880SOL     OW35275   3.275   1.795   5.737 -0.0471 -0.2846  0.0088
 7880SOL    HW135276   3.187   1.762   5.720 -0.0040 -0.6170  0.4427
 7880SOL    HW235277   3.268   1.865   5.802 -0.7830 -0.8116  0.4901
 7881SOL     OW35278   0.085   1.924  12.619  0.2327 -1.3144  0.2810
 7881SOL    HW135279   0.139   1.848  12.644  0.7633 -1.4088 -1.1865
 7881SOL    HW235280   0.047   1.949  12.703 -1.4087  1.6401 -1.3772
 7882SOL     OW35281   4.096   3.540  12.041 -0.3656 -0.4300  0.2864
 7882SOL    HW135282   4.166   3.476  12.057 -0.4816 -0.6441 -0.0592
 7882SOL    HW235283   4.143   3.622  12.056  0.9605 -1.2276  0.5414
 7883SOL     OW35284   3.566   1.651   3.936 -0.1395 -0.3903 -0.2148
 7883SOL    HW135285   3.605   1.662   4.022 -2.2936  0.1665  0.6787
 7883SOL    HW235286   3.484   1.609   3.960 -1.0816 -0.5816 -3.7066
 7884SOL     OW35287   0.859   1.263   2.539  0.1268 -0.3642 -0.0896
 7884SOL    HW135288   0.922   1.228   2.477  1.0007 -0.7025  0.9872
 7884SOL    HW235289   0.828   1.346   2.502 -0.4570 -0.6378 -0.2197
 7885SOL     OW35290   3.347   2.712   8.815  0.0407 -0.7040  0.3112
 7885SOL    HW135291   3.312   2.649   8.878 -1.5333 -0.0983  0.0407
 7885SOL    HW235292   3.301   2.680   8.737  1.5556 -1.5002 -0.2524
 7886SOL     OW35293   2.482   1.978   5.142 -0.8508 -0.1768 -0.4844
 7886SOL    HW135294   2.455   2.055   5.192  1.9857  1.8939 -2.1186
 7886SOL    HW235295   2.448   1.999   5.055 -2.0998 -0.6448 -0.1169
 7887SOL     OW35296   1.584   4.162   2.670 -0.4292  0.1110  0.1366
 7887SOL    HW135297   1.538   4.203   2.744 -1.9890  1.0158 -1.3431
 7887SOL    HW235298   1.665   4.206   2.695 -0.9263  0.9600  0.2821
 7888SOL     OW35299   1.900   2.357   9.071 -0.3757  0.2816 -0.9150
 7888SOL    HW135300   1.950   2.311   9.003  0.3618  0.5397 -0.5559
 7888SOL    HW235301   1.945   2.310   9.141  1.4656  1.5125 -1.2681
 7889SOL     OW35302   0.901   1.362  10.698  0.0579  0.2478 -0.3829
 7889SOL    HW135303   0.994   1.381  10.711 -0.1378  0.2217  1.1273
 7889SOL    HW235304   0.861   1.407  10.773  2.5179  1.4206  0.2661
 7890SOL     OW35305   1.424   3.111   3.604 -0.1390 -0.3375  0.1434
 7890SOL    HW135306   1.345   3.084   3.651 -0.0754  1.8922  1.5324
 7890SOL    HW235307   1.461   3.026   3.583 -0.2759 -1.0095  2.6698
 7891SOL     OW35308   4.259   3.936   9.515  0.4282  0.8525  0.1735
 7891SOL    HW135309   4.170   3.904   9.506  0.6677 -0.0424  1.0488
 7891SOL    HW235310   4.276   3.974   9.429  2.8712  1.6903  1.0156
 7892SOL     OW35311   3.995   2.259   1.522  0.9966  0.6657 -0.2177
 7892SOL    HW135312   4.090   2.251   1.533  0.4831 -0.6575  3.3794
 7892SOL    HW235313   3.961   2.184   1.570  0.6666  0.2112 -1.1638
 7893SOL     OW35314   0.485   2.852  17.131  0.5193  0.1406  0.3168
 7893SOL    HW135315   0.474   2.915  17.202 -1.1659  0.9816 -0.7009
 7893SOL    HW235316   0.522   2.911  17.065  0.7588  0.4655  0.7378
 7894SOL     OW35317   3.834   4.391   9.320  0.1184  0.2428  0.8759
 7894SOL    HW135318   3.911   4.443   9.297  1.0845 -1.3360  0.5686
 7894SOL    HW235319   3.780   4.459   9.360 -1.7549 -0.3029 -0.7050
 7895SOL     OW35320   1.376   0.972   4.179 -0.7482  0.3348 -0.6559
 7895SOL    HW135321   1.418   1.043   4.228 -1.2896 -0.9925  1.7502
 7895SOL    HW235322   1.456   0.926   4.152  0.2687  0.1100  2.6833
 7896SOL     OW35323   0.003   0.803   2.743  0.1797 -0.6853 -0.0945
 7896SOL    HW135324   4.716   0.879   2.797 -0.3648 -1.1318  0.2750
 7896SOL    HW235325   0.088   0.787   2.783  1.8634  1.4505 -2.7667
 7897SOL     OW35326   4.599   4.205   1.202 -0.7976 -0.2401  0.1404
 7897SOL    HW135327   4.657   4.232   1.274  0.5928 -0.6725 -0.8107
 7897SOL    HW235328   4.634   4.119   1.176 -0.8983 -0.4802  0.7983
 7898SOL     OW35329   3.667   1.137   8.751  0.1933  0.3678 -0.1235
 7898SOL    HW135330   3.708   1.056   8.780  0.8576 -0.0682 -2.2842
 7898SOL    HW235331   3.658   1.186   8.833  1.9306  0.1201  0.2054
 7899SOL     OW35332   0.076   2.731  14.242 -0.0726  0.4620  0.3123
 7899SOL    HW135333   0.164   2.699  14.263 -1.4490 -2.9906  0.8134
 7899SOL    HW235334   0.089   2.825  14.260 -0.8363  0.9968 -1.9009
 7900SOL     OW35335   0.040   2.225  11.100 -0.3981 -0.0460 -0.4433
 7900SOL    HW135336   0.064   2.251  11.011  1.3534  1.1047  0.3439
 7900SOL    HW235337   0.056   2.310  11.142 -0.8687 -0.1320 -0.0980
 7901SOL     OW35338   4.643   0.328   4.155  0.0863  1.2803  0.4076
 7901SOL    HW135339   4.613   0.335   4.064  1.1650  2.3228  0.1287
 7901SOL    HW235340   4.644   0.237   4.183  1.1627  0.8795 -0.9135
 7902SOL     OW35341   4.452   1.900   6.241 -0.3110 -0.7734  0.3428
 7902SOL    HW135342   4.494   1.816   6.260 -0.8332 -0.7277  1.7030
 7902SOL    HW235343   4.360   1.875   6.239 -0.8966  1.5029 -1.4608
 7903SOL     OW35344   2.759   0.760   3.431  0.0102 -0.4004 -0.0101
 7903SOL    HW135345   2.731   0.674   3.398 -0.6945 -0.3647  0.5039
 7903SOL    HW235346   2.726   0.809   3.355  1.4724 -2.2554 -1.8533
 7904SOL     OW35347   4.067   3.986   5.066 -0.1410  0.5434  0.5101
 7904SOL    HW135348   4.066   3.895   5.035  0.3549  1.2850 -1.7124
 7904SOL    HW235349   4.014   4.018   4.992 -0.1398 -2.5180 -0.8365
 7905SOL     OW35350   4.393   3.112  14.737 -0.4449  0.7260  0.0405
 7905SOL    HW135351   4.315   3.149  14.779  0.4100 -0.2651  2.4956
 7905SOL    HW235352   4.457   3.105  14.808 -0.6650  2.2386  0.3777
 7906SOL     OW35353   4.276   3.734  15.847  0.4412  0.2254  0.2477
 7906SOL    HW135354   4.192   3.767  15.878  1.3983  1.1104  1.8811
 7906SOL    HW235355   4.248   3.714  15.758 -1.6379 -0.0644  0.9807
 7907SOL     OW35356   4.024   3.950   6.095  0.4524 -0.0858 -0.5792
 7907SOL    HW135357   4.048   3.908   6.012  0.4978 -0.3831 -0.4171
 7907SOL    HW235358   3.941   3.913   6.123  0.5435  0.7962  0.8495
 7908SOL     OW35359   0.443   1.860  11.113 -0.4764  0.5275 -0.1589
 7908SOL    HW135360   0.372   1.895  11.058  0.5462 -0.8884 -2.3847
 7908SOL    HW235361   0.393   1.844  11.193 -1.0167 -3.0844 -1.2277
 7909SOL     OW35362   2.456   1.452   7.487 -0.0893 -0.3337 -0.0358
 7909SOL    HW135363   2.532   1.395   7.473  0.6578 -0.2822  3.7359
 7909SOL    HW235364   2.450   1.449   7.582 -0.6017  1.5423 -0.0007
 7910SOL     OW35365   0.568   2.670   8.527  0.1132  0.2315  0.3174
 7910SOL    HW135366   0.628   2.700   8.459 -0.8149 -2.1277 -1.5311
 7910SOL    HW235367   0.548   2.587   8.483 -0.9549  1.1306 -0.8748
 7911SOL     OW35368   4.061   0.939   2.443  0.1287 -0.3694  0.0705
 7911SOL    HW135369   4.092   0.888   2.517  1.0577 -0.0826 -0.1175
 7911SOL    HW235370   4.041   1.020   2.489  1.8983 -0.3409  0.8008
 7912SOL     OW35371   4.371   3.488  14.665 -0.1081 -0.1133 -0.1535
 7912SOL    HW135372   4.328   3.420  14.614 -0.7667  1.4037 -1.6074
 7912SOL    HW235373   4.440   3.436  14.706  0.2657  1.4453  1.2009
 7913SOL     OW35374   4.632   1.921   0.715 -0.3626  0.4526 -0.4298
 7913SOL    HW135375   4.564   1.976   0.676 -0.5775  0.8476  0.4863
 7913SOL    HW235376   4.705   1.917   0.653 -1.6047  0.5793 -1.9139
 7914SOL     OW35377   0.294   0.549   9.898  0.6578 -0.2469 -0.2709
 7914SOL    HW135378   0.198   0.551   9.895  0.6712 -1.6245 -1.7103
 7914SOL    HW235379   0.308   0.642   9.912  2.8328 -0.5476 -0.4409
 7915SOL     OW35380   0.363   1.774   7.347 -0.2650  0.3450  0.1295
 7915SOL    HW135381   0.291   1.752   7.405 -1.6685  0.3050 -1.6219
 7915SOL    HW235382   0.320   1.756   7.263 -1.6977 -0.2292  1.0015
 7916SOL     OW35383   1.172   0.673   8.874  0.2845  0.1710  0.1102
 7916SOL    HW135384   1.079   0.692   8.862  0.4703 -0.3229 -2.1137
 7916SOL    HW235385   1.215   0.734   8.814  0.4847 -0.0991 -0.0188
 7917SOL     OW35386   4.202   3.776   4.287  0.2846  0.9229 -0.4683
 7917SOL    HW135387   4.178   3.839   4.355 -1.6381 -0.0094 -0.2981
 7917SOL    HW235388   4.136   3.707   4.291  0.0414  1.1856  0.0221
 7918SOL     OW35389   3.752   0.851  17.404  0.0046  0.3103 -0.4195
 7918SOL    HW135390   3.699   0.806  17.470  1.0237 -0.2499  0.0225
 7918SOL    HW235391   3.696   0.848  17.327  0.1860 -2.3708 -0.4465
 7919SOL     OW35392   3.001   0.858   6.510  0.1057 -0.8231 -0.4280
 7919SOL    HW135393   3.080   0.816   6.477  0.9648  3.2477 -3.5969
 7919SOL    HW235394   2.975   0.798   6.579  0.0608 -0.0453  0.2241
 7920SOL     OW35395   1.924   3.160   6.487 -0.3486 -0.1485  0.3963
 7920SOL    HW135396   1.889   3.095   6.549  1.5214 -2.0933 -0.5939
 7920SOL    HW235397   1.889   3.121   6.407  0.0664  0.6036 -0.1409
 7921SOL     OW35398   2.502   0.879   8.226  0.3196 -0.4264  0.4693
 7921SOL    HW135399   2.540   0.804   8.273 -0.7948 -1.9307 -1.0186
 7921SOL    HW235400   2.409   0.869   8.244  0.1298  2.9729  1.3934
 7922SOL     OW35401   2.248   2.002   8.485 -0.2435  0.4075 -0.0670
 7922SOL    HW135402   2.277   1.928   8.432 -0.3516 -0.3365  0.9188
 7922SOL    HW235403   2.190   2.042   8.419  0.0879 -0.2012 -0.7272
 7923SOL     OW35404   3.491   0.523   8.028  0.4029  0.2191  0.3678
 7923SOL    HW135405   3.526   0.433   8.026 -0.4473 -0.0915 -0.4668
 7923SOL    HW235406   3.573   0.568   8.006  0.2949  0.0130 -0.4815
 7924SOL     OW35407   3.474   2.958   2.012 -0.4339 -0.6026  0.2535
 7924SOL    HW135408   3.521   2.914   1.941  2.0332  1.1160  0.8102
 7924SOL    HW235409   3.537   2.964   2.084  1.2328 -0.9501 -1.1756
 7925SOL     OW35410   0.445   0.761  15.131  0.2997 -0.4391 -0.3022
 7925SOL    HW135411   0.369   0.720  15.090 -1.0353  1.6775  0.0502
 7925SOL    HW235412   0.401   0.782  15.213  2.5880 -0.0608  0.8346
 7926SOL     OW35413   2.586   1.225   0.387  0.3598 -0.1717 -0.4206
 7926SOL    HW135414   2.547   1.203   0.472  2.3319 -2.4346 -0.1035
 7926SOL    HW235415   2.680   1.211   0.400 -0.3078 -1.7202  2.6170
 7927SOL     OW35416   3.666   3.200   7.847  0.3190  0.3595 -0.1214
 7927SOL    HW135417   3.751   3.241   7.867 -0.1319  0.1743  2.1483
 7927SOL    HW235418   3.676   3.116   7.891  0.5592  1.7530  2.5017
 7928SOL     OW35419   3.986   3.102  17.711  0.0161  0.2125 -0.7509
 7928SOL    HW135420   3.968   3.025  17.658 -1.1249  0.1541 -0.2887
 7928SOL    HW235421   4.017   3.157  17.639 -2.0371  0.1178 -1.6978
 7929SOL     OW35422   2.582   0.715   1.841 -0.5275  0.0687  0.3064
 7929SOL    HW135423   2.627   0.630   1.840 -2.4259 -0.9400 -0.7729
 7929SOL    HW235424   2.661   0.760   1.870  0.0463 -1.5944  1.3328
 7930SOL     OW35425   0.462   0.717  14.722  0.3800  0.2948  0.5916
 7930SOL    HW135426   0.552   0.740  14.745  1.1277 -2.1916  0.0822
 7930SOL    HW235427   0.425   0.689  14.806  1.1569  0.7709  1.0894
 7931SOL     OW35428   4.230   4.047   9.211 -0.2070  0.6760  0.0647
 7931SOL    HW135429   4.155   4.095   9.175 -0.4074  1.3149  1.3495
 7931SOL    HW235430   4.201   3.956   9.208  0.1791  0.5682 -0.4183
 7932SOL     OW35431   3.175   3.218  10.917  0.1609 -0.1721 -0.1176
 7932SOL    HW135432   3.239   3.253  10.980  0.2026 -0.4210 -0.0201
 7932SOL    HW235433   3.108   3.285  10.921 -0.3585 -0.6631 -0.6417
 7933SOL     OW35434   2.906   3.838   8.670 -0.1679 -0.5926  0.1772
 7933SOL    HW135435   2.838   3.902   8.651  0.5157 -0.2722 -1.1771
 7933SOL    HW235436   2.985   3.882   8.637  1.3337 -2.6636  0.9859
 7934SOL     OW35437   1.401   0.004   6.304  0.7387 -0.3734 -0.4935
 7934SOL    HW135438   1.447   4.693   6.237  1.6159 -1.7850  1.1496
 7934SOL    HW235439   1.342   4.674   6.333 -0.3442  0.4006 -0.8773
 7935SOL     OW35440   2.412   0.938   2.858  0.2402  0.3700 -0.0494
 7935SOL    HW135441   2.367   0.918   2.940 -0.0834  0.3168 -0.2395
 7935SOL    HW235442   2.457   0.857   2.837 -0.8309 -0.2945  0.2389
 7936SOL     OW35443   3.390   2.596   2.269  0.1082 -0.0381 -0.1362
 7936SOL    HW135444   3.394   2.522   2.330  1.3243 -0.3242 -0.5562
 7936SOL    HW235445   3.401   2.681   2.313  0.1449  0.2531 -0.7102
 7937SOL     OW35446   4.180   2.527   1.987  0.2685 -0.0814 -0.3311
 7937SOL    HW135447   4.104   2.501   1.935 -0.1738 -1.3388  0.9443
 7937SOL    HW235448   4.195   2.447   2.036  0.0464 -0.4075 -0.7974
 7938SOL     OW35449   3.530   0.250  12.396  0.3609 -0.0772  0.0099
 7938SOL    HW135450   3.497   0.263  12.485  0.9548  0.0399  0.2122
 7938SOL    HW235451   3.515   0.156  12.398 -1.5836  0.2616  1.2282
 7939SOL     OW35452   4.251   3.502   4.461  0.4711 -0.6325  0.2429
 7939SOL    HW135453   4.310   3.475   4.390  0.3248 -0.2808 -0.0118
 7939SOL    HW235454   4.178   3.441   4.453 -1.4614  1.7109  0.2042
 7940SOL     OW35455   1.807   3.895   8.420  0.0903 -0.0619 -0.0800
 7940SOL    HW135456   1.867   3.830   8.458 -3.3848 -1.3163  3.3892
 7940SOL    HW235457   1.723   3.878   8.464 -0.3667  0.7345 -0.6516
 7941SOL     OW35458   4.574   2.863  14.200  0.4143  0.8349 -0.3563
 7941SOL    HW135459   4.506   2.805  14.165  0.5424 -0.5171  1.5940
 7941SOL    HW235460   4.657   2.816  14.193 -1.0579 -2.3122  3.0239
 7942SOL     OW35461   0.928   0.951   9.041  0.2373 -0.4345 -0.6514
 7942SOL    HW135462   0.885   0.870   9.067  0.2498  0.2407  1.4767
 7942SOL    HW235463   1.015   0.948   9.082  0.2495 -1.3352 -0.7651
 7943SOL     OW35464   1.979   1.023   9.146  0.5742 -1.0223 -0.1377
 7943SOL    HW135465   1.966   1.092   9.211 -0.7123 -0.9221 -0.4948
 7943SOL    HW235466   2.073   1.011   9.153  0.7438  0.3635 -0.0336
 7944SOL     OW35467   3.173   3.409   0.466 -0.2002  0.4226  0.8755
 7944SOL    HW135468   3.219   3.417   0.382 -0.7814  1.3167  0.6452
 7944SOL    HW235469   3.180   3.315   0.484  2.9491  0.4901  0.0107
 7945SOL     OW35470   2.150   3.753   8.380  0.1088  0.0982  0.1425
 7945SOL    HW135471   2.173   3.725   8.468 -1.5397 -3.1128 -0.4320
 7945SOL    HW235472   2.137   3.844   8.407  0.9789  0.3413 -0.2842
 7946SOL     OW35473   2.237   1.178   2.572  0.0825  0.3528 -0.2042
 7946SOL    HW135474   2.252   1.271   2.553  0.8300  0.0147 -1.2429
 7946SOL    HW235475   2.147   1.162   2.544  0.6964 -0.4942 -1.6372
 7947SOL     OW35476   2.143   1.643   1.186  0.3637 -0.5178 -0.1734
 7947SOL    HW135477   2.123   1.550   1.189 -0.7474 -0.2327  1.6978
 7947SOL    HW235478   2.050   1.664   1.191  0.6891  0.9390 -0.1557
 7948SOL     OW35479   3.926   0.966   9.531  0.2575  0.1970 -0.3525
 7948SOL    HW135480   3.846   1.016   9.543  1.4742  1.7102  1.5373
 7948SOL    HW235481   3.897   0.884   9.491 -2.0116  2.2716 -2.8769
 7949SOL     OW35482   1.405   3.610   4.981 -0.4282 -0.1980  0.1613
 7949SOL    HW135483   1.338   3.549   5.012  0.6593 -1.5472 -0.1310
 7949SOL    HW235484   1.381   3.688   5.031  0.7436  0.1114  0.2341
 7950SOL     OW35485   1.647   3.754   6.467 -0.4619  0.0052  0.4816
 7950SOL    HW135486   1.642   3.850   6.460 -0.9245  0.0174  1.0235
 7950SOL    HW235487   1.697   3.739   6.387 -0.8264  0.6683  0.1239
 7951SOL     OW35488   3.171   0.557   0.044  0.2357  0.3579 -0.4585
 7951SOL    HW135489   3.250   0.506   0.024 -0.5266 -1.2359  0.6081
 7951SOL    HW235490   3.165   0.567   0.139 -0.3379  0.0150 -0.4567
 7952SOL     OW35491   1.824   4.528  13.865  0.2696 -0.0176  0.1417
 7952SOL    HW135492   1.818   4.618  13.833 -1.7663  0.5659  2.1965
 7952SOL    HW235493   1.759   4.482  13.811  1.1691 -1.8216  0.5747
 7953SOL     OW35494   2.942   1.307   4.864  0.3279  0.4625  0.3615
 7953SOL    HW135495   2.855   1.346   4.872  0.5295  0.7182  1.2711
 7953SOL    HW235496   2.947   1.303   4.768  0.4216 -0.7790  0.4223
 7954SOL     OW35497   3.503   4.106  10.098 -0.6752 -0.5487  0.1560
 7954SOL    HW135498   3.502   4.014  10.071 -1.5308 -0.1087 -1.2898
 7954SOL    HW235499   3.524   4.142  10.011 -2.6570 -1.0429 -0.5230
 7955SOL     OW35500   3.293   1.011   5.064  0.2100  0.0121 -0.3574
 7955SOL    HW135501   3.230   0.957   5.112  1.1497 -0.1492  0.6927
 7955SOL    HW235502   3.295   0.959   4.983  0.1643 -0.9583  0.2724
 7956SOL     OW35503   0.042   4.097   9.148 -0.8292  0.7079 -0.4286
 7956SOL    HW135504   4.715   4.166   9.148  1.1282  2.5819  0.0775
 7956SOL    HW235505   0.023   4.066   9.060  1.3259 -1.8387 -0.0233
 7957SOL     OW35506   4.270   0.239   3.133 -0.5859 -0.0188 -0.3400
 7957SOL    HW135507   4.309   0.325   3.118  2.4290 -1.0489  1.7331
 7957SOL    HW235508   4.340   0.183   3.100  0.6415  0.4521  1.4804
 7958SOL     OW35509   3.042   1.277   6.772 -0.2851 -0.0628 -0.5335
 7958SOL    HW135510   2.969   1.328   6.736  0.4623  0.8886 -0.7080
 7958SOL    HW235511   3.118   1.321   6.733 -0.4811  0.2567 -0.5589
 7959SOL     OW35512   0.927   0.833  12.849 -0.0893 -0.1802 -0.1438
 7959SOL    HW135513   0.969   0.846  12.764  1.1581  0.1808  0.5189
 7959SOL    HW235514   0.870   0.758  12.835 -1.8179  1.2021 -0.4530
 7960SOL     OW35515   0.276   2.905   0.924  0.4856 -0.0055  0.5356
 7960SOL    HW135516   0.224   2.934   0.998 -1.3029  1.0782 -1.1316
 7960SOL    HW235517   0.341   2.975   0.919  1.6287 -0.9765  1.8867
 7961SOL     OW35518   2.709   4.022   2.843  0.9222 -0.8192 -0.0189
 7961SOL    HW135519   2.749   4.094   2.892 -2.3103 -0.2607  1.7915
 7961SOL    HW235520   2.767   3.946   2.853 -0.3403 -1.7721  0.0793
 7962SOL     OW35521   1.745   0.627   3.678  0.3953  0.3550  0.6818
 7962SOL    HW135522   1.692   0.629   3.598  1.7894  1.3262 -0.2146
 7962SOL    HW235523   1.834   0.636   3.644 -0.2034  3.1867 -0.1487
 7963SOL     OW35524   3.122   0.360   1.391 -0.0902 -0.5554 -0.2801
 7963SOL    HW135525   3.133   0.382   1.484  0.5923 -0.6414 -0.3372
 7963SOL    HW235526   3.035   0.321   1.396  0.1401 -1.3322 -2.2892
 7964SOL     OW35527   0.954   4.477  16.186  0.1208 -0.6185 -0.1737
 7964SOL    HW135528   0.934   4.525  16.105  1.8736  0.5201  0.0685
 7964SOL    HW235529   1.033   4.521  16.218 -2.0871  2.7523  0.7306
 7965SOL     OW35530   3.076   4.115   8.128 -0.1515 -0.0872  0.3907
 7965SOL    HW135531   3.117   4.060   8.061 -0.6921  0.6666 -0.5594
 7965SOL    HW235532   3.001   4.154   8.084  0.4101 -1.4812 -1.7825
 7966SOL     OW35533   4.239   4.322   6.952 -0.1652  0.2075  0.2854
 7966SOL    HW135534   4.254   4.256   7.020 -1.1590 -2.5312 -2.1114
 7966SOL    HW235535   4.316   4.295   6.902 -0.0990  1.0212 -0.0377
 7967SOL     OW35536   4.564   0.550   7.635 -0.2467  0.3506 -0.0205
 7967SOL    HW135537   4.600   0.627   7.680  0.6093  0.6562 -1.2252
 7967SOL    HW235538   4.634   0.484   7.633 -0.1052  0.5305 -1.0660
 7968SOL     OW35539   4.732   2.656   6.119  0.3004  0.5793 -0.5236
 7968SOL    HW135540   0.086   2.662   6.142  0.0727 -1.9448  1.1753
 7968SOL    HW235541   4.707   2.584   6.177  1.6637  1.6260  1.3885
 7969SOL     OW35542   1.074   4.511   7.453  0.4552  0.1417  0.0598
 7969SOL    HW135543   1.140   4.477   7.513 -0.2077 -1.4803 -0.1318
 7969SOL    HW235544   1.127   4.579   7.412 -1.5396 -0.4706 -3.5268
 7970SOL     OW35545   2.498   0.320   4.822  0.3217 -0.0014 -0.3856
 7970SOL    HW135546   2.430   0.252   4.826 -0.2515  0.5844 -0.1322
 7970SOL    HW235547   2.490   0.355   4.911  0.6874 -2.0228  0.4317
 7971SOL     OW35548   0.556   2.721  16.832 -0.7068  0.0110 -1.0241
 7971SOL    HW135549   0.592   2.750  16.916 -1.2328  0.2115 -0.8682
 7971SOL    HW235550   0.503   2.797  16.806  0.1224  0.3293 -1.7590
 7972SOL     OW35551   1.721   3.122  10.252 -0.1559  0.3834  0.6039
 7972SOL    HW135552   1.772   3.195  10.287  0.6481 -0.2233  0.6812
 7972SOL    HW235553   1.653   3.105  10.317  0.5434  3.5097  2.1324
 7973SOL     OW35554   2.067   1.111   2.034 -0.0305  0.6413  0.5721
 7973SOL    HW135555   2.001   1.129   2.101  2.4700 -2.8356  4.0066
 7973SOL    HW235556   2.134   1.073   2.091 -0.1456  0.5888  0.6727
 7974SOL     OW35557   4.731   3.558   1.898  0.2122  0.0108 -0.3033
 7974SOL    HW135558   4.680   3.517   1.968  0.2763  0.0692 -0.2205
 7974SOL    HW235559   4.719   3.500   1.824  2.7177 -0.2241 -0.5189
 7975SOL     OW35560   4.645   0.070   5.052  0.0885 -0.4477  0.7452
 7975SOL    HW135561   4.568   0.127   5.057  0.5529  0.1582  0.9988
 7975SOL    HW235562   4.615   4.736   5.106 -1.2992  1.0690  2.0645
 7976SOL     OW35563   4.686   2.686  11.670 -0.3102 -0.7443  0.3207
 7976SOL    HW135564   4.665   2.660  11.760 -2.1101  0.5497  0.2629
 7976SOL    HW235565   4.634   2.626  11.617  2.7859 -2.4512 -0.8242
 7977SOL     OW35566   4.200   2.679  11.079 -0.1568 -0.3691  0.1742
 7977SOL    HW135567   4.284   2.724  11.073 -0.3303 -0.3846 -2.4923
 7977SOL    HW235568   4.166   2.704  11.165 -0.1057  1.0925 -0.2258
 7978SOL     OW35569   3.203   2.204   8.308 -0.6581 -0.0627  0.4612
 7978SOL    HW135570   3.277   2.207   8.369  0.3171 -1.3112 -0.6577
 7978SOL    HW235571   3.227   2.252   8.230 -4.2024  0.0019 -0.6177
 7979SOL     OW35572   3.045   1.983   9.143 -0.2714  0.3925 -0.0289
 7979SOL    HW135573   3.119   2.043   9.133 -0.3249  0.2023 -1.5836
 7979SOL    HW235574   3.028   1.999   9.236 -0.1109 -0.4161  0.1404
 7980SOL     OW35575   1.738   3.802   8.835 -0.3037  0.0614  0.9085
 7980SOL    HW135576   1.714   3.813   8.927  0.5599  2.6523  0.8389
 7980SOL    HW235577   1.804   3.871   8.833 -0.1889 -0.0458  1.0287
 7981SOL     OW35578   3.715   0.687   3.316 -0.1347 -0.1993  0.4329
 7981SOL    HW135579   3.805   0.694   3.347  0.0571 -2.0478  0.2891
 7981SOL    HW235580   3.698   0.773   3.277  2.0204 -1.6658 -3.7351
 7982SOL     OW35581   4.436   3.025   7.504 -0.4375 -0.1835 -0.3325
 7982SOL    HW135582   4.482   3.018   7.588 -0.2226 -2.3680 -0.6420
 7982SOL    HW235583   4.372   2.958   7.528  1.2667 -2.2500 -1.6206
 7983SOL     OW35584   0.316   1.262   3.113 -0.0829  0.0212 -0.0402
 7983SOL    HW135585   0.373   1.311   3.054  0.4626  2.8974  2.8706
 7983SOL    HW235586   0.264   1.326   3.161 -1.8773 -1.0843 -0.5185
 7984SOL     OW35587   1.800   4.311   2.572  0.6737 -0.2753  0.2538
 7984SOL    HW135588   1.817   4.404   2.589  0.2492 -0.6316  2.5395
 7984SOL    HW235589   1.740   4.314   2.498  2.6571 -1.3632 -1.4141
 7985SOL     OW35590   1.490   0.530  10.885 -0.4922 -0.0080 -0.1985
 7985SOL    HW135591   1.407   0.524  10.932 -0.0474  1.4961  0.7942
 7985SOL    HW235592   1.540   0.544  10.965 -0.3817 -0.8246 -0.1280
 7986SOL     OW35593   0.378   3.582  13.096  0.0407  0.1799  0.7176
 7986SOL    HW135594   0.463   3.554  13.130  1.2330 -0.5613 -2.8547
 7986SOL    HW235595   0.360   3.645  13.166 -0.1181 -1.1002  1.8217
 7987SOL     OW35596   2.757   0.238  13.153  0.1125  0.5829 -0.1571
 7987SOL    HW135597   2.692   0.291  13.200 -0.9077 -1.1689  0.3983
 7987SOL    HW235598   2.756   0.289  13.072  0.1433 -0.4811 -0.8220
 7988SOL     OW35599   0.755   3.502   3.048 -0.6398 -0.4808  0.0597
 7988SOL    HW135600   0.808   3.432   3.086 -1.3796 -0.2671  1.4663
 7988SOL    HW235601   0.697   3.460   2.984  1.7411 -0.2115 -2.2894
 7989SOL     OW35602   1.576   2.283   9.527  0.1582 -0.4223 -0.5427
 7989SOL    HW135603   1.610   2.258   9.441 -1.3318 -0.2938 -1.1789
 7989SOL    HW235604   1.487   2.313   9.509 -0.9086 -2.1200  2.0223
 7990SOL     OW35605   0.737   1.256   8.922  0.1131  0.4522 -0.1279
 7990SOL    HW135606   0.832   1.245   8.917  0.1674 -0.3265  2.5833
 7990SOL    HW235607   0.728   1.334   8.975  1.2886  0.1203  0.5485
 7991SOL     OW35608   1.021   3.137   3.854 -0.3321  0.2385 -0.2162
 7991SOL    HW135609   0.952   3.194   3.821 -1.4040 -1.6393 -1.1803
 7991SOL    HW235610   1.098   3.194   3.854 -1.1618  1.3632 -1.1149
 7992SOL     OW35611   4.007   2.175   5.113  0.4339  0.3010 -0.3306
 7992SOL    HW135612   3.967   2.091   5.087 -0.1927  0.6159 -0.3914
 7992SOL    HW235613   4.100   2.163   5.094  1.3581  1.0968  3.6159
 7993SOL     OW35614   0.416   3.199   9.346 -0.3906  0.3430  0.1496
 7993SOL    HW135615   0.468   3.119   9.343  0.6367  1.0605 -0.9217
 7993SOL    HW235616   0.391   3.189   9.254  0.9126  3.1524 -0.5088
 7994SOL     OW35617   0.128   2.983  14.301 -0.4018  0.7050 -0.4800
 7994SOL    HW135618   0.081   3.019  14.226  0.6946  1.2811 -0.8866
 7994SOL    HW235619   0.191   3.053  14.316 -0.5082  0.8886 -0.8959
 7995SOL     OW35620   3.075   0.013  13.071  0.4869 -0.0536 -0.3177
 7995SOL    HW135621   2.980   0.008  13.076  0.6608 -1.4872  1.7357
 7995SOL    HW235622   3.102   4.690  13.004  1.5787  0.4445 -0.3495
 7996SOL     OW35623   4.060   2.575   2.314 -0.2217 -0.1542 -0.3249
 7996SOL    HW135624   4.125   2.631   2.271  0.7567 -1.5493 -0.6728
 7996SOL    HW235625   4.093   2.486   2.304  0.1904  0.2141 -2.1423
 7997SOL     OW35626   1.743   0.020   9.176 -0.2626 -0.5426  0.2029
 7997SOL    HW135627   1.749   4.665   9.158 -2.5734 -0.2829 -2.0071
 7997SOL    HW235628   1.729   0.015   9.270 -0.5870 -1.1390  0.1294
 7998SOL     OW35629   3.652   1.910  12.631 -0.1238 -0.3860  0.2221
 7998SOL    HW135630   3.662   1.925  12.537 -0.8545  2.1030  0.5585
 7998SOL    HW235631   3.571   1.961  12.633 -0.5784 -1.1601  1.6952
 7999SOL     OW35632   2.891   4.568  12.865  0.3438 -0.2444 -0.0295
 7999SOL    HW135633   2.841   4.487  12.854 -0.4949  0.1961  0.5326
 7999SOL    HW235634   2.963   4.545  12.923 -1.2493 -3.0409  0.8431
 8000SOL     OW35635   4.547   2.829  15.638 -0.3644  0.4384  0.1782
 8000SOL    HW135636   4.596   2.859  15.714 -2.1183 -1.4877  2.0342
 8000SOL    HW235637   4.607   2.762  15.604  1.6141  1.4623  1.6154
 8001SOL     OW35638   1.101   3.350   6.739 -0.9506 -0.6573 -0.2995
 8001SOL    HW135639   1.127   3.361   6.831 -1.3096 -0.5034 -0.2123
 8001SOL    HW235640   1.035   3.281   6.742 -0.9129 -0.7961 -3.3210
 8002SOL     OW35641   0.177   1.542  13.943 -0.3733  0.2362 -0.4568
 8002SOL    HW135642   0.092   1.561  13.904 -0.6861 -1.5596 -0.6310
 8002SOL    HW235643   0.153   1.454  13.972  1.8898 -0.1166  0.3418
 8003SOL     OW35644   0.012   2.123   2.601  0.3635  0.0121  0.1280
 8003SOL    HW135645   4.706   2.154   2.522 -0.4065 -0.9043  0.2157
 8003SOL    HW235646   0.054   2.200   2.639 -0.4827  1.1423 -1.2071
 8004SOL     OW35647   1.527   2.748   5.822  0.3178  0.5441 -0.3705
 8004SOL    HW135648   1.488   2.665   5.851  3.6740 -2.5044 -4.5898
 8004SOL    HW235649   1.459   2.761   5.756 -1.5264  3.4961  2.1074
 8005SOL     OW35650   0.128   1.032   8.216 -0.0891 -0.3949  0.0165
 8005SOL    HW135651   0.200   0.970   8.224  0.4113  0.0349 -1.0946
 8005SOL    HW235652   0.053   0.974   8.220 -0.2136 -0.1753  0.7770
 8006SOL     OW35653   1.266   1.982   8.456 -0.0916  0.0290  0.5551
 8006SOL    HW135654   1.303   1.927   8.525 -0.9688 -0.7306  0.4220
 8006SOL    HW235655   1.179   2.010   8.486 -0.5527 -2.9252  1.9719
 8007SOL     OW35656   0.597   0.115   0.450  0.3310  0.1096  0.0628
 8007SOL    HW135657   0.640   0.174   0.388  3.0414  0.7787  2.5426
 8007SOL    HW235658   0.661   0.110   0.521  1.2298  1.6951 -0.6164
 8008SOL     OW35659   2.103   4.592   0.134  0.0783  0.1156  0.3095
 8008SOL    HW135660   2.133   4.555   0.217  0.2305 -0.9164 -0.1988
 8008SOL    HW235661   2.147   4.540   0.066  1.7418 -1.9799  2.9930
 8009SOL     OW35662   3.609   1.681   3.276  0.4892 -0.2706  0.2337
 8009SOL    HW135663   3.691   1.688   3.325  1.0931 -2.3448 -0.4471
 8009SOL    HW235664   3.550   1.645   3.342 -0.1232  2.5241  1.2072
 8010SOL     OW35665   0.457   0.966   4.664  0.4173  0.1412  0.2213
 8010SOL    HW135666   0.525   1.022   4.624  1.0761  0.1832  1.3969
 8010SOL    HW235667   0.383   1.026   4.674 -0.2305 -1.0563  2.5291
 8011SOL     OW35668   3.759   0.162   6.641  0.7123 -0.0631 -0.2856
 8011SOL    HW135669   3.712   0.234   6.599  0.1615 -1.8386 -2.6901
 8011SOL    HW235670   3.798   0.199   6.721 -0.4683  1.5651 -0.4687
 8012SOL     OW35671   1.782   2.003   4.153 -0.0846  0.4187  0.0275
 8012SOL    HW135672   1.760   1.912   4.173 -0.6864  0.9858  1.9533
 8012SOL    HW235673   1.874   2.000   4.126 -0.2221 -0.5852 -0.3283
 8013SOL     OW35674   0.841   0.664   9.129  0.4878 -0.2236  0.1251
 8013SOL    HW135675   0.758   0.707   9.147  0.1423 -0.2817 -1.3100
 8013SOL    HW235676   0.853   0.613   9.209  0.9240  1.2182  0.9695
 8014SOL     OW35677   3.494   2.047   7.544 -0.4046  0.0196 -0.4939
 8014SOL    HW135678   3.430   2.094   7.597 -0.2963 -0.2667 -0.1070
 8014SOL    HW235679   3.507   1.971   7.600  6.5843  1.7633  0.2228
 8015SOL     OW35680   1.556   1.547  12.460  0.1464 -0.1317 -0.7886
 8015SOL    HW135681   1.646   1.533  12.489 -0.8165 -1.0638  1.7491
 8015SOL    HW235682   1.507   1.498  12.526 -0.5092  1.0016 -0.4308
 8016SOL     OW35683   0.944   0.629   3.820  0.3932  0.5318  0.2192
 8016SOL    HW135684   0.852   0.618   3.845 -0.5157  4.0068 -1.6447
 8016SOL    HW235685   0.999   0.604   3.894  1.0507 -0.1147 -0.4867
 8017SOL     OW35686   3.020   0.396   5.503  0.8839 -0.1184 -0.2881
 8017SOL    HW135687   2.990   0.315   5.543 -2.3920  1.0559 -0.3124
 8017SOL    HW235688   3.112   0.387   5.527  0.9403 -0.3629 -0.5986
 8018SOL     OW35689   1.756   0.621   1.266 -0.4013  0.6332 -0.4181
 8018SOL    HW135690   1.703   0.685   1.314 -0.5587  0.1322  0.0812
 8018SOL    HW235691   1.833   0.670   1.237  1.3713 -0.6202  2.1524
 8019SOL     OW35692   1.250   0.893   5.895 -0.8296 -0.6397 -0.4030
 8019SOL    HW135693   1.309   0.834   5.942  0.1294  0.2036 -0.5304
 8019SOL    HW235694   1.167   0.877   5.940 -0.8190 -0.2873 -0.2497
 8020SOL     OW35695   1.179   0.785  16.222 -0.2019 -0.2368 -0.6380
 8020SOL    HW135696   1.267   0.790  16.261 -0.3767 -0.0563 -0.2600
 8020SOL    HW235697   1.195   0.828  16.138 -3.3212 -0.6527 -1.4511
 8021SOL     OW35698   2.126   0.872  12.647 -0.3136 -0.3959  0.0345
 8021SOL    HW135699   2.148   0.892  12.738 -0.4439 -2.9993  0.6255
 8021SOL    HW235700   2.203   0.820  12.625 -0.5810 -1.1541  0.9239
 8022SOL     OW35701   2.418   0.031  12.356  0.4235  0.1226 -0.3336
 8022SOL    HW135702   2.512   0.044  12.371  0.1731 -0.2970  1.6303
 8022SOL    HW235703   2.408   4.688  12.404  0.3214  0.7694  0.7415
 8023SOL     OW35704   1.774   0.173   1.734  0.3554 -0.2467 -0.5200
 8023SOL    HW135705   1.848   0.215   1.690 -1.0916  0.8997 -1.8542
 8023SOL    HW235706   1.802   0.081   1.733  1.7204  0.1539  2.1447
 8024SOL     OW35707   3.490   3.278   3.371 -0.2800 -0.1909  0.1501
 8024SOL    HW135708   3.402   3.276   3.332 -0.5791  1.8460  0.6890
 8024SOL    HW235709   3.515   3.371   3.370 -1.2134  0.0995  2.7776
 8025SOL     OW35710   4.682   3.979  12.814 -0.5069 -0.2719  0.0456
 8025SOL    HW135711   4.615   3.941  12.758 -1.4533  0.8579  0.4236
 8025SOL    HW235712   0.015   3.972  12.751  0.9543 -1.9429  1.8627
 8026SOL     OW35713   1.857   1.052  12.375  0.1600  0.0445  0.1227
 8026SOL    HW135714   1.834   1.098  12.294 -1.4206 -0.7593  0.1283
 8026SOL    HW235715   1.768   1.048  12.408 -0.0736  0.5056 -0.4344
 8027SOL     OW35716   2.637   0.796   5.300 -0.8320  0.4683  0.1201
 8027SOL    HW135717   2.691   0.872   5.324 -0.1184  0.7437 -2.3526
 8027SOL    HW235718   2.559   0.850   5.290 -1.5436  0.1201  3.7188
 8028SOL     OW35719   1.885   3.272   8.171 -0.6085 -0.1879 -0.2018
 8028SOL    HW135720   1.925   3.222   8.242 -2.0455 -0.0352  0.7001
 8028SOL    HW235721   1.884   3.356   8.216 -0.5930  1.1642 -2.7257
 8029SOL     OW35722   1.376   4.332   9.075 -0.1933 -0.0589  0.1738
 8029SOL    HW135723   1.411   4.264   9.018  1.5999  0.8261  0.2132
 8029SOL    HW235724   1.324   4.381   9.012 -0.8183  0.5860  1.1823
 8030SOL     OW35725   2.356   1.305   3.814  0.1721 -0.3289 -0.6365
 8030SOL    HW135726   2.344   1.319   3.720  0.3327  1.3084 -0.4112
 8030SOL    HW235727   2.282   1.362   3.836 -0.1493  0.1597 -2.9618
 8031SOL     OW35728   1.349   3.749   6.664 -0.0427 -0.1684  0.5383
 8031SOL    HW135729   1.401   3.669   6.649 -0.1044 -0.2403  0.7101
 8031SOL    HW235730   1.308   3.760   6.579 -0.7381 -2.6812  0.5376
 8032SOL     OW35731   1.938   2.658   6.734  0.6149  0.1974  0.0874
 8032SOL    HW135732   1.850   2.682   6.704  0.7798 -0.6185 -1.0555
 8032SOL    HW235733   1.935   2.562   6.737  1.6186  0.1868  0.5040
 8033SOL     OW35734   2.414   0.984  12.626 -0.2962  0.7299 -0.2804
 8033SOL    HW135735   2.481   0.974  12.558 -0.5181 -2.9603  0.0624
 8033SOL    HW235736   2.370   0.899  12.623  0.3676  0.3371  1.2008
 8034SOL     OW35737   3.754   0.272   3.955  0.8318 -0.3759 -0.2199
 8034SOL    HW135738   3.697   0.299   4.027  1.4734 -0.2826  0.2551
 8034SOL    HW235739   3.762   0.358   3.912  1.1548 -0.2735  0.0414
 8035SOL     OW35740   1.821   4.580   0.542  0.2904  0.2413  0.0165
 8035SOL    HW135741   1.726   4.572   0.555  0.5456 -2.6266  0.0620
 8035SOL    HW235742   1.861   4.559   0.626 -0.6312 -3.4108 -0.4598
 8036SOL     OW35743   0.828   0.967  11.609  0.1998  0.1110 -0.2906
 8036SOL    HW135744   0.753   0.907  11.598 -0.2130  0.3436  1.2878
 8036SOL    HW235745   0.806   1.043  11.554 -2.2362 -0.3580  0.0016
 8037SOL     OW35746   3.326   2.850  12.220 -0.6036 -0.2737  0.2668
 8037SOL    HW135747   3.397   2.797  12.254 -1.2130  0.1374  2.1943
 8037SOL    HW235748   3.334   2.835  12.126  0.5938  1.8896  0.0284
 8038SOL     OW35749   0.720   1.667   8.282 -0.5323  0.1258 -0.1657
 8038SOL    HW135750   0.764   1.748   8.254 -1.3325  0.0474 -1.6548
 8038SOL    HW235751   0.712   1.615   8.202 -0.8120 -0.7006  0.4027
 8039SOL     OW35752   3.946   3.187   9.072  0.0730  0.4121  0.3823
 8039SOL    HW135753   3.992   3.214   9.151  1.9210 -0.4766 -0.3932
 8039SOL    HW235754   3.936   3.267   9.020  0.7389  1.7327  2.2998
 8040SOL     OW35755   3.374   0.025   1.505 -0.3569  0.1992  0.5647
 8040SOL    HW135756   3.411   4.697   1.562 -0.9531 -1.6170 -1.2010
 8040SOL    HW235757   3.281   0.006   1.520 -0.5367  1.1780  0.7022
 8041SOL     OW35758   1.842   0.432   6.033 -0.6468  0.3101 -0.4849
 8041SOL    HW135759   1.847   0.527   6.043 -0.1466 -0.0490  2.4208
 8041SOL    HW235760   1.840   0.390   6.119  1.3508  1.0080 -0.1036
 8042SOL     OW35761   0.514   2.793   7.136  0.2141 -0.1850 -0.3358
 8042SOL    HW135762   0.558   2.803   7.051  2.6874 -0.2848  0.9339
 8042SOL    HW235763   0.524   2.700   7.157  2.5723  0.3012  0.7839
 8043SOL     OW35764   2.695   2.133   3.867  0.2962 -0.3818  0.7141
 8043SOL    HW135765   2.688   2.216   3.820 -1.0535 -0.0936  1.4317
 8043SOL    HW235766   2.640   2.139   3.945  0.3032  0.0473  0.6852
 8044SOL     OW35767   0.985   1.097  10.973  0.2207 -0.0320  0.2722
 8044SOL    HW135768   1.055   1.096  10.907  1.3396  0.9205  1.4566
 8044SOL    HW235769   0.907   1.090  10.917 -0.4453 -0.2261  1.2300
 8045SOL     OW35770   0.877   1.366   2.801 -0.0876 -0.1502 -0.4524
 8045SOL    HW135771   0.822   1.382   2.724 -1.2600  2.6504  0.9650
 8045SOL    HW235772   0.916   1.282   2.776  2.3627  1.2679 -1.4009
 8046SOL     OW35773   2.644   1.375   1.903 -0.1713 -0.1814  0.2825
 8046SOL    HW135774   2.680   1.446   1.956 -0.2091  0.5435 -0.6716
 8046SOL    HW235775   2.562   1.349   1.946  0.2713  1.9935  2.4519
 8047SOL     OW35776   2.385   3.178   3.043 -0.0438  0.1464 -0.0012
 8047SOL    HW135777   2.389   3.082   3.048 -1.1750  0.1614  1.2138
 8047SOL    HW235778   2.472   3.187   3.082  0.1991  1.0874 -0.7760
 8048SOL     OW35779   3.269   0.134   6.672 -0.0230  0.5955 -0.2254
 8048SOL    HW135780   3.279   0.141   6.766 -1.1992  1.2377 -0.1533
 8048SOL    HW235781   3.358   0.099   6.663  0.0641  0.2372  2.1266
 8049SOL     OW35782   1.748   1.572  14.614  0.3100  0.1154  0.4257
 8049SOL    HW135783   1.752   1.667  14.610 -2.8773  0.2426  0.0270
 8049SOL    HW235784   1.716   1.557  14.703 -0.2238  2.1548  0.5752
 8050SOL     OW35785   3.172   4.514   4.310 -0.2269 -0.1798  0.0359
 8050SOL    HW135786   3.147   4.567   4.234  0.0538 -2.3032 -1.5318
 8050SOL    HW235787   3.178   4.432   4.262  1.5752 -0.7364  1.2098
 8051SOL     OW35788   0.859   1.252  15.886  0.2511 -0.3499 -0.2206
 8051SOL    HW135789   0.881   1.160  15.895  0.7951 -0.3152 -1.1014
 8051SOL    HW235790   0.864   1.261  15.790  1.4323 -3.2156 -0.4062
 8052SOL     OW35791   1.872   0.636  17.569 -0.5399 -0.1030  0.2467
 8052SOL    HW135792   1.874   0.718  17.618  1.9547  1.0101 -1.6821
 8052SOL    HW235793   1.929   0.583  17.624  3.5372  0.7997 -3.0789
 8053SOL     OW35794   1.527   2.047   6.584 -0.0675 -0.4349  0.1843
 8053SOL    HW135795   1.467   2.039   6.658 -3.3936  2.3555 -2.2122
 8053SOL    HW235796   1.607   2.005   6.615 -0.4742 -1.4227 -0.1194
 8054SOL     OW35797   4.722   3.944   8.656 -0.0122  0.0289  0.4724
 8054SOL    HW135798   0.031   3.866   8.630 -0.6854 -0.8455  1.8364
 8054SOL    HW235799   4.708   3.939   8.751 -0.4356  1.5539  0.4929
 8055SOL     OW35800   1.927   0.213   4.683 -0.3303 -0.4131 -0.2424
 8055SOL    HW135801   2.019   0.232   4.663  0.7693 -4.6016  0.7278
 8055SOL    HW235802   1.916   0.120   4.662 -0.2766 -0.2179 -1.1151
 8056SOL     OW35803   2.429   1.116   3.989  0.2052 -0.3916 -0.2444
 8056SOL    HW135804   2.400   1.030   3.958  1.5051 -0.0350 -2.4439
 8056SOL    HW235805   2.417   1.184   3.922 -0.3139 -1.8419 -1.6197
 8057SOL     OW35806   0.039   2.238  14.512 -0.6331  0.6413 -0.0011
 8057SOL    HW135807   4.695   2.274  14.542  0.4918  2.6989  0.6770
 8057SOL    HW235808   0.098   2.290  14.567  0.6983  0.7134 -1.4804
 8058SOL     OW35809   0.392   0.429   5.102 -0.0513  0.1875 -0.2188
 8058SOL    HW135810   0.426   0.339   5.095  0.4262  0.6018 -3.2838
 8058SOL    HW235811   0.467   0.481   5.074  0.3434  0.0886  0.6687
 8059SOL     OW35812   0.324   3.319   4.192  0.0176  0.4054  0.1840
 8059SOL    HW135813   0.298   3.408   4.217 -0.8977 -0.0555  0.8523
 8059SOL    HW235814   0.315   3.269   4.273 -0.8951  0.7245  0.2801
 8060SOL     OW35815   2.811   4.185   8.904  0.0326 -0.2833 -0.6281
 8060SOL    HW135816   2.815   4.279   8.918 -1.1056 -0.2267 -0.7055
 8060SOL    HW235817   2.733   4.161   8.954  0.9042 -0.3012  0.7390
 8061SOL     OW35818   4.077   1.709   7.778 -0.2510  0.0708  0.1247
 8061SOL    HW135819   4.014   1.664   7.834 -1.6609  1.1145 -0.6073
 8061SOL    HW235820   4.017   1.731   7.706  0.0652 -1.1946 -0.5171
 8062SOL     OW35821   3.656   4.718   2.890 -0.2216 -0.2180 -0.7815
 8062SOL    HW135822   3.739   0.025   2.904 -2.2165  2.0552  3.4591
 8062SOL    HW235823   3.665   4.660   2.966  2.3136  0.3490 -0.6532
 8063SOL     OW35824   1.799   4.252   2.221 -0.1203 -0.7468  0.5857
 8063SOL    HW135825   1.874   4.287   2.268  0.2611  0.5915 -1.0322
 8063SOL    HW235826   1.843   4.199   2.154  1.2234  0.9736  0.1093
 8064SOL     OW35827   3.828   0.728   4.175 -0.2449 -0.5453 -0.2086
 8064SOL    HW135828   3.906   0.779   4.153  0.1024 -0.4145  1.3405
 8064SOL    HW235829   3.794   0.713   4.086 -1.0243 -0.7944  0.1332
 8065SOL     OW35830   1.340   1.011   3.175  0.1252  0.0863 -0.2072
 8065SOL    HW135831   1.334   1.102   3.203  0.6307 -0.4559  1.7078
 8065SOL    HW235832   1.280   1.016   3.100  0.1617  2.1752 -0.1003
 8066SOL     OW35833   2.002   1.343   3.836 -0.1566  0.1488  0.0310
 8066SOL    HW135834   2.041   1.411   3.891  1.2138 -0.2628 -0.4261
 8066SOL    HW235835   1.956   1.403   3.777 -0.8354 -1.0949 -0.7047
 8067SOL     OW35836   3.306   1.563  15.615  0.3150 -0.3879  0.0396
 8067SOL    HW135837   3.362   1.641  15.616 -1.6264  1.0076  0.7428
 8067SOL    HW235838   3.221   1.606  15.624  0.1093 -0.7735 -0.0614
 8068SOL     OW35839   0.524   2.409  13.709 -0.8887 -0.1550  0.3988
 8068SOL    HW135840   0.484   2.491  13.679 -2.3827 -1.2307 -0.5734
 8068SOL    HW235841   0.448   2.355  13.731 -0.8666 -1.1347 -1.8710
 8069SOL     OW35842   2.058   1.048   6.364  0.2848  0.3147 -0.1997
 8069SOL    HW135843   2.069   1.080   6.453 -2.2932  2.4949 -0.6611
 8069SOL    HW235844   2.142   1.047   6.319  0.7039  0.6662  0.5709
 8070SOL     OW35845   1.131   2.723   4.306  0.4946 -0.2497  0.0334
 8070SOL    HW135846   1.197   2.699   4.240 -0.7491  0.3738 -1.4151
 8070SOL    HW235847   1.057   2.678   4.266 -1.1937  1.0811  1.6829
 8071SOL     OW35848   4.527   0.406   3.893 -0.6627  0.1552 -0.1133
 8071SOL    HW135849   4.596   0.383   3.832 -0.5169  1.2704 -0.3627
 8071SOL    HW235850   4.499   0.488   3.853 -0.8561 -0.6306 -1.6080
 8072SOL     OW35851   2.946   3.229   8.593 -0.4611 -0.1893 -0.5224
 8072SOL    HW135852   2.930   3.303   8.651  1.5848  0.5499 -0.9048
 8072SOL    HW235853   2.860   3.232   8.552 -0.8237  0.9101  0.3399
 8073SOL     OW35854   4.222   2.102  11.952  0.3107 -0.3949 -0.7229
 8073SOL    HW135855   4.314   2.127  11.962  0.4656 -2.3140  2.4622
 8073SOL    HW235856   4.209   2.116  11.858  0.9842  1.1426 -0.5855
 8074SOL     OW35857   0.955   0.080   8.784  0.0311  0.3487 -0.6376
 8074SOL    HW135858   0.932   0.046   8.698 -1.2425  2.2406 -1.0536
 8074SOL    HW235859   0.874   0.068   8.835  1.2553 -2.2145  0.6827
 8075SOL     OW35860   3.285   0.911   6.697 -0.6440 -0.6185 -0.1607
 8075SOL    HW135861   3.361   0.968   6.705 -0.0575 -1.2931 -1.0679
 8075SOL    HW235862   3.228   0.955   6.760  0.7640  0.6590  0.2184
 8076SOL     OW35863   2.308   4.054   4.196  0.6890  0.1386 -0.9657
 8076SOL    HW135864   2.279   4.080   4.284  2.7045 -0.1277 -0.2342
 8076SOL    HW235865   2.398   4.087   4.193  1.1268 -1.1298 -1.5037
 8077SOL     OW35866   0.383   1.519   5.908  0.0146  0.1730  0.1865
 8077SOL    HW135867   0.325   1.451   5.874  0.1926 -0.8224  1.8781
 8077SOL    HW235868   0.381   1.507   6.003 -2.5841  4.1358  0.6529
 8078SOL     OW35869   0.938   1.941   1.545  0.1546  0.4148 -0.1869
 8078SOL    HW135870   0.961   1.953   1.452  1.1419  1.2292  0.1652
 8078SOL    HW235871   0.943   2.029   1.584 -2.5360  0.8147 -0.7080
 8079SOL     OW35872   2.307   0.988   8.699 -0.1299 -0.1515 -0.5065
 8079SOL    HW135873   2.333   1.073   8.665 -2.4462  1.0284  0.6852
 8079SOL    HW235874   2.245   0.952   8.635 -0.9567 -0.0305  0.2294
 8080SOL     OW35875   1.810   0.630  11.398 -0.4810  0.5672 -0.2463
 8080SOL    HW135876   1.760   0.700  11.440  0.0822  0.9442 -0.2013
 8080SOL    HW235877   1.812   0.569  11.472 -0.5313  1.3515  0.4140
 8081SOL     OW35878   1.812   3.500   5.113 -0.0817 -0.2247 -0.1312
 8081SOL    HW135879   1.886   3.440   5.101 -0.6219 -0.8378 -0.3907
 8081SOL    HW235880   1.746   3.495   5.044  0.8709 -1.5487 -0.9518
 8082SOL     OW35881   4.664   3.121   8.649  0.0396  0.0411  0.1853
 8082SOL    HW135882   4.703   3.170   8.721  2.8293 -2.1357  0.1617
 8082SOL    HW235883   4.572   3.120   8.675 -0.6009 -1.9355 -2.1325
 8083SOL     OW35884   0.621   1.041  12.002  0.1902  0.0747 -0.5934
 8083SOL    HW135885   0.575   1.075  11.926 -2.0886  0.1238  0.8392
 8083SOL    HW235886   0.555   1.048  12.070  0.6843 -1.1080  0.0149
 8084SOL     OW35887   0.632   3.049   6.245 -0.0056 -0.1613 -0.3532
 8084SOL    HW135888   0.560   3.039   6.183 -0.8268 -0.4317  0.6320
 8084SOL    HW235889   0.712   3.046   6.192  0.4291 -3.1490  0.4867
 8085SOL     OW35890   3.763   2.176   3.015 -0.0287  0.2383 -0.4878
 8085SOL    HW135891   3.782   2.086   3.044 -1.6207 -0.3547 -1.2974
 8085SOL    HW235892   3.773   2.173   2.920  1.5050  1.4461 -0.3602
 8086SOL     OW35893   4.060   2.559  16.264 -0.5358  0.4464  0.5857
 8086SOL    HW135894   4.031   2.612  16.338  0.5296  1.3219  0.3728
 8086SOL    HW235895   4.083   2.478  16.310 -0.7224 -0.3911 -0.7940
 8087SOL     OW35896   0.311   2.959   3.282  0.1699 -0.1331 -0.3577
 8087SOL    HW135897   0.393   3.002   3.258  1.3795 -2.3336 -0.1598
 8087SOL    HW235898   0.344   2.870   3.287 -0.0835 -0.1090  1.4234
 8088SOL     OW35899   1.217   1.524   2.547  0.6343 -0.0386  0.2167
 8088SOL    HW135900   1.298   1.476   2.566 -0.4804 -2.1509 -0.4516
 8088SOL    HW235901   1.172   1.466   2.486  1.4009  0.3012 -0.6686
 8089SOL     OW35902   3.120   1.244   7.480  0.1300  0.1028 -0.0308
 8089SOL    HW135903   3.210   1.214   7.462 -0.7957 -1.5397 -2.0476
 8089SOL    HW235904   3.121   1.339   7.491  0.5372 -0.0091  0.8548
 8090SOL     OW35905   1.757   3.672   4.519  0.0117  0.0345 -0.5405
 8090SOL    HW135906   1.765   3.588   4.472 -0.4759 -0.1775 -0.2457
 8090SOL    HW235907   1.701   3.642   4.590  0.4056 -0.5491 -0.4747
 8091SOL     OW35908   2.968   0.474   8.349  0.1398  0.2793 -0.0816
 8091SOL    HW135909   2.901   0.488   8.416  0.7052 -0.3628  0.6172
 8091SOL    HW235910   2.933   0.397   8.304 -0.9491  1.3032 -0.9788
 8092SOL     OW35911   3.323   3.581   5.409 -0.4439  0.2570  0.1046
 8092SOL    HW135912   3.341   3.674   5.419 -3.4267  1.0673 -2.0323
 8092SOL    HW235913   3.313   3.552   5.499 -0.4975 -0.2530 -0.0663
 8093SOL     OW35914   2.207   4.433   5.436  0.6865 -0.6197  0.0994
 8093SOL    HW135915   2.140   4.377   5.475  0.6562 -0.7127 -0.0877
 8093SOL    HW235916   2.205   4.508   5.496 -0.0607  1.3594 -2.3854
 8094SOL     OW35917   0.072   1.642  13.378  0.1154 -0.4460 -0.4540
 8094SOL    HW135918   0.125   1.584  13.324  1.2175 -0.4481  0.6201
 8094SOL    HW235919   0.120   1.722  13.357 -0.2396 -0.0290  0.3306
 8095SOL     OW35920   3.504   1.206   8.015 -0.7430  0.0453  0.0131
 8095SOL    HW135921   3.502   1.158   7.933  0.5039  1.1892 -0.6856
 8095SOL    HW235922   3.493   1.139   8.082  0.9616 -1.5659 -1.3244
 8096SOL     OW35923   0.648   1.509   1.965 -0.2342 -0.1167 -0.1082
 8096SOL    HW135924   0.698   1.520   1.884 -0.6312 -1.4008 -0.5332
 8096SOL    HW235925   0.721   1.497   2.026 -0.8047 -0.4755  0.4919
 8097SOL     OW35926   2.401   0.831   4.238  0.2275 -0.2887 -0.1811
 8097SOL    HW135927   2.327   0.890   4.254 -0.0718 -0.0767 -2.4036
 8097SOL    HW235928   2.410   0.791   4.325  0.0943 -0.9946 -0.4890
 8098SOL     OW35929   1.369   1.649  16.251  0.1204 -0.1322 -0.0340
 8098SOL    HW135930   1.301   1.715  16.262  0.1098 -0.6933  3.3223
 8098SOL    HW235931   1.359   1.602  16.334 -1.1258  1.5421  0.7542
 8099SOL     OW35932   3.958   0.349   6.264  0.0530 -0.5166  0.5356
 8099SOL    HW135933   3.957   0.394   6.349 -2.7779 -1.7986  1.1788
 8099SOL    HW235934   4.047   0.314   6.265  0.4503  0.4340 -1.9217
 8100SOL     OW35935   2.313   2.995   5.587 -0.2030  0.0736  0.6247
 8100SOL    HW135936   2.375   2.928   5.615 -0.3467  0.8655  2.8551
 8100SOL    HW235937   2.328   2.988   5.493  1.8766  0.4261  0.9364
 8101SOL     OW35938   0.896   3.500   4.847 -0.1264 -0.5966  0.3844
 8101SOL    HW135939   0.960   3.456   4.902 -0.4106 -0.4119  0.8574
 8101SOL    HW235940   0.897   3.444   4.768  1.5166  1.3990 -1.0069
 8102SOL     OW35941   3.922   0.072   4.975 -0.4421 -0.6363 -0.5867
 8102SOL    HW135942   3.906   0.157   4.934 -0.8385 -0.2512  0.3779
 8102SOL    HW235943   3.850   0.026   4.930 -0.9815 -0.9457  0.5944
 8103SOL     OW35944   4.003   2.029   3.835 -0.1576  0.5067  0.5560
 8103SOL    HW135945   4.073   1.976   3.798 -1.6370 -0.4991 -0.8064
 8103SOL    HW235946   3.986   1.968   3.907  1.6627 -0.4006  0.2021
 8104SOL     OW35947   0.089   2.725   5.222  1.0348  0.0144 -0.2548
 8104SOL    HW135948   0.136   2.651   5.261 -0.3711  0.4194  2.1549
 8104SOL    HW235949   0.091   2.779   5.301  0.0932 -0.3433  0.0162
 8105SOL     OW35950   0.815   1.755   4.892  0.1554 -0.7135  0.5379
 8105SOL    HW135951   0.848   1.667   4.911  1.7306  0.1581  1.8641
 8105SOL    HW235952   0.875   1.803   4.949  0.8435 -0.6729 -0.2141
 8106SOL     OW35953   0.934   0.919   2.666 -0.3060  0.4709  0.9918
 8106SOL    HW135954   0.978   0.875   2.738  1.6862  0.9241  0.0457
 8106SOL    HW235955   0.868   0.857   2.636  1.3069 -1.0484  0.5994
 8107SOL     OW35956   0.586   3.930   3.174 -0.4051 -0.4528  0.9307
 8107SOL    HW135957   0.536   4.005   3.142 -0.7191 -0.6444  0.9678
 8107SOL    HW235958   0.625   3.887   3.099 -4.0863  1.4945 -2.0898
 8108SOL     OW35959   0.515   0.055   2.129  0.5440  0.2599  0.3863
 8108SOL    HW135960   0.570   0.074   2.205  2.2351 -0.8385 -0.5695
 8108SOL    HW235961   0.437   0.105   2.153 -0.2248 -0.4702 -0.5747
 8109SOL     OW35962   1.290   0.034   6.019  0.2182 -0.2291  0.3960
 8109SOL    HW135963   1.219   0.029   6.082 -0.6686 -2.5727 -0.8179
 8109SOL    HW235964   1.255   0.049   5.932 -2.7256 -2.3195  1.2336
 8110SOL     OW35965   2.517   4.498  12.188 -0.4979 -0.4369 -0.1292
 8110SOL    HW135966   2.471   4.552  12.253  2.8334  1.6951  0.4536
 8110SOL    HW235967   2.455   4.509  12.116  0.9039 -0.3057 -1.3102
 8111SOL     OW35968   2.719   0.506   8.796  0.2788  0.5702 -1.1159
 8111SOL    HW135969   2.706   0.414   8.818 -0.3951  1.3839  1.9305
 8111SOL    HW235970   2.640   0.545   8.834  2.3845  1.3831  2.4188
 8112SOL     OW35971   3.390   3.499   5.040 -0.3554 -1.3248  0.6865
 8112SOL    HW135972   3.426   3.573   5.090 -0.5153 -0.2542 -0.7739
 8112SOL    HW235973   3.459   3.433   5.041 -0.4064 -1.3643  1.5771
 8113SOL     OW35974   2.001   3.114   2.672 -1.1619 -0.0735  0.4314
 8113SOL    HW135975   1.981   3.077   2.587 -0.8746  1.4467 -0.3055
 8113SOL    HW235976   2.069   3.057   2.709  0.5020  1.7139  0.1488
 8114SOL     OW35977   3.878   1.782   7.591 -0.7950  0.5159  0.4676
 8114SOL    HW135978   3.917   1.868   7.574 -1.7510  0.9140  0.2718
 8114SOL    HW235979   3.793   1.779   7.547 -0.8364  2.5803  0.4058
 8115SOL     OW35980   2.959   0.912   4.864  0.4397  0.2216  0.3338
 8115SOL    HW135981   2.928   0.821   4.872 -1.3329  0.8960  1.2600
 8115SOL    HW235982   3.041   0.896   4.818  0.2377 -1.5088  0.5747
 8116SOL     OW35983   4.635   3.050   9.934  0.1415 -0.7893  0.3707
 8116SOL    HW135984   4.694   3.085   9.867 -3.1475  0.8751 -1.6139
 8116SOL    HW235985   4.630   2.956   9.913  0.7409 -0.7436  0.0180
 8117SOL     OW35986   2.522   0.202   3.869 -0.1297 -0.1740 -0.1087
 8117SOL    HW135987   2.611   0.166   3.867  0.3408  0.9944 -0.7101
 8117SOL    HW235988   2.490   0.175   3.955 -1.7790  0.6953 -0.4557
 8118SOL     OW35989   2.545   3.345   1.829  0.1060 -0.8010 -0.0866
 8118SOL    HW135990   2.534   3.388   1.744  1.8970 -1.1483 -0.4822
 8118SOL    HW235991   2.616   3.398   1.865 -1.4307  1.3173 -0.1529
 8119SOL     OW35992   2.444   2.953   4.630 -0.5705 -0.2109 -0.5292
 8119SOL    HW135993   2.357   2.947   4.591  0.3423  0.1123 -2.6025
 8119SOL    HW235994   2.451   3.048   4.627  0.2475 -0.2559 -0.0840
 8120SOL     OW35995   4.548   4.496   4.501 -0.1445 -0.3892  0.5740
 8120SOL    HW135996   4.643   4.508   4.506 -0.6316  2.6876  2.3538
 8120SOL    HW235997   4.536   4.438   4.576 -1.3050 -1.0483 -0.1210
 8121SOL     OW35998   1.621   3.382   3.937 -0.3434 -0.8170  0.4618
 8121SOL    HW135999   1.708   3.409   3.910  0.4012 -1.0662  2.5943
 8121SOL    HW236000   1.596   3.438   4.010  0.0854  1.4380 -1.1472
 8122SOL     OW36001   0.918   4.600  12.518 -0.1147  0.0219  0.0207
 8122SOL    HW136002   0.925   4.687  12.556  2.5116 -0.0493 -0.3065
 8122SOL    HW236003   0.894   4.545  12.593  1.0472 -2.3590 -1.3753
 8123SOL     OW36004   1.334   1.354   3.911  0.3295  0.1506 -0.6101
 8123SOL    HW136005   1.334   1.449   3.925 -0.3680  0.0764 -0.1113
 8123SOL    HW236006   1.300   1.329   3.996  0.1415  1.0870 -0.4029
 8124SOL     OW36007   0.648   3.730   2.732 -0.4019  0.0275 -0.0081
 8124SOL    HW136008   0.679   3.754   2.644  2.3921  1.8698  1.4827
 8124SOL    HW236009   0.679   3.639   2.732 -0.8655 -0.1147  2.2277
 8125SOL     OW36010   3.174   0.531   0.318 -0.2214 -0.4201 -0.4735
 8125SOL    HW136011   3.138   0.541   0.406  0.4986 -1.8452 -0.0089
 8125SOL    HW236012   3.250   0.474   0.332  0.6047  0.7538 -0.1180
 8126SOL     OW36013   1.251   4.343   4.462 -0.1721  0.1332  0.3087
 8126SOL    HW136014   1.209   4.345   4.548 -1.0509 -1.0555 -0.0851
 8126SOL    HW236015   1.189   4.403   4.420  3.3623  1.8862 -2.3643
 8127SOL     OW36016   2.908   4.604   5.597 -0.0332 -0.0902 -1.1283
 8127SOL    HW136017   2.948   4.572   5.516  1.6011 -1.8764  0.3860
 8127SOL    HW236018   2.816   4.575   5.595  0.0722 -0.5041  0.5105
 8128SOL     OW36019   0.064   0.736   2.312 -0.2244  0.0783 -0.8220
 8128SOL    HW136020   4.714   0.743   2.277  0.6724 -0.7562 -3.2719
 8128SOL    HW236021   0.104   0.789   2.243  1.6922 -1.2448 -0.7212
 8129SOL     OW36022   1.570   0.575  11.657  0.0974  0.5826  0.6237
 8129SOL    HW136023   1.568   0.571  11.752  1.6035  0.2668  0.6391
 8129SOL    HW236024   1.646   0.525  11.629  0.0251  2.0883 -2.2751
 8130SOL     OW36025   2.474   0.746  10.869  0.5463  0.1076  0.4208
 8130SOL    HW136026   2.501   0.743  10.778  0.2906 -0.4552  0.3608
 8130SOL    HW236027   2.396   0.802  10.872  0.9005  0.5845  0.6489
 8131SOL     OW36028   1.172   2.902  12.312  0.0912 -0.0031 -0.4484
 8131SOL    HW136029   1.182   2.813  12.278 -3.1908 -0.1322 -1.1351
 8131SOL    HW236030   1.121   2.947  12.244  2.0101  1.8057 -0.6976
 8132SOL     OW36031   1.389   0.003  17.451  0.0583 -0.1330  0.0890
 8132SOL    HW136032   1.402   4.691  17.531 -1.9326 -0.1403  0.4124
 8132SOL    HW236033   1.432   0.084  17.479 -1.8803  0.5410  1.1488
 8133SOL     OW36034   1.195   3.754   8.134 -0.4728 -0.6545  0.5842
 8133SOL    HW136035   1.234   3.838   8.113  0.1502 -1.5757 -1.9822
 8133SOL    HW236036   1.107   3.761   8.096 -0.8722 -0.0636  1.6234
 8134SOL     OW36037   2.547   4.566   7.557 -0.0357  0.4555 -0.3627
 8134SOL    HW136038   2.581   4.486   7.597 -2.9343  1.4826  4.1113
 8134SOL    HW236039   2.454   4.554   7.579 -0.1255  0.9558 -0.4828
 8135SOL     OW36040   1.957   4.286   4.194 -0.4092  0.0434  0.0261
 8135SOL    HW136041   1.991   4.327   4.115  1.3726 -2.0731 -0.3260
 8135SOL    HW236042   1.897   4.355   4.222 -1.0286 -0.7550  0.6660
 8136SOL     OW36043   3.359   3.467  13.395  0.1105  0.0530 -0.1312
 8136SOL    HW136044   3.398   3.555  13.390 -0.8293  0.3560 -2.1006
 8136SOL    HW236045   3.279   3.470  13.343 -0.3664 -1.3909  0.5305
 8137SOL     OW36046   0.929   1.357   5.358 -0.1603  0.6076 -0.3583
 8137SOL    HW136047   0.933   1.272   5.314 -0.5707  0.2343  0.3284
 8137SOL    HW236048   0.929   1.324   5.448 -0.7541 -1.7805 -1.2152
 8138SOL     OW36049   1.366   3.286   4.735 -0.5779  0.2004  0.2814
 8138SOL    HW136050   1.272   3.275   4.752 -0.8162  0.9798 -0.5150
 8138SOL    HW236051   1.376   3.217   4.669  0.7030 -2.3851  3.1880
 8139SOL     OW36052   2.912   0.668   5.723  0.3623 -0.2390 -0.4293
 8139SOL    HW136053   2.872   0.610   5.788 -0.0540  2.6331  1.8506
 8139SOL    HW236054   3.002   0.641   5.710  0.9932  0.9409  1.4935
 8140SOL     OW36055   3.056   1.389   5.888 -0.2755 -0.2315  0.6380
 8140SOL    HW136056   2.983   1.353   5.837  1.2227  1.3916 -2.6606
 8140SOL    HW236057   3.125   1.327   5.864  1.2298  2.0278 -0.8730
 8141SOL     OW36058   1.341   3.865  14.692  0.1203  0.2423  0.9066
 8141SOL    HW136059   1.319   3.790  14.747  0.0553 -0.6758 -0.3930
 8141SOL    HW236060   1.436   3.851  14.689  0.4327  2.3009  0.6503
 8142SOL     OW36061   0.043   3.102  14.080  0.0190 -0.1854 -0.0230
 8142SOL    HW136062   4.711   3.147  14.034  0.8300  3.9385  2.8052
 8142SOL    HW236063   0.121   3.153  14.056 -1.1781  1.9014  0.4641
 8143SOL     OW36064   1.895   3.920   8.096  0.1533  0.0674 -0.0975
 8143SOL    HW136065   1.946   4.002   8.098  0.0253  0.1072  1.5642
 8143SOL    HW236066   1.921   3.884   8.181  0.8560 -0.8503 -0.6988
 8144SOL     OW36067   3.017   3.966   9.229  0.2953 -0.5198 -0.1101
 8144SOL    HW136068   2.978   3.970   9.141  0.2288  1.6560  0.0169
 8144SOL    HW236069   3.006   3.874   9.250  0.6877 -0.3905  0.6563
 8145SOL     OW36070   2.573   1.042  14.031  0.1348 -0.0821  0.0051
 8145SOL    HW136071   2.655   0.997  14.012  0.4435  0.1268  0.8373
 8145SOL    HW236072   2.548   1.085  13.949 -2.5555 -0.3354  0.6838
 8146SOL     OW36073   1.974   2.326   1.644 -0.7601  0.2341  0.5294
 8146SOL    HW136074   1.932   2.411   1.630  0.1904  0.4385 -1.1919
 8146SOL    HW236075   2.023   2.344   1.724  1.9244 -0.7556 -0.8843
 8147SOL     OW36076   1.849   2.614   7.620 -0.5883 -0.0688 -0.0342
 8147SOL    HW136077   1.907   2.555   7.666 -2.5096 -0.9529  1.2563
 8147SOL    HW236078   1.856   2.576   7.532 -2.3870  1.1144 -0.6879
 8148SOL     OW36079   0.906   3.324   1.767 -0.6017  0.3436  0.1302
 8148SOL    HW136080   0.830   3.381   1.761  0.6323  1.9678  0.1065
 8148SOL    HW236081   0.956   3.343   1.687 -0.9754 -0.5822 -0.3266
 8149SOL     OW36082   2.951   3.516   9.027 -0.2244  0.0814  0.1013
 8149SOL    HW136083   2.981   3.519   9.118 -0.2732 -2.7222  0.2167
 8149SOL    HW236084   2.898   3.596   9.022  0.8926  0.8112 -0.2481
 8150SOL     OW36085   1.986   4.581   3.799  0.4801 -0.4895  0.6949
 8150SOL    HW136086   1.902   4.552   3.835  0.0896 -1.7400 -1.2182
 8150SOL    HW236087   2.022   4.496   3.824  0.6318 -0.5438  0.2817
 8151SOL     OW36088   3.332   1.633   2.090  0.1222  0.1236 -0.4503
 8151SOL    HW136089   3.404   1.582   2.053  0.6154  0.5525 -0.0734
 8151SOL    HW236090   3.366   1.722   2.096  1.3103 -0.4464  1.2390
 8152SOL     OW36091   3.689   3.269  11.204 -0.1428 -0.5414  0.1971
 8152SOL    HW136092   3.684   3.184  11.249  2.0745 -0.3909  0.7432
 8152SOL    HW236093   3.669   3.246  11.114  0.1292 -0.8396  0.2125
 8153SOL     OW36094   1.407   2.744  16.006 -0.4975 -0.1478  0.3997
 8153SOL    HW136095   1.440   2.833  16.021  1.0603 -0.4049 -1.3985
 8153SOL    HW236096   1.475   2.686  16.041 -0.5048 -1.2143 -1.3693
 8154SOL     OW36097   3.400   0.825  14.180 -0.4839 -0.1384 -0.1956
 8154SOL    HW136098   3.479   0.824  14.125  0.6773  0.6631  1.4485
 8154SOL    HW236099   3.333   0.810  14.114 -0.3938  1.2686 -0.6165
 8155SOL     OW36100   2.071   0.765   9.833  0.0289 -0.2886 -0.4292
 8155SOL    HW136101   2.012   0.771   9.757 -3.3756 -1.5694  2.0973
 8155SOL    HW236102   2.016   0.756   9.911  0.9369 -0.4166  0.1914
 8156SOL     OW36103   0.045   2.763  13.587 -0.5701 -0.1028 -0.3341
 8156SOL    HW136104   0.108   2.835  13.589  0.4280 -0.9415 -1.4779
 8156SOL    HW236105   0.045   2.732  13.677  0.5389 -1.3089 -0.7447
 8157SOL     OW36106   4.396   4.014   2.666  0.0284 -0.0440 -0.2539
 8157SOL    HW136107   4.435   3.972   2.589  1.5029  2.2797 -0.7842
 8157SOL    HW236108   4.403   4.103   2.631 -1.7548  1.2960  2.8356
 8158SOL     OW36109   4.671   3.517   9.185  0.1211 -0.6093  0.6015
 8158SOL    HW136110   4.607   3.528   9.255  1.1396  0.8045  1.3006
 8158SOL    HW236111   0.007   3.497   9.240 -0.1816 -0.6735  0.9922
 8159SOL     OW36112   4.457   0.349   7.203  0.6089 -0.0770 -0.0278
 8159SOL    HW136113   4.466   0.368   7.296  1.1888  1.6733 -0.4411
 8159SOL    HW236114   4.500   0.429   7.173 -3.7821  1.7893 -1.2728
 8160SOL     OW36115   3.404   4.252   8.506 -0.6336 -0.2599  0.1839
 8160SOL    HW136116   3.435   4.180   8.450  1.3806  2.5848 -2.4193
 8160SOL    HW236117   3.322   4.275   8.463 -0.8963  1.3688  1.5827
 8161SOL     OW36118   4.090   4.223   4.517 -0.4455  0.3856 -0.0237
 8161SOL    HW136119   4.097   4.296   4.456  1.1827  0.2104 -0.0310
 8161SOL    HW236120   4.129   4.246   4.602 -0.7276  1.1454 -0.0908
 8162SOL     OW36121   0.379   3.073   5.509 -0.3062 -0.0814 -0.0863
 8162SOL    HW136122   0.374   3.126   5.429  1.3281 -0.8923 -0.7137
 8162SOL    HW236123   0.441   3.126   5.559 -2.7985 -0.1903  3.1423
 8163SOL     OW36124   3.937   2.420   5.763 -0.0878 -0.0206 -0.7807
 8163SOL    HW136125   3.845   2.393   5.762  0.5392 -2.1439 -1.4730
 8163SOL    HW236126   3.991   2.353   5.804  1.1429  1.7599  0.5148
 8164SOL     OW36127   2.657   2.334  15.421  0.3247 -0.2075  0.2367
 8164SOL    HW136128   2.628   2.382  15.344  1.7780 -0.5931 -0.5530
 8164SOL    HW236129   2.705   2.400  15.472 -1.0036  1.5804 -0.8312
 8165SOL     OW36130   4.662   1.350  12.621  0.1681 -0.4040  0.8909
 8165SOL    HW136131   4.688   1.257  12.622 -0.7984 -0.6696  0.7779
 8165SOL    HW236132   4.606   1.344  12.544 -0.0945  2.4002  0.8965
 8166SOL     OW36133   2.767   4.485   0.474  0.2929  0.1737  0.0562
 8166SOL    HW136134   2.699   4.546   0.503  0.1541  0.9027 -1.8285
 8166SOL    HW236135   2.772   4.428   0.551  0.9739  0.8257  0.5061
 8167SOL     OW36136   3.405   2.450   2.496 -0.2798 -0.2479  0.4747
 8167SOL    HW136137   3.481   2.508   2.497  0.4863 -1.2306 -0.3442
 8167SOL    HW236138   3.417   2.399   2.576  0.5025  1.0849  1.2111
 8168SOL     OW36139   1.181   1.699  16.590  0.3867 -0.4898  0.6270
 8168SOL    HW136140   1.238   1.775  16.576  1.0074 -1.0499  0.0902
 8168SOL    HW236141   1.120   1.701  16.517  1.7867 -0.8183 -0.5522
 8169SOL     OW36142   2.795   2.908   4.922 -0.0034 -0.8419 -0.2721
 8169SOL    HW136143   2.783   2.979   4.858 -1.0676 -1.3246 -0.6100
 8169SOL    HW236144   2.889   2.892   4.923  0.2755  0.7384 -0.6596
 8170SOL     OW36145   1.810   3.503   2.458 -0.4807  0.5676  0.5225
 8170SOL    HW136146   1.872   3.448   2.506 -2.0629 -1.9976 -0.3202
 8170SOL    HW236147   1.760   3.532   2.534 -0.1319  1.7449  0.3003
 8171SOL     OW36148   1.123   2.759  10.562 -0.1748  0.2686  0.7661
 8171SOL    HW136149   1.106   2.672  10.598 -1.7015  0.8668  1.4859
 8171SOL    HW236150   1.218   2.767  10.563 -0.2269  0.8660  0.7791
 8172SOL     OW36151   1.724   0.501  11.188  0.8686 -0.5947 -0.2228
 8172SOL    HW136152   1.783   0.426  11.189  0.1534 -1.1397  1.3201
 8172SOL    HW236153   1.779   0.568  11.228 -1.1247 -0.7457  2.8077
 8173SOL     OW36154   2.054   2.377   4.894  0.1643  0.3355 -0.2593
 8173SOL    HW136155   2.071   2.287   4.866 -0.9576 -0.7090  2.4442
 8173SOL    HW236156   2.081   2.439   4.826 -0.6399 -0.6098 -1.4582
 8174SOL     OW36157   0.269   0.618  12.740  0.0465  0.3063  0.2425
 8174SOL    HW136158   0.354   0.639  12.779 -0.2235  1.4904  0.1934
 8174SOL    HW236159   0.226   0.578  12.815  2.0334 -1.0951  0.6307
 8175SOL     OW36160   3.293   3.232   1.778 -0.2719 -0.7191 -0.1771
 8175SOL    HW136161   3.322   3.321   1.757  0.1030 -0.6802  0.4754
 8175SOL    HW236162   3.236   3.217   1.703  1.3285  2.3021 -2.0062
 8176SOL     OW36163   2.828   2.511   1.909  0.7416 -0.3434 -0.4210
 8176SOL    HW136164   2.822   2.423   1.873  0.8432 -1.5092  2.3658
 8176SOL    HW236165   2.747   2.505   1.960  0.4266 -1.1688 -1.0181
 8177SOL     OW36166   4.391   0.897   5.687  0.3785  0.5055  0.0456
 8177SOL    HW136167   4.471   0.863   5.729  0.3939  1.5087  0.8181
 8177SOL    HW236168   4.407   0.990   5.674 -0.0009  0.3444 -1.5229
 8178SOL     OW36169   4.648   2.603   6.750  0.4189  0.2973  0.0717
 8178SOL    HW136170   4.630   2.697   6.754  1.5284  0.5126 -0.0453
 8178SOL    HW236171   4.683   2.600   6.661 -1.7547 -1.2542 -0.7480
 8179SOL     OW36172   4.110   2.701   6.114  0.0572 -0.5094 -0.3244
 8179SOL    HW136173   4.195   2.736   6.143  1.5158 -3.6685 -0.7906
 8179SOL    HW236174   4.074   2.780   6.072 -2.7204 -2.3642 -1.4088
 8180SOL     OW36175   0.984   1.664   5.552 -0.0292  0.0613 -0.8995
 8180SOL    HW136176   0.916   1.624   5.606 -0.7456  1.1518 -1.0033
 8180SOL    HW236177   1.008   1.739   5.606 -0.1200 -1.5832  1.4290
 8181SOL     OW36178   1.989   4.042   0.057  0.2088 -0.0388  0.2697
 8181SOL    HW136179   1.968   4.129   0.092 -1.8576 -1.1625  1.8640
 8181SOL    HW236180   2.045   4.000   0.122  0.5707 -0.0302 -0.0416
 8182SOL     OW36181   0.523   3.383   2.446  0.1842  0.2845 -0.1253
 8182SOL    HW136182   0.533   3.457   2.387  2.9314  1.0724  1.3388
 8182SOL    HW236183   0.610   3.345   2.434  1.1482  1.7873  2.0676
 8183SOL     OW36184   2.608   0.163   0.688 -0.1248  0.3535  0.0304
 8183SOL    HW136185   2.516   0.182   0.669 -0.0063  0.9151 -0.0037
 8183SOL    HW236186   2.643   0.252   0.695 -0.1783  0.5418 -1.9967
 8184SOL     OW36187   1.360   3.407  12.696 -0.4528 -0.2236  0.4165
 8184SOL    HW136188   1.407   3.489  12.690 -0.8388 -0.0328 -0.0180
 8184SOL    HW236189   1.300   3.439  12.764 -0.7166 -2.8288  1.4361
 8185SOL     OW36190   0.987   2.938   9.857  0.4190 -0.1096  0.7202
 8185SOL    HW136191   1.074   2.979   9.863  0.0337  1.0306 -1.5105
 8185SOL    HW236192   0.972   2.911   9.767 -0.9043 -2.5021  1.6450
 8186SOL     OW36193   3.909   1.965  11.628 -0.7473  0.7433  0.0312
 8186SOL    HW136194   3.937   2.048  11.668  0.9354 -0.1147  0.6220
 8186SOL    HW236195   3.904   1.991  11.536  1.4144 -1.9061 -0.8314
 8187SOL     OW36196   4.208   0.993  10.349 -0.1073 -0.5156  0.4374
 8187SOL    HW136197   4.219   1.074  10.397 -0.9582 -0.9296  1.3372
 8187SOL    HW236198   4.197   0.925  10.416 -1.6859  0.9257  1.6403
 8188SOL     OW36199   2.838   3.985   4.946 -0.3010  0.4071  0.6499
 8188SOL    HW136200   2.768   3.939   4.992  2.6447 -2.5742  2.2060
 8188SOL    HW236201   2.785   4.047   4.897 -1.8403  0.4685  2.3881
 8189SOL     OW36202   4.201   2.769  15.431 -0.2928  0.3114  0.3256
 8189SOL    HW136203   4.280   2.819  15.451 -0.0349  0.2806 -0.6333
 8189SOL    HW236204   4.192   2.776  15.336  1.6863  0.8827  0.1827
 8190SOL     OW36205   1.101   3.510   6.522  0.0296  0.0780 -0.0337
 8190SOL    HW136206   1.126   3.467   6.603  1.5634  1.3260  0.1580
 8190SOL    HW236207   1.020   3.476   6.484 -0.1004  0.5131 -0.1549
 8191SOL     OW36208   3.525   0.019  15.676  0.1456 -0.5458 -0.6629
 8191SOL    HW136209   3.607   0.009  15.725 -0.0935  0.8312  0.0040
 8191SOL    HW236210   3.482   4.672  15.676  2.1433 -1.5517 -1.3670
 8192SOL     OW36211   2.795   4.052   4.508 -0.1687  0.3574 -0.2997
 8192SOL    HW136212   2.870   4.008   4.548 -2.6580 -2.6998  1.0254
 8192SOL    HW236213   2.788   4.007   4.423 -1.4336  1.1698 -0.6203
 8193SOL     OW36214   0.118   1.181   4.162 -0.0347 -0.2787 -0.1709
 8193SOL    HW136215   0.146   1.215   4.247 -2.1334  0.1541  0.3668
 8193SOL    HW236216   0.200   1.185   4.115  0.1216 -2.3776 -0.1068
 8194SOL     OW36217   4.200   3.425  13.154  0.5049 -0.6998  0.2325
 8194SOL    HW136218   4.136   3.496  13.158 -1.3513 -2.3807  0.6795
 8194SOL    HW236219   4.277   3.466  13.115  1.3574 -1.8860  0.6728
 8195SOL     OW36220   1.005   4.343   0.895 -0.1545 -0.2159  0.4508
 8195SOL    HW136221   1.053   4.419   0.926  0.3696 -0.2554 -0.2576
 8195SOL    HW236222   0.991   4.379   0.807  3.5998  0.8086  0.2715
 8196SOL     OW36223   3.668   3.519   3.050  0.1598 -0.1069  0.5435
 8196SOL    HW136224   3.596   3.548   3.106 -0.4016 -2.5945  1.1154
 8196SOL    HW236225   3.730   3.579   3.091 -0.6760 -0.7050  2.6842
 8197SOL     OW36226   3.829   2.480  16.070 -0.4199 -0.3614 -0.0008
 8197SOL    HW136227   3.811   2.430  16.150  1.3126 -1.9688 -0.6263
 8197SOL    HW236228   3.762   2.443  16.012  0.3481  0.1661 -1.2139
 8198SOL     OW36229   0.105   4.473  12.854 -0.1736  0.7195  0.5747
 8198SOL    HW136230   0.050   4.398  12.830  0.7979 -0.4390  2.0070
 8198SOL    HW236231   0.041   4.544  12.853  1.9852  2.6401 -0.8277
 8199SOL     OW36232   2.271   1.566   5.010  0.5435 -0.5023 -0.4814
 8199SOL    HW136233   2.275   1.483   5.058  2.3186 -0.3070 -0.2979
 8199SOL    HW236234   2.356   1.603   5.032  1.2435 -2.6456  0.4203
 8200SOL     OW36235   1.236   1.814   3.169  0.3822 -0.0773  0.4830
 8200SOL    HW136236   1.195   1.883   3.116  0.1574 -0.4710  0.1475
 8200SOL    HW236237   1.311   1.781   3.120  2.0332  2.3357  1.3559
 8201SOL     OW36238   3.113   0.387   1.665  0.0475 -0.0480 -0.5025
 8201SOL    HW136239   3.061   0.392   1.745 -0.5397 -0.5583 -0.8566
 8201SOL    HW236240   3.159   0.307   1.689  0.5453  0.8518  1.4872
 8202SOL     OW36241   4.301   4.615   3.995  0.2856  0.5506 -0.5936
 8202SOL    HW136242   4.232   4.554   3.972  0.5919 -0.7873  2.0818
 8202SOL    HW236243   4.264   4.635   4.081 -2.2566 -2.3377 -1.0272
 8203SOL     OW36244   2.428   2.514   3.682  0.2414  0.7319 -0.4534
 8203SOL    HW136245   2.368   2.448   3.719  1.5838 -0.6074 -0.6824
 8203SOL    HW236246   2.390   2.523   3.595 -0.1024 -2.0489 -0.6164
 8204SOL     OW36247   2.239   4.581   4.218 -0.3210 -0.2501  0.7080
 8204SOL    HW136248   2.158   4.611   4.176  0.5352 -0.5734 -1.1846
 8204SOL    HW236249   2.217   4.534   4.298  0.4787 -1.1887  0.3711
 8205SOL     OW36250   2.422   2.821   9.739 -0.4461 -0.4072 -0.2775
 8205SOL    HW136251   2.412   2.865   9.654  0.3815 -1.9555 -1.1658
 8205SOL    HW236252   2.382   2.894   9.786 -1.3987 -1.2611  0.2408
 8206SOL     OW36253   4.518   4.484   1.874  0.4683  0.4902 -0.4618
 8206SOL    HW136254   4.583   4.434   1.923 -0.4097 -0.7679 -0.6047
 8206SOL    HW236255   4.441   4.478   1.931  0.9903 -2.7028 -0.0818
 8207SOL     OW36256   1.445   4.125  15.253  0.0861  0.5633  0.6031
 8207SOL    HW136257   1.436   4.191  15.321 -1.6909  0.5537  0.3817
 8207SOL    HW236258   1.477   4.174  15.177 -1.0023  0.8380  0.3125
 8208SOL     OW36259   0.040   0.751  11.599 -0.4619 -0.0627 -0.1917
 8208SOL    HW136260   0.116   0.735  11.543 -0.1572  0.0348  0.1947
 8208SOL    HW236261   4.727   0.799  11.535 -0.2872  2.0679  1.2532
 8209SOL     OW36262   2.227   2.201   3.573  0.3912 -0.1465 -0.3376
 8209SOL    HW136263   2.219   2.113   3.611 -0.3702  0.1445  0.1732
 8209SOL    HW236264   2.224   2.259   3.648  1.8562 -2.5873  1.6223
 8210SOL     OW36265   1.118   1.225   9.609  0.2661 -0.2977  0.1599
 8210SOL    HW136266   1.170   1.273   9.674 -0.7776  1.6364 -0.4516
 8210SOL    HW236267   1.149   1.137   9.630 -1.2956 -1.4927 -2.6198
 8211SOL     OW36268   1.087   4.467   2.812 -0.2303  0.0895 -0.0661
 8211SOL    HW136269   1.113   4.559   2.825 -1.7950  0.0770  2.9846
 8211SOL    HW236270   1.142   4.431   2.881  2.1880  3.7450 -0.0649
 8212SOL     OW36271   4.402   0.642   0.350 -0.5849  0.2219 -0.3179
 8212SOL    HW136272   4.488   0.600   0.362 -1.5263 -1.6845 -0.2605
 8212SOL    HW236273   4.360   0.605   0.272 -1.0762  1.9110 -0.8506
 8213SOL     OW36274   0.797   1.214   6.581  0.0104  0.0968 -0.2248
 8213SOL    HW136275   0.830   1.226   6.492 -0.5111  2.1439 -0.1284
 8213SOL    HW236276   0.880   1.193   6.625  0.7294  2.9675 -0.1931
 8214SOL     OW36277   1.531   1.972   1.817  0.1187  0.1726 -0.0173
 8214SOL    HW136278   1.527   1.911   1.891 -0.9154  0.3198  0.0375
 8214SOL    HW236279   1.540   1.905   1.750  4.9028  0.3184  0.4421
 8215SOL     OW36280   2.117   4.457   1.991 -0.2225 -1.0760  0.0836
 8215SOL    HW136281   2.030   4.443   1.955  1.0356 -2.4822 -2.3852
 8215SOL    HW236282   2.167   4.379   1.968  1.3845 -0.6483  2.1228
 8216SOL     OW36283   1.229   2.622   1.182 -0.2775 -0.6213  0.2906
 8216SOL    HW136284   1.176   2.569   1.124 -2.3138  2.1451 -0.3907
 8216SOL    HW236285   1.163   2.678   1.224 -0.2893  0.4320 -1.1117
 8217SOL     OW36286   2.794   0.374   3.030 -0.6296  0.6031  0.0688
 8217SOL    HW136287   2.789   0.470   3.024  1.9484  0.7766  0.6774
 8217SOL    HW236288   2.735   0.348   2.959  0.3113 -0.1482 -0.4336
 8218SOL     OW36289   2.105   3.460   2.340 -0.0851 -0.0856 -0.3042
 8218SOL    HW136290   2.175   3.520   2.364  0.1391 -0.4813  0.0316
 8218SOL    HW236291   2.097   3.410   2.422  1.2217  0.9877  0.4637
 8219SOL     OW36292   4.343   0.006   6.456 -0.0585 -0.0686  0.0305
 8219SOL    HW136293   4.433   0.027   6.480 -0.1547 -0.6475  0.8992
 8219SOL    HW236294   4.352   0.001   6.360 -0.2756 -1.7817  0.0947
 8220SOL     OW36295   1.623   1.866   8.916 -0.5106  0.3951  0.0638
 8220SOL    HW136296   1.613   1.777   8.881  2.4336  0.8427 -1.9494
 8220SOL    HW236297   1.562   1.901   8.852  0.2677  2.6816  0.5835
 8221SOL     OW36298   1.194   0.370   4.501  0.3342 -0.1092 -0.2518
 8221SOL    HW136299   1.118   0.427   4.488  0.5481  0.1291 -0.4542
 8221SOL    HW236300   1.152   0.286   4.521  1.4585 -0.4730  0.5595
 8222SOL     OW36301   3.282   3.427   7.646  0.1291 -0.5339 -0.3511
 8222SOL    HW136302   3.233   3.439   7.727 -2.4020  0.6697 -2.0788
 8222SOL    HW236303   3.373   3.435   7.677  0.9321  2.7255 -3.5869
 8223SOL     OW36304   1.098   1.900   4.731  0.1187  0.1528 -0.2004
 8223SOL    HW136305   1.048   1.973   4.768  1.6807  0.8817  0.4667
 8223SOL    HW236306   1.111   1.846   4.809  1.5290  1.0713  0.2012
 8224SOL     OW36307   1.492   2.355  12.002  0.2700 -0.3959  0.1029
 8224SOL    HW136308   1.449   2.334  11.919  0.3629  1.2614 -0.3511
 8224SOL    HW236309   1.506   2.268  12.041  0.2019  0.0625  1.1627
 8225SOL     OW36310   2.671   3.467   3.601 -0.0250 -0.7164 -0.4872
 8225SOL    HW136311   2.612   3.418   3.544 -3.0059  0.8412  1.2344
 8225SOL    HW236312   2.640   3.558   3.593  0.1664 -0.8817 -3.4030
 8226SOL     OW36313   0.417   3.738  12.877  0.0384 -0.2788  0.3066
 8226SOL    HW136314   0.398   3.670  12.941 -1.0320 -1.4994 -1.3095
 8226SOL    HW236315   0.429   3.816  12.932 -1.8307  1.4374 -1.7136
 8227SOL     OW36316   4.241   2.716   8.751 -0.1771  0.1422 -0.3562
 8227SOL    HW136317   4.271   2.793   8.702 -0.3064  0.7994  0.5965
 8227SOL    HW236318   4.181   2.686   8.682  2.1612 -2.6398 -1.1536
 8228SOL     OW36319   0.262   1.517   4.073 -0.1844  0.1253 -0.3190
 8228SOL    HW136320   0.345   1.485   4.108  1.6526  3.2654 -1.8399
 8228SOL    HW236321   0.208   1.502   4.150  1.5157  0.0479  0.8592
 8229SOL     OW36322   1.818   3.391   4.683 -0.1862 -0.5428  0.6638
 8229SOL    HW136323   1.729   3.355   4.681 -1.1486  1.9227 -1.6741
 8229SOL    HW236324   1.834   3.416   4.592  1.4200 -0.1277  1.0688
 8230SOL     OW36325   3.883   2.630   3.997 -0.1835 -0.0898  0.8914
 8230SOL    HW136326   3.794   2.663   4.007 -0.8345 -0.2229 -4.9386
 8230SOL    HW236327   3.932   2.712   3.995 -0.1726 -0.1220 -0.1163
 8231SOL     OW36328   2.524   0.402   4.155 -1.2090  0.7578 -0.1407
 8231SOL    HW136329   2.571   0.440   4.230 -0.4147 -1.6124  0.5476
 8231SOL    HW236330   2.434   0.395   4.188 -0.2665 -1.4655  2.0329
 8232SOL     OW36331   0.850   4.580   1.594  0.3980  0.1965  0.0774
 8232SOL    HW136332   0.886   4.524   1.525 -0.0164  0.1781 -0.1216
 8232SOL    HW236333   0.762   4.597   1.562  0.9374  1.3961 -0.8022
 8233SOL     OW36334   2.135   1.945   8.910  0.2609  0.1882  0.8538
 8233SOL    HW136335   2.106   1.865   8.954 -2.2834  0.0359 -1.0899
 8233SOL    HW236336   2.211   1.948   8.968  0.9852  0.8682 -0.1336
 8234SOL     OW36337   3.208   1.188   2.795 -0.0165 -0.2385 -0.3876
 8234SOL    HW136338   3.213   1.140   2.713 -0.5339 -2.0613  0.6522
 8234SOL    HW236339   3.262   1.265   2.779 -0.3255  0.4429  1.7383
 8235SOL     OW36340   2.440   4.107   1.760 -0.1160 -0.0673 -0.3325
 8235SOL    HW136341   2.407   4.030   1.806  1.5813 -1.3434 -1.2459
 8235SOL    HW236342   2.395   4.180   1.804  2.0271  0.8286  0.3770
 8236SOL     OW36343   1.091   3.753   6.133 -0.0104 -0.0470 -0.2126
 8236SOL    HW136344   1.039   3.830   6.111  0.8372 -0.3804 -3.3719
 8236SOL    HW236345   1.166   3.786   6.183 -0.3556  1.1347 -0.4860
 8237SOL     OW36346   0.073   4.468   1.551  0.3698 -0.3896  0.1674
 8237SOL    HW136347   0.099   4.473   1.460  1.6845  0.1541  0.5827
 8237SOL    HW236348   0.149   4.426   1.592  0.4114 -0.7764 -0.3088
 8238SOL     OW36349   3.683   4.499  12.311  0.0877 -0.4017  0.2763
 8238SOL    HW136350   3.776   4.490  12.288  0.2765 -1.3720  1.4318
 8238SOL    HW236351   3.695   4.565  12.380 -3.0056 -1.8222  2.1868
 8239SOL     OW36352   1.720   1.851  17.429  0.5317 -0.1381 -0.4392
 8239SOL    HW136353   1.693   1.760  17.431  0.8309 -0.2367 -1.1763
 8239SOL    HW236354   1.645   1.899  17.393  0.3816  0.4254  0.6148
 8240SOL     OW36355   1.577   1.136   1.528  0.3507 -0.1216  0.1553
 8240SOL    HW136356   1.636   1.066   1.501 -1.0056 -0.5114 -1.7669
 8240SOL    HW236357   1.601   1.132   1.621  2.4941  0.2888 -0.3724
 8241SOL     OW36358   0.707   3.281   8.761  0.4234  0.0782 -1.1287
 8241SOL    HW136359   0.774   3.251   8.823  1.6361  0.4131 -2.2897
 8241SOL    HW236360   0.715   3.376   8.759 -0.0206  0.1353 -0.1923
 8242SOL     OW36361   3.847   3.500  11.223 -0.5070 -0.3070  0.7153
 8242SOL    HW136362   3.783   3.429  11.222 -0.1470 -0.6243  0.2647
 8242SOL    HW236363   3.890   3.481  11.306  0.8380  0.5657  0.2168
 8243SOL     OW36364   3.339   4.448  12.653 -0.6823 -0.1994 -0.2861
 8243SOL    HW136365   3.403   4.451  12.582 -0.2452  1.2114  0.1658
 8243SOL    HW236366   3.393   4.397  12.713  0.1083 -0.0768 -0.8951
 8244SOL     OW36367   4.588   1.368   7.373 -0.3768 -0.2221  0.0434
 8244SOL    HW136368   4.554   1.278   7.378  1.4093 -0.8878 -0.0390
 8244SOL    HW236369   4.662   1.366   7.433 -1.2428 -2.3860  1.0353
 8245SOL     OW36370   1.663   1.841   1.218  0.1658  0.0554  0.4650
 8245SOL    HW136371   1.585   1.786   1.223  0.4379 -0.3766 -0.1691
 8245SOL    HW236372   1.635   1.897   1.146 -1.9936  1.8729  2.7074
 8246SOL     OW36373   3.535   0.531  17.335 -0.5203 -0.5238  0.4042
 8246SOL    HW136374   3.463   0.476  17.364 -0.8710 -1.0017 -1.3914
 8246SOL    HW236375   3.489   0.615  17.327 -1.1780 -0.8226  1.1240
 8247SOL     OW36376   0.298   3.209  14.349 -0.0037 -0.0163  0.3344
 8247SOL    HW136377   0.263   3.244  14.432  0.4515  1.7711 -0.2322
 8247SOL    HW236378   0.315   3.294  14.310 -0.3556 -0.2842 -0.4018
 8248SOL     OW36379   1.838   2.877   1.438  0.1256 -0.1299  0.3463
 8248SOL    HW136380   1.747   2.878   1.409  1.4263  1.2565 -3.6471
 8248SOL    HW236381   1.844   2.940   1.511 -0.2621  1.2574 -0.8186
 8249SOL     OW36382   3.555   4.701   4.531 -0.0040  0.0964  0.1572
 8249SOL    HW136383   3.575   4.643   4.458 -0.8588 -0.5149  0.4183
 8249SOL    HW236384   3.461   4.702   4.513  0.1097 -1.4912 -0.4848
 8250SOL     OW36385   3.859   0.506   7.532  0.1127  0.0796  0.0613
 8250SOL    HW136386   3.803   0.493   7.455 -0.5659  1.2786  0.3450
 8250SOL    HW236387   3.849   0.429   7.587 -0.3171  0.7972  0.9912
 8251SOL     OW36388   1.096   0.978   2.148 -0.0694 -0.3348 -0.6449
 8251SOL    HW136389   1.109   1.002   2.240  1.6646  1.6878 -1.4189
 8251SOL    HW236390   1.188   0.970   2.122 -0.0973  1.0395 -1.1655
 8252SOL     OW36391   1.033   0.237  16.547  0.3018 -0.2086 -0.5416
 8252SOL    HW136392   1.006   0.318  16.505 -0.8854 -0.4515 -0.2329
 8252SOL    HW236393   1.016   0.178  16.473 -2.0837 -0.3438  0.1192
 8253SOL     OW36394   3.025   3.309   5.504  0.3679 -0.2476  0.0803
 8253SOL    HW136395   2.980   3.379   5.456  0.5833  0.7746  1.3660
 8253SOL    HW236396   3.111   3.348   5.521 -0.4234  1.2429  0.7610
 8254SOL     OW36397   1.044   1.041  17.619  0.0262 -0.3545  0.4293
 8254SOL    HW136398   1.125   0.994  17.601 -0.2164 -1.2041  1.5690
 8254SOL    HW236399   1.027   1.093  17.540  0.4352 -0.1094  0.5028
 8255SOL     OW36400   3.477   1.017  12.376  0.1455  0.4052  0.4470
 8255SOL    HW136401   3.547   0.953  12.391 -1.5864 -1.0058  2.5600
 8255SOL    HW236402   3.403   0.956  12.382  2.6127 -2.5342  0.8748
 8256SOL     OW36403   1.502   0.904   1.920  0.0632 -0.1692 -0.4308
 8256SOL    HW136404   1.590   0.906   1.959  0.1741 -0.7814 -0.6622
 8256SOL    HW236405   1.521   0.891   1.828 -0.1277 -2.0349 -0.1943
 8257SOL     OW36406   3.445   3.356   5.327  1.0095  0.2971  0.5909
 8257SOL    HW136407   3.417   3.293   5.394  2.5642  0.6819  1.6096
 8257SOL    HW236408   3.408   3.441   5.353  2.5434  0.7757  1.2089
 8258SOL     OW36409   4.370   3.643  11.114  0.0377  0.4376  0.0879
 8258SOL    HW136410   4.336   3.607  11.031  0.6351  1.0517 -0.4204
 8258SOL    HW236411   4.451   3.681  11.080  0.2887  0.4374  0.6845
 8259SOL     OW36412   1.472   1.862   7.767  0.0875 -0.3672 -0.8692
 8259SOL    HW136413   1.531   1.930   7.800  0.7437 -2.1262  1.5500
 8259SOL    HW236414   1.424   1.841   7.847  0.5081  0.0641 -0.5024
 8260SOL     OW36415   1.577   3.442   1.308 -0.0761 -0.2727 -0.1672
 8260SOL    HW136416   1.604   3.513   1.365  0.2874  0.3095 -1.0832
 8260SOL    HW236417   1.571   3.484   1.223 -1.8473 -1.5966 -0.7016
 8261SOL     OW36418   0.229   0.790   7.558 -0.5001  0.0244 -0.2881
 8261SOL    HW136419   0.301   0.740   7.519 -1.4193 -1.8065  0.3921
 8261SOL    HW236420   0.276   0.867   7.590 -2.0754  0.5390  0.7640
 8262SOL     OW36421   0.520   2.025   6.029 -0.5413 -0.5363  0.1900
 8262SOL    HW136422   0.574   1.974   5.968 -0.8413  0.4688 -0.9354
 8262SOL    HW236423   0.524   2.107   5.979 -1.4666 -0.2722  0.5495
 8263SOL     OW36424   1.937   1.495  15.433  0.4025 -0.0710  0.4753
 8263SOL    HW136425   1.925   1.574  15.485 -0.2448 -0.3909  0.8205
 8263SOL    HW236426   2.029   1.487  15.411  0.5521  1.4008  0.5477
 8264SOL     OW36427   3.601   4.626   4.029  0.1512  0.1451 -0.2140
 8264SOL    HW136428   3.613   4.668   3.944 -0.6468 -0.5857 -0.6790
 8264SOL    HW236429   3.624   4.695   4.092 -4.0303  2.1670 -0.8817
 8265SOL     OW36430   2.900   4.450   1.882 -0.3688 -0.3222  0.3981
 8265SOL    HW136431   2.810   4.447   1.849 -0.6683 -0.1376  1.1953
 8265SOL    HW236432   2.909   4.356   1.896  0.4318 -0.4620 -1.0976
 8266SOL     OW36433   1.141   1.949   6.367  0.2115  0.3728  0.3264
 8266SOL    HW136434   1.140   1.919   6.458  1.4732  0.8103  0.4756
 8266SOL    HW236435   1.052   1.962   6.334  0.5890  0.7275 -0.5309
 8267SOL     OW36436   4.319   3.786  13.084 -0.3281 -0.0747 -0.2446
 8267SOL    HW136437   4.240   3.774  13.031  0.4124  0.0764 -1.3821
 8267SOL    HW236438   4.274   3.825  13.159 -1.1776 -1.0834 -0.2256
 8268SOL     OW36439   0.616   1.075   9.905  0.4820  0.0700  0.5725
 8268SOL    HW136440   0.676   1.085   9.831  1.4590 -0.6332  1.2646
 8268SOL    HW236441   0.627   1.163   9.939 -0.6795  0.6881 -0.6454
 8269SOL     OW36442   2.319   0.231   5.849  0.5765  0.4058  0.1551
 8269SOL    HW136443   2.270   0.232   5.931  2.5004 -0.5488  1.3136
 8269SOL    HW236444   2.268   0.288   5.791  1.9411 -0.0484 -1.5224
 8270SOL     OW36445   3.230   4.054   6.073 -0.0090 -0.1687 -0.2974
 8270SOL    HW136446   3.171   4.088   6.139  1.2768  0.7957  0.3676
 8270SOL    HW236447   3.167   4.041   6.002 -0.3955  1.1731 -0.1993
 8271SOL     OW36448   0.912   3.745   7.028  0.2159  0.0816 -0.3732
 8271SOL    HW136449   0.836   3.723   6.974 -0.5424 -2.1064  1.5999
 8271SOL    HW236450   0.980   3.752   6.961 -0.3888  0.2913 -0.9715
 8272SOL     OW36451   3.394   4.613   3.681  0.1149 -0.2551  0.2087
 8272SOL    HW136452   3.355   4.641   3.764  1.2640 -1.6253  1.2038
 8272SOL    HW236453   3.411   4.698   3.639  0.1497  0.8590  2.4634
 8273SOL     OW36454   3.044   0.440   2.396  0.0473 -0.1892  0.3756
 8273SOL    HW136455   3.057   0.459   2.303  2.1400 -0.7777  0.5518
 8273SOL    HW236456   2.950   0.434   2.411 -0.2768  0.1486 -1.4978
 8274SOL     OW36457   0.284   2.538   6.761 -0.0885  0.0329  0.0074
 8274SOL    HW136458   0.307   2.543   6.669  0.0305  0.6746  0.0724
 8274SOL    HW236459   0.225   2.463   6.754  1.1433 -1.0240  0.8745
 8275SOL     OW36460   1.583   2.155   6.049 -0.3132  0.0892  0.0929
 8275SOL    HW136461   1.569   2.242   6.013 -0.3590 -1.0770 -2.7280
 8275SOL    HW236462   1.528   2.151   6.127  0.3990  2.7036  0.7405
 8276SOL     OW36463   4.692   2.431  14.175  0.4316 -0.0841 -0.7663
 8276SOL    HW136464   4.701   2.508  14.232  0.1169 -0.2131 -0.5474
 8276SOL    HW236465   4.625   2.385  14.225  1.9734  1.0326  2.3480
 8277SOL     OW36466   1.808   2.872   6.045  0.6547 -0.6988 -0.3902
 8277SOL    HW136467   1.775   2.789   6.081 -0.7806 -0.2136 -0.6017
 8277SOL    HW236468   1.827   2.842   5.956 -0.8538  0.9409 -1.2534
 8278SOL     OW36469   4.514   0.978   0.357 -0.5825 -0.1380 -0.6183
 8278SOL    HW136470   4.496   0.892   0.395 -0.7429 -0.3508 -1.1754
 8278SOL    HW236471   4.452   1.032   0.406  1.0683  0.8107  0.4416
 8279SOL     OW36472   1.714   3.622   8.267  0.2547 -0.4950  0.1311
 8279SOL    HW136473   1.711   3.715   8.244 -1.3841 -0.7945 -0.8246
 8279SOL    HW236474   1.623   3.609   8.243  0.0647  0.0106  0.5795
 8280SOL     OW36475   0.765   0.459  16.025  0.5963 -0.4226  0.0967
 8280SOL    HW136476   0.693   0.491  16.080  1.3212  0.4267  0.5703
 8280SOL    HW236477   0.836   0.516  16.054  0.7821  0.1224 -1.4662
 8281SOL     OW36478   2.553   2.253   3.074  0.3716  0.2088 -0.2408
 8281SOL    HW136479   2.485   2.246   3.007 -0.7813  2.1989  0.7315
 8281SOL    HW236480   2.628   2.236   3.016  0.9896 -0.4494  0.7620
 8282SOL     OW36481   1.659   2.276   6.977 -0.6868 -0.5784 -0.2291
 8282SOL    HW136482   1.571   2.308   6.999 -1.3123 -2.3901 -0.0363
 8282SOL    HW236483   1.680   2.318   6.894  2.3101 -1.1369  0.2593
 8283SOL     OW36484   1.372   4.165   4.305  0.3337  0.9294 -0.1660
 8283SOL    HW136485   1.412   4.106   4.369  1.5547  0.6090 -1.2249
 8283SOL    HW236486   1.328   4.233   4.356  1.3136  1.3974  0.0522
 8284SOL     OW36487   1.350   3.321   3.004  0.1629  0.1748 -1.1184
 8284SOL    HW136488   1.418   3.283   3.059 -1.4186 -1.0471 -0.0172
 8284SOL    HW236489   1.390   3.322   2.917 -1.6352  0.2926 -1.9522
 8285SOL     OW36490   1.658   2.387   4.587 -0.1528 -0.1862  0.0053
 8285SOL    HW136491   1.738   2.336   4.597 -0.1655 -0.6128 -2.2828
 8285SOL    HW236492   1.596   2.334   4.538 -0.1933 -1.8192  1.8235
 8286SOL     OW36493   0.771   1.795   7.915  0.1077  0.1841 -0.3422
 8286SOL    HW136494   0.748   1.880   7.953 -2.5696 -0.9374  0.5781
 8286SOL    HW236495   0.689   1.748   7.898 -0.1831  0.6627 -0.2367
 8287SOL     OW36496   2.645   2.943   5.139  0.0729  0.4559 -0.1231
 8287SOL    HW136497   2.712   2.914   5.201 -1.5991 -0.9297  1.0503
 8287SOL    HW236498   2.696   2.916   5.063  0.4559 -0.3772  0.4256
 8288SOL     OW36499   0.146   0.390   8.243 -0.5696  0.1961 -0.3619
 8288SOL    HW136500   0.055   0.394   8.271  0.0231  2.0340  1.2598
 8288SOL    HW236501   0.155   0.295   8.250  4.0566  0.5847 -0.7070
 8289SOL     OW36502   3.956   2.724  15.222 -0.8958  0.1609  0.1605
 8289SOL    HW136503   3.881   2.699  15.169  0.1363 -0.5055 -0.9620
 8289SOL    HW236504   3.919   2.804  15.259 -0.3309  0.3187  0.3987
 8290SOL     OW36505   3.656   0.551   7.305 -0.4631 -0.3095 -0.0277
 8290SOL    HW136506   3.603   0.630   7.292 -0.5148  0.2382  3.4849
 8290SOL    HW236507   3.742   0.588   7.284 -0.4713 -0.5598 -0.5100
 8291SOL     OW36508   1.459   4.610  17.688 -0.3338 -0.3298 -0.6768
 8291SOL    HW136509   1.434   4.671   0.004  0.5264 -0.8443  0.0842
 8291SOL    HW236510   1.536   4.570  17.728  0.7557  1.3853 -1.0571
 8292SOL     OW36511   3.409   4.429   4.001  0.1266 -0.3122  0.2542
 8292SOL    HW136512   3.471   4.501   3.991  0.3710 -0.5272  0.2191
 8292SOL    HW236513   3.459   4.365   4.052  0.5485  0.2603  0.5628
 8293SOL     OW36514   2.546   0.123   8.540  0.4217  0.4671 -0.0241
 8293SOL    HW136515   2.524   0.101   8.630  1.8550 -2.5790 -0.4055
 8293SOL    HW236516   2.634   0.160   8.548 -0.3665  2.4470 -0.5683
 8294SOL     OW36517   0.249   1.722   6.086 -0.2393  0.1712 -0.2767
 8294SOL    HW136518   0.331   1.693   6.046 -0.7707  0.4093 -1.5195
 8294SOL    HW236519   0.205   1.641   6.110 -0.8916  0.0099 -2.0460
 8295SOL     OW36520   0.842   0.346   3.103 -0.0362 -0.8958  0.1443
 8295SOL    HW136521   0.853   0.441   3.106 -0.7013 -0.8249  0.3450
 8295SOL    HW236522   0.857   0.325   3.195  1.5760  0.9034  0.2735
 8296SOL     OW36523   3.100   4.399  14.042  0.0906  0.2539 -0.4587
 8296SOL    HW136524   3.048   4.467  14.000 -0.1743  0.2976 -0.0527
 8296SOL    HW236525   3.184   4.445  14.046  2.0626 -3.4063 -0.1629
 8297SOL     OW36526   4.417   1.884  12.764  0.0289 -0.8864  0.9115
 8297SOL    HW136527   4.455   1.809  12.719 -0.8204 -1.2643  0.8178
 8297SOL    HW236528   4.329   1.854  12.786  0.1816 -1.9745  0.0528
 8298SOL     OW36529   4.042   3.358   3.533  0.7203  0.2672  0.4785
 8298SOL    HW136530   4.044   3.356   3.629  1.6357  0.8426  0.4700
 8298SOL    HW236531   4.028   3.266   3.510  5.2248 -0.6996  1.5102
 8299SOL     OW36532   0.491   1.209  12.930  0.2354  0.1487 -0.3188
 8299SOL    HW136533   0.430   1.262  12.878 -1.5594 -0.5311  1.1215
 8299SOL    HW236534   0.492   1.248  13.017 -0.2701 -1.0732  0.2349
 8300SOL     OW36535   2.976   1.109   3.724  0.1451  0.0211  0.2889
 8300SOL    HW136536   2.900   1.068   3.766 -1.1274 -0.5070 -2.4734
 8300SOL    HW236537   2.980   1.049   3.649  1.1788  0.2526  0.1688
 8301SOL     OW36538   1.409   1.005   2.776 -0.4150 -0.1501  0.2031
 8301SOL    HW136539   1.499   0.974   2.762  0.3251  2.6507 -1.3391
 8301SOL    HW236540   1.400   1.019   2.870 -0.8025 -0.2773  0.1848
 8302SOL     OW36541   3.717   3.622   5.510  0.0861  0.6448 -1.1526
 8302SOL    HW136542   3.795   3.676   5.496  0.4559  0.3767 -0.1691
 8302SOL    HW236543   3.657   3.679   5.558  1.2055  1.2861 -0.5140
 8303SOL     OW36544   2.316   2.182  16.925 -0.1928  0.5110 -0.6295
 8303SOL    HW136545   2.235   2.208  16.969 -0.8195  0.4613 -1.7412
 8303SOL    HW236546   2.287   2.188  16.833  2.7019  1.8756 -1.4491
 8304SOL     OW36547   3.094   0.674   8.221 -0.6336  0.0104 -0.0637
 8304SOL    HW136548   3.050   0.663   8.136 -1.0433 -1.6122  0.3593
 8304SOL    HW236549   3.036   0.631   8.283 -0.9913  1.2890  0.4849
 8305SOL     OW36550   1.073   4.447  15.238 -0.1055  0.1357  0.1590
 8305SOL    HW136551   1.039   4.360  15.217  0.0019  0.0701  0.2554
 8305SOL    HW236552   1.167   4.434  15.221 -0.0495 -0.0841  0.6326
 8306SOL     OW36553   4.259   1.374  13.360  0.0018  0.2717 -0.1692
 8306SOL    HW136554   4.175   1.407  13.391  0.0339  1.0548 -0.9308
 8306SOL    HW236555   4.280   1.333  13.444 -2.3570  0.9447  0.7422
 8307SOL     OW36556   2.456   0.804   6.884 -0.6910  0.2097  0.0660
 8307SOL    HW136557   2.454   0.819   6.789  0.4595 -0.3271 -0.0394
 8307SOL    HW236558   2.431   0.888   6.922  0.3988  0.6474 -0.2025
 8308SOL     OW36559   3.872   2.581   8.432  0.2962 -0.5781 -0.6387
 8308SOL    HW136560   3.908   2.532   8.506 -0.3701  0.1386  0.1709
 8308SOL    HW236561   3.837   2.659   8.475 -0.9913 -0.8280 -1.2258
 8309SOL     OW36562   1.528   0.533   5.950  0.3729  0.6034  0.6211
 8309SOL    HW136563   1.466   0.553   5.881 -1.8671 -2.2143  1.8138
 8309SOL    HW236564   1.597   0.501   5.892 -2.4721 -1.9549 -1.3442
 8310SOL     OW36565   3.912   4.241   9.921  0.6236  0.0999  0.0309
 8310SOL    HW136566   3.834   4.296   9.926  0.0897 -0.9668  3.2375
 8310SOL    HW236567   3.970   4.293   9.977  0.5164  0.3331 -0.0734
 8311SOL     OW36568   1.652   4.669  14.708  0.0175  0.4101 -0.0012
 8311SOL    HW136569   1.600   4.589  14.715 -0.2036  0.6536  1.0399
 8311SOL    HW236570   1.739   4.639  14.734 -0.4173 -0.5463  0.3402
 8312SOL     OW36571   3.665   4.166   1.545  0.1587  0.7164 -0.0462
 8312SOL    HW136572   3.716   4.106   1.600  0.2038  0.2095 -0.6376
 8312SOL    HW236573   3.600   4.199   1.607 -1.4449 -1.3777 -0.6316
 8313SOL     OW36574   1.606   2.511   1.546 -0.2478  0.0880  0.6079
 8313SOL    HW136575   1.594   2.419   1.522  1.2589  0.4526 -1.5833
 8313SOL    HW236576   1.613   2.545   1.456 -0.7525  2.0576  1.3218
 8314SOL     OW36577   2.118   0.062  12.945 -0.1549  0.2390 -0.0693
 8314SOL    HW136578   2.100   0.038  13.036  1.4912  1.1762  0.5047
 8314SOL    HW236579   2.209   0.032  12.947 -0.1200  0.5308  2.2953
 8315SOL     OW36580   2.518   1.992   2.096  1.1846  0.0990 -0.0784
 8315SOL    HW136581   2.455   1.980   2.026  2.2683 -1.3797 -0.7960
 8315SOL    HW236582   2.516   1.904   2.132 -1.8652  0.7968  1.4577
 8316SOL     OW36583   0.777   2.814   3.064  0.2789  0.2893 -0.3320
 8316SOL    HW136584   0.854   2.758   3.072  0.3958  0.7397  1.5562
 8316SOL    HW236585   0.714   2.764   3.116  1.5442 -1.8466 -0.8431
 8317SOL     OW36586   2.506   4.210   5.093  0.7448  0.5334  0.4568
 8317SOL    HW136587   2.460   4.132   5.063  0.0562  0.2363  2.3103
 8317SOL    HW236588   2.432   4.253   5.135  0.6214 -0.0090  0.7849
 8318SOL     OW36589   1.877   1.650  10.959  0.0969  0.0707  0.1484
 8318SOL    HW136590   1.889   1.569  10.910  0.0535 -2.2569  3.9167
 8318SOL    HW236591   1.966   1.665  10.989  0.2109  0.6060 -0.4865
 8319SOL     OW36592   0.944   1.194   9.197 -0.1219  0.2718 -0.4219
 8319SOL    HW136593   0.992   1.274   9.174  1.7630 -0.4667  0.9448
 8319SOL    HW236594   0.951   1.146   9.115 -2.2779  0.1489 -0.5199
 8320SOL     OW36595   2.709   3.759   8.274 -0.2272 -0.2926  0.4078
 8320SOL    HW136596   2.649   3.817   8.322 -1.0388  0.1101 -1.0843
 8320SOL    HW236597   2.777   3.818   8.242  0.1524 -0.5345  0.7780
 8321SOL     OW36598   4.015   0.363   8.852 -0.3979 -0.1195 -0.7038
 8321SOL    HW136599   3.996   0.334   8.763  0.2417  1.0903 -1.2366
 8321SOL    HW236600   3.950   0.310   8.898 -1.4794  0.6140 -1.3947
 8322SOL     OW36601   1.334   0.187  14.503 -0.2208  0.0949 -0.4711
 8322SOL    HW136602   1.257   0.244  14.498 -0.2817  0.3902  3.8191
 8322SOL    HW236603   1.376   0.219  14.583  0.5037 -1.4847 -0.2117
 8323SOL     OW36604   0.016   2.686  15.598  0.0923  0.1288 -0.1343
 8323SOL    HW136605   4.728   2.598  15.623 -0.1712 -0.5536 -2.8031
 8323SOL    HW236606   0.101   2.685  15.642 -1.0413 -0.5380  2.0475
 8324SOL     OW36607   0.235   3.387   9.461 -0.2042 -0.1864  0.2619
 8324SOL    HW136608   0.169   3.352   9.519  1.7926  0.2308  2.7781
 8324SOL    HW236609   0.298   3.315   9.462  0.3883  0.3199 -0.5937
 8325SOL     OW36610   1.856   0.281   2.716 -0.3300 -0.2208 -0.1945
 8325SOL    HW136611   1.905   0.313   2.791 -0.2528 -0.3308 -0.1978
 8325SOL    HW236612   1.803   0.359   2.702 -0.7355  0.2066  3.6631
 8326SOL     OW36613   3.179   3.663  12.203  0.1173 -0.2782 -0.3060
 8326SOL    HW136614   3.259   3.708  12.174  0.8072 -1.1851  0.1699
 8326SOL    HW236615   3.209   3.577  12.234  2.9086  0.5117 -0.8072
 8327SOL     OW36616   3.406   1.870   3.379  0.7948 -0.1538 -0.1794
 8327SOL    HW136617   3.401   1.814   3.456  1.5243  0.6300  0.4396
 8327SOL    HW236618   3.490   1.912   3.397 -0.0402  1.2773  0.3793
 8328SOL     OW36619   0.085   1.075   4.447 -0.6236 -0.5328 -0.2564
 8328SOL    HW136620   0.104   1.084   4.541  0.1693  0.7263 -0.5395
 8328SOL    HW236621   0.149   1.014   4.413 -1.1095 -0.2995 -1.6044
 8329SOL     OW36622   1.302   2.472   4.577 -0.0696  0.3019  0.1222
 8329SOL    HW136623   1.244   2.548   4.576  0.2585  0.5681  0.7945
 8329SOL    HW236624   1.356   2.487   4.655 -0.3568  1.8479  0.0290
 8330SOL     OW36625   3.740   0.943   4.766 -0.0291 -0.2040  0.1010
 8330SOL    HW136626   3.760   1.034   4.788 -1.9188  0.2180  0.0782
 8330SOL    HW236627   3.674   0.930   4.834 -0.3337  0.8413  0.0039
 8331SOL     OW36628   1.193   3.192   8.145  0.7732  0.4004  0.2046
 8331SOL    HW136629   1.182   3.287   8.145  1.3611  0.4707  0.6120
 8331SOL    HW236630   1.280   3.183   8.184  1.9501  2.8065 -1.9049
 8332SOL     OW36631   1.313   2.922   5.257  0.1701 -0.0140  0.0576
 8332SOL    HW136632   1.392   2.973   5.273  0.2995 -0.6713  1.5283
 8332SOL    HW236633   1.309   2.924   5.162  1.3750  4.7068  0.1284
 8333SOL     OW36634   3.788   2.904  16.856  0.2846  0.3689  0.0709
 8333SOL    HW136635   3.850   2.936  16.791 -0.5820 -2.1064 -1.9736
 8333SOL    HW236636   3.833   2.942  16.931 -0.8353  1.5132  0.1692
 8334SOL     OW36637   0.066   2.353  16.847  0.0164  0.2767  0.2972
 8334SOL    HW136638   0.051   2.423  16.911 -0.3821  0.0630  0.4331
 8334SOL    HW236639   0.083   2.288  16.916  1.2842  0.2078 -0.0879
 8335SOL     OW36640   1.675   3.169  13.308  0.0766 -0.2404 -0.0405
 8335SOL    HW136641   1.638   3.204  13.390 -2.0023 -1.2406 -0.5613
 8335SOL    HW236642   1.744   3.235  13.300 -0.8721  0.4673 -2.1293
 8336SOL     OW36643   2.546   2.370   1.017 -0.2834 -0.0313 -0.1571
 8336SOL    HW136644   2.602   2.293   1.007 -0.2715  0.2494 -2.1249
 8336SOL    HW236645   2.499   2.346   1.097 -2.8102 -2.0635 -2.2255
 8337SOL     OW36646   3.472   4.415   6.174 -0.1600 -0.4550 -0.2459
 8337SOL    HW136647   3.552   4.462   6.148 -0.6508 -0.3620 -1.5799
 8337SOL    HW236648   3.405   4.483   6.179 -1.2293 -1.6869  2.0327
 8338SOL     OW36649   1.041   0.771   5.076  0.3035  0.7825 -0.0344
 8338SOL    HW136650   0.966   0.830   5.070  0.0023  0.4943  0.8594
 8338SOL    HW236651   1.013   0.708   5.142  0.6349 -0.7460 -1.3611
 8339SOL     OW36652   4.118   0.512  13.301 -0.4377  0.0169 -0.3927
 8339SOL    HW136653   4.043   0.486  13.248 -0.8357  2.2651 -0.9409
 8339SOL    HW236654   4.192   0.482  13.248  1.3773  1.6610  1.2169
 8340SOL     OW36655   1.816   3.924   7.716 -0.0807  0.3604 -0.3669
 8340SOL    HW136656   1.791   3.832   7.709 -0.7571  0.4643  0.6752
 8340SOL    HW236657   1.748   3.947   7.780  0.1390 -1.2650  0.4611
 8341SOL     OW36658   1.677   0.618   6.319  0.6076 -0.3233  0.2929
 8341SOL    HW136659   1.586   0.592   6.332  1.8287 -3.7110  2.0875
 8341SOL    HW236660   1.720   0.533   6.320  1.7846  0.2511 -1.4227
 8342SOL     OW36661   1.761   1.947   0.381  0.4458  0.4949 -0.8551
 8342SOL    HW136662   1.833   1.895   0.414 -0.7347 -1.2808 -1.1100
 8342SOL    HW236663   1.735   2.010   0.448  3.2648 -1.2320  1.7993
 8343SOL     OW36664   4.289   0.553   0.129  0.3299  0.3964  0.2504
 8343SOL    HW136665   4.299   0.595   0.044 -0.6753 -0.8747 -0.4983
 8343SOL    HW236666   4.253   0.467   0.108  1.5893 -0.0616 -0.0397
 8344SOL     OW36667   1.730   1.019   0.796 -0.2862  0.4655  0.1493
 8344SOL    HW136668   1.768   0.997   0.711 -3.3944  1.3899 -1.4834
 8344SOL    HW236669   1.637   1.027   0.776  0.3161 -0.2604 -2.9337
 8345SOL     OW36670   3.148   2.339  13.059  0.5778  0.4269 -0.2014
 8345SOL    HW136671   3.102   2.324  13.142  0.2797  1.4812 -0.1703
 8345SOL    HW236672   3.202   2.262  13.043 -1.2754 -0.1674 -3.5949
 8346SOL     OW36673   4.605   4.510  15.956  0.3523  0.5293 -0.0933
 8346SOL    HW136674   4.634   4.591  15.915 -0.5631  1.1348  0.4792
 8346SOL    HW236675   4.533   4.486  15.898 -0.4988  0.1383  1.1149
 8347SOL     OW36676   2.862   0.233   8.002 -0.0611 -0.6063  0.3003
 8347SOL    HW136677   2.946   0.273   8.023 -1.2458  0.0094  3.8758
 8347SOL    HW236678   2.868   0.230   7.906  0.3203 -0.2201  0.3133
 8348SOL     OW36679   2.138   2.558   9.628  0.2935  0.2557 -0.1869
 8348SOL    HW136680   2.210   2.585   9.571 -0.4450  1.2039 -0.6729
 8348SOL    HW236681   2.060   2.589   9.582  0.7313 -0.5291 -1.4550
 8349SOL     OW36682   3.906   1.208   5.313 -0.3426 -0.3849 -0.4892
 8349SOL    HW136683   3.812   1.215   5.297 -0.0670  2.0546 -1.0579
 8349SOL    HW236684   3.929   1.299   5.296 -1.4301 -0.3348 -1.6578
 8350SOL     OW36685   3.080   1.870   5.195 -0.6799 -0.3482  0.4757
 8350SOL    HW136686   3.070   1.949   5.142 -1.0417 -0.7147  0.0008
 8350SOL    HW236687   3.037   1.804   5.142 -0.1446  1.5471 -2.3192
 8351SOL     OW36688   2.079   1.371   1.235  0.3456  0.4082  0.3938
 8351SOL    HW136689   1.986   1.350   1.224  0.6133  0.1242 -1.3181
 8351SOL    HW236690   2.084   1.346   1.327 -2.2543 -1.5911  0.0019
 8352SOL     OW36691   2.197   3.133  16.643  0.5995 -0.2865 -0.4113
 8352SOL    HW136692   2.118   3.152  16.694  0.5554 -0.6234 -0.3507
 8352SOL    HW236693   2.170   3.176  16.562  2.3883  0.3571 -0.6420
 8353SOL     OW36694   0.707   2.325   2.678  0.1961  0.3446  0.6239
 8353SOL    HW136695   0.664   2.410   2.674 -0.1546  0.0941 -0.8923
 8353SOL    HW236696   0.628   2.273   2.692  1.6737 -1.9353  0.5638
 8354SOL     OW36697   0.207   1.592   1.822  0.3803  0.5244  0.1567
 8354SOL    HW136698   0.232   1.674   1.864  2.0010  0.2987 -0.3976
 8354SOL    HW236699   0.197   1.538   1.901  0.9853  1.0036  0.5627
 8355SOL     OW36700   2.783   0.411   1.611 -0.0348 -0.7729 -0.0974
 8355SOL    HW136701   2.812   0.502   1.611 -0.4482 -0.6244 -2.7553
 8355SOL    HW236702   2.808   0.390   1.521 -2.3396 -1.3558 -0.6228
 8356SOL     OW36703   0.859   4.478  12.747  0.6368  0.8598  0.0817
 8356SOL    HW136704   0.927   4.418  12.778  0.3133  1.3151  1.6453
 8356SOL    HW236705   0.791   4.459  12.812  0.9560  1.3625  0.5554
 8357SOL     OW36706   1.423   1.645   9.582  0.0962  0.2615  0.2107
 8357SOL    HW136707   1.476   1.631   9.661  0.5828 -0.6841 -0.2863
 8357SOL    HW236708   1.338   1.665   9.622 -0.0793  2.1848 -1.0870
 8358SOL     OW36709   4.586   0.822   8.375  0.0677 -0.2205  0.3819
 8358SOL    HW136710   4.649   0.856   8.439 -1.3946 -1.1412  2.3108
 8358SOL    HW236711   4.513   0.816   8.437  1.0114  0.4719  1.5731
 8359SOL     OW36712   3.653   4.321   9.719  0.1537 -0.6365  0.2823
 8359SOL    HW136713   3.689   4.275   9.643 -2.5361 -0.7128 -0.9576
 8359SOL    HW236714   3.606   4.246   9.754 -0.3928 -1.5124 -2.3226
 8360SOL     OW36715   3.937   1.799   4.490  0.4588 -0.2753 -0.0889
 8360SOL    HW136716   3.939   1.783   4.396  1.5713  0.4358 -0.1956
 8360SOL    HW236717   4.021   1.845   4.497  1.0054 -1.1624 -0.8389
 8361SOL     OW36718   2.052   2.077   4.094  0.5410  0.0021  0.1556
 8361SOL    HW136719   2.134   2.112   4.130 -0.1703 -0.9971  2.8030
 8361SOL    HW236720   2.055   2.120   4.009  0.4170  2.2781  1.2991
 8362SOL     OW36721   4.390   4.313  15.246 -0.1383  0.1463  0.0319
 8362SOL    HW136722   4.325   4.341  15.181 -0.4112 -0.5271  0.0134
 8362SOL    HW236723   4.330   4.272  15.309 -0.0081  0.6906  0.5093
 8363SOL     OW36724   0.176   2.204  13.040 -0.2657  0.2252 -0.7044
 8363SOL    HW136725   0.186   2.281  13.095  0.7509 -0.9102  0.6866
 8363SOL    HW236726   0.102   2.155  13.076  1.4275 -0.6566  1.5147
 8364SOL     OW36727   3.277   3.352   8.967 -0.4136  0.3987 -0.1699
 8364SOL    HW136728   3.270   3.413   9.041 -0.8293  1.6405 -1.2262
 8364SOL    HW236729   3.334   3.282   8.999 -0.1748 -0.5930 -2.7303
 8365SOL     OW36730   3.304   4.664  14.429 -0.5550  0.0070  0.6008
 8365SOL    HW136731   3.302   0.019  14.412  2.7011 -0.0941 -0.4636
 8365SOL    HW236732   3.216   4.631  14.448 -0.0718 -2.1360 -0.8707
 8366SOL     OW36733   1.280   2.077   3.558  0.1229  0.6102  0.2198
 8366SOL    HW136734   1.299   2.095   3.466 -2.3557 -2.1823 -0.8394
 8366SOL    HW236735   1.340   2.003   3.559 -1.3313 -0.5783 -0.1222
 8367SOL     OW36736   4.458   1.894   5.080 -0.3056 -0.0234 -0.3073
 8367SOL    HW136737   4.451   1.801   5.102  1.0926 -0.3147 -1.0870
 8367SOL    HW236738   4.532   1.895   5.020  0.0795  0.5511  0.1730
 8368SOL     OW36739   2.289   1.563   0.905  0.0095  0.4085  0.0658
 8368SOL    HW136740   2.284   1.471   0.932  1.9721 -0.2833 -1.9042
 8368SOL    HW236741   2.250   1.601   0.983  0.1733  0.3730  0.1652
 8369SOL     OW36742   4.650   1.799  12.454 -0.2974  0.0163  0.2628
 8369SOL    HW136743   4.694   1.868  12.502  2.4138 -1.6584  0.1800
 8369SOL    HW236744   4.567   1.836  12.425  0.7981  1.1954 -1.3736
 8370SOL     OW36745   4.495   0.574   3.301 -0.3653  0.1236 -0.2062
 8370SOL    HW136746   4.481   0.664   3.328 -1.4862  1.0474 -3.8209
 8370SOL    HW236747   4.409   0.535   3.316 -0.4733  0.4650  0.0468
 8371SOL     OW36748   2.553   1.093   6.385  1.1633  0.2356  0.2086
 8371SOL    HW136749   2.561   1.145   6.465  1.7578 -1.0628  0.9827
 8371SOL    HW236750   2.639   1.101   6.345 -0.0483 -1.2898 -2.7052
 8372SOL     OW36751   3.648   1.583   4.206  0.3566 -0.4146  0.0193
 8372SOL    HW136752   3.660   1.568   4.300 -1.4685  0.5410  0.3831
 8372SOL    HW236753   3.668   1.501   4.161 -0.4027 -0.5997  0.0210
 8373SOL     OW36754   1.868   3.961   6.406  0.3123 -0.0357  0.6067
 8373SOL    HW136755   1.950   3.962   6.457  0.7877  0.7418 -0.1813
 8373SOL    HW236756   1.859   3.867   6.392  2.5575  0.0694 -1.5341
 8374SOL     OW36757   4.566   1.407   7.803  0.3163 -0.3962  0.0084
 8374SOL    HW136758   4.638   1.356   7.765  0.7796  0.4645 -0.2473
 8374SOL    HW236759   4.498   1.341   7.818 -0.6296 -0.0112 -2.7426
 8375SOL     OW36760   1.084   1.364   8.714 -0.8345  0.6641  0.5432
 8375SOL    HW136761   1.114   1.437   8.660 -0.3996 -0.8784 -1.3234
 8375SOL    HW236762   1.020   1.334   8.650  2.2590  0.8906 -2.6868
 8376SOL     OW36763   0.698   0.203   5.331 -0.4797  0.0183 -0.0993
 8376SOL    HW136764   0.784   0.164   5.346 -0.6644 -0.0132  0.8474
 8376SOL    HW236765   0.645   0.143   5.383 -0.2465 -1.1244 -1.1728
 8377SOL     OW36766   0.716   0.863   3.072 -0.1441 -0.0695  0.1548
 8377SOL    HW136767   0.710   0.888   2.980 -0.0595  0.7087  0.3589
 8377SOL    HW236768   0.625   0.875   3.098 -1.1424  0.6468 -3.6799
 8378SOL     OW36769   2.234   0.080   2.987 -0.8978  0.4804 -0.0322
 8378SOL    HW136770   2.315   0.079   2.936 -2.2887 -1.7351 -2.2514
 8378SOL    HW236771   2.267   0.028   3.061  1.1855  2.3174  0.3317
 8379SOL     OW36772   0.981   0.177   5.193  0.1685 -0.2503 -0.1247
 8379SOL    HW136773   0.988   0.268   5.221  0.3798 -1.0806  2.5125
 8379SOL    HW236774   1.070   0.157   5.162  0.3693  0.8336 -0.2511
 8380SOL     OW36775   0.564   3.594  12.028  0.2263  0.0093 -0.3423
 8380SOL    HW136776   0.557   3.665  11.965  1.0295 -0.7470 -1.2859
 8380SOL    HW236777   0.475   3.591  12.062  0.5176  0.7136  0.5140
 8381SOL     OW36778   1.629   0.459   2.608 -0.1417  0.4895 -0.0132
 8381SOL    HW136779   1.652   0.454   2.515  0.3787  1.0961  0.0863
 8381SOL    HW236780   1.534   0.455   2.599 -0.1203  0.8956 -0.4312
 8382SOL     OW36781   2.764   0.663   8.180 -0.1575  0.4269 -0.1208
 8382SOL    HW136782   2.810   0.729   8.232 -0.1885 -1.2532  2.0233
 8382SOL    HW236783   2.831   0.624   8.125  0.5086  2.1781 -0.5369
 8383SOL     OW36784   4.140   0.792  10.837  0.4587 -0.1415  0.7039
 8383SOL    HW136785   4.222   0.840  10.826  0.0737  0.1880 -0.6168
 8383SOL    HW236786   4.163   0.714  10.888  1.1345 -0.3977 -0.0067
 8384SOL     OW36787   3.480   3.868  11.105 -0.3389 -0.5873  0.1815
 8384SOL    HW136788   3.559   3.871  11.050 -1.0355 -1.9729 -0.8964
 8384SOL    HW236789   3.507   3.860  11.196 -0.2722 -1.3913  0.0878
 8385SOL     OW36790   4.161   2.007  12.891 -0.0497 -0.1304 -0.1666
 8385SOL    HW136791   4.091   1.964  12.941 -0.9693  0.6720 -0.7706
 8385SOL    HW236792   4.148   1.962  12.807  1.8559 -0.8615 -0.0895
 8386SOL     OW36793   2.793   0.667   0.839  0.4068 -0.6658 -0.4765
 8386SOL    HW136794   2.729   0.723   0.796  1.3300  1.0548  0.4099
 8386SOL    HW236795   2.776   0.676   0.933 -1.2462 -2.5371 -0.5860
 8387SOL     OW36796   2.504   2.260   7.992 -0.1500 -0.0350 -0.5026
 8387SOL    HW136797   2.531   2.175   7.958 -1.0270  0.0505 -1.4323
 8387SOL    HW236798   2.564   2.272   8.065  2.2118 -0.6952 -2.3651
 8388SOL     OW36799   1.846   0.324   8.206 -0.1736 -0.2805  0.4122
 8388SOL    HW136800   1.751   0.337   8.202  0.0910  1.4640 -0.0446
 8388SOL    HW236801   1.862   0.240   8.250  0.3375 -0.5405 -0.2655
 8389SOL     OW36802   2.375   2.912   7.032 -0.1275  0.4892  0.5226
 8389SOL    HW136803   2.429   2.926   6.954  0.3416  0.3193  0.8180
 8389SOL    HW236804   2.311   2.847   7.003 -0.0419  1.0304 -0.8764
 8390SOL     OW36805   3.465   2.095   5.087 -0.4830  0.1892  0.0428
 8390SOL    HW136806   3.370   2.097   5.074 -0.6372  0.7420  1.2023
 8390SOL    HW236807   3.515   2.108   5.006  0.3860  0.4754  0.6181
 8391SOL     OW36808   3.913   3.661   4.360 -0.1997 -0.0029 -0.2196
 8391SOL    HW136809   3.881   3.613   4.284 -0.3994 -0.4488  0.1473
 8391SOL    HW236810   3.921   3.593   4.427 -0.9478  1.2716  1.1840
 8392SOL     OW36811   3.336   1.972   8.533  0.6335  0.1558  0.1775
 8392SOL    HW136812   3.350   2.029   8.609 -1.0495  0.7480  0.0611
 8392SOL    HW236813   3.364   2.025   8.458 -0.8373 -0.1654 -0.6187
 8393SOL     OW36814   3.811   0.034  14.912  0.3266 -0.6353  0.5007
 8393SOL    HW136815   3.900   0.062  14.890  0.7268 -0.6384  2.1292
 8393SOL    HW236816   3.822   0.007  15.003  1.8149  2.3138  1.1789
 8394SOL     OW36817   0.648   2.876   9.066  0.0806  0.1192 -0.0251
 8394SOL    HW136818   0.736   2.850   9.040  0.1143 -0.2612  0.4631
 8394SOL    HW236819   0.612   2.795   9.101  1.6842 -0.4598  0.3019
 8395SOL     OW36820   3.119   0.849   2.250  0.5281 -0.8957 -0.4654
 8395SOL    HW136821   3.061   0.893   2.188 -1.5216 -1.4373  1.0652
 8395SOL    HW236822   3.129   0.930   2.300 -0.2060 -0.2337 -1.3896
 8396SOL     OW36823   0.443   0.473   8.951  0.4001 -0.3182  0.2185
 8396SOL    HW136824   0.445   0.434   9.039  0.8981 -0.6572  0.0578
 8396SOL    HW236825   0.511   0.419   8.912  0.8764  0.2638  0.2485
 8397SOL     OW36826   3.183   0.244   4.795  0.2305  1.0714  0.0084
 8397SOL    HW136827   3.256   0.298   4.762  1.0263 -0.5467 -0.8830
 8397SOL    HW236828   3.116   0.242   4.727  0.3399 -0.6376 -0.0499
 8398SOL     OW36829   3.390   3.498   5.914  0.9872 -0.2237  0.5162
 8398SOL    HW136830   3.480   3.500   5.947  1.3774 -1.0713 -0.5162
 8398SOL    HW236831   3.345   3.460   5.990 -1.1438  0.9165 -0.1734
 8399SOL     OW36832   4.009   4.637   8.016  1.2146 -0.6083  0.6053
 8399SOL    HW136833   4.048   4.689   8.086  1.1522  1.4659 -0.9233
 8399SOL    HW236834   3.920   4.631   8.052  1.2725 -0.1335  0.8235
 8400SOL     OW36835   1.516   3.151  17.266 -0.4573  0.3979 -0.1260
 8400SOL    HW136836   1.446   3.200  17.224 -1.4416 -0.0423  1.0207
 8400SOL    HW236837   1.509   3.067  17.219  1.9684  0.6400 -0.9296
 8401SOL     OW36838   2.605   2.526   2.465 -0.0196 -0.2357  0.2876
 8401SOL    HW136839   2.656   2.536   2.545 -2.2884  0.3553  1.6587
 8401SOL    HW236840   2.665   2.471   2.414 -0.8631  0.2101 -1.2171
 8402SOL     OW36841   4.362   0.664   6.115  0.6588  0.1176 -0.6508
 8402SOL    HW136842   4.342   0.571   6.110  1.3078 -0.1126  1.0155
 8402SOL    HW236843   4.290   0.703   6.066 -0.6667 -2.6478 -0.8711
 8403SOL     OW36844   3.575   1.448   6.713 -0.0943  0.1728  0.2268
 8403SOL    HW136845   3.546   1.410   6.630 -0.5815 -0.8522  0.8790
 8403SOL    HW236846   3.564   1.542   6.700  2.1160  0.1558 -1.9761
 8404SOL     OW36847   3.584   2.325   1.971  0.6914  0.5541 -0.0611
 8404SOL    HW136848   3.501   2.315   1.926  0.2552 -1.1877  1.1043
 8404SOL    HW236849   3.584   2.413   2.008 -0.2889 -0.0127  1.3218
 8405SOL     OW36850   2.452   1.741  17.496 -0.4659  0.2141  0.3008
 8405SOL    HW136851   2.497   1.670  17.542 -0.6238  0.3668  0.6931
 8405SOL    HW236852   2.506   1.797  17.440 -1.7685  0.0493 -1.1255
 8406SOL     OW36853   1.808   2.655   4.975 -0.1131 -0.0657  0.2346
 8406SOL    HW136854   1.757   2.735   4.961 -0.7523 -0.4181  0.5117
 8406SOL    HW236855   1.889   2.680   4.931  0.8738 -0.0377  2.0948
 8407SOL     OW36856   3.764   0.268  11.236 -0.1236  0.1415 -0.2791
 8407SOL    HW136857   3.787   0.328  11.306 -1.0245  0.3598 -0.1611
 8407SOL    HW236858   3.724   0.202  11.293 -1.4402  0.8978 -0.3282
 8408SOL     OW36859   1.449   4.223   1.050  0.0728 -0.2463 -0.0966
 8408SOL    HW136860   1.517   4.260   0.994 -0.0965  0.1129 -0.0658
 8408SOL    HW236861   1.403   4.174   0.983 -0.6082 -0.7817  0.7620
 8409SOL     OW36862   2.744   2.345   7.132  0.8120  0.0910  0.1026
 8409SOL    HW136863   2.722   2.276   7.069 -0.3241  0.5578 -0.0157
 8409SOL    HW236864   2.664   2.335   7.184  1.3976 -1.9849  0.6044
 8410SOL     OW36865   2.050   0.955   5.780 -0.1332  0.6069 -0.2341
 8410SOL    HW136866   2.079   0.893   5.847 -1.5008 -0.6173 -0.7807
 8410SOL    HW236867   2.079   1.041   5.811 -0.5988  0.9889 -0.8460
 8411SOL     OW36868   3.652   0.391   6.527  0.0344 -1.1197 -0.1564
 8411SOL    HW136869   3.727   0.447   6.506  0.2232 -0.4145  2.4855
 8411SOL    HW236870   3.577   0.451   6.518  1.3338  0.9038  2.5671
 8412SOL     OW36871   0.233   0.048  15.416  0.5977 -0.7198  0.1878
 8412SOL    HW136872   0.230   0.137  15.382  1.0640  0.4211  3.0619
 8412SOL    HW236873   0.141   0.027  15.401 -0.7970  4.7854  1.2224
 8413SOL     OW36874   0.637   1.294  11.586  0.1415 -0.1264 -0.0319
 8413SOL    HW136875   0.695   1.269  11.658  0.6494 -0.0017 -0.3985
 8413SOL    HW236876   0.672   1.235  11.520 -0.2045 -1.3526  0.8862
 8414SOL     OW36877   4.213   0.783  13.214  0.3238 -0.3221  0.0244
 8414SOL    HW136878   4.157   0.727  13.268  0.6447 -0.7029 -0.0341
 8414SOL    HW236879   4.207   0.734  13.131  2.0111 -1.0062  0.2996
 8415SOL     OW36880   0.767   0.210   3.633  0.4573 -0.2107  0.2461
 8415SOL    HW136881   0.801   0.138   3.580  0.3684 -0.7321  0.8976
 8415SOL    HW236882   0.848   0.259   3.648 -0.4065  1.0885  0.6750
 8416SOL     OW36883   3.310   1.695   6.517  0.6653  0.4819 -0.1345
 8416SOL    HW136884   3.373   1.718   6.586 -1.3156  1.3287  1.3673
 8416SOL    HW236885   3.343   1.763   6.458 -2.2279  1.6129 -0.4323
 8417SOL     OW36886   2.803   3.993   5.769  0.1710 -0.5855  0.4414
 8417SOL    HW136887   2.802   4.045   5.689 -0.1932  0.4383  1.1184
 8417SOL    HW236888   2.798   4.060   5.836  0.1053 -0.2812  0.1321
 8418SOL     OW36889   0.198   0.521   3.887 -0.0513 -0.3475  0.8496
 8418SOL    HW136890   0.290   0.544   3.883 -0.4277  0.9788 -0.2953
 8418SOL    HW236891   0.189   0.511   3.982 -0.1163 -0.7896  0.7940
 8419SOL     OW36892   3.536   2.550  15.574 -0.5390  0.1404  0.1790
 8419SOL    HW136893   3.465   2.613  15.565 -0.9512 -0.2711  0.5448
 8419SOL    HW236894   3.586   2.584  15.648  1.8444 -0.0764 -1.3258
 8420SOL     OW36895   0.534   2.234   6.649  0.0729 -0.3383 -0.2802
 8420SOL    HW136896   0.500   2.190   6.727  0.5964  0.2283  0.2639
 8420SOL    HW236897   0.460   2.294   6.634 -0.1347 -0.2913  0.9652
 8421SOL     OW36898   4.717   3.093   6.755 -0.1574  0.2417 -0.0786
 8421SOL    HW136899   4.668   3.174   6.743  0.3804  0.2529 -2.2946
 8421SOL    HW236900   0.016   3.117   6.839  0.3455  1.1143 -0.5473
 8422SOL     OW36901   1.691   0.838   1.715  0.0990  0.5703 -0.4793
 8422SOL    HW136902   1.706   0.748   1.745  0.7386  1.1458  0.9731
 8422SOL    HW236903   1.749   0.882   1.777 -0.9320 -0.1954  1.0255
 8423SOL     OW36904   1.111   3.327   2.389  0.2973 -0.2083  0.0161
 8423SOL    HW136905   1.167   3.342   2.313 -1.5083 -0.2203 -1.3060
 8423SOL    HW236906   1.143   3.392   2.452  2.4609 -0.6012 -0.6697
 8424SOL     OW36907   3.284   1.629  10.666 -0.0991  0.1461  0.2707
 8424SOL    HW136908   3.338   1.555  10.637 -0.5493  0.6417 -1.8520
 8424SOL    HW236909   3.197   1.595  10.643  0.0240 -0.1649  0.2676
 8425SOL     OW36910   4.220   2.436   6.971 -0.5476 -0.3765  0.3211
 8425SOL    HW136911   4.197   2.529   6.970  0.1706 -0.2211 -0.7094
 8425SOL    HW236912   4.269   2.438   6.889 -0.8559 -0.1853  0.1416
 8426SOL     OW36913   1.252   3.999  12.200 -0.0807  0.4717 -0.9141
 8426SOL    HW136914   1.298   4.067  12.150  0.4028 -0.2198 -1.4038
 8426SOL    HW236915   1.318   3.930  12.201  0.6043  1.1031 -2.5583
 8427SOL     OW36916   0.639   3.274   4.919  0.4181  0.1780 -0.3231
 8427SOL    HW136917   0.588   3.327   4.857 -0.1531 -1.0460 -0.9016
 8427SOL    HW236918   0.566   3.239   4.969 -0.5191  1.5300 -0.7300
 8428SOL     OW36919   3.560   0.526   6.845 -0.2626  0.3566 -0.3893
 8428SOL    HW136920   3.516   0.601   6.887 -1.9773 -1.3373  0.8771
 8428SOL    HW236921   3.492   0.481   6.795  0.2994  1.0836 -1.8093
 8429SOL     OW36922   2.410   2.118   7.110  0.0769  0.1866  0.0552
 8429SOL    HW136923   2.356   2.197   7.098 -0.5719 -0.2002  0.4126
 8429SOL    HW236924   2.405   2.116   7.206 -1.9241  3.9899  0.0460
 8430SOL     OW36925   3.337   2.710  16.835 -0.5289  0.0206 -0.5197
 8430SOL    HW136926   3.252   2.740  16.802 -1.1040  0.8035  1.6413
 8430SOL    HW236927   3.357   2.796  16.874  0.8202 -1.6671  2.4858
 8431SOL     OW36928   3.551   2.946  16.698  0.0346 -0.4117 -0.3303
 8431SOL    HW136929   3.536   2.855  16.669  0.5737 -1.1431  1.6810
 8431SOL    HW236930   3.624   2.935  16.759  2.1157 -0.2833 -2.8150
 8432SOL     OW36931   4.500   0.026   6.876 -0.3057 -0.1668  0.3792
 8432SOL    HW136932   4.419   4.715   6.888 -0.0525 -0.4997  0.7273
 8432SOL    HW236933   4.524   0.048   6.966 -1.5332 -3.4335  1.4983
 8433SOL     OW36934   4.153   0.436  16.963 -0.2656 -0.1444 -0.6217
 8433SOL    HW136935   4.072   0.452  16.914 -0.8139 -1.3996 -0.1265
 8433SOL    HW236936   4.193   0.371  16.905  2.0342  1.0813 -0.3945
 8434SOL     OW36937   0.779   3.859  10.469  0.2885 -0.0562 -0.6057
 8434SOL    HW136938   0.801   3.842  10.561 -3.2709 -0.2368  0.2146
 8434SOL    HW236939   0.707   3.798  10.453 -0.4178  0.8458 -0.8562
 8435SOL     OW36940   4.132   3.135   3.829  0.5440  0.0804  0.4557
 8435SOL    HW136941   4.138   3.198   3.901  0.5217 -0.8191  1.2307
 8435SOL    HW236942   4.042   3.140   3.795  0.3614 -0.6726  0.8403
 8436SOL     OW36943   4.657   0.223   4.595 -0.2463 -0.3051  0.1926
 8436SOL    HW136944   4.660   0.227   4.499  2.1341  0.8830  0.3468
 8436SOL    HW236945   0.010   0.202   4.608 -0.4390 -0.8733  0.6435
 8437SOL     OW36946   0.967   4.211  13.808  0.3733 -0.2114  0.9535
 8437SOL    HW136947   0.901   4.143  13.824 -1.2213  1.0136 -0.4388
 8437SOL    HW236948   0.988   4.194  13.716  0.8331  0.1467  0.9960
 8438SOL     OW36949   4.496   1.618   8.553 -0.1139  0.2854  0.2970
 8438SOL    HW136950   4.503   1.525   8.534 -0.3997 -0.2451  2.8321
 8438SOL    HW236951   4.572   1.631   8.609  0.2800 -0.6490 -0.0199
 8439SOL     OW36952   1.277   0.493   7.268 -0.2904  1.0282 -0.9682
 8439SOL    HW136953   1.239   0.508   7.182 -1.4385  2.1721 -0.2654
 8439SOL    HW236954   1.322   0.576   7.285 -1.3132  1.7266 -1.7127
 8440SOL     OW36955   0.367   3.964  17.617 -0.3191  0.9341  0.2982
 8440SOL    HW136956   0.437   3.977  17.553  0.9422  0.4932  1.5994
 8440SOL    HW236957   0.400   4.012  17.693 -1.2884  1.0055  0.6738
 8441SOL     OW36958   1.334   0.082   6.748  0.2436 -0.1982 -0.1211
 8441SOL    HW136959   1.400   0.095   6.680  0.3420  0.1479  0.0420
 8441SOL    HW236960   1.392   0.069   6.823 -1.9264 -0.9335  1.4279
 8442SOL     OW36961   2.363   2.583   9.463  0.0943  0.1761 -0.1711
 8442SOL    HW136962   2.449   2.608   9.429 -0.5105  0.0451 -1.8287
 8442SOL    HW236963   2.321   2.546   9.385  1.5075 -1.9242  0.0703
 8443SOL     OW36964   0.806   3.520   7.702  0.5214  0.8616 -0.4018
 8443SOL    HW136965   0.883   3.464   7.691  0.5240  0.5319  1.2829
 8443SOL    HW236966   0.760   3.512   7.619 -1.8578 -0.8486  1.0887
 8444SOL     OW36967   0.343   3.341   4.904  0.6339 -0.0866  0.1705
 8444SOL    HW136968   0.324   3.264   4.850  0.6514  0.0486 -0.0297
 8444SOL    HW236969   0.270   3.402   4.890 -0.1691 -1.0758 -0.0202
 8445SOL     OW36970   3.578   3.639   4.759 -0.2013  0.2540  0.3948
 8445SOL    HW136971   3.604   3.692   4.834  1.4392  2.9222 -2.0570
 8445SOL    HW236972   3.605   3.687   4.681  2.7650  2.8971  3.0344
 8446SOL     OW36973   0.800   3.585   5.103 -0.5632 -0.3576 -0.2592
 8446SOL    HW136974   0.827   3.677   5.104 -1.1599 -0.1756 -1.1750
 8446SOL    HW236975   0.778   3.568   5.011 -1.9672 -0.1031  0.0317
 8447SOL     OW36976   1.878   0.154  10.154  0.3718  0.7865 -0.5049
 8447SOL    HW136977   1.893   0.236  10.202 -3.0256  0.7051  0.6578
 8447SOL    HW236978   1.932   0.105  10.216 -0.2208  0.2995 -0.3760
 8448SOL     OW36979   4.532   2.886   9.569  0.1331 -0.5524  0.0220
 8448SOL    HW136980   4.581   2.834   9.632 -1.4320 -0.2146  1.5165
 8448SOL    HW236981   4.602   2.939   9.531 -1.5967  3.5576  2.5478
 8449SOL     OW36982   1.349   0.520   2.311  0.5278  0.1455  0.3667
 8449SOL    HW136983   1.263   0.562   2.310  0.3624 -0.2357 -0.7975
 8449SOL    HW236984   1.344   0.458   2.238 -1.1217  0.6004  0.0866
 8450SOL     OW36985   1.930   1.914   2.255 -0.1881  0.4485 -0.1291
 8450SOL    HW136986   1.910   1.872   2.171  0.9388 -0.0886 -0.1236
 8450SOL    HW236987   2.023   1.919   2.234  0.0705  0.6412  1.0671
 8451SOL     OW36988   0.868   2.731   2.708 -0.0582  0.1778 -0.1161
 8451SOL    HW136989   0.939   2.791   2.731  0.2809 -0.3128  0.1419
 8451SOL    HW236990   0.870   2.657   2.770 -2.9180 -1.5756 -2.0951
 8452SOL     OW36991   0.303   1.688   5.304 -0.2033 -0.1427  0.3713
 8452SOL    HW136992   0.358   1.665   5.379 -1.2395 -1.0023  0.8719
 8452SOL    HW236993   0.224   1.635   5.316  0.0886 -0.2110  1.9885
 8453SOL     OW36994   1.430   1.123   8.190 -0.4260  0.2669 -0.2433
 8453SOL    HW136995   1.504   1.135   8.130  0.7035 -3.5895  0.3440
 8453SOL    HW236996   1.368   1.191   8.166  2.2799  2.1202 -1.9434
 8454SOL     OW36997   3.431   3.234  10.434  0.3526 -0.2093  0.0439
 8454SOL    HW136998   3.369   3.191  10.375 -0.8013  2.9319 -1.0326
 8454SOL    HW236999   3.465   3.162  10.486 -1.2664 -0.5912  0.5811
 8455SOL     OW37000   4.295   1.798   7.907  0.2285 -0.0467  0.4267
 8455SOL    HW137001   4.255   1.776   7.991 -0.6557  0.1646  0.0669
 8455SOL    HW237002   4.230   1.754   7.853 -2.8891  3.2378  1.4681
 8456SOL     OW37003   4.250   0.136   2.543  0.1794 -0.0560  0.1302
 8456SOL    HW137004   4.297   0.218   2.540 -0.9285  0.5950  0.4327
 8456SOL    HW237005   4.158   0.159   2.526 -0.5075 -2.2352  0.8853
 8457SOL     OW37006   0.843   1.181  15.583  0.1434  0.3353  0.3081
 8457SOL    HW137007   0.792   1.210  15.507  0.4242  1.1376  0.4348
 8457SOL    HW237008   0.926   1.224  15.565  1.3011 -2.2533 -0.5949
 8458SOL     OW37009   0.055   0.773   0.567 -0.0371 -0.0130  0.2955
 8458SOL    HW137010   4.730   0.822   0.619 -1.2104 -0.6959 -0.4963
 8458SOL    HW237011   0.047   0.812   0.480 -0.5813  2.3150  1.4039
 8459SOL     OW37012   3.810   0.323   7.250  0.6081 -0.5758  0.0786
 8459SOL    HW137013   3.789   0.309   7.157 -1.8533  1.0154  0.3909
 8459SOL    HW237014   3.744   0.387   7.277  1.6406 -0.3403  2.0213
 8460SOL     OW37015   0.332   3.762   3.885  0.1579 -0.3666  0.0755
 8460SOL    HW137016   0.425   3.760   3.906  0.3728 -0.1860 -0.8468
 8460SOL    HW237017   0.344   3.781   3.791  1.7311 -1.2209  0.1064
 8461SOL     OW37018   1.297   0.299   5.794  0.5982  0.4214 -0.3828
 8461SOL    HW137019   1.236   0.238   5.836 -0.2369  0.0002 -2.2182
 8461SOL    HW237020   1.359   0.244   5.747  1.7733  1.6159 -0.2241
 8462SOL     OW37021   1.910   2.172   0.860 -0.0905  0.3122 -0.4354
 8462SOL    HW137022   1.911   2.077   0.870 -1.6191  0.1090 -2.1387
 8462SOL    HW237023   1.822   2.192   0.892 -0.1578  0.0361 -0.4435
 8463SOL     OW37024   4.322   4.145  13.140 -0.3305  0.1299 -0.1286
 8463SOL    HW137025   4.361   4.198  13.209  1.1572 -0.6935 -0.3461
 8463SOL    HW237026   4.289   4.066  13.182 -0.4722  0.7793  0.9840
 8464SOL     OW37027   2.548   3.468   2.851 -0.8741  0.3018  0.2862
 8464SOL    HW137028   2.613   3.483   2.920 -2.1302  0.9818  1.3327
 8464SOL    HW237029   2.598   3.499   2.775  1.3321 -1.8216  0.8682
 8465SOL     OW37030   3.646   0.984  15.999 -0.3275 -0.8137 -0.5001
 8465SOL    HW137031   3.565   1.024  16.032 -0.5103  0.4144 -2.3897
 8465SOL    HW237032   3.659   1.036  15.919  2.1542  1.3630  1.3367
 8466SOL     OW37033   0.164   3.639  11.960 -0.5302  0.2307 -0.0336
 8466SOL    HW137034   0.131   3.657  11.872 -0.7668 -0.3115 -0.0509
 8466SOL    HW237035   0.184   3.729  11.988  1.4677  0.1257 -1.1297
 8467SOL     OW37036   3.055   3.111  10.679 -0.6683  0.3203  0.4108
 8467SOL    HW137037   3.103   3.147  10.753  0.8999  0.6378 -0.7764
 8467SOL    HW237038   2.986   3.062  10.725 -0.4011  0.8019  1.3225
 8468SOL     OW37039   3.850   4.524   4.579  0.7072 -0.7365 -0.6040
 8468SOL    HW137040   3.782   4.458   4.584 -0.5442  0.6579  0.5242
 8468SOL    HW237041   3.857   4.521   4.483 -0.3846 -0.4923 -0.6880
 8469SOL     OW37042   1.562   4.502   3.300 -0.1228  0.0568  0.3477
 8469SOL    HW137043   1.613   4.440   3.248  2.1311  1.6944  0.6034
 8469SOL    HW237044   1.606   4.584   3.277 -0.1779  0.3531  1.3112
 8470SOL     OW37045   2.119   3.364   8.443 -0.3980  0.2922 -0.4872
 8470SOL    HW137046   2.194   3.340   8.388 -0.4386  0.7173 -0.7315
 8470SOL    HW237047   2.060   3.411   8.385 -0.9357 -0.4254 -0.5213
 8471SOL     OW37048   1.853   4.185   7.702  0.6831  0.1776 -0.1637
 8471SOL    HW137049   1.880   4.095   7.681  0.7421  0.2388 -0.3502
 8471SOL    HW237050   1.856   4.172   7.796 -0.8277  1.0689  0.0161
 8472SOL     OW37051   3.185   2.807   1.663  0.1241 -0.8716  0.1458
 8472SOL    HW137052   3.184   2.894   1.704  0.5713 -1.1055  0.6587
 8472SOL    HW237053   3.094   2.778   1.665 -0.1012 -0.0320  1.9580
 8473SOL     OW37054   2.268   3.812   7.149  0.2603  0.3867 -0.0331
 8473SOL    HW137055   2.175   3.833   7.149  0.5747  1.8067 -1.5806
 8473SOL    HW237056   2.304   3.841   7.233 -1.1915 -1.1969  1.1551
 8474SOL     OW37057   4.116   0.764   2.656 -0.1907  0.4077 -0.6893
 8474SOL    HW137058   4.050   0.699   2.678 -0.1986  0.1484 -1.4576
 8474SOL    HW237059   4.196   0.714   2.670  0.0885  1.3219  0.9604
 8475SOL     OW37060   4.431   1.863  14.902  0.1655  0.6650 -0.2299
 8475SOL    HW137061   4.362   1.889  14.963 -0.2389 -0.0057 -0.4074
 8475SOL    HW237062   4.372   1.835  14.832 -1.6961  1.4777  1.0114
 8476SOL     OW37063   2.830   0.705   7.123  0.0529 -0.6865  0.3023
 8476SOL    HW137064   2.908   0.737   7.167  0.9831 -0.5679 -1.4757
 8476SOL    HW237065   2.797   0.785   7.082  1.9001 -0.3775 -0.5774
 8477SOL     OW37066   0.448   2.211   4.034 -0.4823  0.0079 -0.3049
 8477SOL    HW137067   0.484   2.129   4.001 -0.7106 -1.2421  2.6150
 8477SOL    HW237068   0.433   2.196   4.127 -1.7594 -0.1496 -0.5429
 8478SOL     OW37069   2.675   4.693   5.304 -0.0194 -0.2681 -0.3905
 8478SOL    HW137070   2.692   4.603   5.276  0.9150 -0.0390 -0.5835
 8478SOL    HW237071   2.606   4.678   5.368  1.8763 -0.9337  1.4956
 8479SOL     OW37072   3.629   0.229   4.807  0.5566  0.2567 -0.0100
 8479SOL    HW137073   3.646   0.140   4.777 -3.4369 -0.5599  0.1053
 8479SOL    HW237074   3.717   0.253   4.835 -0.0588  0.5978  1.6206
 8480SOL     OW37075   1.887   3.845   2.045 -0.4188 -0.1100 -0.8293
 8480SOL    HW137076   1.890   3.781   2.117  2.3696  0.7308 -0.2113
 8480SOL    HW237077   1.965   3.821   1.996  0.2367  2.3680 -1.0000
 8481SOL     OW37078   2.238   0.504   8.774 -0.1974  0.2658  0.0305
 8481SOL    HW137079   2.191   0.465   8.848 -0.8785  1.0649  0.0220
 8481SOL    HW237080   2.237   0.428   8.716 -2.5738  1.0026 -0.8794
 8482SOL     OW37081   3.080   2.274  16.119 -0.1044 -0.6189  0.5175
 8482SOL    HW137082   3.016   2.208  16.094 -0.2979 -1.8078  4.0750
 8482SOL    HW237083   3.157   2.220  16.099  0.5635 -0.0731  1.6333
 8483SOL     OW37084   2.928   2.834   0.231 -0.2054 -0.1347  0.0053
 8483SOL    HW137085   2.892   2.750   0.201 -0.8576 -0.3404  1.3948
 8483SOL    HW237086   2.993   2.851   0.163  1.7889 -3.8000  0.9826
 8484SOL     OW37087   3.811   0.633   6.703  0.1776 -0.1628 -0.3264
 8484SOL    HW137088   3.753   0.708   6.690  0.9433  1.0120  3.2958
 8484SOL    HW237089   3.755   0.576   6.756 -0.7517  0.7103 -0.3680
 8485SOL     OW37090   3.869   1.527   8.339 -0.3023  0.0689 -0.0846
 8485SOL    HW137091   3.809   1.502   8.268  0.6403 -0.9239 -0.5253
 8485SOL    HW237092   3.847   1.462   8.405 -0.0289 -0.6229 -0.6696
 8486SOL     OW37093   3.159   2.294   7.255 -0.1727 -0.5318  0.1795
 8486SOL    HW137094   3.104   2.287   7.177  0.6953 -2.2231 -0.2741
 8486SOL    HW237095   3.124   2.222   7.307  0.8441 -0.4500  0.9960
 8487SOL     OW37096   1.193   1.206   8.452 -0.3933 -0.3163 -0.1732
 8487SOL    HW137097   1.115   1.255   8.482 -1.3082 -1.6474 -0.3943
 8487SOL    HW237098   1.175   1.201   8.358 -0.3323 -3.2726 -0.0178
 8488SOL     OW37099   2.985   1.019  10.153 -0.1626  0.5455  0.0810
 8488SOL    HW137100   3.043   0.945  10.170  0.2949  0.5247 -1.5487
 8488SOL    HW237101   3.039   1.077  10.207  0.5235 -0.4168  0.4261
 8489SOL     OW37102   0.203   1.082   7.118 -0.2245 -0.2652 -0.2432
 8489SOL    HW137103   0.198   1.137   7.196  0.5154  0.5150 -0.7532
 8489SOL    HW237104   0.116   1.080   7.077  1.2641  1.1224 -3.4484
 8490SOL     OW37105   2.920   4.187   4.112  0.2839 -0.4743  0.4216
 8490SOL    HW137106   2.869   4.223   4.185  0.1333  0.6464 -0.2431
 8490SOL    HW237107   2.999   4.200   4.164  0.1203  0.2474  0.4839
 8491SOL     OW37108   0.394   3.794  11.149  0.0961  0.3999  0.5750
 8491SOL    HW137109   0.446   3.824  11.224  2.0363  1.3824 -1.1870
 8491SOL    HW237110   0.370   3.707  11.181  2.1326  0.6908  2.9116
 8492SOL     OW37111   1.488   3.713   7.402  0.2016 -0.5925  0.4282
 8492SOL    HW137112   1.461   3.714   7.494  0.5958 -1.6106  0.5610
 8492SOL    HW237113   1.492   3.619   7.381  0.3192 -0.4085 -0.3892
 8493SOL     OW37114   3.155   0.649   2.536 -0.4022  0.1310 -0.2424
 8493SOL    HW137115   3.095   0.721   2.556  0.9180  0.9825  0.7540
 8493SOL    HW237116   3.106   0.584   2.486 -1.4628  0.9382 -0.2511
 8494SOL     OW37117   1.342   1.012   7.172 -0.2754 -0.0728  0.6056
 8494SOL    HW137118   1.388   1.052   7.246  1.8631 -0.1192 -0.6865
 8494SOL    HW237119   1.257   1.047   7.198 -0.6777  0.2906 -1.2148
 8495SOL     OW37120   0.980   4.705   6.565 -0.0032 -0.2058 -0.3813
 8495SOL    HW137121   0.920   0.039   6.581  1.4706  0.7236  0.9121
 8495SOL    HW237122   1.021   4.705   6.651 -0.7300  2.9520 -0.0093
 8496SOL     OW37123   4.544   0.115   6.287 -0.2440  0.0543  0.0123
 8496SOL    HW137124   4.593   0.187   6.248 -1.5799 -0.1834 -2.1302
 8496SOL    HW237125   4.617   0.057   6.308 -0.1027 -0.0834 -0.8881
 8497SOL     OW37126   1.162   2.000   8.017 -0.0888 -0.5353 -0.0290
 8497SOL    HW137127   1.188   2.078   7.969 -2.1079 -0.2534 -0.6640
 8497SOL    HW237128   1.236   1.939   8.006 -0.0365 -0.7300  1.3714
 8498SOL     OW37129   4.418   0.671   5.504  0.4907 -0.0928  0.1512
 8498SOL    HW137130   4.438   0.709   5.590  1.3763 -1.8028  0.6966
 8498SOL    HW237131   4.331   0.709   5.492  0.2879  0.3734  3.0918
 8499SOL     OW37132   1.435   3.801   5.175  0.1823  0.4946 -0.0935
 8499SOL    HW137133   1.494   3.877   5.184 -1.2491  1.4258  1.4024
 8499SOL    HW237134   1.498   3.732   5.196 -1.4783 -0.9087  0.1897
 8500SOL     OW37135   1.474   1.945   8.236  0.0818  0.0236 -0.4325
 8500SOL    HW137136   1.468   2.024   8.182 -2.2290  0.4468  0.4348
 8500SOL    HW237137   1.431   1.967   8.319  2.1570  0.8927  0.4040
 8501SOL     OW37138   4.238   0.504   8.273  0.0602 -0.1108 -0.8564
 8501SOL    HW137139   4.277   0.527   8.358 -0.3692  0.9985 -0.9683
 8501SOL    HW237140   4.171   0.571   8.263  0.2138 -0.2238 -2.6323
 8502SOL     OW37141   0.509   2.723   4.821 -0.3569  0.1395  0.2017
 8502SOL    HW137142   0.553   2.787   4.765 -0.4175 -0.1393 -0.1641
 8502SOL    HW237143   0.581   2.695   4.877 -0.0155  1.1150  0.2504
 8503SOL     OW37144   3.597   4.478   5.697 -0.3771  0.5404  0.2253
 8503SOL    HW137145   3.517   4.439   5.662 -0.3253 -1.2307  2.0489
 8503SOL    HW237146   3.666   4.424   5.657 -1.9920 -0.3510 -1.3516
 8504SOL     OW37147   2.027   2.012  16.933 -0.2790  0.1458  0.0328
 8504SOL    HW137148   2.090   1.984  16.867  1.5209  0.4021  1.6723
 8504SOL    HW237149   2.056   1.956  17.005 -3.8334 -0.7991  0.7611
 8505SOL     OW37150   4.333   3.046   9.300  0.1078  0.4341 -0.2250
 8505SOL    HW137151   4.340   3.135   9.267  0.2818 -0.8763 -3.7055
 8505SOL    HW237152   4.367   2.999   9.224 -2.7254 -1.1656 -0.5224
 8506SOL     OW37153   2.005   4.531   7.976  0.6683  0.1386  0.1589
 8506SOL    HW137154   1.941   4.583   8.023 -1.1367 -0.6556 -1.4232
 8506SOL    HW237155   2.052   4.492   8.050 -0.6553  0.4640  1.1722
 8507SOL     OW37156   0.542   0.941   6.870 -0.2580 -0.2460 -0.0981
 8507SOL    HW137157   0.608   0.953   6.801 -0.0619 -2.4444 -0.2883
 8507SOL    HW237158   0.475   1.007   6.857 -1.8890 -1.6601  1.1769
 8508SOL     OW37159   4.403   0.385   7.500 -0.1367  0.7550  0.1213
 8508SOL    HW137160   4.452   0.457   7.539 -0.8568 -0.8453  3.9840
 8508SOL    HW237161   4.315   0.412   7.528 -0.4368 -1.2404  1.1833
 8509SOL     OW37162   0.530   2.189   8.380  0.5143 -0.2510  0.5728
 8509SOL    HW137163   0.469   2.116   8.395 -0.0018  0.6654  2.9005
 8509SOL    HW237164   0.492   2.220   8.298  1.4437  0.6514  0.4840
 8510SOL     OW37165   1.126   1.132  14.837 -0.2459  0.1371 -0.2716
 8510SOL    HW137166   1.144   1.211  14.888 -2.0109 -0.0272  0.5978
 8510SOL    HW237167   1.050   1.104  14.888  0.6898  0.8830  1.5005
 8511SOL     OW37168   3.673   4.316   4.492  0.6351  0.3315  0.7592
 8511SOL    HW137169   3.659   4.308   4.398 -2.2282  0.7794  1.1383
 8511SOL    HW237170   3.601   4.260   4.522  0.1786 -0.9097 -2.6908
 8512SOL     OW37171   1.786   0.701   2.474  0.1267  0.0680 -0.0074
 8512SOL    HW137172   1.711   0.720   2.418 -1.0291 -1.2984  1.0568
 8512SOL    HW237173   1.753   0.728   2.560 -2.4472 -0.5374 -0.8062
 8513SOL     OW37174   1.687   2.755   2.737  0.2141 -0.1215  1.0537
 8513SOL    HW137175   1.620   2.690   2.717  1.2762 -0.4543 -1.4360
 8513SOL    HW237176   1.635   2.833   2.756  0.8269  0.5527 -0.0520
 8514SOL     OW37177   3.851   2.828   3.424  0.0939  0.4226  0.1702
 8514SOL    HW137178   3.922   2.784   3.470  0.5770  1.6972  0.6522
 8514SOL    HW237179   3.898   2.861   3.348  2.0913  1.7339  1.9621
 8515SOL     OW37180   2.173   1.770  17.371  0.2180  0.7041  0.3497
 8515SOL    HW137181   2.129   1.685  17.381 -0.8467  1.1712 -0.3041
 8515SOL    HW237182   2.267   1.751  17.369  0.4808  1.8457  2.2205
 8516SOL     OW37183   3.674   0.583  16.789  0.2421 -0.2478  0.1799
 8516SOL    HW137184   3.704   0.624  16.870 -2.3922  2.4321 -0.2168
 8516SOL    HW237185   3.639   0.657  16.740 -1.2367 -0.8074  0.4009
 8517SOL     OW37186   1.024   1.281   4.275  0.2715 -0.0678 -0.0183
 8517SOL    HW137187   1.025   1.208   4.336 -1.6742  0.2297  0.3856
 8517SOL    HW237188   1.030   1.223   4.199 -0.2820  1.1325 -0.9800
 8518SOL     OW37189   4.563   0.665   5.276 -0.5277 -0.4375 -0.2315
 8518SOL    HW137190   4.516   0.669   5.360  0.4117  0.8791  0.2353
 8518SOL    HW237191   4.514   0.725   5.221  2.0519  2.4790  0.6236
 8519SOL     OW37192   2.440   0.118   2.148  0.2910 -0.6668 -1.2714
 8519SOL    HW137193   2.430   0.029   2.181  1.1933 -0.1599  0.3539
 8519SOL    HW237194   2.411   0.177   2.218  0.3898 -1.6182 -0.4267
 8520SOL     OW37195   2.744   3.903  13.207 -0.3642  0.1340 -0.2919
 8520SOL    HW137196   2.649   3.892  13.202 -0.2131 -0.2673 -2.1139
 8520SOL    HW237197   2.756   3.922  13.300 -0.0911 -4.4096  0.6211
 8521SOL     OW37198   4.279   1.913  11.005 -0.6212  0.4639  0.0568
 8521SOL    HW137199   4.348   1.935  10.943 -1.3986  0.2176 -0.8993
 8521SOL    HW237200   4.223   1.857  10.951 -2.0502  0.5766  1.4093
 8522SOL     OW37201   2.529   4.512  10.026 -0.0582 -0.6299 -0.3543
 8522SOL    HW137202   2.618   4.510  10.061  0.9495  3.1859 -2.6912
 8522SOL    HW237203   2.533   4.442   9.961 -1.0289 -1.3156  0.3130
 8523SOL     OW37204   0.953   4.701   8.521 -0.3957 -0.4440 -0.3492
 8523SOL    HW137205   1.009   4.658   8.456  0.5919 -0.2711  0.3775
 8523SOL    HW237206   0.924   4.622   8.567 -1.2171  2.0051  3.3520
 8524SOL     OW37207   3.077   4.385   8.752  0.6516 -0.2520 -0.0240
 8524SOL    HW137208   3.048   4.410   8.663  1.0228  0.9416  0.1858
 8524SOL    HW237209   3.166   4.419   8.749  0.1338  0.9635 -2.1774
 8525SOL     OW37210   2.619   1.083   5.004 -0.5256 -0.2473  0.2799
 8525SOL    HW137211   2.692   1.128   5.046  2.3082 -2.6997 -2.0725
 8525SOL    HW237212   2.660   1.018   4.948 -0.0863 -1.9679  2.6098
 8526SOL     OW37213   3.251   1.228   6.470  0.5381  0.6087 -0.3885
 8526SOL    HW137214   3.190   1.283   6.520 -1.1372 -0.3608 -1.3666
 8526SOL    HW237215   3.213   1.223   6.383 -0.9125  1.2738  0.1953
 8527SOL     OW37216   3.713   2.903  12.435 -0.4716 -0.1875  0.0882
 8527SOL    HW137217   3.723   2.963  12.509  4.2543 -2.1043  1.0405
 8527SOL    HW237218   3.627   2.861  12.444  0.0705 -1.3164  0.0269
 8528SOL     OW37219   1.412   2.234   8.384 -0.0828  0.4971 -0.4030
 8528SOL    HW137220   1.345   2.300   8.404 -0.2097  0.3259 -0.2665
 8528SOL    HW237221   1.354   2.159   8.400  1.3688 -0.4432  0.3842
 8529SOL     OW37222   0.115   1.518   1.259  0.4547 -0.0692  0.6490
 8529SOL    HW137223   0.055   1.565   1.317 -0.5555  2.3892 -2.4216
 8529SOL    HW237224   0.136   1.584   1.194 -1.0422  0.7857  1.0313
 8530SOL     OW37225   2.898   0.766  11.605  0.3161 -0.3381  0.0094
 8530SOL    HW137226   2.844   0.822  11.549  2.5315  0.5458 -1.2336
 8530SOL    HW237227   2.842   0.690  11.621 -1.1142  0.9006  0.9802
 8531SOL     OW37228   1.519   4.729   7.110  0.9142 -0.3577  0.3059
 8531SOL    HW137229   1.488   4.706   7.198 -0.0640 -2.6644 -0.6555
 8531SOL    HW237230   1.530   4.642   7.072 -1.4642  0.0575 -1.2956
 8532SOL     OW37231   4.205   0.993   2.168 -0.3411  0.4398 -0.3749
 8532SOL    HW137232   4.143   0.978   2.239  0.4446 -0.8555  0.0413
 8532SOL    HW237233   4.214   0.902   2.140  2.1913  0.1816  1.2199
 8533SOL     OW37234   3.677   1.478   8.606  0.4078  0.4578  0.4100
 8533SOL    HW137235   3.641   1.526   8.532  1.8672 -2.0326 -1.9493
 8533SOL    HW237236   3.593   1.444   8.638  0.5550 -2.4770 -2.3569
 8534SOL     OW37237   4.330   4.243   6.166 -0.5798  0.4055  0.1318
 8534SOL    HW137238   4.355   4.209   6.252 -2.8532 -1.7349 -0.0518
 8534SOL    HW237239   4.235   4.257   6.172 -0.6652  0.1002 -0.5690
 8535SOL     OW37240   4.283   3.479   9.543 -0.5402  0.2999 -0.1349
 8535SOL    HW137241   4.242   3.463   9.458 -1.2004 -1.9204  0.5873
 8535SOL    HW237242   4.232   3.425   9.604 -1.9681  1.0374 -0.6593
 8536SOL     OW37243   4.125   4.321   9.000  0.0595 -0.3487  0.3445
 8536SOL    HW137244   4.059   4.264   9.038 -1.3157  0.1678 -1.3040
 8536SOL    HW237245   4.151   4.261   8.931  1.2663  0.3219  0.2240
 8537SOL     OW37246   1.333   3.925   7.295 -0.1038 -0.2344 -0.5014
 8537SOL    HW137247   1.367   3.852   7.346 -1.5875  0.3819  1.3725
 8537SOL    HW237248   1.370   3.898   7.211 -1.5750 -2.9680 -0.2621
 8538SOL     OW37249   1.449   1.860   2.615  0.4557 -0.5404 -0.2373
 8538SOL    HW137250   1.522   1.921   2.626  1.3387 -1.3951 -1.3262
 8538SOL    HW237251   1.486   1.772   2.602 -0.2676 -0.7840 -0.6434
 8539SOL     OW37252   4.138   2.758   9.822  0.0928 -0.2958 -0.0129
 8539SOL    HW137253   4.191   2.693   9.777  1.9420  0.8708  0.4843
 8539SOL    HW237254   4.146   2.725   9.911  1.4885  0.6734  0.2088
 8540SOL     OW37255   2.882   0.337   4.712 -0.4186  1.0461  0.2836
 8540SOL    HW137256   2.846   0.396   4.778  0.0043  1.3285  0.2621
 8540SOL    HW237257   2.812   0.330   4.646  0.5685  0.2599 -0.6774
 8541SOL     OW37258   2.728   0.677   6.122 -0.0571  0.2535  0.1264
 8541SOL    HW137259   2.804   0.628   6.155  1.7445  1.1424 -2.7470
 8541SOL    HW237260   2.723   0.635   6.036  1.1592 -0.0803  0.2163
 8542SOL     OW37261   1.275   4.294   8.312 -0.2167 -0.0125 -0.2143
 8542SOL    HW137262   1.319   4.240   8.378  0.3623  0.9913  0.2240
 8542SOL    HW237263   1.232   4.232   8.253 -1.9993  2.7772 -1.8251
 8543SOL     OW37264   3.687   1.051  16.329  0.3614  0.1121 -0.2686
 8543SOL    HW137265   3.651   1.135  16.358 -1.5706 -0.9613  0.4360
 8543SOL    HW237266   3.653   0.983  16.387  0.2832  0.6305  0.3004
 8544SOL     OW37267   1.466   3.032   8.543 -1.3324 -0.0100  0.0226
 8544SOL    HW137268   1.506   2.994   8.465 -0.0675  0.0364  0.6436
 8544SOL    HW237269   1.509   3.117   8.544  1.2585 -1.3078 -2.5326
 8545SOL     OW37270   3.152   1.671   5.396  0.0089 -0.2154 -0.2454
 8545SOL    HW137271   3.088   1.643   5.461 -1.4380  0.8708 -1.2074
 8545SOL    HW237272   3.096   1.713   5.331  0.8264 -0.0038 -0.8186
 8546SOL     OW37273   0.251   1.608  12.238 -0.2370 -0.3016  0.1235
 8546SOL    HW137274   0.304   1.676  12.198  0.4794  0.7205  2.8072
 8546SOL    HW237275   0.303   1.588  12.316  0.3094 -0.0980 -0.1896
 8547SOL     OW37276   4.002   2.660   5.871  0.0563 -0.3300 -0.1085
 8547SOL    HW137277   3.986   2.575   5.830 -0.8364 -0.1042 -0.2273
 8547SOL    HW237278   4.026   2.644   5.963  1.4389  1.4826 -0.1445
 8548SOL     OW37279   4.371   2.418  11.229 -0.4559 -0.0638  0.1181
 8548SOL    HW137280   4.352   2.341  11.176 -0.8650  1.0418 -1.3539
 8548SOL    HW237281   4.283   2.450  11.247 -0.3551  0.6804 -0.6582
 8549SOL     OW37282   2.446   0.183  15.267  0.2117  0.8407 -0.5255
 8549SOL    HW137283   2.445   0.205  15.174 -0.3400  0.5255 -0.5949
 8549SOL    HW237284   2.353   0.184  15.287  0.5110  0.5246  0.8823
 8550SOL     OW37285   3.914   3.547   5.896  0.2479  0.5432  0.1735
 8550SOL    HW137286   3.922   3.635   5.932 -1.1948  0.6098  0.3274
 8550SOL    HW237287   3.918   3.572   5.803 -0.8047  1.8704  0.4755
 8551SOL     OW37288   2.751   3.972   6.376  1.0668 -0.1803  0.2302
 8551SOL    HW137289   2.841   3.959   6.404  0.8255 -0.1456  1.0181
 8551SOL    HW237290   2.749   4.065   6.353 -0.1285 -0.0694  0.7558
 8552SOL     OW37291   2.671   3.624   4.479 -0.0990  0.2161  0.1507
 8552SOL    HW137292   2.641   3.712   4.504 -0.5481  0.0890  0.0502
 8552SOL    HW237293   2.613   3.599   4.408 -2.2281  1.9824  1.2519
 8553SOL     OW37294   1.892   2.031   4.906 -0.2389 -0.5615 -0.2598
 8553SOL    HW137295   1.920   1.940   4.898 -0.5898 -0.8597  1.7446
 8553SOL    HW237296   1.981   2.066   4.908 -1.2809  2.1298 -0.4869
 8554SOL     OW37297   4.140   4.393  13.285  0.0457  0.3842 -0.4473
 8554SOL    HW137298   4.113   4.417  13.374  0.1955  0.5621 -0.4495
 8554SOL    HW237299   4.232   4.369  13.299 -0.2230 -0.7180 -0.5879
 8555SOL     OW37300   1.948   1.829  12.279 -0.3036  0.1940 -0.1342
 8555SOL    HW137301   2.039   1.810  12.303 -0.1726  0.4557 -0.4234
 8555SOL    HW237302   1.905   1.856  12.360 -1.9115 -1.3505 -0.4646
 8556SOL     OW37303   4.579   1.089  12.427 -0.5099 -0.8256 -0.4068
 8556SOL    HW137304   4.663   1.050  12.402  0.5148  1.5771 -0.7590
 8556SOL    HW237305   4.537   1.118  12.346  0.7586 -1.5721 -1.3398
 8557SOL     OW37306   0.814   0.642   6.605 -0.4417  0.2659 -0.3202
 8557SOL    HW137307   0.881   0.664   6.669  0.9939 -0.9185 -1.4230
 8557SOL    HW237308   0.870   0.630   6.528  2.8687 -1.9756  2.4383
 8558SOL     OW37309   2.530   0.666   2.893  0.1344  0.1941 -0.4998
 8558SOL    HW137310   2.611   0.658   2.943  1.2037  1.0787 -2.1000
 8558SOL    HW237311   2.480   0.614   2.956 -0.3286  0.9830 -0.2134
 8559SOL     OW37312   3.095   2.698   6.968  0.2228  0.2406 -0.2426
 8559SOL    HW137313   3.019   2.641   6.982 -0.7057  1.2279 -1.2529
 8559SOL    HW237314   3.164   2.656   7.019  1.6701  1.8854 -0.8468
 8560SOL     OW37315   4.590   3.019   5.532 -0.6022 -0.7301 -0.3832
 8560SOL    HW137316   4.506   2.977   5.510  0.1782 -2.3724 -0.1840
 8560SOL    HW237317   4.658   2.969   5.486  0.1017 -0.5310  0.4588
 8561SOL     OW37318   3.316   1.670   5.086  0.4982  0.0363  0.0447
 8561SOL    HW137319   3.295   1.746   5.140 -0.6785  0.7000 -1.3748
 8561SOL    HW237320   3.238   1.622   5.113 -1.5112  3.9085  1.1946
 8562SOL     OW37321   3.691   1.781   0.233 -0.0975  0.0270 -0.5056
 8562SOL    HW137322   3.680   1.750   0.322  2.0830  0.2771 -0.1364
 8562SOL    HW237323   3.716   1.873   0.237  1.1319 -0.2845 -0.7763
 8563SOL     OW37324   1.868   1.575   3.345 -0.3824  1.1434 -0.3333
 8563SOL    HW137325   1.931   1.584   3.416 -1.4064  0.2936  0.6827
 8563SOL    HW237326   1.834   1.487   3.357 -0.5944  1.1044 -1.2263
 8564SOL     OW37327   3.871   2.424   3.456 -0.1876 -0.7143  0.3737
 8564SOL    HW137328   3.958   2.446   3.423 -0.1059  0.3524  1.2602
 8564SOL    HW237329   3.899   2.350   3.510  2.7533  0.6734  0.7538
 8565SOL     OW37330   2.666   0.620   2.596 -0.1559  0.2217  0.6440
 8565SOL    HW137331   2.724   0.682   2.553  1.1321 -1.1514  0.4048
 8565SOL    HW237332   2.657   0.641   2.689 -1.0312  0.8189  0.4246
 8566SOL     OW37333   3.190   1.596   5.963 -0.0151  0.5950 -0.4617
 8566SOL    HW137334   3.132   1.528   5.928 -0.1709 -0.5460  1.9947
 8566SOL    HW237335   3.252   1.605   5.890 -1.7451 -0.0433 -2.0186
 8567SOL     OW37336   2.512   2.869  14.169  0.0432 -0.2595  0.0642
 8567SOL    HW137337   2.480   2.942  14.116  0.1035 -0.0264  0.3527
 8567SOL    HW237338   2.503   2.906  14.257  0.8278  0.1926 -0.0457
 8568SOL     OW37339   3.592   3.315   2.286  0.0797  0.4936  0.3576
 8568SOL    HW137340   3.498   3.298   2.295  0.3720 -0.2363  2.1151
 8568SOL    HW237341   3.614   3.268   2.367 -2.1649  0.8320  1.1585
 8569SOL     OW37342   3.749   4.262   3.434  0.0082  0.1122 -0.0515
 8569SOL    HW137343   3.831   4.266   3.483  1.1429 -4.0622 -1.6220
 8569SOL    HW237344   3.712   4.348   3.456  0.5648 -0.0765  1.5938
 8570SOL     OW37345   1.410   4.220   5.453 -0.9429  0.2299  0.4729
 8570SOL    HW137346   1.360   4.280   5.508 -0.2977  0.7070  0.5354
 8570SOL    HW237347   1.362   4.138   5.464  0.5750 -0.9649 -1.5970
 8571SOL     OW37348   1.820   1.766   1.902 -0.1147  0.2249 -0.7590
 8571SOL    HW137349   1.897   1.770   1.959 -0.1973  1.1387 -0.7182
 8571SOL    HW237350   1.746   1.788   1.957 -1.1952 -1.9734 -1.3150
 8572SOL     OW37351   2.255   1.912   4.271  0.0857  0.3024  0.3187
 8572SOL    HW137352   2.329   1.971   4.283  0.3837 -0.1728  0.7991
 8572SOL    HW237353   2.294   1.825   4.276  1.4797  0.9377  0.3499
 8573SOL     OW37354   2.402   2.075   1.396 -0.4455 -0.0428  0.2761
 8573SOL    HW137355   2.333   2.019   1.432  0.3126 -0.4999  1.0366
 8573SOL    HW237356   2.344   2.108   1.328 -1.4768 -1.8139  0.2932
 8574SOL     OW37357   2.548   2.436   3.277 -0.0144 -0.1605  0.1531
 8574SOL    HW137358   2.640   2.450   3.258  0.4031 -2.3065  0.5667
 8574SOL    HW237359   2.529   2.369   3.212  0.8428  0.3317 -0.6052
 8575SOL     OW37360   1.155   2.623   8.356  0.4670  0.1119 -0.1328
 8575SOL    HW137361   1.242   2.591   8.382  0.6795  0.5758 -0.2845
 8575SOL    HW237362   1.111   2.543   8.325 -1.5997  1.1088  0.2226
 8576SOL     OW37363   1.353   2.475  11.754 -0.0928  0.3564  0.5394
 8576SOL    HW137364   1.391   2.512  11.674 -1.9931  0.5725 -0.2531
 8576SOL    HW237365   1.326   2.552  11.804  2.1966  0.6035  1.4188
 8577SOL     OW37366   1.666   0.161   6.312  0.0353 -0.7209  0.2832
 8577SOL    HW137367   1.610   0.128   6.242 -0.8928  2.8624 -0.6684
 8577SOL    HW237368   1.710   0.082   6.345  1.7362  0.2710  0.3556
 8578SOL     OW37369   3.108   1.524   7.470  0.1890  0.0266  0.1764
 8578SOL    HW137370   3.016   1.548   7.457 -0.2177 -0.9245  1.2748
 8578SOL    HW237371   3.143   1.558   7.388 -0.7530  0.9107  0.1386
 8579SOL     OW37372   1.517   1.361  15.761  0.5621  0.5979  0.0690
 8579SOL    HW137373   1.491   1.361  15.853 -0.1900 -0.7932 -0.1480
 8579SOL    HW237374   1.612   1.354  15.766  0.3135 -1.1661  2.2269
 8580SOL     OW37375   0.878   1.882   2.867  0.7479 -0.4284 -0.4341
 8580SOL    HW137376   0.837   1.864   2.952  1.5221 -0.9485 -0.1688
 8580SOL    HW237377   0.861   1.974   2.848  0.1540 -0.5175 -0.3558
 8581SOL     OW37378   0.416   1.171   6.702 -0.3184  0.3456  0.2655
 8581SOL    HW137379   0.468   1.170   6.622  1.5531 -2.2044  1.5253
 8581SOL    HW237380   0.392   1.263   6.715 -2.8669 -0.2698 -0.0950
 8582SOL     OW37381   1.866   0.790   7.540  0.9760 -0.4307 -0.2471
 8582SOL    HW137382   1.820   0.865   7.577 -0.9315 -0.8813 -1.7005
 8582SOL    HW237383   1.828   0.711   7.579  0.6697 -1.1943 -2.0757
 8583SOL     OW37384   0.730   4.233   5.171  0.4300 -0.1549  0.0139
 8583SOL    HW137385   0.812   4.231   5.123  0.6576  1.8050  0.3066
 8583SOL    HW237386   0.670   4.203   5.103 -0.9996  2.4102  0.1147
 8584SOL     OW37387   3.673   2.217   9.048 -0.0302 -0.2264  0.2756
 8584SOL    HW137388   3.733   2.203   8.974  0.0366  1.3709  0.0387
 8584SOL    HW237389   3.726   2.279   9.098 -0.0839  0.0309  0.0143
 8585SOL     OW37390   2.635   2.982   1.642  0.5878 -0.3924  0.3136
 8585SOL    HW137391   2.698   3.035   1.691  1.0977 -2.1052  1.5187
 8585SOL    HW237392   2.590   3.038   1.579  0.0665 -1.6894 -0.4661
 8586SOL     OW37393   1.326   2.767  11.879  0.0203  0.9423  0.3348
 8586SOL    HW137394   1.419   2.788  11.886  0.4215 -1.2571  1.7052
 8586SOL    HW237395   1.290   2.843  11.833 -1.1389  0.6160  0.7111
 8587SOL     OW37396   1.798   2.882  11.094 -0.3062  0.6705  0.2186
 8587SOL    HW137397   1.867   2.885  11.161  0.8745 -3.1022 -0.8111
 8587SOL    HW237398   1.844   2.928  11.024  0.3530  0.0304  0.2264
 8588SOL     OW37399   1.444   2.570   7.213 -0.3086 -0.1352 -0.3751
 8588SOL    HW137400   1.501   2.608   7.279 -2.1358  1.3432  0.3753
 8588SOL    HW237401   1.429   2.638   7.146  0.3402  0.8256  0.4493
 8589SOL     OW37402   1.033   2.940   4.911 -0.9785 -0.6964 -0.2400
 8589SOL    HW137403   0.987   3.021   4.934  0.8957  0.6549 -1.2765
 8589SOL    HW237404   1.025   2.887   4.991  0.4336 -0.4399  0.0794
 8590SOL     OW37405   3.300   1.553   3.800 -0.2709  0.5435  0.6149
 8590SOL    HW137406   3.221   1.593   3.762 -0.5361  1.9964  2.7249
 8590SOL    HW237407   3.284   1.540   3.893 -2.4139  0.9575  0.3174
 8591SOL     OW37408   0.882   1.774   1.077  0.1586 -0.9335 -0.5015
 8591SOL    HW137409   0.927   1.801   0.996 -0.1171  4.9750  1.3262
 8591SOL    HW237410   0.796   1.813   1.064  0.1931 -1.0131 -0.9953
 8592SOL     OW37411   2.326   0.628   3.468 -1.0178 -0.2206 -1.0690
 8592SOL    HW137412   2.329   0.632   3.564 -0.4043 -2.4768 -0.9978
 8592SOL    HW237413   2.267   0.555   3.449  0.5056 -1.7815  0.1929
 8593SOL     OW37414   4.717   1.651  12.225 -0.1091 -0.8357 -0.4123
 8593SOL    HW137415   0.069   1.666  12.199  0.3095 -2.4795  0.1056
 8593SOL    HW237416   4.712   1.699  12.307  0.2213 -1.2032 -0.1838
 8594SOL     OW37417   2.171   2.981   4.532 -0.0270  0.0964  0.4930
 8594SOL    HW137418   2.141   3.011   4.617 -1.9785 -0.5876  0.0307
 8594SOL    HW237419   2.081   2.957   4.513 -0.6528  1.0568  2.2149
 8595SOL     OW37420   2.331   1.115   6.757  0.4543 -0.1445  0.2537
 8595SOL    HW137421   2.351   1.033   6.712  0.0061  0.3296 -0.8007
 8595SOL    HW237422   2.321   1.084   6.848  3.5859 -4.0176 -0.7098
 8596SOL     OW37423   2.730   3.242   4.244 -0.1989 -0.2002 -0.2742
 8596SOL    HW137424   2.717   3.229   4.338 -0.1998  1.7714  0.0070
 8596SOL    HW237425   2.638   3.257   4.226 -0.2612  2.1246  1.9215
 8597SOL     OW37426   4.030   1.820   9.019  0.5089 -0.1285  0.4204
 8597SOL    HW137427   4.052   1.885   8.952 -1.9189 -0.2949 -0.5409
 8597SOL    HW237428   3.941   1.852   9.033 -0.3285 -2.0137 -0.5550
 8598SOL     OW37429   2.957   3.221   6.392 -0.4257 -0.0225 -0.5838
 8598SOL    HW137430   2.954   3.263   6.306 -2.7656  0.6348 -0.1816
 8598SOL    HW237431   2.974   3.292   6.454 -0.4471  0.7967 -1.5102
 8599SOL     OW37432   2.533   0.320   1.079  0.4867 -0.7626  0.0365
 8599SOL    HW137433   2.471   0.263   1.034  0.8788  1.8929 -3.8239
 8599SOL    HW237434   2.615   0.270   1.068  0.8569 -0.0915 -0.2193
 8600SOL     OW37435   3.822   2.100   9.350  0.5064  0.1460 -0.0078
 8600SOL    HW137436   3.817   2.192   9.323  2.1104 -0.2109 -1.4998
 8600SOL    HW237437   3.913   2.090   9.322 -0.0545 -0.6586 -1.5474
 8601SOL     OW37438   2.463   0.987   5.221  0.4472 -1.2079 -0.0028
 8601SOL    HW137439   2.369   1.004   5.223  0.8302  0.9653 -0.5162
 8601SOL    HW237440   2.499   1.042   5.152 -3.5373 -2.7069 -3.2996
 8602SOL     OW37441   4.200   0.137   8.647 -0.1468 -0.2540  0.3141
 8602SOL    HW137442   4.245   0.187   8.716  0.3539  0.6933 -0.6904
 8602SOL    HW237443   4.217   0.047   8.672 -2.1248 -1.3167 -2.2519
 8603SOL     OW37444   2.531   2.133   1.740 -0.8727  0.1008  0.4107
 8603SOL    HW137445   2.437   2.137   1.760 -1.5562  0.3713 -2.8457
 8603SOL    HW237446   2.523   2.177   1.655 -1.0214  0.0047  0.3742
 8604SOL     OW37447   3.645   2.929   4.058 -0.2500  0.2811 -0.3036
 8604SOL    HW137448   3.643   2.981   3.978  1.2335  1.8661  0.6965
 8604SOL    HW237449   3.631   2.839   4.029  1.2262 -0.6249  1.7912
 8605SOL     OW37450   1.419   1.002   2.357  0.0022  0.4594 -0.1171
 8605SOL    HW137451   1.404   0.941   2.284  1.5748 -3.0492  2.5005
 8605SOL    HW237452   1.401   0.938   2.425  2.9014  0.2618  0.4694
 8606SOL     OW37453   2.636   1.673   3.545  0.0532 -0.1190 -0.0477
 8606SOL    HW137454   2.720   1.686   3.588  0.9468 -0.8816 -1.5684
 8606SOL    HW237455   2.652   1.581   3.524 -2.0583 -0.3603 -0.6363
 8607SOL     OW37456   3.557   0.846  16.470  0.6097 -0.3967 -0.2069
 8607SOL    HW137457   3.517   0.812  16.550 -0.7446  0.7387 -0.3927
 8607SOL    HW237458   3.474   0.854  16.422 -0.3343 -0.2886  1.4496
 8608SOL     OW37459   4.492   1.282   4.334  0.0158  0.4523 -0.1293
 8608SOL    HW137460   4.506   1.321   4.247 -1.4555  1.7534  0.2179
 8608SOL    HW237461   4.426   1.214   4.318 -0.2349  0.4192  1.0433
 8609SOL     OW37462   1.371   0.229   7.105  0.6372  0.0967 -0.0276
 8609SOL    HW137463   1.402   0.144   7.074 -0.7566  0.1585 -1.5687
 8609SOL    HW237464   1.278   0.211   7.119  0.6587  0.2272  0.2896
 8610SOL     OW37465   1.578   3.327   9.298  0.0208  0.0175  0.3859
 8610SOL    HW137466   1.527   3.246   9.307 -0.7906  0.5981  1.0143
 8610SOL    HW237467   1.650   3.305   9.357 -0.4745 -2.2322  0.1696
 8611SOL     OW37468   4.452   3.440   4.303 -0.1436  0.1021  0.3599
 8611SOL    HW137469   4.532   3.408   4.344  1.5293 -0.4445 -3.3313
 8611SOL    HW237470   4.427   3.369   4.243 -3.4481  0.7495  0.9419
 8612SOL     OW37471   2.672   1.822   8.629 -0.0349  0.9558 -0.0296
 8612SOL    HW137472   2.597   1.765   8.645  1.1965 -0.8651 -0.8582
 8612SOL    HW237473   2.634   1.908   8.648 -0.8112  0.1014  2.3494
 8613SOL     OW37474   1.896   1.146   7.718  0.0180  0.1454 -0.1396
 8613SOL    HW137475   1.914   1.067   7.769  1.1177  1.6065  1.7622
 8613SOL    HW237476   1.914   1.209   7.788  1.3066  0.9097 -1.1509
 8614SOL     OW37477   1.571   0.073   5.962 -0.4710 -0.1656 -0.4591
 8614SOL    HW137478   1.477   0.063   5.978 -0.5425  0.1755 -0.6614
 8614SOL    HW237479   1.570   0.049   5.870  0.7223  0.0001 -0.5126
 8615SOL     OW37480   2.902   2.477   3.765 -0.1130 -0.2291 -0.0542
 8615SOL    HW137481   2.903   2.413   3.693 -0.5373  0.7061 -0.8926
 8615SOL    HW237482   2.917   2.558   3.716 -0.1690  0.1537  0.5706
 8616SOL     OW37483   0.525   2.739   4.282  0.1914 -0.6547  0.3667
 8616SOL    HW137484   0.463   2.768   4.349 -0.2868  1.4431 -0.9760
 8616SOL    HW237485   0.598   2.801   4.286 -0.9471  0.8402 -2.5166
 8617SOL     OW37486   1.450   4.449   8.199  0.4983 -0.8002 -0.5343
 8617SOL    HW137487   1.418   4.417   8.115 -0.9507  0.6468 -0.5299
 8617SOL    HW237488   1.391   4.404   8.260  1.4829 -1.6591 -0.2137
 8618SOL     OW37489   0.355   0.912   5.998  0.7392 -0.3305 -0.0551
 8618SOL    HW137490   0.329   0.820   5.997  0.0089 -0.1203  0.6327
 8618SOL    HW237491   0.427   0.893   6.058 -0.4566 -0.6419  1.2815
 8619SOL     OW37492   1.132   1.919   9.457 -0.2799 -0.1452 -0.0178
 8619SOL    HW137493   1.123   1.824   9.461 -0.8457 -0.1276 -0.6444
 8619SOL    HW237494   1.074   1.950   9.526 -0.9687  0.9038 -1.0719
 8620SOL     OW37495   1.053   2.340   6.370 -0.3077 -0.3222 -0.5376
 8620SOL    HW137496   1.031   2.424   6.331 -0.8265 -0.6132 -0.8753
 8620SOL    HW237497   1.072   2.288   6.291  1.5748 -1.5420  0.7134
 8621SOL     OW37498   2.273   2.658   1.085 -0.3573 -0.2762  0.3257
 8621SOL    HW137499   2.262   2.694   1.173 -2.0931  1.3889 -0.5575
 8621SOL    HW237500   2.346   2.597   1.097  0.1562  0.2738 -0.0393
 8622SOL     OW37501   3.281   0.754   1.809 -0.1126  0.6226 -0.5412
 8622SOL    HW137502   3.328   0.684   1.764 -0.3260  0.5892 -0.7146
 8622SOL    HW237503   3.232   0.775   1.728  0.5105 -1.2696 -1.4025
 8623SOL     OW37504   0.831   3.337   4.615  0.8092  0.0351  0.3886
 8623SOL    HW137505   0.789   3.252   4.604 -0.9972  0.7982  1.2115
 8623SOL    HW237506   0.775   3.377   4.548 -0.5531  0.7079  1.9350
 8624SOL     OW37507   3.405   4.715  10.313 -0.1972 -0.4615  0.0355
 8624SOL    HW137508   3.379   4.634  10.357  0.6288  0.4167  2.1880
 8624SOL    HW237509   3.370   0.046  10.369 -0.0372 -1.6941  1.6919
 8625SOL     OW37510   1.802   0.966   4.891 -0.3938 -0.3169 -0.9583
 8625SOL    HW137511   1.833   1.040   4.943  0.8359 -0.2034 -1.8643
 8625SOL    HW237512   1.863   0.903   4.929  0.9934  2.1748  0.8639
 8626SOL     OW37513   3.939   3.503  15.369  0.2962  0.5427  0.2855
 8626SOL    HW137514   3.971   3.416  15.395 -2.0476  0.6721  3.5545
 8626SOL    HW237515   4.017   3.537  15.324 -0.4234  2.2361  0.3271
 8627SOL     OW37516   4.301   0.315  11.901 -0.4305 -0.4201  0.0634
 8627SOL    HW137517   4.257   0.349  11.823 -0.4860 -1.8207 -0.5244
 8627SOL    HW237518   4.372   0.379  11.907  0.5115 -1.5311  0.6863
 8628SOL     OW37519   2.225   1.747   0.189 -0.7173 -0.5660  0.0133
 8628SOL    HW137520   2.300   1.713   0.237 -0.6849  1.1176  1.1752
 8628SOL    HW237521   2.264   1.748   0.102  0.3857 -2.1635  0.4884
 8629SOL     OW37522   3.910   1.233   4.435 -0.2794 -0.1531  0.0229
 8629SOL    HW137523   3.954   1.317   4.444 -1.2467  0.1481  1.9257
 8629SOL    HW237524   3.975   1.200   4.373  0.0678  0.1532  0.2243
 8630SOL     OW37525   3.269   0.698   4.502 -0.3397  0.3804  0.1948
 8630SOL    HW137526   3.231   0.679   4.588  0.6421 -1.0965  0.2980
 8630SOL    HW237527   3.281   0.793   4.506 -2.7790  0.6820  0.3431
 8631SOL     OW37528   0.893   1.217  10.436  0.0459 -0.4444 -0.0414
 8631SOL    HW137529   0.928   1.290  10.488  1.4590 -1.4103  0.3444
 8631SOL    HW237530   0.975   1.187  10.396 -0.7273  1.2616 -2.9007
 8632SOL     OW37531   1.592   3.003   2.888 -0.4282 -0.4311  0.2563
 8632SOL    HW137532   1.622   3.066   2.823 -3.2411  0.6264 -0.0301
 8632SOL    HW237533   1.607   3.065   2.959 -2.3935  0.1072  0.2020
 8633SOL     OW37534   1.095   0.561   8.178 -0.3946 -0.3015 -0.0375
 8633SOL    HW137535   1.158   0.607   8.234 -0.6284  1.6460 -1.3949
 8633SOL    HW237536   1.037   0.524   8.244 -3.0106  1.8211 -1.1648
 8634SOL     OW37537   4.662   1.030   3.223 -0.1613  0.0457 -0.1440
 8634SOL    HW137538   4.613   1.047   3.303 -1.1699  3.5261 -1.4886
 8634SOL    HW237539   0.012   1.059   3.245 -0.6076  2.6404 -1.7059
 8635SOL     OW37540   0.991   0.089   3.910  0.0216 -0.4075 -0.0635
 8635SOL    HW137541   0.928   0.026   3.875  2.7064 -2.8654 -0.4402
 8635SOL    HW237542   0.939   0.145   3.968  1.6168 -1.2975  2.2552
 8636SOL     OW37543   0.598   1.599   7.022  0.4828 -0.0746 -0.6643
 8636SOL    HW137544   0.560   1.631   6.940 -1.6102 -0.2356  0.2389
 8636SOL    HW237545   0.539   1.527   7.043  1.9306 -0.6232  1.4066
 8637SOL     OW37546   4.438   1.505   6.473  0.2671 -0.4407 -0.8386
 8637SOL    HW137547   4.499   1.431   6.479 -0.0901 -0.7735 -1.2185
 8637SOL    HW237548   4.417   1.507   6.380 -0.9689 -1.2044 -0.5871
 8638SOL     OW37549   3.934   4.697   3.398  0.1112  0.5254  0.2213
 8638SOL    HW137550   3.871   4.695   3.470  0.7471  1.8860  0.8110
 8638SOL    HW237551   3.986   4.617   3.406 -0.2526  0.2236 -0.4265
 8639SOL     OW37552   4.368   2.045   8.246  0.6296 -0.5255  0.1077
 8639SOL    HW137553   4.293   1.997   8.281 -1.4572  0.9019 -2.4011
 8639SOL    HW237554   4.357   2.042   8.151 -0.8030  2.2558  0.1873
 8640SOL     OW37555   2.918   0.300  15.252 -0.0690  0.6273  0.0743
 8640SOL    HW137556   2.904   0.350  15.333  0.4136  1.1116 -0.1428
 8640SOL    HW237557   2.843   0.240  15.258  0.4030  0.1593  1.2546
 8641SOL     OW37558   0.497   0.088  14.890  0.5875  0.2722 -0.0927
 8641SOL    HW137559   0.464   0.177  14.901  0.5306  0.4958 -2.0397
 8641SOL    HW237560   0.514   0.060  14.980  1.7922  0.4670 -0.2637
 8642SOL     OW37561   2.802   2.820   5.912 -0.1736  0.2135  0.3613
 8642SOL    HW137562   2.801   2.909   5.877  1.3525 -1.0017 -2.8000
 8642SOL    HW237563   2.868   2.827   5.980 -0.0218 -2.5396  0.5177
 8643SOL     OW37564   0.365   3.924   9.552 -0.1900  0.5351  0.4715
 8643SOL    HW137565   0.291   3.947   9.607  0.1476 -2.6560  2.2042
 8643SOL    HW237566   0.343   3.981   9.477 -1.3688 -0.4535  0.0679
 8644SOL     OW37567   1.738   1.025  10.008  0.2669  0.3810  0.0583
 8644SOL    HW137568   1.746   0.940   9.964  0.1156  0.9939 -1.1588
 8644SOL    HW237569   1.733   0.994  10.098 -2.1967  1.1548  0.1880
 8645SOL     OW37570   0.297   1.694   8.536 -0.4520  0.3366  0.3020
 8645SOL    HW137571   0.330   1.662   8.453  1.8191  0.9049  0.9870
 8645SOL    HW237572   0.322   1.625   8.598  1.8590  0.9666  0.0884
 8646SOL     OW37573   3.369   4.018   7.390  0.2949 -0.0867  0.0839
 8646SOL    HW137574   3.440   4.054   7.338  1.0744 -0.6619  0.7491
 8646SOL    HW237575   3.313   4.096   7.387  0.8556  0.3143  0.0922
 8647SOL     OW37576   0.492   1.211   7.785 -0.1325 -0.1252 -0.0538
 8647SOL    HW137577   0.460   1.280   7.842 -0.1174 -1.3107  1.3862
 8647SOL    HW237578   0.572   1.194   7.836 -0.1038 -0.7901 -0.3136
 8648SOL     OW37579   3.934   2.055   8.452 -0.0634  0.4034  0.3850
 8648SOL    HW137580   3.948   1.961   8.440 -0.6776  0.6279 -2.1023
 8648SOL    HW237581   4.022   2.087   8.470  1.4822 -1.3593 -3.9452
 8649SOL     OW37582   3.489   0.829   7.264  0.0162 -0.3341 -0.0756
 8649SOL    HW137583   3.537   0.903   7.302 -0.7992 -0.1479  0.6052
 8649SOL    HW237584   3.439   0.882   7.203 -2.2666 -2.1472  0.2469
 8650SOL     OW37585   0.237   1.581   9.067 -0.2178 -0.4032  0.4069
 8650SOL    HW137586   0.250   1.672   9.040  0.7738 -0.2405  1.4232
 8650SOL    HW237587   0.142   1.585   9.061 -0.0197  1.5793 -1.4283
 8651SOL     OW37588   0.947   0.579   5.598 -0.2266 -0.5575  0.0349
 8651SOL    HW137589   0.868   0.546   5.641 -1.6868  1.5407 -1.0683
 8651SOL    HW237590   0.970   0.645   5.664 -0.1302 -1.3257  0.7762
 8652SOL     OW37591   1.454   0.485   8.005  0.3442 -0.1444  0.4046
 8652SOL    HW137592   1.363   0.483   7.978 -0.2195 -0.4460  2.3439
 8652SOL    HW237593   1.474   0.578   7.993 -0.9282  0.1980  1.0397
 8653SOL     OW37594   2.870   4.607   1.605  0.1934  0.1427  0.5595
 8653SOL    HW137595   2.842   4.618   1.695 -2.4261 -0.4771 -0.1990
 8653SOL    HW237596   2.832   4.520   1.593  1.8567 -0.5821  0.4298
 8654SOL     OW37597   0.558   4.545   8.986 -0.3807  0.3521  0.0658
 8654SOL    HW137598   0.542   4.451   8.988  1.1210  0.1027  0.5644
 8654SOL    HW237599   0.491   4.573   9.048 -1.8344 -0.7195 -1.0107
 8655SOL     OW37600   0.117   2.397   1.941 -0.0848 -0.2114  0.3818
 8655SOL    HW137601   0.156   2.414   1.855  0.6908  0.0761  0.7901
 8655SOL    HW237602   0.139   2.467   2.003  0.1784  2.2247 -2.4486
 8656SOL     OW37603   3.956   4.349  10.955 -0.1836  0.4652 -0.6888
 8656SOL    HW137604   3.882   4.356  10.894 -1.7154 -0.4227  1.0512
 8656SOL    HW237605   3.984   4.440  10.950  0.5491  0.0966 -3.2889
 8657SOL     OW37606   1.298   2.948   4.868  0.0875 -0.2698  0.0924
 8657SOL    HW137607   1.305   2.932   4.774  0.9655 -0.6869  0.2344
 8657SOL    HW237608   1.204   2.962   4.884  0.3027 -2.0506  3.0163
 8658SOL     OW37609   3.064   3.165   0.235 -0.1066 -0.0969  0.2428
 8658SOL    HW137610   3.145   3.200   0.270  0.0304  0.6160 -0.7626
 8658SOL    HW237611   3.092   3.147   0.145  0.4522 -1.9171  0.7958
 8659SOL     OW37612   1.029   4.132   5.508 -0.9606 -0.0117  0.2843
 8659SOL    HW137613   0.947   4.147   5.462 -0.1867 -0.7404 -1.3211
 8659SOL    HW237614   1.068   4.219   5.522 -0.0848  0.0545 -2.5178
 8660SOL     OW37615   0.113   1.436   2.546  0.0331  0.2677 -0.4523
 8660SOL    HW137616   0.042   1.480   2.498 -0.3136  0.2413  0.0391
 8660SOL    HW237617   0.191   1.462   2.496 -1.4253  2.9849 -1.3020
 8661SOL     OW37618   3.936   1.291   6.937 -0.4424  0.7913 -0.1966
 8661SOL    HW137619   3.973   1.273   6.850 -1.2050 -1.4675 -0.0456
 8661SOL    HW237620   3.910   1.383   6.929 -1.9517  0.5290  1.8222
 8662SOL     OW37621   3.932   2.124  12.618  0.4571  0.2073 -0.2295
 8662SOL    HW137622   3.909   2.146  12.708 -2.3510  2.9712 -1.6498
 8662SOL    HW237623   3.922   2.203  12.566 -2.3516  0.6304  0.9322
 8663SOL     OW37624   3.933   3.184   3.150 -0.5095 -0.6374 -0.0159
 8663SOL    HW137625   3.841   3.199   3.173 -0.9280 -1.8024 -0.9248
 8663SOL    HW237626   3.924   3.197   3.056 -1.9662 -0.0642  0.1965
 8664SOL     OW37627   0.307   0.850   1.919  0.1722  0.3886  0.2074
 8664SOL    HW137628   0.375   0.860   1.986  1.9288 -0.5697 -1.4437
 8664SOL    HW237629   0.353   0.874   1.839  1.4862 -0.8555  0.5965
 8665SOL     OW37630   3.275   3.204   6.136 -0.3388  0.0768 -0.2715
 8665SOL    HW137631   3.260   3.295   6.160  1.5298  1.1149 -2.9798
 8665SOL    HW237632   3.355   3.192   6.188  0.0944  1.1066 -0.6897
 8666SOL     OW37633   2.045   3.621   3.745  0.2579  0.2351  0.0628
 8666SOL    HW137634   2.015   3.530   3.739 -2.6351  1.2405 -0.4393
 8666SOL    HW237635   1.965   3.669   3.725 -1.4157 -1.2768  3.1584
 8667SOL     OW37636   3.061   0.442   4.069 -0.4296  0.1374 -0.2870
 8667SOL    HW137637   3.108   0.524   4.083 -0.0492 -0.4059  1.6549
 8667SOL    HW237638   2.970   0.472   4.076 -0.0727  0.9780  0.8589
 8668SOL     OW37639   3.782   3.615  12.605  0.1946  0.1734 -0.3427
 8668SOL    HW137640   3.821   3.698  12.577 -1.0765  0.3580 -1.5786
 8668SOL    HW237641   3.831   3.555  12.549 -0.5795 -0.1869 -0.6237
 8669SOL     OW37642   4.103   0.730   6.029  0.6440 -0.1865  0.1179
 8669SOL    HW137643   4.096   0.793   5.957  0.0189  0.2962  0.5963
 8669SOL    HW237644   4.040   0.661   6.008  0.2172 -0.1585  1.3188
 8670SOL     OW37645   0.633   2.610   2.859 -0.9200  0.0323  0.1014
 8670SOL    HW137646   0.693   2.681   2.839  0.0205 -0.2392  1.9815
 8670SOL    HW237647   0.577   2.621   2.782  1.4487  1.5774 -1.3922
 8671SOL     OW37648   1.894   2.083  13.258 -0.0550 -0.2276 -0.4891
 8671SOL    HW137649   1.937   1.997  13.260 -0.2145 -0.3042 -0.3794
 8671SOL    HW237650   1.868   2.077  13.166  0.7947 -0.2209 -0.7368
 8672SOL     OW37651   0.949   2.427   5.359  0.0667  0.5073 -0.4766
 8672SOL    HW137652   0.945   2.332   5.350 -2.2810  0.5646 -0.1252
 8672SOL    HW237653   1.043   2.440   5.347  0.1395 -0.2877 -0.7859
 8673SOL     OW37654   1.347   3.556   7.097 -0.4813  0.0315 -0.3192
 8673SOL    HW137655   1.365   3.474   7.144 -0.8013 -0.4300 -0.9883
 8673SOL    HW237656   1.274   3.529   7.040 -0.3962  1.7118 -1.2102
 8674SOL     OW37657   1.710   2.122   5.084  0.2069  0.0450 -0.1190
 8674SOL    HW137658   1.770   2.090   5.017  0.1345 -1.6968  0.6493
 8674SOL    HW237659   1.732   2.215   5.087 -1.3940  0.3453  2.1519
 8675SOL     OW37660   2.058   3.694  15.880 -0.4562 -0.0152 -0.3454
 8675SOL    HW137661   1.988   3.723  15.821  0.1422 -1.8733 -1.9644
 8675SOL    HW237662   2.007   3.628  15.926 -1.0016  0.2952 -0.5070
 8676SOL     OW37663   2.154   1.960   5.719  0.5366  0.0449 -0.0759
 8676SOL    HW137664   2.070   1.982   5.759  1.6638  2.0227  1.2305
 8676SOL    HW237665   2.165   2.030   5.654 -1.1824  0.9275  0.5846
 8677SOL     OW37666   0.749   1.312   3.700 -0.0134  0.4485  0.4695
 8677SOL    HW137667   0.736   1.218   3.713  0.4395  0.5204  1.4379
 8677SOL    HW237668   0.765   1.333   3.792 -0.2887  1.0325  0.3819
 8678SOL     OW37669   1.812   4.536   7.796 -0.2242 -0.6879 -0.6264
 8678SOL    HW137670   1.884   4.541   7.859 -1.4342 -0.5717  0.7261
 8678SOL    HW237671   1.745   4.530   7.863  2.0608  0.2142  1.7355
 8679SOL     OW37672   4.652   1.088   6.964 -0.2300 -0.3362 -0.4873
 8679SOL    HW137673   4.655   1.156   6.897 -1.2724 -1.3801 -1.5997
 8679SOL    HW237674   4.681   1.013   6.912  0.9148 -1.3768  1.6576
 8680SOL     OW37675   0.327   4.311   5.322 -0.4029 -0.7518  0.3609
 8680SOL    HW137676   0.371   4.324   5.406  0.7933 -1.4074 -0.1684
 8680SOL    HW237677   0.257   4.251   5.351 -0.0014 -1.9992 -1.2846
 8681SOL     OW37678   3.794   3.351   9.406 -0.9330  0.2772 -0.3917
 8681SOL    HW137679   3.822   3.364   9.496 -1.2049  2.0156 -0.5449
 8681SOL    HW237680   3.714   3.300   9.415  0.4858 -2.2711 -2.3036
 8682SOL     OW37681   1.982   1.046   1.356 -0.2956 -0.3283  0.2838
 8682SOL    HW137682   2.069   1.041   1.316 -1.1250  0.8550 -1.6678
 8682SOL    HW237683   1.931   1.095   1.291  0.9170  2.3922  1.3850
 8683SOL     OW37684   1.324   3.782  15.344  0.0830 -0.4161 -0.0196
 8683SOL    HW137685   1.321   3.842  15.269  0.0563 -1.1656 -0.6282
 8683SOL    HW237686   1.270   3.706  15.322  0.0134 -0.7490  1.3149
 8684SOL     OW37687   0.543   1.697   6.214 -0.3719  0.3967  0.5180
 8684SOL    HW137688   0.621   1.703   6.158 -0.2928  1.0582  0.6983
 8684SOL    HW237689   0.546   1.792   6.228 -1.2448  0.6655 -1.1128
 8685SOL     OW37690   4.427   2.878   9.127 -0.4692  0.4569 -0.1905
 8685SOL    HW137691   4.471   2.908   9.048  0.7056  0.7040  0.5607
 8685SOL    HW237692   4.354   2.832   9.084 -0.1993 -1.1618  1.0685
 8686SOL     OW37693   3.608   4.317   5.918 -0.7908  0.0507  0.3935
 8686SOL    HW137694   3.607   4.391   5.858 -0.9800  0.3051  0.7173
 8686SOL    HW237695   3.547   4.350   5.983 -1.2093  1.1836 -0.5727
 8687SOL     OW37696   3.722   4.249  17.122  1.0924  0.6770 -0.3997
 8687SOL    HW137697   3.738   4.222  17.032 -0.5824  1.7420 -1.0291
 8687SOL    HW237698   3.797   4.217  17.172 -1.2567  0.6876  3.1845
 8688SOL     OW37699   4.366   1.482   6.217 -0.3343  0.1920  0.0638
 8688SOL    HW137700   4.330   1.562   6.179  1.6445  1.7805  1.5256
 8688SOL    HW237701   4.381   1.429   6.139  0.7869 -0.3551  0.6499
 8689SOL     OW37702   3.028   2.291   6.259  0.0113  0.4315  0.0634
 8689SOL    HW137703   3.078   2.212   6.235 -0.5158 -0.1956  1.0274
 8689SOL    HW237704   2.966   2.248   6.318  1.0110 -0.5341  0.4105
 8690SOL     OW37705   4.341   2.144   8.715 -0.0406 -0.1537  0.2246
 8690SOL    HW137706   4.394   2.067   8.692  0.3039 -0.2378  1.3267
 8690SOL    HW237707   4.380   2.208   8.656 -1.8132 -0.0663 -0.8638
 8691SOL     OW37708   0.843   3.767   9.008 -0.5836  0.2924  0.0836
 8691SOL    HW137709   0.807   3.776   9.096  0.2447 -3.5726  0.8169
 8691SOL    HW237710   0.805   3.686   8.974 -0.9160 -0.0513  1.2986
 8692SOL     OW37711   3.286   2.125   2.785 -0.6316 -0.2288 -0.3728
 8692SOL    HW137712   3.243   2.078   2.714 -1.5810 -1.0668  0.7437
 8692SOL    HW237713   3.226   2.196   2.810 -0.0125 -0.4492  1.7438
 8693SOL     OW37714   4.158   0.760   5.622 -0.7055 -0.7566 -0.4035
 8693SOL    HW137715   4.089   0.800   5.675  0.7778 -1.3731  1.9946
 8693SOL    HW237716   4.226   0.826   5.635 -2.6776  1.1964 -0.1459
 8694SOL     OW37717   2.540   3.829   9.116 -0.0814 -0.5800  0.0248
 8694SOL    HW137718   2.543   3.924   9.121  1.4919 -0.6616  0.4087
 8694SOL    HW237719   2.447   3.813   9.095 -0.5911  0.2397  1.6619
 8695SOL     OW37720   3.279   0.202   0.345 -0.8953  0.1910  0.1900
 8695SOL    HW137721   3.349   0.261   0.315  0.3216 -1.1950  0.3124
 8695SOL    HW237722   3.271   0.128   0.286  0.9833 -1.0949  1.5351
 8696SOL     OW37723   1.064   3.432  11.098 -0.4308  0.5843  0.0456
 8696SOL    HW137724   0.974   3.465  11.101 -0.7647 -0.4204  1.3734
 8696SOL    HW237725   1.112   3.487  11.160 -0.6346  0.3900  0.3747
 8697SOL     OW37726   1.341   2.123   1.098 -0.2337 -0.2539  0.8041
 8697SOL    HW137727   1.306   2.112   1.186 -0.8605  0.4312  0.6414
 8697SOL    HW237728   1.391   2.043   1.084 -0.9951 -0.0425 -3.2385
 8698SOL     OW37729   1.497   4.729   8.215 -0.3389  0.0478  0.2609
 8698SOL    HW137730   1.453   4.648   8.190 -1.0359  0.2516  0.8463
 8698SOL    HW237731   1.419   0.043   8.229  0.8931  1.9232  0.0559
 8699SOL     OW37732   2.137   3.582   1.706  0.3574 -0.2222  0.0013
 8699SOL    HW137733   2.128   3.487   1.713 -1.2240  0.0598  1.7859
 8699SOL    HW237734   2.050   3.608   1.676  0.5740 -0.7546 -1.0902
 8700SOL     OW37735   3.581   0.568   3.627 -0.3080 -0.1988  0.1951
 8700SOL    HW137736   3.595   0.662   3.644  0.7227  0.1881 -2.7245
 8700SOL    HW237737   3.496   0.573   3.583 -0.0638 -0.6365 -0.3235
 8701SOL     OW37738   1.550   4.421   2.185  0.2670 -0.3305 -0.3332
 8701SOL    HW137739   1.521   4.397   2.273  0.5389  0.5490 -0.0064
 8701SOL    HW237740   1.631   4.369   2.181  0.1147 -0.6990  1.8029
 8702SOL     OW37741   2.880   4.233  14.533 -0.0532 -0.0245 -0.1932
 8702SOL    HW137742   2.928   4.300  14.581 -0.3456  0.8177 -1.0846
 8702SOL    HW237743   2.824   4.291  14.482 -0.8793 -1.6494 -1.1259
 8703SOL     OW37744   4.408   0.058   4.598 -0.3256  0.6360  0.2319
 8703SOL    HW137745   4.492   0.104   4.591  0.2917 -0.3647  1.1097
 8703SOL    HW237746   4.406   0.024   4.687  0.6560 -0.5487 -0.1878
 8704SOL     OW37747   4.499   1.762   9.224  0.8515 -0.0175  0.7269
 8704SOL    HW137748   4.450   1.705   9.284  0.6014  0.5050  1.0188
 8704SOL    HW237749   4.426   1.779   9.166 -0.8224  0.5751  3.0016
 8705SOL     OW37750   2.647   4.594   4.291  0.5282  0.2336  0.0961
 8705SOL    HW137751   2.676   4.541   4.217  2.1479 -1.1078  1.6920
 8705SOL    HW237752   2.630   4.528   4.358  0.3824 -1.1486 -1.2816
 8706SOL     OW37753   2.193   1.874   3.212  0.0351  0.4411  0.0193
 8706SOL    HW137754   2.123   1.913   3.264  0.2069 -0.3158  0.8098
 8706SOL    HW237755   2.172   1.913   3.127 -0.8277  0.7497  0.3741
 8707SOL     OW37756   2.238   0.928  10.267  0.9917 -0.2755  0.2356
 8707SOL    HW137757   2.252   0.848  10.318  0.6519 -0.5917 -0.1613
 8707SOL    HW237758   2.310   0.978  10.305 -0.0037  1.1750  0.2183
 8708SOL     OW37759   1.081   2.812   8.178  0.1082 -0.3011  0.6990
 8708SOL    HW137760   1.068   2.766   8.261  0.4284  1.6699  1.8435
 8708SOL    HW237761   1.174   2.830   8.164  0.4707 -1.3403  1.7782
 8709SOL     OW37762   2.630   0.971   6.105 -0.0013  0.1291  0.2267
 8709SOL    HW137763   2.590   0.997   6.189  0.3422  0.0675  0.4110
 8709SOL    HW237764   2.657   0.881   6.121 -0.9184  0.0063  1.0999
 8710SOL     OW37765   4.687   0.235   0.450 -0.8316 -0.4889 -0.4443
 8710SOL    HW137766   4.596   0.206   0.450 -0.4451 -1.6822  0.8279
 8710SOL    HW237767   4.668   0.329   0.454  1.2441 -0.0571 -0.4807
 8711SOL     OW37768   0.638   0.785   4.455  0.1065  0.2502  0.2090
 8711SOL    HW137769   0.573   0.717   4.473  0.0235  0.3868  0.4263
 8711SOL    HW237770   0.700   0.737   4.400  1.3270 -0.9781  2.6606
 8712SOL     OW37771   3.369   0.685   8.255  0.0902  0.1486  0.7490
 8712SOL    HW137772   3.386   0.597   8.223  0.3611  0.4622  0.0264
 8712SOL    HW237773   3.274   0.679   8.255  0.1426 -0.7747  3.0908
 8713SOL     OW37774   3.110   0.266  17.388 -0.3029  0.3749  0.5887
 8713SOL    HW137775   3.016   0.256  17.376 -0.1561  0.2401 -0.4341
 8713SOL    HW237776   3.149   0.189  17.345 -1.2683  1.2425 -1.8472
 8714SOL     OW37777   4.069   3.500  11.458  0.9136 -0.3257 -0.1908
 8714SOL    HW137778   4.124   3.573  11.432 -0.1494  0.5730  0.0885
 8714SOL    HW237779   4.116   3.427  11.419 -1.8527 -1.6777 -0.9862
 8715SOL     OW37780   4.015   1.444   8.979  0.4586 -0.0121 -0.6414
 8715SOL    HW137781   4.035   1.534   9.004 -2.4899  0.0452  1.4252
 8715SOL    HW237782   3.920   1.449   8.979  0.5502  1.9465  0.3824
 8716SOL     OW37783   4.371   2.193   3.466 -0.5768 -0.5735 -0.5282
 8716SOL    HW137784   4.323   2.137   3.405 -1.4066  0.3822 -0.7524
 8716SOL    HW237785   4.431   2.244   3.412  3.7049 -2.1235  2.7523
 8717SOL     OW37786   2.224   0.813   1.460  0.2488  0.3486  0.0897
 8717SOL    HW137787   2.142   0.843   1.499  0.0412 -2.0042  1.4633
 8717SOL    HW237788   2.288   0.811   1.531  0.7130 -0.1205 -0.3387
 8718SOL     OW37789   2.969   1.485  14.751  0.5598  0.0784  0.0929
 8718SOL    HW137790   2.919   1.407  14.778 -1.5327  0.7101 -1.9584
 8718SOL    HW237791   2.917   1.558  14.784 -0.8980 -0.6807 -0.5175
 8719SOL     OW37792   3.215   4.560   8.384 -0.0377  0.1800  0.5142
 8719SOL    HW137793   3.244   4.473   8.361 -1.2382  0.1993 -1.0305
 8719SOL    HW237794   3.120   4.555   8.397 -0.1780 -0.6956 -0.9042
 8720SOL     OW37795   3.875   1.442  17.191  0.5129 -0.1564  0.0455
 8720SOL    HW137796   3.843   1.493  17.116 -0.1536 -1.4831 -0.5693
 8720SOL    HW237797   3.958   1.479  17.220  0.7725 -0.0977 -0.7881
 8721SOL     OW37798   2.325   1.327   7.264 -0.1576  0.0183  0.0206
 8721SOL    HW137799   2.297   1.244   7.304  1.2436 -0.2650  0.4113
 8721SOL    HW237800   2.352   1.380   7.339  2.1906 -1.4215  0.1987
 8722SOL     OW37801   1.148   3.026   3.651  0.4225 -0.1270  0.0647
 8722SOL    HW137802   1.108   2.940   3.642  2.1110 -0.8613 -0.3154
 8722SOL    HW237803   1.103   3.053   3.732  0.8557 -1.9753  0.9252
 8723SOL     OW37804   3.449   1.908  11.204 -0.8901  0.1512 -0.4579
 8723SOL    HW137805   3.517   1.913  11.137 -0.2818  2.8181  0.3547
 8723SOL    HW237806   3.470   1.826  11.248 -0.6725  0.2185 -0.4345
 8724SOL     OW37807   1.552   0.690  10.695  0.5701  0.0947  0.0550
 8724SOL    HW137808   1.528   0.618  10.754  0.2346  0.1799  0.0219
 8724SOL    HW237809   1.594   0.750  10.757  1.0216 -1.8193  1.6353
 8725SOL     OW37810   3.918   1.936   6.493  0.3427  0.0030 -0.0955
 8725SOL    HW137811   3.986   2.002   6.506 -0.1412  0.7837 -1.4666
 8725SOL    HW237812   3.968   1.855   6.487  1.1869  0.3950  1.5793
 8726SOL     OW37813   4.115   2.171  12.243  0.2313 -0.0855  0.1062
 8726SOL    HW137814   4.157   2.182  12.158 -2.6183  2.5780 -0.9770
 8726SOL    HW237815   4.148   2.087  12.273 -2.1211 -0.5352  1.5023
 8727SOL     OW37816   4.323   3.044   9.573 -0.2703  0.2271  0.0654
 8727SOL    HW137817   4.400   2.988   9.586  0.7404  1.4230 -0.7699
 8727SOL    HW237818   4.309   3.042   9.478  0.4421 -0.1991 -0.0374
 8728SOL     OW37819   2.286   3.543   3.659 -0.1805 -0.4224  0.3231
 8728SOL    HW137820   2.213   3.587   3.701 -0.6138 -0.8195 -0.0234
 8728SOL    HW237821   2.328   3.626   3.635 -0.2629 -0.7711 -1.0357
 8729SOL     OW37822   3.931   3.780  15.490 -0.2626 -0.4789  0.6219
 8729SOL    HW137823   3.956   3.699  15.445  3.3801  0.3877  1.1560
 8729SOL    HW237824   3.837   3.764  15.503 -0.4612  0.7155  0.6749
 8730SOL     OW37825   1.991   3.102   2.106  0.2493 -0.2251  0.9504
 8730SOL    HW137826   1.953   3.016   2.127  0.2053 -0.3110  0.5240
 8730SOL    HW237827   1.909   3.150   2.092 -1.3084 -1.9867  3.9509
 8731SOL     OW37828   3.191   4.509   0.157 -0.0543  0.0722  0.2032
 8731SOL    HW137829   3.096   4.512   0.160 -0.1424  0.2457 -2.3820
 8731SOL    HW237830   3.202   4.444   0.227 -0.7691  0.1921  0.4196
 8732SOL     OW37831   4.709   0.305   3.089  0.3684 -1.0963 -0.1235
 8732SOL    HW137832   0.063   0.324   3.101 -0.3255 -0.6011  4.4512
 8732SOL    HW237833   4.704   0.209   3.095  1.9976 -1.2480 -1.2136
 8733SOL     OW37834   2.053   2.833  17.403  0.5571 -0.2685 -0.1826
 8733SOL    HW137835   2.139   2.834  17.444  0.1458 -1.4206  0.7105
 8733SOL    HW237836   2.009   2.825  17.488 -0.0916 -0.9460 -0.5791
 8734SOL     OW37837   1.094   3.741   6.823 -0.1112 -0.7398  0.1414
 8734SOL    HW137838   1.065   3.740   6.732  2.0408  0.6668 -0.5585
 8734SOL    HW237839   1.188   3.730   6.812 -0.4324 -2.6714 -0.6186
 8735SOL     OW37840   1.310   2.566   5.979  0.6629 -0.0440 -0.2002
 8735SOL    HW137841   1.314   2.580   6.073 -0.0943 -1.8297  0.0902
 8735SOL    HW237842   1.390   2.518   5.959 -0.8549 -1.7398 -2.2461
 8736SOL     OW37843   1.950   2.245   6.592 -0.3697  0.3321 -0.4563
 8736SOL    HW137844   2.041   2.224   6.571 -0.2356 -1.4807  1.9541
 8736SOL    HW237845   1.917   2.272   6.506 -1.7423  1.2722  0.3640
 8737SOL     OW37846   1.395   2.677   2.692 -0.4980  0.0255  0.2068
 8737SOL    HW137847   1.330   2.623   2.647  2.7685 -2.9476 -0.9128
 8737SOL    HW237848   1.392   2.766   2.655 -1.3561  0.4748  1.3823
 8738SOL     OW37849   2.571   2.847   6.430  0.4238  0.3487  0.0095
 8738SOL    HW137850   2.494   2.857   6.374 -0.7053 -1.0885  1.3192
 8738SOL    HW237851   2.618   2.926   6.401  0.1099  0.1992 -0.9247
 8739SOL     OW37852   4.322   2.808   5.501  0.4307  0.3668 -0.4430
 8739SOL    HW137853   4.271   2.736   5.464  1.1433  0.1277 -0.9778
 8739SOL    HW237854   4.403   2.757   5.510 -0.1992 -0.7734 -1.3701
 8740SOL     OW37855   4.110   3.230   9.574 -0.0113 -0.0156  0.2777
 8740SOL    HW137856   4.075   3.223   9.663 -0.2306 -1.4678  0.0750
 8740SOL    HW237857   4.177   3.162   9.566  1.8106  1.9781 -1.3471
 8741SOL     OW37858   1.047   2.155   1.724  0.3813 -0.1765 -0.3469
 8741SOL    HW137859   1.119   2.205   1.686  1.3525 -2.6833 -1.7782
 8741SOL    HW237860   0.995   2.232   1.750  1.5837  0.2864  0.6907
 8742SOL     OW37861   2.034   0.054   4.160 -0.3913  0.3710 -0.3865
 8742SOL    HW137862   2.069   0.130   4.206  0.2992  2.2277 -3.9797
 8742SOL    HW237863   1.947   0.055   4.200 -0.7845 -0.5939 -1.2353
 8743SOL     OW37864   4.139   2.792  12.825 -0.2801  0.2095  0.0067
 8743SOL    HW137865   4.133   2.877  12.869 -1.4920 -0.6525  1.4797
 8743SOL    HW237866   4.053   2.758  12.848 -0.7975  1.0322 -0.7204
 8744SOL     OW37867   2.772   2.627   2.685 -0.1820 -0.0704 -0.2684
 8744SOL    HW137868   2.757   2.580   2.767 -0.9471  4.2756  2.0986
 8744SOL    HW237869   2.752   2.716   2.714 -0.0010  0.7788 -2.7975
 8745SOL     OW37870   0.657   1.932   3.132  0.3708 -0.1728  0.3641
 8745SOL    HW137871   0.731   1.930   3.193  0.3696 -0.7688  0.3390
 8745SOL    HW237872   0.616   1.848   3.152  1.3086 -0.3311  1.5999
 8746SOL     OW37873   4.637   4.004   1.976  0.3713  0.3154 -0.1999
 8746SOL    HW137874   4.545   4.029   1.965  0.1483 -0.8597 -0.9838
 8746SOL    HW237875   4.647   4.023   2.069  1.4487  2.8352 -0.8225
 8747SOL     OW37876   1.511   0.405   6.188  0.6910 -0.2971  0.7870
 8747SOL    HW137877   1.538   0.322   6.149 -0.5103  0.3427 -1.4091
 8747SOL    HW237878   1.549   0.465   6.124  0.5696 -1.6315 -0.5349
 8748SOL     OW37879   3.067   1.574   1.079 -0.1849 -0.6837  0.4017
 8748SOL    HW137880   2.997   1.633   1.050  1.4278  0.2217 -1.6196
 8748SOL    HW237881   3.096   1.534   0.997 -3.4201 -0.1677 -1.0027
 8749SOL     OW37882   1.765   4.191   4.766 -0.4145 -0.4027 -0.0828
 8749SOL    HW137883   1.785   4.234   4.849  1.0400  0.9461 -1.1256
 8749SOL    HW237884   1.782   4.100   4.790  3.6700  0.8642  1.8227
 8750SOL     OW37885   1.673   0.978   2.286 -0.0357  0.1411  0.5275
 8750SOL    HW137886   1.658   0.883   2.281 -3.1258  0.5901  0.9850
 8750SOL    HW237887   1.586   1.001   2.319  0.9065  2.0079  1.7047
 8751SOL     OW37888   3.682   3.591   4.217  0.3351  0.1954 -0.2863
 8751SOL    HW137889   3.599   3.550   4.191 -0.6596  1.4701  0.9148
 8751SOL    HW237890   3.653   3.658   4.278  1.7872  0.8140 -0.2838
 8752SOL     OW37891   3.290   3.142   5.825  0.6113  0.0804 -0.2590
 8752SOL    HW137892   3.272   3.052   5.854  0.2680 -0.2244 -1.4135
 8752SOL    HW237893   3.301   3.187   5.909 -0.3387 -1.1222  0.5159
 8753SOL     OW37894   0.544   3.151   1.796 -0.3567  0.0744 -0.0085
 8753SOL    HW137895   0.470   3.186   1.846  0.0058  1.2959 -0.3364
 8753SOL    HW237896   0.521   3.175   1.706 -2.3509 -2.3247 -0.1370
 8754SOL     OW37897   0.098   0.912  11.088 -0.0792  0.5001  0.1661
 8754SOL    HW137898   0.145   0.991  11.062  0.6412 -0.1763 -0.6419
 8754SOL    HW237899   0.027   0.949  11.139  0.2716  2.3864 -0.7170
 8755SOL     OW37900   2.623   1.117  11.076 -0.5171 -0.3517  0.0711
 8755SOL    HW137901   2.622   1.065  11.157  1.6914  0.5138  0.6359
 8755SOL    HW237902   2.711   1.146  11.053 -0.1952 -2.3656 -1.2521
 8756SOL     OW37903   2.313   3.679   2.420  0.0932  0.8508 -0.1750
 8756SOL    HW137904   2.277   3.748   2.477 -1.4897  0.2232 -0.4031
 8756SOL    HW237905   2.335   3.738   2.347  1.5158 -0.9545 -1.2098
 8757SOL     OW37906   2.111   3.993   1.810  0.2220 -0.2349 -0.2293
 8757SOL    HW137907   2.196   4.007   1.768 -0.8982  0.0933 -2.3508
 8757SOL    HW237908   2.142   3.910   1.848 -2.7189 -2.0173 -1.7692
 8758SOL     OW37909   1.139   0.238   7.272 -0.0922  0.2315  0.4292
 8758SOL    HW137910   1.074   0.258   7.205  0.0370 -0.7227  0.0188
 8758SOL    HW237911   1.203   0.307   7.253  0.0291 -0.1684 -0.6099
 8759SOL     OW37912   0.192   3.020   4.330  0.5598  0.6674 -0.0317
 8759SOL    HW137913   0.256   2.985   4.391 -1.6612 -2.3705  0.5767
 8759SOL    HW237914   0.215   2.976   4.248  0.5771  2.4739 -0.9766
 8760SOL     OW37915   0.551   1.326   8.485  0.1193  0.0613 -0.5061
 8760SOL    HW137916   0.572   1.249   8.538  1.3997  1.7507  1.4281
 8760SOL    HW237917   0.618   1.391   8.506  0.6253 -0.6624  0.1149
 8761SOL     OW37918   2.161   0.427  13.098 -0.1168 -0.4021  0.4235
 8761SOL    HW137919   2.071   0.395  13.099 -0.8201  1.5113 -1.5408
 8761SOL    HW237920   2.184   0.409  13.007 -0.7219 -1.8911  0.5729
 8762SOL     OW37921   1.604   1.630   8.758 -0.2189  0.1223 -0.6270
 8762SOL    HW137922   1.635   1.656   8.671 -0.3118 -0.6519 -0.8989
 8762SOL    HW237923   1.508   1.627   8.753 -0.2450  0.6963 -0.4449
 8763SOL     OW37924   4.123   1.716   7.094  0.0557 -0.4552 -0.0186
 8763SOL    HW137925   4.116   1.620   7.098  1.8008 -0.6762 -2.1001
 8763SOL    HW237926   4.217   1.734   7.102 -0.0321  0.4879 -1.1442
 8764SOL     OW37927   2.950   2.082   2.356 -0.2819 -0.0657  0.4979
 8764SOL    HW137928   3.022   2.123   2.404  1.2160 -0.6529 -1.2280
 8764SOL    HW237929   2.969   2.122   2.271 -0.1984  0.6632  0.8651
 8765SOL     OW37930   0.710   0.597   5.754  0.1489 -0.2211  0.0246
 8765SOL    HW137931   0.744   0.558   5.834  1.5336  1.5182  0.3047
 8765SOL    HW237932   0.633   0.549   5.723  0.9256 -1.1480 -0.4681
 8766SOL     OW37933   4.288   2.149  11.428 -0.3118  0.0559 -0.2005
 8766SOL    HW137934   4.307   2.074  11.372 -1.2090 -0.1680 -0.2055
 8766SOL    HW237935   4.290   2.215  11.359  1.2249 -0.6361 -0.8331
 8767SOL     OW37936   0.020   4.222   3.483 -0.0607  0.1886  0.0835
 8767SOL    HW137937   0.076   4.299   3.469 -0.0450 -0.2074 -1.9929
 8767SOL    HW237938   4.706   4.245   3.560 -1.1451 -1.7282 -0.0792
 8768SOL     OW37939   4.646   2.760   4.598  0.0721 -0.7747  0.0338
 8768SOL    HW137940   4.662   2.745   4.691  0.3693 -0.1607  0.0808
 8768SOL    HW237941   4.722   2.708   4.569  0.5071  0.7158 -1.5406
 8769SOL     OW37942   2.815   0.651   4.037  0.5307  0.1783 -0.0642
 8769SOL    HW137943   2.767   0.732   4.051  0.6760  0.5800 -1.9983
 8769SOL    HW237944   2.774   0.610   3.961 -1.3285  2.3403 -0.2423
 8770SOL     OW37945   2.752   3.308   6.819 -0.1474  0.1548  1.1019
 8770SOL    HW137946   2.757   3.265   6.734 -0.8771 -0.3397  1.3070
 8770SOL    HW237947   2.764   3.227   6.868  1.1874 -0.7773 -0.7881
 8771SOL     OW37948   1.701   2.472   0.810 -0.0331  0.0886 -0.4664
 8771SOL    HW137949   1.721   2.543   0.871 -1.1400 -0.2082  0.2288
 8771SOL    HW237950   1.763   2.496   0.741 -0.4492  0.7394 -0.6166
 8772SOL     OW37951   2.821   3.244   3.847  0.0072 -0.7508 -0.2366
 8772SOL    HW137952   2.760   3.238   3.773 -1.1588 -0.8894  0.7366
 8772SOL    HW237953   2.887   3.195   3.798  1.9453  1.2286  0.3876
 8773SOL     OW37954   1.293   0.765  11.291 -0.2851  0.3205  0.7182
 8773SOL    HW137955   1.303   0.788  11.383 -2.6465  2.9217  0.3088
 8773SOL    HW237956   1.243   0.842  11.264  0.4874 -0.1028 -1.9561
 8774SOL     OW37957   1.126   3.134   2.613  0.1728 -0.4019 -0.0948
 8774SOL    HW137958   1.104   3.185   2.535 -1.1036 -0.7840  0.0209
 8774SOL    HW237959   1.099   3.193   2.684  2.5667 -0.0043  0.5055
 8775SOL     OW37960   0.053   3.628   8.954 -0.7460 -0.1215  0.0161
 8775SOL    HW137961   4.723   3.674   8.906  0.0842 -0.2489 -1.3192
 8775SOL    HW237962   0.009   3.574   9.020 -1.2711  1.3947  0.9035
 8776SOL     OW37963   2.211   0.409   7.411 -0.3465  0.0429 -0.1297
 8776SOL    HW137964   2.272   0.433   7.480  0.8422  0.7064 -1.4188
 8776SOL    HW237965   2.126   0.435   7.447  0.4129  1.4962  0.6365
 8777SOL     OW37966   0.972   0.982   8.028  0.3498  0.3407  0.2440
 8777SOL    HW137967   0.947   0.890   8.015  1.4784  0.0251  0.2642
 8777SOL    HW237968   0.980   1.029   7.945  0.4145  1.9305  1.1521
 8778SOL     OW37969   2.997   1.177   4.620 -0.1257  0.1953 -0.1262
 8778SOL    HW137970   3.032   1.097   4.584  0.7840  0.5682 -0.0560
 8778SOL    HW237971   2.907   1.157   4.592 -1.0523  2.0235  1.4868
 8779SOL     OW37972   3.423   4.614   2.334  0.1329 -0.3627  0.0306
 8779SOL    HW137973   3.428   4.557   2.410  0.3989  0.4097  0.5885
 8779SOL    HW237974   3.480   4.685   2.363  1.7684 -0.4211 -3.0503
 8780SOL     OW37975   4.158   3.790  11.587  0.2268 -0.1103  0.3559
 8780SOL    HW137976   4.193   3.758  11.504 -0.5366 -1.2665  0.4808
 8780SOL    HW237977   4.187   3.881  11.597 -1.4935  0.5135 -0.4459
 8781SOL     OW37978   1.558   1.589   6.144  0.2696 -0.1824  0.0382
 8781SOL    HW137979   1.539   1.500   6.113  1.3179  0.6831 -3.0408
 8781SOL    HW237980   1.648   1.599   6.115  0.3125  0.6964  0.4670
 8782SOL     OW37981   2.893   1.125   5.512  0.2259  0.2683 -0.5524
 8782SOL    HW137982   2.798   1.121   5.521  0.2974 -0.8612 -0.2661
 8782SOL    HW237983   2.922   1.068   5.584 -1.8811  0.5267  0.5094
 8783SOL     OW37984   1.091   3.107   3.142 -0.0075  0.0475 -0.1430
 8783SOL    HW137985   1.186   3.096   3.141 -0.3091 -2.7829  1.9394
 8783SOL    HW237986   1.073   3.029   3.194 -0.8574  1.1472  1.1966
 8784SOL     OW37987   0.308   3.468  14.272 -0.2884  0.0172 -0.4478
 8784SOL    HW137988   0.257   3.534  14.224  1.0575  1.1617 -0.3292
 8784SOL    HW237989   0.393   3.512  14.277 -0.1401 -0.5917  2.1677
 8785SOL     OW37990   1.143   1.654   1.884 -0.2946 -0.2036  0.0204
 8785SOL    HW137991   1.153   1.620   1.795 -1.3837  0.0908 -0.2138
 8785SOL    HW237992   1.099   1.738   1.871 -0.5004 -0.3812 -0.4493
 8786SOL     OW37993   4.529   0.150   7.556  0.5002  0.1480  0.4366
 8786SOL    HW137994   4.463   0.083   7.574  1.7202 -1.2327 -0.1842
 8786SOL    HW237995   4.478   0.230   7.545 -1.1506 -0.8909  0.6099
 8787SOL     OW37996   2.498   1.285   4.747 -0.3746 -0.7209  0.4078
 8787SOL    HW137997   2.427   1.348   4.732  0.1000 -0.1702  0.4709
 8787SOL    HW237998   2.482   1.268   4.840 -2.0110 -0.7168  0.1342
 8788SOL     OW37999   3.255   1.757   9.216 -0.3705 -0.1102  0.3541
 8788SOL    HW138000   3.186   1.791   9.273  0.5306  1.0463  0.7566
 8788SOL    HW238001   3.330   1.800   9.257 -0.4301 -2.0429  2.4535
 8789SOL     OW38002   3.639   0.790   2.946  0.2329 -0.5684  0.3535
 8789SOL    HW138003   3.626   0.784   2.852 -0.7143  1.7583  0.3339
 8789SOL    HW238004   3.698   0.864   2.960 -1.0860  0.7170 -0.8977
 8790SOL     OW38005   1.431   1.630   5.661 -0.0359  0.0592  0.0699
 8790SOL    HW138006   1.358   1.573   5.636 -1.9696  2.8626 -0.7149
 8790SOL    HW238007   1.379   1.675   5.728  1.8928  1.8034  0.3648
 8791SOL     OW38008   0.721   3.284   5.478  0.3731 -0.4709  0.0684
 8791SOL    HW138009   0.656   3.323   5.420 -0.5609  1.9841  2.8170
 8791SOL    HW238010   0.785   3.355   5.475 -0.1673  0.0629  1.5159
 8792SOL     OW38011   0.976   2.626   3.108  0.1750 -0.1246 -0.0091
 8792SOL    HW138012   1.065   2.655   3.131  0.2685  0.2189 -0.7940
 8792SOL    HW238013   0.985   2.578   3.025 -2.1304 -0.3800 -0.1138
 8793SOL     OW38014   3.985   0.329   3.547  0.3131 -0.1943 -0.1128
 8793SOL    HW138015   3.903   0.340   3.498 -0.2665 -0.5203  0.7943
 8793SOL    HW238016   4.040   0.297   3.475  1.3217  2.9804 -0.7554
 8794SOL     OW38017   0.064   3.995   2.975 -0.0106  0.0642 -0.1346
 8794SOL    HW138018   0.145   4.046   2.982  0.0590 -0.3142  2.0248
 8794SOL    HW238019   0.037   3.979   3.066  1.0264  1.7539  0.4720
 8795SOL     OW38020   3.856   3.771   1.925  0.1391 -0.0064  0.9284
 8795SOL    HW138021   3.895   3.686   1.906  2.0210  0.8561  0.8905
 8795SOL    HW238022   3.783   3.751   1.984  0.4130 -0.2488  1.1869
 8796SOL     OW38023   2.104   3.584   5.497  0.0852 -0.5867 -0.0613
 8796SOL    HW138024   2.161   3.547   5.565  2.1934  1.6858 -0.5858
 8796SOL    HW238025   2.164   3.635   5.444 -1.3100  0.0169 -1.0437
 8797SOL     OW38026   1.839   2.552   1.661 -0.0057 -0.3006  0.2931
 8797SOL    HW138027   1.810   2.564   1.751 -2.4622 -0.9157 -0.4083
 8797SOL    HW238028   1.750   2.536   1.630  1.4678  1.7335 -4.9613
 8798SOL     OW38029   3.182   2.163   5.026  0.5004 -0.6194 -0.2820
 8798SOL    HW138030   3.123   2.232   5.053  2.4691  0.2770  1.7453
 8798SOL    HW238031   3.243   2.219   4.978 -1.5389 -0.2369 -2.3753
 8799SOL     OW38032   3.887   0.590  14.532  0.0837  0.1095  0.0767
 8799SOL    HW138033   3.904   0.497  14.523  1.4452  0.2026  1.6552
 8799SOL    HW238034   3.945   0.632  14.469  1.0858  1.3271  1.7877
 8800SOL     OW38035   4.141   3.377   3.235 -0.2431  0.0609  0.3656
 8800SOL    HW138036   4.072   3.310   3.233  0.3001 -0.5038  0.4103
 8800SOL    HW238037   4.212   3.318   3.209  0.4426  1.9518 -2.0507
 8801SOL     OW38038   1.323   3.377   2.213 -0.8862  0.1646  0.4061
 8801SOL    HW138039   1.417   3.365   2.226 -1.3071 -0.4290  2.8763
 8801SOL    HW238040   1.313   3.375   2.118 -1.0945 -1.1549  0.4586
 8802SOL     OW38041   0.261   0.249   8.905 -0.0041 -0.4355 -0.3957
 8802SOL    HW138042   0.280   0.200   8.825 -0.3853 -1.9514  0.4464
 8802SOL    HW238043   0.330   0.315   8.913  1.2468 -1.4463 -2.8115
 8803SOL     OW38044   3.467   1.485   7.929  0.2127  0.1534  0.3699
 8803SOL    HW138045   3.493   1.396   7.953 -0.2563 -0.7470 -2.3932
 8803SOL    HW238046   3.385   1.502   7.974 -0.9552 -0.4911 -1.4802
 8804SOL     OW38047   2.472   0.663   7.800  0.7283 -0.0747  0.3936
 8804SOL    HW138048   2.567   0.662   7.786  0.7668 -0.1730  0.6671
 8804SOL    HW238049   2.466   0.742   7.854  1.0076  0.8453 -0.9204
 8805SOL     OW38050   1.836   3.666  14.627 -0.3917  0.2489 -0.1359
 8805SOL    HW138051   1.876   3.748  14.659 -1.3184 -1.2828  4.9212
 8805SOL    HW238052   1.878   3.612  14.694  2.8623  1.2495 -1.3448
 8806SOL     OW38053   4.090   2.443   8.349  0.6742 -0.0496 -0.0909
 8806SOL    HW138054   4.072   2.355   8.315 -1.9286  0.1069  0.9609
 8806SOL    HW238055   4.008   2.491   8.344 -1.0401 -2.8465  1.4573
 8807SOL     OW38056   0.281   1.855   2.463  0.2744 -0.2591 -0.0518
 8807SOL    HW138057   0.240   1.773   2.433 -1.9153  0.6796  0.3475
 8807SOL    HW238058   0.208   1.916   2.473  0.2726 -0.5009  1.3691
 8808SOL     OW38059   2.896   2.993  10.876 -0.8666  0.0379 -0.2266
 8808SOL    HW138060   2.833   3.037  10.933  0.1805  1.1780  0.0570
 8808SOL    HW238061   2.839   2.929  10.833  0.6464  0.4509 -2.8093
 8809SOL     OW38062   4.230   4.441   5.045  0.0282  0.2952  0.6309
 8809SOL    HW138063   4.273   4.391   5.114  2.9478  0.7673 -0.8219
 8809SOL    HW238064   4.221   4.528   5.082  2.9892  0.7751  0.1898
 8810SOL     OW38065   0.512   1.756  15.886 -0.1213 -0.2921  0.2648
 8810SOL    HW138066   0.554   1.842  15.884  1.3360 -0.9889  1.6973
 8810SOL    HW238067   0.424   1.782  15.914  0.5853  1.5390  0.7879
 8811SOL     OW38068   0.749   4.002  12.885 -0.7417 -0.3796  0.1716
 8811SOL    HW138069   0.844   4.010  12.897 -0.8025 -0.9509  1.0217
 8811SOL    HW238070   0.728   4.081  12.835 -2.2742 -0.5278  0.6012
 8812SOL     OW38071   2.961   1.627   7.048 -0.0019 -0.4381 -0.2983
 8812SOL    HW138072   2.945   1.720   7.031 -1.3102 -0.6511 -0.2168
 8812SOL    HW238073   3.020   1.608   6.975  0.9021  3.1155 -0.4748
 8813SOL     OW38074   4.654   1.049  10.060 -0.0031 -0.9577  0.0658
 8813SOL    HW138075   4.725   0.989  10.080  0.3737 -0.9171 -1.1637
 8813SOL    HW238076   4.624   1.064  10.150 -0.8589  2.8057 -0.8329
 8814SOL     OW38077   0.145   3.338  13.710 -0.1371  0.0427 -0.2320
 8814SOL    HW138078   0.233   3.309  13.734 -0.7577 -1.0040  0.7858
 8814SOL    HW238079   0.084   3.278  13.753  0.3403  1.2178  2.0899
 8815SOL     OW38080   3.684   0.786   7.679  0.0929  0.5345  0.1338
 8815SOL    HW138081   3.727   0.829   7.605 -0.3450 -0.7697 -0.8542
 8815SOL    HW238082   3.753   0.800   7.745  1.3171 -3.5724 -0.3060
 8816SOL     OW38083   0.847   2.307   7.080  0.3908  0.2709  0.0918
 8816SOL    HW138084   0.761   2.271   7.103  0.2864 -0.3123 -1.1863
 8816SOL    HW238085   0.825   2.327   6.989 -0.2196 -0.3772  0.0916
 8817SOL     OW38086   1.313   1.268   9.801  0.1643 -0.0988  0.1032
 8817SOL    HW138087   1.330   1.194   9.859 -1.1868 -0.0976  0.4924
 8817SOL    HW238088   1.405   1.285   9.779  0.6631 -3.0220 -0.1566
 8818SOL     OW38089   3.214   0.875   3.643  0.2936  0.5764 -0.3655
 8818SOL    HW138090   3.151   0.908   3.579  0.2953  0.3114 -0.5062
 8818SOL    HW238091   3.243   0.792   3.605 -0.3932  0.1431  0.0670
 8819SOL     OW38092   0.084   0.564   6.162 -0.4130 -0.4109  0.1243
 8819SOL    HW138093   0.103   0.615   6.083 -0.2800  0.8467  0.9698
 8819SOL    HW238094   0.111   0.626   6.229 -0.4039  0.1782 -0.4284
 8820SOL     OW38095   0.794   2.094   4.238 -0.2255  0.0352  0.6791
 8820SOL    HW138096   0.840   2.017   4.205  0.7201  1.8344 -2.1604
 8820SOL    HW238097   0.861   2.161   4.237  1.6820 -1.8145  3.7359
 8821SOL     OW38098   2.650   4.434   4.072 -0.3274  0.2353  0.1490
 8821SOL    HW138099   2.648   4.340   4.051  0.9408  0.3141 -0.3603
 8821SOL    HW238100   2.558   4.457   4.075 -0.8324 -1.7367 -0.3004
 8822SOL     OW38101   0.197   2.007   2.770 -0.0327  0.2558 -0.2592
 8822SOL    HW138102   0.195   1.924   2.722  0.2131 -0.8553  1.6644
 8822SOL    HW238103   0.118   2.048   2.734  0.3657  0.4978 -0.8579
 8823SOL     OW38104   3.349   3.863   2.424 -0.5102 -0.2990  0.1372
 8823SOL    HW138105   3.269   3.916   2.421  0.2820  0.9434  1.1686
 8823SOL    HW238106   3.410   3.928   2.456 -0.7926  0.4260 -0.7760
 8824SOL     OW38107   3.295   1.592   7.289  0.0222 -0.2021  0.1667
 8824SOL    HW138108   3.359   1.618   7.355 -0.4436  1.6344 -0.0965
 8824SOL    HW238109   3.291   1.665   7.227 -1.3820  0.9797  1.6616
 8825SOL     OW38110   3.498   3.741   6.571 -0.2360  0.2579 -0.2211
 8825SOL    HW138111   3.589   3.716   6.556  0.2092  2.1118 -0.5459
 8825SOL    HW238112   3.482   3.697   6.655  3.2039 -1.6664 -0.5557
 8826SOL     OW38113   4.100   4.190   3.122  0.4457 -0.9043  0.0724
 8826SOL    HW138114   4.038   4.167   3.053 -1.0007 -2.4332  1.8817
 8826SOL    HW238115   4.190   4.186   3.088  0.6321 -1.8906  0.6961
 8827SOL     OW38116   3.660   3.164   3.181  0.0762  0.1138  0.0362
 8827SOL    HW138117   3.636   3.228   3.248  1.0420  1.3771 -0.8238
 8827SOL    HW238118   3.593   3.096   3.185  0.3983 -0.3011 -1.3754
 8828SOL     OW38119   3.754   3.845   9.148 -0.1111  0.1653  0.6284
 8828SOL    HW138120   3.687   3.793   9.192 -0.4577 -1.2278 -1.5270
 8828SOL    HW238121   3.690   3.904   9.108 -1.1671 -0.9272  0.7105
 8829SOL     OW38122   2.595   0.499   2.193  0.5396  0.1221 -0.0511
 8829SOL    HW138123   2.598   0.411   2.154 -2.8492  0.9701 -2.2110
 8829SOL    HW238124   2.664   0.543   2.143 -0.3063  3.1695  1.4828
 8830SOL     OW38125   1.949   1.461   7.487  0.0493  0.5172  0.0067
 8830SOL    HW138126   1.860   1.428   7.474 -0.7035  2.6318 -0.0402
 8830SOL    HW238127   1.992   1.376   7.497 -0.8924 -0.2382 -2.3374
 8831SOL     OW38128   2.388   2.060  14.073  0.0030 -0.8014  0.4408
 8831SOL    HW138129   2.454   2.101  14.017 -0.9901 -0.3189 -0.3724
 8831SOL    HW238130   2.409   1.966  14.069 -1.5665 -1.2532  2.5190
 8832SOL     OW38131   3.732   1.348   7.990 -0.2169  0.4339 -0.6341
 8832SOL    HW138132   3.649   1.303   8.005  1.0896 -1.9387 -0.6695
 8832SOL    HW238133   3.781   1.269   7.968 -0.7167  0.4976 -1.9859
 8833SOL     OW38134   3.707   4.072   2.409  0.5269  0.1313  0.3775
 8833SOL    HW138135   3.720   4.087   2.503 -1.3282  1.6604  0.3916
 8833SOL    HW238136   3.660   4.149   2.378 -0.0050  0.7488  2.7214
 8834SOL     OW38137   2.424   1.151   7.801 -0.5949 -0.2494  0.1365
 8834SOL    HW138138   2.349   1.209   7.790  0.2621  0.9907  0.8044
 8834SOL    HW238139   2.472   1.153   7.718 -1.1775  0.4264 -0.1867
 8835SOL     OW38140   3.919   4.329   2.792 -0.3343 -0.4461 -0.1386
 8835SOL    HW138141   3.990   4.269   2.813 -2.6647 -1.6833  4.0884
 8835SOL    HW238142   3.943   4.340   2.700 -0.9488 -0.1197 -0.2591
 8836SOL     OW38143   0.085   4.457   3.766 -0.3444  0.8185  0.1053
 8836SOL    HW138144   0.110   4.545   3.736  0.7555  0.2695 -0.6145
 8836SOL    HW238145   0.054   4.479   3.853 -2.8270 -2.1010 -0.0481
 8837SOL     OW38146   3.998   0.257   1.871  0.7224 -0.3734  0.4646
 8837SOL    HW138147   3.940   0.227   1.801  0.0972 -1.6814  1.5099
 8837SOL    HW238148   4.062   0.307   1.820 -1.0669  0.0348 -1.3694
 8838SOL     OW38149   3.740   3.792   5.190  0.4559 -0.4530  0.2590
 8838SOL    HW138150   3.677   3.753   5.129  0.5704 -1.4485  0.7805
 8838SOL    HW238151   3.685   3.864   5.220  0.2788 -1.4433  2.3140
 8839SOL     OW38152   0.290   0.089   8.710 -0.3445  0.4730 -0.3216
 8839SOL    HW138153   0.309   0.100   8.617 -1.1625  1.3026 -0.3930
 8839SOL    HW238154   0.340   0.009   8.729 -0.4556  0.4208 -0.2510
 8840SOL     OW38155   2.212   2.179   6.446  0.6101 -0.1823 -0.3178
 8840SOL    HW138156   2.271   2.108   6.421  0.6420  0.0057 -0.7827
 8840SOL    HW238157   2.234   2.253   6.389  0.1107  1.4858  1.6302
 8841SOL     OW38158   3.189   1.077  10.341 -0.3900  0.0877  0.3374
 8841SOL    HW138159   3.125   1.144  10.363  0.0359 -0.2056  2.4469
 8841SOL    HW238160   3.180   1.013  10.411  0.5842  0.0820  0.4642
 8842SOL     OW38161   0.543   2.494   3.916  0.2524 -0.5639 -0.0619
 8842SOL    HW138162   0.500   2.410   3.928  0.2705 -0.7400 -1.2969
 8842SOL    HW238163   0.578   2.504   4.005 -1.0072  0.2065  0.3359
 8843SOL     OW38164   2.712   4.170   7.455  0.7518 -0.3063  0.5359
 8843SOL    HW138165   2.703   4.250   7.507 -1.4849 -1.5192  1.9888
 8843SOL    HW238166   2.786   4.198   7.401 -1.8310 -1.9137 -3.9155
 8844SOL     OW38167   2.977   1.248  10.345  0.2578 -0.0875  0.2171
 8844SOL    HW138168   2.937   1.193  10.413 -0.6119  1.8341  1.2693
 8844SOL    HW238169   2.906   1.310  10.329  0.4817  0.2610  0.5589
 8845SOL     OW38170   3.904   0.752   2.293  0.3591 -0.1996 -0.3907
 8845SOL    HW138171   3.841   0.784   2.228  0.0244 -0.9570 -0.4357
 8845SOL    HW238172   3.948   0.828   2.331 -0.4712  0.2679 -0.3523
 8846SOL     OW38173   1.097   3.220   5.550  0.2696 -0.7394  0.0394
 8846SOL    HW138174   1.092   3.314   5.567  1.7169 -1.0769  2.2892
 8846SOL    HW238175   1.191   3.206   5.560  0.2605  0.6113  1.8561
 8847SOL     OW38176   3.190   2.438  15.035 -0.9285 -0.4407  0.3502
 8847SOL    HW138177   3.224   2.505  15.094  0.2886  1.6412 -2.6750
 8847SOL    HW238178   3.199   2.362  15.092 -0.8464 -1.0756 -0.5076
 8848SOL     OW38179   0.364   2.482  11.705  0.0667 -0.6133  0.0885
 8848SOL    HW138180   0.348   2.390  11.727  1.0038 -0.9402 -0.6286
 8848SOL    HW238181   0.429   2.516  11.767  0.4049 -2.8458  0.9798
 8849SOL     OW38182   4.186   0.287  17.230 -0.6143 -0.1806 -0.2557
 8849SOL    HW138183   4.255   0.328  17.281 -0.7774 -0.0098 -0.1705
 8849SOL    HW238184   4.187   0.343  17.152  0.5090 -0.1414 -0.2116
 8850SOL     OW38185   4.113   4.085   0.005  0.4835  0.6199 -0.3625
 8850SOL    HW138186   4.078   4.159   0.053 -1.1709  0.0848 -0.7343
 8850SOL    HW238187   4.111   4.018   0.073  0.5772  1.1283  0.1360
 8851SOL     OW38188   2.255   0.745   9.063 -0.3571 -0.2177  0.3436
 8851SOL    HW138189   2.325   0.755   8.999 -0.2536 -0.8805  0.3547
 8851SOL    HW238190   2.176   0.720   9.016 -1.0682  1.7821  0.4772
 8852SOL     OW38191   1.067   0.798   2.895 -0.4288 -0.5472  0.0651
 8852SOL    HW138192   1.149   0.782   2.848 -1.4608 -1.3402 -1.4569
 8852SOL    HW238193   1.045   0.718   2.943 -2.0938 -0.5291 -0.6622
 8853SOL     OW38194   4.289   4.574   4.401 -0.2355 -0.1423  0.0833
 8853SOL    HW138195   4.234   4.541   4.472  0.7862  1.7899  1.7676
 8853SOL    HW238196   4.374   4.560   4.442  0.7574 -2.6648 -2.8190
 8854SOL     OW38197   4.177   1.653  16.512 -0.3606 -0.0171 -0.6577
 8854SOL    HW138198   4.212   1.715  16.448 -1.6957  0.4124 -0.9909
 8854SOL    HW238199   4.082   1.668  16.516 -0.0996  0.9372  1.7582
 8855SOL     OW38200   1.334   4.541  12.443  0.0052  0.8752 -0.1866
 8855SOL    HW138201   1.344   4.576  12.532  2.5935 -2.9401  1.0229
 8855SOL    HW238202   1.286   4.461  12.466 -0.4937  1.2106 -0.0446
 8856SOL     OW38203   3.661   2.226   7.796  0.1417 -0.0938 -0.4573
 8856SOL    HW138204   3.730   2.212   7.731  1.8789  0.8421  1.2342
 8856SOL    HW238205   3.588   2.245   7.736 -0.1829 -0.5544 -0.2110
 8857SOL     OW38206   1.094   2.098  15.714  0.3739  0.2695  0.7151
 8857SOL    HW138207   1.171   2.065  15.667 -0.7950  0.2422 -1.1699
 8857SOL    HW238208   1.100   2.191  15.690 -0.8818  0.8756  2.8202
 8858SOL     OW38209   3.228   0.078   9.450 -0.7854  0.1823  0.0723
 8858SOL    HW138210   3.142   0.119   9.446 -0.6812  0.5510  1.5933
 8858SOL    HW238211   3.271   0.151   9.495 -1.6701 -1.2712  3.2112
 8859SOL     OW38212   1.683   3.500   2.216  0.0314 -0.0479 -0.0094
 8859SOL    HW138213   1.643   3.586   2.203  0.6136 -0.0957 -2.0937
 8859SOL    HW238214   1.744   3.512   2.289  1.1753  2.1240 -1.3255
 8860SOL     OW38215   4.265   0.975  11.067  0.0283  0.4461  0.1030
 8860SOL    HW138216   4.201   0.931  11.122  0.7098  1.0739  1.3749
 8860SOL    HW238217   4.215   1.039  11.015  0.9405  2.0697  1.2200
 8861SOL     OW38218   1.965   2.136   6.001  0.2940  0.7668  0.0353
 8861SOL    HW138219   2.055   2.168   6.007  1.0151 -0.9885 -1.2945
 8861SOL    HW238220   1.951   2.120   5.907 -0.9988 -2.3852  0.7487
 8862SOL     OW38221   2.974   2.955   7.048 -0.6926  0.8107  0.3494
 8862SOL    HW138222   3.054   3.007   7.047  1.4099 -2.5339 -1.6495
 8862SOL    HW238223   3.006   2.876   7.005 -2.0093 -0.4095  1.6072
 8863SOL     OW38224   2.656   3.908   8.822 -0.0525  0.6159 -0.2219
 8863SOL    HW138225   2.568   3.940   8.842 -1.6344 -2.4587 -2.2873
 8863SOL    HW238226   2.695   3.993   8.839  0.0086  0.5811 -0.1881
 8864SOL     OW38227   1.313   1.763   4.887 -0.1241 -0.2103  0.2694
 8864SOL    HW138228   1.343   1.848   4.919  0.5484 -0.6138  0.7268
 8864SOL    HW238229   1.360   1.757   4.804 -1.4069 -2.2239 -0.3303
 8865SOL     OW38230   1.886   4.193  14.466 -0.5276  0.3345  0.3580
 8865SOL    HW138231   1.960   4.153  14.420  0.7052  1.2010  1.5836
 8865SOL    HW238232   1.875   4.285  14.442 -0.2051 -0.9489 -4.6133
 8866SOL     OW38233   1.698   1.403   4.042  0.2370  0.1236  0.1746
 8866SOL    HW138234   1.747   1.442   3.970 -1.1093  0.7412 -0.4050
 8866SOL    HW238235   1.639   1.343   3.996  0.0861  1.2401 -1.0956
 8867SOL     OW38236   0.613   1.720   8.752  0.3784 -0.5718 -0.2158
 8867SOL    HW138237   0.550   1.791   8.750  1.3071  0.2757  0.9095
 8867SOL    HW238238   0.593   1.679   8.836  0.0250  0.0438 -0.0020
 8868SOL     OW38239   2.260   2.416   8.923 -0.3091  0.2997  0.1329
 8868SOL    HW138240   2.330   2.352   8.937 -1.1124 -0.5091  0.4163
 8868SOL    HW238241   2.190   2.360   8.891 -0.3861  1.3161 -1.4589
 8869SOL     OW38242   3.490   1.580   7.663  0.0718 -0.4687  0.3949
 8869SOL    HW138243   3.476   1.524   7.739  0.2568 -0.0121  0.7686
 8869SOL    HW238244   3.486   1.663   7.711 -0.0384 -0.0723 -0.2880
 8870SOL     OW38245   0.065   1.049   8.871  0.6800  0.0680 -0.0354
 8870SOL    HW138246   4.719   1.009   8.855  0.7573 -0.5576  1.1241
 8870SOL    HW238247   0.048   1.141   8.888  0.8127  0.4476 -1.9511
 8871SOL     OW38248   4.304   0.351   0.543  0.3965  0.1017 -0.0952
 8871SOL    HW138249   4.293   0.264   0.582 -2.0248  0.2111 -0.5083
 8871SOL    HW238250   4.340   0.326   0.458 -0.4527 -0.0330 -0.4212
 8872SOL     OW38251   4.503   3.771   9.118 -0.6510 -0.0576  0.4195
 8872SOL    HW138252   4.506   3.700   9.183 -1.0467 -1.3927 -1.0066
 8872SOL    HW238253   4.512   3.849   9.173 -0.3557  0.8062 -0.8729
 8873SOL     OW38254   0.473   1.660  15.617 -0.3769 -0.0933  0.2026
 8873SOL    HW138255   0.409   1.594  15.588  2.0964 -2.1881 -0.4987
 8873SOL    HW238256   0.421   1.687  15.693 -4.3430 -1.3087 -2.0814
 8874SOL     OW38257   0.090   3.968   1.558  0.0458 -0.4814  0.1986
 8874SOL    HW138258   0.017   4.026   1.583 -0.1466 -1.3381  1.6584
 8874SOL    HW238259   0.096   3.900   1.625 -1.6038  0.3075  1.1837
 8875SOL     OW38260   0.332   4.004   8.433 -0.1710  0.0539 -0.1548
 8875SOL    HW138261   0.377   3.922   8.412  1.4473  0.4127  1.8481
 8875SOL    HW238262   0.258   3.991   8.374  0.3768 -0.0265 -0.8229
 8876SOL     OW38263   2.147   4.053   4.744 -0.0800  0.3314  0.1602
 8876SOL    HW138264   2.102   3.969   4.742  1.9787 -0.7072 -2.0359
 8876SOL    HW238265   2.156   4.081   4.835  1.2592  0.6448 -0.0728
 8877SOL     OW38266   1.345   2.627   0.685 -0.1503  0.0805  0.1551
 8877SOL    HW138267   1.394   2.688   0.630  1.0327  0.3086  1.4717
 8877SOL    HW238268   1.377   2.542   0.653  1.9537  0.2210  1.8739
 8878SOL     OW38269   4.381   3.278   1.287  0.0591  0.5236  0.7975
 8878SOL    HW138270   4.443   3.220   1.245 -0.2880  1.0887 -0.4932
 8878SOL    HW238271   4.350   3.332   1.214  0.1086 -0.9073 -0.2591
 8879SOL     OW38272   3.643   1.956   6.669  0.2425 -0.1831 -0.4784
 8879SOL    HW138273   3.731   1.926   6.646  0.4124 -0.0460 -0.0155
 8879SOL    HW238274   3.643   2.044   6.632  1.5998  0.9632  2.1483
 8880SOL     OW38275   0.352   0.241   4.116 -0.2202 -0.0734 -0.0142
 8880SOL    HW138276   0.287   0.177   4.088  2.6525 -1.5647 -3.1651
 8880SOL    HW238277   0.291   0.315   4.127  0.1381  0.2920 -0.5076
 8881SOL     OW38278   1.547   2.085  11.553 -0.1137  0.0441 -0.4688
 8881SOL    HW138279   1.518   2.003  11.513 -0.1565 -1.2446  2.1782
 8881SOL    HW238280   1.489   2.151  11.515 -1.5939 -0.1207  1.4694
 8882SOL     OW38281   0.314   3.945   0.557  0.0356 -0.3708  0.6623
 8882SOL    HW138282   0.340   4.027   0.515  0.0888  0.4692  2.3363
 8882SOL    HW238283   0.318   3.959   0.652 -2.0237  0.6502  0.6028
 8883SOL     OW38284   2.913   3.112   5.882 -0.1743  0.3854  0.3869
 8883SOL    HW138285   2.901   3.181   5.816  0.0188 -1.5877 -1.7203
 8883SOL    HW238286   2.984   3.060   5.844  0.6207  3.1123 -1.8874
 8884SOL     OW38287   2.706   2.163   0.987 -0.5690  0.0729  0.4097
 8884SOL    HW138288   2.746   2.138   0.904 -2.0343  0.1914 -0.3324
 8884SOL    HW238289   2.638   2.097   0.998 -1.4146  0.6522 -1.4379
 8885SOL     OW38290   4.154   1.689   9.215  0.3379  0.8890  0.0810
 8885SOL    HW138291   4.065   1.655   9.221  0.4144  0.4263 -1.3245
 8885SOL    HW238292   4.146   1.751   9.142 -1.8316  0.6339  0.1198
 8886SOL     OW38293   4.212   4.316  16.446  0.6584 -0.4905  0.2121
 8886SOL    HW138294   4.223   4.318  16.541  2.2435 -1.3116  0.0365
 8886SOL    HW238295   4.260   4.390  16.409 -1.2069  1.1313  1.0357
 8887SOL     OW38296   3.999   1.984   6.817  0.0556 -0.0038 -0.4142
 8887SOL    HW138297   4.069   1.919   6.810  2.5494  2.6478 -0.2604
 8887SOL    HW238298   3.925   1.932   6.786 -0.6074  0.4850  0.3318
 8888SOL     OW38299   4.668   4.006   5.268  0.2160  0.1889 -0.4407
 8888SOL    HW138300   4.708   3.965   5.192 -1.1216 -1.8439 -0.0360
 8888SOL    HW238301   4.736   3.970   5.325 -1.6287  3.1442  3.6734
 8889SOL     OW38302   2.533   2.356  11.405  0.5208  0.0320 -0.3352
 8889SOL    HW138303   2.574   2.365  11.491  0.6085  0.6049 -0.4359
 8889SOL    HW238304   2.462   2.298  11.429  0.4764 -0.0231 -0.5939
 8890SOL     OW38305   1.379   0.773   7.948 -0.0011  0.3408 -1.1061
 8890SOL    HW138306   1.413   0.861   7.963 -2.1914  1.0620 -0.3534
 8890SOL    HW238307   1.292   0.794   7.914 -2.4759  0.1124  5.0095
 8891SOL     OW38308   2.783   4.239   6.879 -0.2084  1.4505 -0.0502
 8891SOL    HW138309   2.816   4.288   6.954  1.6416  2.2896 -1.4326
 8891SOL    HW238310   2.821   4.153   6.896 -2.5472  0.0823 -1.6944
 8892SOL     OW38311   1.084   3.399   5.036  0.2315 -0.4143 -0.3845
 8892SOL    HW138312   1.170   3.378   5.072 -0.0169  0.4583  0.6895
 8892SOL    HW238313   1.029   3.345   5.092  1.2036 -2.6104 -1.5315
 8893SOL     OW38314   1.743   1.611   8.504  0.1878 -0.3640 -0.1924
 8893SOL    HW138315   1.808   1.681   8.511 -2.5005  2.0698  0.3416
 8893SOL    HW238316   1.682   1.639   8.436 -0.5351 -3.1639 -0.6748
 8894SOL     OW38317   1.998   4.021  17.523  0.0407  0.4160 -0.3919
 8894SOL    HW138318   1.908   3.993  17.510 -0.1582  2.2185 -2.8880
 8894SOL    HW238319   2.004   4.020  17.619  1.8191  0.7148 -0.4986
 8895SOL     OW38320   2.870   3.302  15.988  0.2246 -0.3171  0.8557
 8895SOL    HW138321   2.887   3.212  16.016  1.2562  0.4709  2.7926
 8895SOL    HW238322   2.776   3.297  15.972  0.2979  0.5058  0.2223
 8896SOL     OW38323   4.617   2.028  13.672 -0.0090 -0.0774 -0.4796
 8896SOL    HW138324   4.688   2.061  13.616  0.2434 -0.7578 -0.5691
 8896SOL    HW238325   4.618   1.936  13.647  1.2988 -0.1090 -0.3016
 8897SOL     OW38326   1.670   2.040   7.884  0.0037  0.2786 -0.0100
 8897SOL    HW138327   1.680   2.080   7.797 -2.4533  0.1131 -0.3694
 8897SOL    HW238328   1.714   2.099   7.944  2.6944 -0.8720 -0.8510
 8898SOL     OW38329   3.114   2.981  11.044  1.0196  0.0634 -0.0327
 8898SOL    HW138330   3.040   2.949  10.991 -0.5504  0.5918  1.8516
 8898SOL    HW238331   3.154   3.050  10.990  0.4426  2.0873  2.1274
 8899SOL     OW38332   4.728   0.115   3.924  0.1842 -0.3368 -0.3452
 8899SOL    HW138333   4.732   0.168   3.844  0.4941  0.2549  0.0657
 8899SOL    HW238334   4.634   0.118   3.944  0.5034  0.7959  0.9228
 8900SOL     OW38335   0.906   3.150   6.820 -0.3625  0.1541 -0.0172
 8900SOL    HW138336   0.866   3.195   6.894 -0.3588 -0.6360  0.4748
 8900SOL    HW238337   0.828   3.107   6.784 -1.4875  0.7612  1.6946
 8901SOL     OW38338   3.848   2.773   2.220 -0.2268 -0.0984  0.2405
 8901SOL    HW138339   3.910   2.701   2.212  0.5724  0.3089  2.5532
 8901SOL    HW238340   3.902   2.825   2.280  2.0896  0.8891 -2.7346
 8902SOL     OW38341   0.051   1.811   3.881 -0.5357  0.6699 -0.1955
 8902SOL    HW138342   4.701   1.846   3.887 -0.6612  0.5939 -1.5468
 8902SOL    HW238343   0.089   1.862   3.953 -0.8974 -0.9609  1.1366
 8903SOL     OW38344   3.768   3.709   6.447  0.1744  0.3866 -0.6424
 8903SOL    HW138345   3.752   3.802   6.466  1.9366  0.7969 -1.1991
 8903SOL    HW238346   3.862   3.717   6.432  0.3036 -2.6804 -1.4166
 8904SOL     OW38347   1.355   3.855   6.109  0.4708 -0.0883 -0.7258
 8904SOL    HW138348   1.407   3.931   6.083  0.5694  0.4212  0.9576
 8904SOL    HW238349   1.351   3.810   6.025  0.7242 -1.2096 -0.1404
 8905SOL     OW38350   3.970   4.482   8.778  0.5290 -0.3993  0.0827
 8905SOL    HW138351   3.986   4.484   8.872 -0.9934 -0.3577  0.3333
 8905SOL    HW238352   3.875   4.497   8.783  0.6429  1.1242 -1.9412
 8906SOL     OW38353   4.072   1.428  12.749  0.3064 -0.4216 -0.1537
 8906SOL    HW138354   4.036   1.382  12.673 -1.3350 -0.1599  0.4645
 8906SOL    HW238355   4.101   1.359  12.808  0.4612  0.7411  1.1244
 8907SOL     OW38356   3.637   1.944   3.150 -0.1945  0.0862 -0.8098
 8907SOL    HW138357   3.544   1.946   3.128 -0.4593 -1.1124  0.1858
 8907SOL    HW238358   3.643   1.867   3.207 -1.1231 -0.8415 -1.9790
 8908SOL     OW38359   0.988   1.968   7.775  1.0008 -0.2825 -0.3073
 8908SOL    HW138360   0.982   1.884   7.729 -1.4760  0.3063 -1.0690
 8908SOL    HW238361   1.079   1.980   7.800  1.3780  0.9874 -2.2880
 8909SOL     OW38362   1.186   1.200   5.583  0.1132 -0.0119  0.4465
 8909SOL    HW138363   1.115   1.149   5.622 -0.3533  0.9433  0.8307
 8909SOL    HW238364   1.226   1.237   5.662 -0.5753  1.4496  0.1115
 8910SOL     OW38365   1.454   0.046  11.747  0.1119 -0.4271  0.6372
 8910SOL    HW138366   1.418   0.114  11.804 -2.4621 -1.0898 -0.1723
 8910SOL    HW238367   1.531   0.022  11.797  0.6826  0.7147  0.3197
 8911SOL     OW38368   3.710   0.994   8.042  0.5657 -0.2975  0.2504
 8911SOL    HW138369   3.641   0.964   7.983 -0.2551 -2.1650  2.1660
 8911SOL    HW238370   3.765   1.057   7.995 -0.7832  1.6883  1.3427
 8912SOL     OW38371   1.363   0.229   9.079 -0.2559 -0.4702  0.6020
 8912SOL    HW138372   1.330   0.145   9.046  1.9844 -0.3937 -1.8422
 8912SOL    HW238373   1.284   0.280   9.099 -0.4425 -1.3129  2.0193
 8913SOL     OW38374   4.163   3.132   4.620 -0.9042 -0.1235 -0.4385
 8913SOL    HW138375   4.083   3.168   4.659 -2.5329 -2.7771 -1.2726
 8913SOL    HW238376   4.225   3.191   4.663 -0.9450 -0.0403 -0.4953
 8914SOL     OW38377   0.216   0.747   6.328  0.0052 -0.3380  0.4054
 8914SOL    HW138378   0.301   0.711   6.302  0.9387  1.2801  1.1935
 8914SOL    HW238379   0.234   0.791   6.411 -0.9448  0.5826  0.1221
 8915SOL     OW38380   3.749   4.582  17.392 -0.0211 -0.1036 -0.4025
 8915SOL    HW138381   3.783   4.630  17.316 -1.2979  0.3609 -0.6864
 8915SOL    HW238382   3.671   4.543  17.352 -1.3155 -1.1779  3.2275
 8916SOL     OW38383   2.674   1.484   2.792  0.2959  0.4907  0.8925
 8916SOL    HW138384   2.608   1.520   2.732  2.1011 -0.8194 -1.8623
 8916SOL    HW238385   2.750   1.542   2.798  1.2598 -0.8114  1.2850
 8917SOL     OW38386   0.660   4.298   4.830  0.5069  0.4294  0.1462
 8917SOL    HW138387   0.740   4.278   4.780  0.8382  1.7465  0.1411
 8917SOL    HW238388   0.597   4.255   4.772  0.4192  0.6026  0.1149
 8918SOL     OW38389   2.933   4.696   0.401 -0.1051 -0.2085  0.3253
 8918SOL    HW138390   2.938   4.680   0.307 -1.9381 -0.2075  0.2206
 8918SOL    HW238391   2.884   4.619   0.430 -1.7512  0.4844 -0.6221
 8919SOL     OW38392   4.124   2.895   5.121  0.1313 -0.2897  0.3306
 8919SOL    HW138393   4.106   2.982   5.159 -1.0759 -1.2401  1.9329
 8919SOL    HW238394   4.078   2.834   5.179  1.7144 -0.7770  1.0783
 8920SOL     OW38395   4.647   0.150  15.235  1.1899 -0.2299  0.1185
 8920SOL    HW138396   4.584   0.152  15.163  0.4979 -2.0616  0.6632
 8920SOL    HW238397   4.650   0.060  15.269  0.2795 -0.7859 -1.2315
 8921SOL     OW38398   4.193   2.753   2.149 -0.8060 -0.4653 -0.3260
 8921SOL    HW138399   4.276   2.796   2.129 -0.8952  0.2082  0.8028
 8921SOL    HW238400   4.182   2.694   2.074  0.2990 -2.2287  0.8983
 8922SOL     OW38401   1.393   1.056   7.860  0.4033 -0.5016 -0.3189
 8922SOL    HW138402   1.481   1.032   7.831  0.2518  0.1093 -1.2863
 8922SOL    HW238403   1.344   1.005   7.796 -0.8987  1.2855 -0.7382
 8923SOL     OW38404   1.981   2.314   0.604 -0.0244 -0.2046  0.1435
 8923SOL    HW138405   1.964   2.276   0.691 -3.3771  0.2455 -0.3054
 8923SOL    HW238406   2.014   2.241   0.553 -0.4278 -1.3908  1.5703
 8924SOL     OW38407   2.645   1.467  17.333  0.3443 -0.1933 -0.3671
 8924SOL    HW138408   2.719   1.511  17.289  0.0195  0.8785  0.1488
 8924SOL    HW238409   2.678   1.471  17.422 -0.7007 -1.8279  0.0847
 8925SOL     OW38410   3.769   0.582   8.475  0.6414  0.1958 -0.3048
 8925SOL    HW138411   3.783   0.532   8.395 -0.7129  0.8715 -0.9666
 8925SOL    HW238412   3.712   0.653   8.447 -2.8189 -2.1490  0.7792
 8926SOL     OW38413   1.009   3.456   3.591 -0.1534 -0.2684 -0.0830
 8926SOL    HW138414   0.935   3.485   3.537  0.9798  0.4975 -1.2092
 8926SOL    HW238415   0.993   3.362   3.579 -0.9430 -0.4895  2.7893
 8927SOL     OW38416   4.430   1.130   7.108 -0.1100 -0.3174  0.0301
 8927SOL    HW138417   4.390   1.163   7.027 -0.9874  0.1825  0.6585
 8927SOL    HW238418   4.507   1.088   7.071 -1.4067 -2.5759 -0.1192
 8928SOL     OW38419   3.212   4.275   0.332  0.1903 -0.1832  0.0052
 8928SOL    HW138420   3.158   4.222   0.274  1.6848  0.6161 -2.1493
 8928SOL    HW238421   3.226   4.211   0.401  0.4389 -0.6445 -0.4712
 8929SOL     OW38422   0.416   4.698  11.872  0.3452 -0.2125 -0.3767
 8929SOL    HW138423   0.384   0.013  11.945  1.8755  0.2743 -0.0579
 8929SOL    HW238424   0.435   0.029  11.809  0.9400  1.4814  1.6615
 8930SOL     OW38425   3.068   3.827   0.671  0.0669 -0.3253 -0.0771
 8930SOL    HW138426   3.054   3.785   0.587 -0.0326 -0.0631 -0.1905
 8930SOL    HW238427   2.988   3.803   0.717 -0.6082  3.0932  0.5777
 8931SOL     OW38428   2.142   2.848   3.260 -0.2927  0.1950 -0.1014
 8931SOL    HW138429   2.100   2.934   3.260  0.3808  0.5252  0.3303
 8931SOL    HW238430   2.074   2.781   3.261  1.2727 -1.4123  0.0777
 8932SOL     OW38431   2.273   0.840   8.348  0.2669  0.0075 -0.2650
 8932SOL    HW138432   2.271   0.746   8.364 -2.4764  0.0864 -0.1682
 8932SOL    HW238433   2.211   0.877   8.411 -1.0372 -0.2425 -1.3904
 8933SOL     OW38434   0.303   0.314   2.173 -0.3070  0.4284 -0.5588
 8933SOL    HW138435   0.305   0.256   2.249 -0.5318 -0.6283 -1.3571
 8933SOL    HW238436   0.224   0.287   2.127 -0.5347  0.1595 -0.0104
 8934SOL     OW38437   3.187   2.961   9.489  0.1053  0.0551  0.0087
 8934SOL    HW138438   3.204   2.989   9.579 -1.5969  2.3715 -0.3801
 8934SOL    HW238439   3.170   3.048   9.452  0.5012  0.3372  0.4876
 8935SOL     OW38440   2.234   4.699   7.834 -0.2948 -0.0895 -0.3016
 8935SOL    HW138441   2.223   4.716   7.740 -1.1757  0.1633 -0.1510
 8935SOL    HW238442   2.144   4.682   7.864 -0.8129 -0.0845 -1.8470
 8936SOL     OW38443   3.280   0.076   4.996 -0.5143 -0.4749 -0.6612
 8936SOL    HW138444   3.212   0.107   5.055 -0.9334 -2.8612  0.0781
 8936SOL    HW238445   3.252   0.118   4.915  1.8695  0.5286 -0.9797
 8937SOL     OW38446   1.935   1.136   0.005  0.7197 -0.1165  0.0319
 8937SOL    HW138447   2.014   1.191   0.009  0.5458  0.0926  0.5897
 8937SOL    HW238448   1.875   1.193  17.710  2.5693  1.5564 -0.2870
 8938SOL     OW38449   2.343   4.730   6.526  0.0824 -0.1334  0.6795
 8938SOL    HW138450   2.343   4.634   6.523  0.6783 -0.1157  0.2043
 8938SOL    HW238451   2.268   0.006   6.583 -1.3281 -1.1584 -0.9190
 8939SOL     OW38452   0.970   3.155  11.452 -0.2783  0.4832  0.1422
 8939SOL    HW138453   0.954   3.227  11.512 -1.9223 -0.1818  0.4928
 8939SOL    HW238454   0.945   3.075  11.499  1.2960  0.6800  1.3083
 8940SOL     OW38455   0.951   2.563   0.747  0.4535  0.3254 -0.3186
 8940SOL    HW138456   1.025   2.585   0.803 -0.0665 -0.0529  0.5260
 8940SOL    HW238457   0.901   2.642   0.770  1.3651  0.5491  0.9080
 8941SOL     OW38458   4.271   0.813  13.868  0.3298  0.4475  0.5763
 8941SOL    HW138459   4.354   0.778  13.835  1.3774  2.7822  0.7583
 8941SOL    HW238460   4.212   0.748  13.828  0.3761  0.0632  1.1287
 8942SOL     OW38461   2.114   1.728   4.600  0.2942 -0.1312 -0.0119
 8942SOL    HW138462   2.101   1.813   4.557  1.2212 -0.6033 -1.2632
 8942SOL    HW238463   2.076   1.668   4.535  2.2594  0.1564 -1.4464
 8943SOL     OW38464   2.178   4.428   0.359 -0.0260 -0.4597 -0.0411
 8943SOL    HW138465   2.207   4.481   0.432  0.3627 -1.2053  0.3497
 8943SOL    HW238466   2.098   4.387   0.394  0.3402 -1.9090 -0.8875
 8944SOL     OW38467   1.421   1.763   4.618  0.1117 -0.1446 -0.0056
 8944SOL    HW138468   1.516   1.755   4.608  0.1061 -0.0953 -0.1006
 8944SOL    HW238469   1.396   1.828   4.552  0.1210 -0.8891 -0.7418
 8945SOL     OW38470   0.705   1.833   3.957 -0.5274 -0.0935 -0.3560
 8945SOL    HW138471   0.771   1.899   3.936 -2.1676  1.6343 -0.0155
 8945SOL    HW238472   0.624   1.871   3.922 -0.9923  0.3394  1.1545
 8946SOL     OW38473   1.227   3.369   3.346 -0.1752 -0.5024 -0.3856
 8946SOL    HW138474   1.180   3.307   3.402  2.5835 -0.6625  1.7657
 8946SOL    HW238475   1.162   3.381   3.278 -1.0803  0.4168  0.6443
 8947SOL     OW38476   4.241   0.458   3.310 -0.2815 -0.7894  0.0697
 8947SOL    HW138477   4.232   0.363   3.310 -2.2465 -0.5973  1.1812
 8947SOL    HW238478   4.151   0.478   3.285 -0.9636 -3.9133  0.0136
 8948SOL     OW38479   1.927   2.446   3.147  0.2512 -0.0976  0.1898
 8948SOL    HW138480   2.011   2.453   3.100 -0.2856 -0.3947 -0.8058
 8948SOL    HW238481   1.885   2.373   3.101  1.2464  0.1147 -1.0570
 8949SOL     OW38482   2.952   4.287   7.357 -0.5547 -0.3065 -0.2833
 8949SOL    HW138483   2.932   4.344   7.283  2.4128 -1.6002 -2.1097
 8949SOL    HW238484   2.930   4.340   7.434  1.6865 -2.4442  1.8526
 8950SOL     OW38485   0.864   3.508   8.735 -0.2108 -0.3229  0.0992
 8950SOL    HW138486   0.940   3.561   8.759 -0.3862 -0.6557  1.4378
 8950SOL    HW238487   0.908   3.425   8.719  0.2238 -0.2804  1.0371
 8951SOL     OW38488   3.465   1.470   1.691  0.0719 -0.0823  0.1504
 8951SOL    HW138489   3.547   1.421   1.698  0.3597  0.2294 -1.0359
 8951SOL    HW238490   3.461   1.510   1.777  4.7357  1.2295 -0.2848
 8952SOL     OW38491   4.632   3.965   8.931  0.2565  0.0864 -0.4079
 8952SOL    HW138492   4.573   4.038   8.947 -1.7087 -1.0693 -2.3355
 8952SOL    HW238493   4.615   3.901   9.000 -2.3499  0.8503 -0.3529
 8953SOL     OW38494   0.283   0.840   7.038 -0.4603 -0.1351  0.0356
 8953SOL    HW138495   0.314   0.900   6.972 -0.4949 -0.3951 -0.2178
 8953SOL    HW238496   0.239   0.901   7.097 -0.2631  0.3268 -0.2988
 8954SOL     OW38497   2.263   4.050  15.051  0.3480  0.2618 -0.2912
 8954SOL    HW138498   2.337   3.991  15.067 -1.4782 -2.1761 -0.8658
 8954SOL    HW238499   2.299   4.130  15.088 -1.2845  0.3331  1.1304
 8955SOL     OW38500   4.662   0.531   0.464 -0.0166 -0.9458  0.0154
 8955SOL    HW138501   4.656   0.626   0.479 -1.0794 -0.3054 -4.3273
 8955SOL    HW238502   0.002   0.517   0.516 -1.3749  0.4448  2.4272
 8956SOL     OW38503   4.702   3.272   7.549  0.0877 -0.3430 -0.1703
 8956SOL    HW138504   4.670   3.193   7.594  0.5386 -1.2206 -1.4084
 8956SOL    HW238505   4.679   3.245   7.460  0.0705 -2.1820  0.3869
 8957SOL     OW38506   1.106   1.834   6.016 -0.3092 -0.0391 -0.7200
 8957SOL    HW138507   1.023   1.879   6.030  1.6156  3.2033  0.2734
 8957SOL    HW238508   1.145   1.858   6.100  1.0737  2.1172 -1.9527
 8958SOL     OW38509   4.268   3.319  14.483 -0.2416  0.3429  0.2024
 8958SOL    HW138510   4.265   3.378  14.407 -1.0088  1.9569  1.4728
 8958SOL    HW238511   4.274   3.232  14.443  1.5093  0.3191  0.5252
 8959SOL     OW38512   3.445   2.613   3.207 -0.4610  0.0003 -0.2609
 8959SOL    HW138513   3.515   2.566   3.253  0.5962 -0.0540 -1.9178
 8959SOL    HW238514   3.491   2.697   3.206 -0.0176 -0.2463 -0.5669
 8960SOL     OW38515   0.910   3.926   2.696 -0.1008  0.0259  0.7609
 8960SOL    HW138516   0.881   3.852   2.749 -2.3280  1.7473  1.9542
 8960SOL    HW238517   0.999   3.930   2.729 -0.9214  1.9150  2.7342
 8961SOL     OW38518   0.098   3.724   9.543 -0.3336  0.0619  0.2302
 8961SOL    HW138519   0.007   3.701   9.560 -0.2975 -0.5719 -0.4003
 8961SOL    HW238520   0.088   3.804   9.491 -0.2466 -0.1206 -0.0686
 8962SOL     OW38521   3.973   1.011   2.016 -0.0456 -0.4173  0.4049
 8962SOL    HW138522   3.976   0.920   1.988 -0.1747 -0.2645 -0.1053
 8962SOL    HW238523   4.060   1.027   2.053 -0.1557 -1.9083  1.3236
 8963SOL     OW38524   3.528   1.211  12.181  0.1447  0.3869  0.0160
 8963SOL    HW138525   3.508   1.152  12.254  1.8870 -0.8790 -0.5212
 8963SOL    HW238526   3.444   1.214  12.135 -0.1995 -1.4954  0.5438
 8964SOL     OW38527   2.619   3.389   6.339 -0.9816  0.5596 -0.3598
 8964SOL    HW138528   2.661   3.475   6.337  1.6475 -0.6410  1.9736
 8964SOL    HW238529   2.553   3.402   6.271  0.3116  3.3753 -1.0995
 8965SOL     OW38530   3.256   3.474   2.196  0.0806 -0.4148  0.5667
 8965SOL    HW138531   3.313   3.491   2.121 -0.5307 -0.4635  0.0890
 8965SOL    HW238532   3.233   3.384   2.171 -0.8860  0.3672 -1.3391
 8966SOL     OW38533   2.832   0.042   3.386 -0.4075  0.0180 -0.7789
 8966SOL    HW138534   2.875   0.120   3.421 -0.8285  0.2838 -0.8549
 8966SOL    HW238535   2.902   4.719   3.408 -0.5369 -0.0684 -0.6119
 8967SOL     OW38536   3.873   1.248  11.819  0.1045 -0.2865 -0.0230
 8967SOL    HW138537   3.848   1.338  11.797  0.5885 -0.1458  0.0052
 8967SOL    HW238538   3.850   1.200  11.740 -0.6183  0.2892 -0.1663
 8968SOL     OW38539   0.992   3.667  15.087 -0.1500 -0.3942  0.2095
 8968SOL    HW138540   1.001   3.761  15.070  0.2002 -0.8139 -1.9344
 8968SOL    HW238541   0.967   3.639  14.999 -0.3082  1.8798 -0.4762
 8969SOL     OW38542   0.422   1.386   6.980  0.4703  0.4052  0.1514
 8969SOL    HW138543   0.331   1.412   6.968  0.5109  0.4759  0.0036
 8969SOL    HW238544   0.445   1.413   6.891  0.7119 -0.7762 -0.1353
 8970SOL     OW38545   3.902   0.981   6.057  0.0609  0.0057 -0.2866
 8970SOL    HW138546   3.910   1.073   6.033 -0.8321 -0.7526 -3.5090
 8970SOL    HW238547   3.913   0.930   5.977  1.4755  0.0387 -0.1098
 8971SOL     OW38548   2.124   1.052   3.072 -0.2916  0.3859  0.1079
 8971SOL    HW138549   2.170   0.977   3.035 -1.6062  0.3075 -1.3898
 8971SOL    HW238550   2.037   1.043   3.033  0.0119  0.2624 -0.5337
 8972SOL     OW38551   3.073   0.167  10.273 -0.1547 -0.0973 -0.6284
 8972SOL    HW138552   3.039   0.247  10.232  0.4300  0.8989  0.8186
 8972SOL    HW238553   3.070   0.194  10.364 -0.6785 -0.2570 -0.6012
 8973SOL     OW38554   1.263   2.162  13.045 -0.1769 -0.4125  0.1716
 8973SOL    HW138555   1.310   2.142  13.126  0.3038 -2.5015 -0.5998
 8973SOL    HW238556   1.340   2.189  12.996 -1.3210  1.2229 -0.6929
 8974SOL     OW38557   2.609   1.441   5.095 -0.3592 -0.2705  0.1892
 8974SOL    HW138558   2.636   1.381   5.165  2.0453  1.6326  0.9152
 8974SOL    HW238559   2.518   1.456   5.121 -0.0572 -1.0129  1.6646
 8975SOL     OW38560   1.358   4.373  13.801  0.2272  0.3452  0.5177
 8975SOL    HW138561   1.289   4.309  13.786  0.4208  0.2223  0.1506
 8975SOL    HW238562   1.327   4.439  13.862 -2.4242 -0.1902 -0.2668
 8976SOL     OW38563   3.023   4.150   1.865  0.3514 -0.1128 -0.7820
 8976SOL    HW138564   2.947   4.117   1.914  1.5302 -1.2349  0.2765
 8976SOL    HW238565   3.078   4.073   1.881 -1.2438 -1.4264 -1.5039
 8977SOL     OW38566   1.489   2.468   0.406 -0.3198 -0.0639 -0.3716
 8977SOL    HW138567   1.459   2.417   0.481 -0.1860  1.0351  0.4329
 8977SOL    HW238568   1.583   2.460   0.417 -0.0997  2.2555 -0.5679
 8978SOL     OW38569   3.396   0.197   7.659  0.0860 -0.1334 -0.2307
 8978SOL    HW138570   3.370   0.197   7.752 -1.1727  1.6810 -0.5876
 8978SOL    HW238571   3.414   0.287   7.635 -5.2935  1.3813  1.2627
 8979SOL     OW38572   3.623   4.131   4.970  0.6744 -0.1838  0.2359
 8979SOL    HW138573   3.688   4.157   5.035  0.5091  1.3499 -0.1957
 8979SOL    HW238574   3.624   4.209   4.913 -1.0882  1.6989  2.7637
 8980SOL     OW38575   2.965   0.474  17.654 -0.2345  0.6957  0.1801
 8980SOL    HW138576   3.036   0.499  17.713 -0.3913  4.4333 -1.2619
 8980SOL    HW238577   2.988   0.534  17.583 -0.0641 -1.5001 -1.6101
 8981SOL     OW38578   2.006   2.009   7.077 -0.4446 -0.0958  0.2543
 8981SOL    HW138579   2.005   2.097   7.037 -2.0388 -1.1865 -2.0880
 8981SOL    HW238580   2.037   1.948   7.010 -3.9751 -0.2092 -1.2692
 8982SOL     OW38581   3.115   1.869  16.896 -0.3289 -0.1359 -0.9221
 8982SOL    HW138582   3.143   1.854  16.986 -0.0298 -1.3179 -1.2072
 8982SOL    HW238583   3.026   1.834  16.905 -1.0674  2.0073 -0.0114
 8983SOL     OW38584   0.627   1.629  17.030 -0.1176  0.4677  0.7382
 8983SOL    HW138585   0.705   1.574  17.038  1.7465  3.2045  1.5255
 8983SOL    HW238586   0.665   1.716  17.030 -0.3218  0.5570  1.0503
 8984SOL     OW38587   0.756   0.505   2.145 -0.1463  0.2794  0.0756
 8984SOL    HW138588   0.670   0.476   2.115  0.3579  1.3271 -2.4187
 8984SOL    HW238589   0.769   0.583   2.091  0.6123  0.2835  0.2638
 8985SOL     OW38590   1.589   0.399   8.237  0.4517  0.3987  0.5844
 8985SOL    HW138591   1.605   0.480   8.286  1.2411  0.4950  0.1599
 8985SOL    HW238592   1.541   0.428   8.159 -2.7792 -4.0209  0.9194
 8986SOL     OW38593   0.291   3.248  14.050 -0.2374 -0.2085 -0.2693
 8986SOL    HW138594   0.370   3.250  14.103  1.7586 -0.4995 -3.2356
 8986SOL    HW238595   0.317   3.327  14.001  0.9333 -0.8323 -0.6260
 8987SOL     OW38596   0.379   0.037   3.386  0.2416  0.3450  0.0491
 8987SOL    HW138597   0.425   0.045   3.470  1.3874  3.1518 -0.8698
 8987SOL    HW238598   0.375   0.123   3.345  0.9305  0.3275 -0.0638
 8988SOL     OW38599   2.516   0.836  10.337  0.3109  0.2048  0.1008
 8988SOL    HW138600   2.505   0.925  10.305  0.3450 -0.0688 -0.6778
 8988SOL    HW238601   2.499   0.793  10.253  1.3352  0.6816 -0.3431
 8989SOL     OW38602   0.794   4.670   8.995 -0.3435 -0.5417  0.5026
 8989SOL    HW138603   0.839   4.603   9.046  0.2358  1.0145  2.0333
 8989SOL    HW238604   0.719   4.613   8.978 -1.2196  0.4981  0.8585
 8990SOL     OW38605   4.254   2.109   1.492  0.6551 -0.9874 -0.5327
 8990SOL    HW138606   4.343   2.126   1.463  0.8887 -0.3264  0.5752
 8990SOL    HW238607   4.261   2.015   1.510  0.0545 -1.2539 -1.6383
 8991SOL     OW38608   2.586   1.510   0.524  0.5112 -0.3370  0.2194
 8991SOL    HW138609   2.605   1.554   0.607 -0.2051  0.9642 -0.3192
 8991SOL    HW238610   2.502   1.473   0.550  1.7449 -2.0234  1.8918
 8992SOL     OW38611   2.149   2.437   6.829 -0.6204 -0.4618  0.0433
 8992SOL    HW138612   2.193   2.522   6.837 -0.1600 -0.6634 -0.3518
 8992SOL    HW238613   2.205   2.388   6.769  2.2958 -0.2650  2.6003
 8993SOL     OW38614   2.700   2.569  15.584 -0.0443 -0.0531 -0.0738
 8993SOL    HW138615   2.672   2.660  15.585  2.2303  0.6512 -0.9808
 8993SOL    HW238616   2.685   2.538  15.673  0.8305 -1.5737 -0.4465
 8994SOL     OW38617   4.685   0.810   8.709 -0.1686  0.8329 -0.6729
 8994SOL    HW138618   0.021   0.758   8.681  0.7566  0.7125  2.0475
 8994SOL    HW238619   4.696   0.881   8.645  0.3225  0.5833 -0.8649
 8995SOL     OW38620   2.505   1.279   3.337  0.0719 -0.3217 -0.9225
 8995SOL    HW138621   2.430   1.320   3.294  0.0575  1.1295  0.4685
 8995SOL    HW238622   2.556   1.247   3.263  2.3570 -1.0028  0.9237
 8996SOL     OW38623   2.384   3.301   6.127 -0.0987 -0.1020  0.0746
 8996SOL    HW138624   2.352   3.257   6.205  1.1643 -0.6542  0.2870
 8996SOL    HW238625   2.397   3.233   6.060  1.0479 -0.4389  0.6373
 8997SOL     OW38626   4.048   0.479   4.181  0.9473  0.4354 -0.1212
 8997SOL    HW138627   3.961   0.519   4.189  0.2723 -1.6942  3.0523
 8997SOL    HW238628   4.036   0.392   4.145  0.5088  0.7925 -0.8393
 8998SOL     OW38629   2.801   2.463   3.059 -0.0483  0.0107  0.1835
 8998SOL    HW138630   2.771   2.374   3.041  0.2808 -0.5856  2.4946
 8998SOL    HW238631   2.896   2.448   3.067 -0.2059 -0.4613  1.2576
 8999SOL     OW38632   0.949   3.919  15.032  0.0357 -0.4974 -0.3962
 8999SOL    HW138633   0.894   3.993  15.061  0.3085 -0.4856  0.1039
 8999SOL    HW238634   0.989   3.959  14.955  1.2288  1.7911  1.4242
 9000SOL     OW38635   2.961   4.527   6.455 -0.1056 -0.0392 -0.2407
 9000SOL    HW138636   3.029   4.558   6.515 -0.1257 -0.4927  0.0129
 9000SOL    HW238637   2.953   4.445   6.504  2.7889 -1.6075 -2.3885
 9001SOL     OW38638   1.344   0.083   8.593  0.0225  0.1026  0.2780
 9001SOL    HW138639   1.385   0.015   8.539 -0.4561  0.6397 -0.7516
 9001SOL    HW238640   1.266   0.102   8.542 -0.4208 -0.9178  0.5883
 9002SOL     OW38641   1.504   3.701  17.105  0.1755  0.1084  0.4672
 9002SOL    HW138642   1.510   3.786  17.149 -2.1616  1.2664 -1.4346
 9002SOL    HW238643   1.552   3.645  17.165  0.2176 -0.5061 -0.1413
 9003SOL     OW38644   4.313   0.708   7.617  0.6922  0.4194  0.1125
 9003SOL    HW138645   4.386   0.658   7.654  0.4826 -0.3726 -0.5453
 9003SOL    HW238646   4.343   0.739   7.531  1.6127  2.9850  1.3501
 9004SOL     OW38647   4.025   3.476   3.003  0.5099  0.4934  0.0499
 9004SOL    HW138648   3.985   3.560   3.028 -1.1973 -0.2066 -0.3198
 9004SOL    HW238649   4.033   3.442   3.092  0.6634  2.7804  0.9169
 9005SOL     OW38650   0.590   0.970  10.636  0.2328 -0.2902  0.1679
 9005SOL    HW138651   0.570   0.877  10.638 -0.0437 -0.1894  2.5101
 9005SOL    HW238652   0.618   0.979  10.545  0.5818 -1.9165  0.1251
 9006SOL     OW38653   0.827   0.971   2.328  0.0330 -0.0072  0.6289
 9006SOL    HW138654   0.918   0.980   2.357  0.7398 -0.8931 -1.3359
 9006SOL    HW238655   0.835   0.876   2.319 -0.2654  0.1417 -1.1908
 9007SOL     OW38656   0.313   4.303   2.093 -0.4092 -0.0760 -0.2680
 9007SOL    HW138657   0.353   4.390   2.096  0.4375 -0.4005 -2.3760
 9007SOL    HW238658   0.301   4.287   1.999 -3.1915 -1.0699  0.2422
 9008SOL     OW38659   3.891   3.469   8.916  0.3366  0.0786  0.4662
 9008SOL    HW138660   3.864   3.508   8.999  1.6415 -1.6880  1.7392
 9008SOL    HW238661   3.823   3.501   8.856 -0.6645 -4.2523 -0.7383
 9009SOL     OW38662   0.327   1.800  11.345  0.9940 -0.7352  0.0309
 9009SOL    HW138663   0.343   1.823  11.437  0.1048 -1.2047  0.3115
 9009SOL    HW238664   0.262   1.730  11.357 -2.5282  2.3724 -0.8102
 9010SOL     OW38665   3.194   1.815  13.332  0.0792  0.0531  0.2419
 9010SOL    HW138666   3.241   1.734  13.315 -1.2671 -0.5651 -0.5272
 9010SOL    HW238667   3.124   1.796  13.269  0.4404 -0.0389 -0.1342
 9011SOL     OW38668   1.668   0.358   2.348  0.0482  0.3392  0.1633
 9011SOL    HW138669   1.764   0.355   2.349  0.0328 -0.8780 -1.0716
 9011SOL    HW238670   1.653   0.411   2.270  1.3549 -0.0646 -0.3707
 9012SOL     OW38671   3.111   3.936   8.504 -0.1665 -0.0895 -0.5223
 9012SOL    HW138672   3.191   3.894   8.472 -0.5723 -1.1441 -0.1373
 9012SOL    HW238673   3.049   3.918   8.434 -0.4676 -0.0928 -0.2566
 9013SOL     OW38674   1.330   1.331  16.298  0.2149  0.1814  0.0089
 9013SOL    HW138675   1.237   1.331  16.322  0.0939  2.5445 -0.4070
 9013SOL    HW238676   1.359   1.389  16.368  0.5115 -1.6621  1.3929
 9014SOL     OW38677   2.249   0.626   6.763  0.0284 -0.1508 -0.2092
 9014SOL    HW138678   2.238   0.665   6.677 -1.3408 -1.2190 -0.5157
 9014SOL    HW238679   2.288   0.540   6.746 -3.8099 -1.4755 -2.2077
 9015SOL     OW38680   4.129   2.683   7.014 -0.2474 -0.3299  0.1343
 9015SOL    HW138681   4.215   2.718   7.036 -0.2226 -1.1013  1.2374
 9015SOL    HW238682   4.081   2.763   6.991  1.1720  0.5339  0.1605
 9016SOL     OW38683   3.364   1.973   6.477 -0.3040  0.4869 -0.1863
 9016SOL    HW138684   3.433   1.995   6.540 -2.4365 -0.1647  2.4129
 9016SOL    HW238685   3.288   1.984   6.535  0.2255  0.1657  0.5735
 9017SOL     OW38686   1.211   1.773   1.481 -0.1401 -0.2948 -0.2241
 9017SOL    HW138687   1.207   1.695   1.425  0.4672  0.0772 -0.7898
 9017SOL    HW238688   1.139   1.823   1.443  0.5646 -0.0261 -1.1907
 9018SOL     OW38689   1.579   0.689  13.480 -0.2929 -0.8736  0.1172
 9018SOL    HW138690   1.627   0.772  13.485  0.4564 -1.2556 -0.6965
 9018SOL    HW238691   1.487   0.705  13.499  0.2957  0.3651  1.9422
 9019SOL     OW38692   0.413   4.166   0.471 -0.1598  0.0592  0.0558
 9019SOL    HW138693   0.410   4.255   0.507 -0.7693 -1.1114  2.8580
 9019SOL    HW238694   0.507   4.145   0.467  0.2320  2.1401 -2.5001
 9020SOL     OW38695   1.199   3.073   7.681  0.1962  0.1090  0.2089
 9020SOL    HW138696   1.171   3.005   7.742  2.5965  1.1242  2.4340
 9020SOL    HW238697   1.268   3.026   7.635 -0.1786 -1.0767  0.8458
 9021SOL     OW38698   1.004   0.875   8.639  0.6244 -0.4572  0.4186
 9021SOL    HW138699   0.980   0.855   8.730 -0.5026 -0.0572  0.2071
 9021SOL    HW238700   1.093   0.903   8.658  0.0675  0.2294  1.9994
 9022SOL     OW38701   0.200   1.489   0.650 -0.7016  0.1882 -0.2252
 9022SOL    HW138702   0.141   1.494   0.575  0.8496  2.1701 -1.3301
 9022SOL    HW238703   0.141   1.440   0.706 -0.3880  1.0714  0.8959
 9023SOL     OW38704   3.443   4.446   6.507  0.0205 -0.0693  0.5223
 9023SOL    HW138705   3.357   4.432   6.467 -0.8303  1.5669  1.7744
 9023SOL    HW238706   3.469   4.533   6.477 -0.7244  0.2592  0.8467
 9024SOL     OW38707   1.216   0.297  11.627 -0.5494 -0.1297 -0.2958
 9024SOL    HW138708   1.245   0.389  11.625  1.5126 -0.7391  1.4231
 9024SOL    HW238709   1.300   0.253  11.614 -1.1369 -2.1460  2.8384
 9025SOL     OW38710   3.574   3.832   5.975 -0.3333  0.0374  0.0664
 9025SOL    HW138711   3.495   3.811   6.024  0.4896 -2.5402  0.2832
 9025SOL    HW238712   3.533   3.885   5.906  2.7043  1.0960 -0.9621
 9026SOL     OW38713   3.476   3.052   5.379 -0.2525  0.5581  0.0131
 9026SOL    HW138714   3.466   2.977   5.320 -0.1223 -0.0115  0.7074
 9026SOL    HW238715   3.558   3.085   5.342 -0.3380 -0.4463 -1.0764
 9027SOL     OW38716   0.240   3.414   6.003  0.1499 -0.1769  0.1190
 9027SOL    HW138717   0.257   3.345   5.940 -2.1587  0.5924 -1.3276
 9027SOL    HW238718   0.169   3.450   5.951  1.0534  1.3347 -0.0801
 9028SOL     OW38719   2.831   1.839   6.896  0.2444 -0.4780  0.4825
 9028SOL    HW138720   2.807   1.762   6.845 -0.6355  1.5652 -2.2495
 9028SOL    HW238721   2.862   1.897   6.825  0.3462  0.6038  1.4105
 9029SOL     OW38722   4.709   3.713  16.093  0.4236 -0.2024  0.3790
 9029SOL    HW138723   4.680   3.728  16.183  1.4111 -1.8199  0.9675
 9029SOL    HW238724   4.628   3.740  16.051 -0.3687  0.3110  2.2473
 9030SOL     OW38725   2.083   1.240   7.545  0.4930  0.2531  0.1025
 9030SOL    HW138726   2.017   1.196   7.597 -2.0163  2.4539 -1.2426
 9030SOL    HW238727   2.094   1.171   7.480 -2.7129 -0.5150  0.4012
 9031SOL     OW38728   2.436   4.511   6.673  0.7141  0.4257 -0.3438
 9031SOL    HW138729   2.530   4.520   6.682  0.9163 -2.4169  0.3403
 9031SOL    HW238730   2.401   4.510   6.763  2.2552 -0.8613  0.2283
 9032SOL     OW38731   3.351   0.262   7.103  0.3188  0.5743 -0.0539
 9032SOL    HW138732   3.279   0.286   7.161 -0.7595 -1.6615 -0.4482
 9032SOL    HW238733   3.329   0.176   7.065  1.6965  0.1533  0.1087
 9033SOL     OW38734   3.817   1.414   4.932  0.0628 -0.3467 -0.6377
 9033SOL    HW138735   3.884   1.479   4.913 -0.0769 -0.3509 -1.1505
 9033SOL    HW238736   3.739   1.464   4.954  0.9443  1.5241 -1.7545
 9034SOL     OW38737   2.223   1.070   3.500 -0.7359 -1.0347  0.0575
 9034SOL    HW138738   2.192   1.052   3.589  0.2800 -0.9142  0.4408
 9034SOL    HW238739   2.144   1.055   3.449 -0.1518  0.0593 -1.1676
 9035SOL     OW38740   0.109   3.814   1.846 -0.2443  0.3353  0.0096
 9035SOL    HW138741   0.073   3.730   1.875 -0.0686  0.4187  0.4764
 9035SOL    HW238742   0.051   3.883   1.878  0.1664  1.3106 -1.3816
 9036SOL     OW38743   3.146   3.978  15.190  0.0738  0.1866  0.3391
 9036SOL    HW138744   3.176   3.983  15.280  1.2978  1.1451 -0.1142
 9036SOL    HW238745   3.191   3.900  15.156  1.7497  0.7057  1.3947
 9037SOL     OW38746   1.399   3.646   8.857  0.0359  0.1141  0.1145
 9037SOL    HW138747   1.329   3.693   8.812  1.4735  3.6966  1.6090
 9037SOL    HW238748   1.396   3.686   8.944  0.6109  2.0755 -0.7782
 9038SOL     OW38749   4.209   4.734   4.873 -0.2666  0.0015  0.1772
 9038SOL    HW138750   4.160   0.019   4.795 -1.1397  0.3013  0.8062
 9038SOL    HW238751   4.142   4.736   4.942 -1.4897  2.9017 -1.0699
 9039SOL     OW38752   4.047   2.646  14.943  0.8374 -0.0326 -0.1702
 9039SOL    HW138753   4.005   2.590  15.008  0.0968  0.3108 -0.3541
 9039SOL    HW238754   4.039   2.595  14.862 -1.1954  1.6465 -1.0216
 9040SOL     OW38755   1.059   3.790   7.350 -0.0011  0.0841  0.2101
 9040SOL    HW138756   1.090   3.866   7.301  0.0425 -0.7786 -1.1378
 9040SOL    HW238757   0.990   3.749   7.296  0.2841  1.2432 -1.0355
 9041SOL     OW38758   2.491   2.784   8.585  0.3103  0.4012 -0.1154
 9041SOL    HW138759   2.417   2.790   8.644 -1.3591 -2.0189 -1.9522
 9041SOL    HW238760   2.534   2.703   8.614 -2.2940 -0.8065  0.3624
 9042SOL     OW38761   3.656   4.116   8.647  0.1708  1.1830  0.0679
 9042SOL    HW138762   3.695   4.127   8.561 -2.2649  0.6342 -1.0981
 9042SOL    HW238763   3.579   4.173   8.637 -0.3514  0.7524  1.5934
 9043SOL     OW38764   0.152   1.515  12.590  0.5608 -0.0469 -0.3040
 9043SOL    HW138765   0.147   1.587  12.654 -0.5270  0.5404 -1.0506
 9043SOL    HW238766   0.070   1.470  12.610  0.7705 -1.0449 -1.7303
 9044SOL     OW38767   0.592   2.027   0.239 -0.1566  0.0027 -0.0045
 9044SOL    HW138768   0.616   1.981   0.319  0.2112 -1.3689 -0.9005
 9044SOL    HW238769   0.634   2.110   0.261 -1.4980  0.9464 -0.9873
 9045SOL     OW38770   2.190   0.678   4.814  0.8402  0.3410  0.0477
 9045SOL    HW138771   2.214   0.771   4.822 -0.4492  0.8514 -1.7757
 9045SOL    HW238772   2.279   0.644   4.809 -0.9803 -4.2669 -0.5960
 9046SOL     OW38773   2.142   0.433   6.075 -0.0457 -0.6844  0.8621
 9046SOL    HW138774   2.083   0.361   6.095  0.1334 -0.7673  1.0852
 9046SOL    HW238775   2.101   0.491   6.010  1.2005  1.0119  1.5825
 9047SOL     OW38776   3.059   3.097   7.366 -0.3577  0.2648 -0.7268
 9047SOL    HW138777   3.075   3.084   7.273 -3.6185 -2.3155 -0.9435
 9047SOL    HW238778   3.027   3.014   7.403  0.7664 -0.2017 -0.7986
 9048SOL     OW38779   2.668   1.994   5.746  0.1436 -0.4292 -0.2398
 9048SOL    HW138780   2.742   1.985   5.806  0.6759  0.4014 -0.7708
 9048SOL    HW238781   2.597   1.963   5.803  0.0199 -0.3968 -0.3746
 9049SOL     OW38782   0.790   1.235  11.799  0.7756  0.0435 -0.3078
 9049SOL    HW138783   0.839   1.182  11.862  0.3352 -1.8637 -1.5662
 9049SOL    HW238784   0.763   1.305  11.859 -0.6087 -1.0421  0.3539
 9050SOL     OW38785   0.557   2.472  14.988 -1.1008  0.9888 -0.2190
 9050SOL    HW138786   0.650   2.494  14.998 -1.1025  0.6864  0.4775
 9050SOL    HW238787   0.531   2.456  15.079  1.3098 -1.4933  0.0330
 9051SOL     OW38788   2.932   2.079   6.703 -0.5017 -0.0486 -0.8532
 9051SOL    HW138789   3.000   2.140   6.733 -1.7632  1.4983 -1.1613
 9051SOL    HW238790   2.973   2.013   6.648 -0.4976 -0.1557 -0.7214
 9052SOL     OW38791   2.143   1.674   8.504 -0.3680 -0.5983  0.5702
 9052SOL    HW138792   2.165   1.611   8.435  0.2883 -0.4380  0.6347
 9052SOL    HW238793   2.227   1.714   8.530 -1.9705  1.5031  2.5619
 9053SOL     OW38794   1.878   2.734   9.992  0.1192  0.1903  0.4340
 9053SOL    HW138795   1.966   2.719  10.027 -0.6685  1.3556  2.8357
 9053SOL    HW238796   1.865   2.828  10.003 -0.4715  0.1840 -0.1984
 9054SOL     OW38797   0.039   2.257   2.316 -0.1071  0.2305  0.5205
 9054SOL    HW138798   4.716   2.197   2.274  1.7337 -0.6357 -0.9664
 9054SOL    HW238799   0.040   2.321   2.245  0.2692 -2.1564 -1.6408
 9055SOL     OW38800   2.688   2.146  11.285  0.5211  0.2644  0.4095
 9055SOL    HW138801   2.639   2.213  11.332  1.4907  0.2317  1.4943
 9055SOL    HW238802   2.647   2.069  11.324  0.5331  0.2951  0.4817
 9056SOL     OW38803   1.099   3.768   2.845 -0.2372  0.3520  0.6122
 9056SOL    HW138804   1.074   3.678   2.822 -1.0847  0.9341 -0.6802
 9056SOL    HW238805   1.150   3.749   2.924  0.5478  1.1966  0.3026
 9057SOL     OW38806   1.300   4.166   2.820  0.2207 -0.0651 -1.0093
 9057SOL    HW138807   1.333   4.077   2.821 -0.2731 -0.2114  3.2714
 9057SOL    HW238808   1.220   4.161   2.767  0.7016  2.0633 -1.9315
 9058SOL     OW38809   0.499   0.015  15.146  0.1273 -0.3573  0.0508
 9058SOL    HW138810   0.405   0.029  15.160  0.4678  1.6680  0.1958
 9058SOL    HW238811   0.507   4.669  15.189  0.7731 -0.0757  0.4685
 9059SOL     OW38812   2.495   2.144   0.676  0.2494  0.3985 -0.0553
 9059SOL    HW138813   2.552   2.195   0.619  2.9844 -0.1939  2.1373
 9059SOL    HW238814   2.429   2.211   0.696  1.0799  1.3861 -0.6383
 9060SOL     OW38815   4.130   3.141   5.300  0.0279  0.1946  0.3056
 9060SOL    HW138816   4.139   3.224   5.347  1.6360  1.3014 -1.9917
 9060SOL    HW238817   4.174   3.088   5.367  0.9074  0.8898  0.2761
 9061SOL     OW38818   4.079   1.413  16.510 -0.7610 -0.1045  0.3527
 9061SOL    HW138819   4.049   1.405  16.419  0.1467  0.5793  0.0036
 9061SOL    HW238820   4.138   1.486  16.497 -2.1635  1.0188  0.2685
 9062SOL     OW38821   3.075   0.515   3.702  0.2193 -0.2470  0.2618
 9062SOL    HW138822   3.032   0.511   3.616  1.2343  2.4701 -0.3643
 9062SOL    HW238823   3.024   0.453   3.753  1.9487 -1.2027  0.8399
 9063SOL     OW38824   0.455   3.033  10.985  0.2700  0.7011  0.0768
 9063SOL    HW138825   0.431   3.069  10.900 -1.5705 -1.2369 -0.2479
 9063SOL    HW238826   0.502   2.955  10.955 -0.2487 -0.3632  1.9394
 9064SOL     OW38827   4.164   2.316   8.813  0.7724  0.0329 -0.6563
 9064SOL    HW138828   4.194   2.358   8.894 -0.3400  0.6726 -0.5619
 9064SOL    HW238829   4.238   2.276   8.769  1.5233 -0.2720  0.8866
 9065SOL     OW38830   0.223   4.352  17.104 -0.7557  0.0883  0.0227
 9065SOL    HW138831   0.303   4.396  17.077 -2.1706  2.0634 -0.9268
 9065SOL    HW238832   0.167   4.424  17.131 -0.9911  0.3402 -1.1177
 9066SOL     OW38833   4.718   2.327   4.363 -0.7455 -0.5867  0.2010
 9066SOL    HW138834   4.646   2.264   4.362 -1.3983  0.1330  2.3619
 9066SOL    HW238835   4.658   2.402   4.363  0.2608  0.2192  0.5026
 9067SOL     OW38836   4.108   3.827   3.245 -0.1975  0.3176 -0.4284
 9067SOL    HW138837   4.033   3.769   3.260  0.6261 -0.4089  0.8523
 9067SOL    HW238838   4.077   3.911   3.281  0.0099  0.8684 -1.5473
 9068SOL     OW38839   1.762   2.744   5.708  0.2724 -0.0219  0.2502
 9068SOL    HW138840   1.698   2.728   5.777  2.1012  2.3605  2.5116
 9068SOL    HW238841   1.756   2.671   5.646 -0.2636  2.2233 -2.3540
 9069SOL     OW38842   0.556   0.490   6.230 -0.3663 -0.2673 -0.3344
 9069SOL    HW138843   0.573   0.458   6.319 -0.3648  0.4802 -0.0611
 9069SOL    HW238844   0.508   0.415   6.195  1.3714 -2.7637  2.6236
 9070SOL     OW38845   3.340   0.729  17.433  0.0681  0.1908 -0.0465
 9070SOL    HW138846   3.374   0.812  17.468 -0.4353  0.0218  0.8280
 9070SOL    HW238847   3.275   0.774  17.379  0.5544 -0.1506 -0.9202
 9071SOL     OW38848   4.450   0.777  13.364  0.0599  0.0622 -0.1885
 9071SOL    HW138849   4.507   0.794  13.288  1.3819  2.1789  1.2532
 9071SOL    HW238850   4.363   0.781  13.323 -0.2639 -2.4819  0.3126
 9072SOL     OW38851   4.451   1.848   4.479 -0.3183 -0.3820 -0.1789
 9072SOL    HW138852   4.453   1.852   4.383  1.1141 -3.1099 -0.2407
 9072SOL    HW238853   4.458   1.756   4.501 -0.8018 -0.2904  0.3549
 9073SOL     OW38854   2.626   0.571   4.350 -0.3996  0.0575  0.1755
 9073SOL    HW138855   2.651   0.663   4.355 -1.3812  0.3198  0.3733
 9073SOL    HW238856   2.645   0.546   4.440  0.2852 -1.3681 -0.3779
 9074SOL     OW38857   2.583   2.235   6.473  0.5162 -0.1652  0.3896
 9074SOL    HW138858   2.517   2.292   6.435  0.7927  0.2780  0.5694
 9074SOL    HW238859   2.665   2.285   6.475  0.4393 -0.0214 -0.2159
 9075SOL     OW38860   2.730   3.446   6.074  0.1254 -0.0783  0.0316
 9075SOL    HW138861   2.765   3.357   6.079 -0.7599 -0.4582 -0.7575
 9075SOL    HW238862   2.762   3.486   6.155 -0.6090 -0.7848  0.6747
 9076SOL     OW38863   0.031   1.858   0.327 -0.3829 -0.0999 -0.2726
 9076SOL    HW138864   0.060   1.807   0.252 -1.1932  0.1045 -0.7286
 9076SOL    HW238865   4.675   1.846   0.317 -0.2561 -0.3064 -1.1686
 9077SOL     OW38866   3.378   2.191   2.242  0.2928 -0.4943 -0.5169
 9077SOL    HW138867   3.283   2.205   2.251  0.1873  0.0861 -2.7022
 9077SOL    HW238868   3.397   2.229   2.157  1.8777  0.3045  0.1882
 9078SOL     OW38869   4.591   2.453   5.925 -0.0383 -0.5032  0.1821
 9078SOL    HW138870   4.560   2.508   5.852 -0.3886 -1.8973 -0.7055
 9078SOL    HW238871   4.525   2.487   5.985  1.6921  2.3972  0.4599
 9079SOL     OW38872   1.991   2.233   8.517  0.4874  0.0006 -0.2564
 9079SOL    HW138873   1.951   2.178   8.584 -0.1864 -0.7069 -1.2562
 9079SOL    HW238874   1.934   2.212   8.443 -0.4513  1.6311  0.0125
 9080SOL     OW38875   1.238   0.972   9.633  0.0355  0.4638  0.1956
 9080SOL    HW138876   1.188   0.920   9.696  0.0992  0.1053 -0.0506
 9080SOL    HW238877   1.319   0.921   9.628  0.7419  1.5643  0.2846
 9081SOL     OW38878   4.215   1.854   3.752  0.5453 -0.5449 -0.4691
 9081SOL    HW138879   4.291   1.881   3.700  1.2393 -0.2124  0.7185
 9081SOL    HW238880   4.240   1.768   3.785  0.2608  0.2620  1.8555
 9082SOL     OW38881   4.354   0.256   8.193 -0.2689 -0.8510  0.0352
 9082SOL    HW138882   4.301   0.331   8.217  1.2711  0.1078  0.4157
 9082SOL    HW238883   4.422   0.296   8.140 -0.2292  0.5983  1.2104
 9083SOL     OW38884   0.755   3.530  12.387 -0.5558  0.2258 -0.1352
 9083SOL    HW138885   0.676   3.578  12.411 -0.0004  1.2165 -0.2976
 9083SOL    HW238886   0.793   3.523  12.475 -1.4689 -1.7780  0.0829
 9084SOL     OW38887   1.416   3.669   3.172 -0.1389  0.6552 -0.2041
 9084SOL    HW138888   1.431   3.715   3.254  1.6382 -0.0973 -0.1127
 9084SOL    HW238889   1.322   3.687   3.166 -0.5014  0.2936  5.0439
 9085SOL     OW38890   3.263   0.604   3.868 -0.4832  0.4163  0.4332
 9085SOL    HW138891   3.208   0.579   3.794 -1.4787 -1.6946  1.8826
 9085SOL    HW238892   3.230   0.694   3.871 -2.1934 -0.2018  0.1697
 9086SOL     OW38893   3.901   2.276   1.246 -0.1935 -1.1139  0.6081
 9086SOL    HW138894   3.958   2.299   1.319 -0.7225 -2.0557  1.3022
 9086SOL    HW238895   3.954   2.324   1.182  1.4009 -2.2415  1.0926
 9087SOL     OW38896   0.286   3.013   8.303  0.0680  0.4658  0.8385
 9087SOL    HW138897   0.369   3.040   8.342 -0.6960  1.0423  2.0359
 9087SOL    HW238898   0.273   2.942   8.365  0.6237  0.7518  1.2878
 9088SOL     OW38899   1.616   0.328  15.939 -0.0237 -0.3277 -0.3072
 9088SOL    HW138900   1.540   0.374  15.903  1.2390  0.6750 -1.6729
 9088SOL    HW238901   1.672   0.337  15.862  1.0059 -2.5992  0.1870
 9089SOL     OW38902   3.603   0.757   8.373 -0.0290 -0.8030 -0.3211
 9089SOL    HW138903   3.561   0.815   8.436  1.8882  0.3176 -0.0714
 9089SOL    HW238904   3.523   0.727   8.331 -0.3714 -0.8005  0.3437
 9090SOL     OW38905   0.893   2.487   8.270  0.4167  0.2793  0.4246
 9090SOL    HW138906   0.883   2.581   8.279 -1.4756  0.3620 -2.3568
 9090SOL    HW238907   0.843   2.455   8.345 -1.1997 -0.4575 -0.9470
 9091SOL     OW38908   0.155   1.912   5.491 -0.2811  0.0955 -0.4930
 9091SOL    HW138909   0.225   1.862   5.532 -1.3238  0.5184  1.7952
 9091SOL    HW238910   0.102   1.941   5.565 -2.3671  1.6552 -2.5736
 9092SOL     OW38911   0.918   4.525   9.172 -0.5363  0.0577  0.2858
 9092SOL    HW138912   0.909   4.430   9.180  0.3016 -0.1163 -0.7630
 9092SOL    HW238913   0.960   4.536   9.257  0.9278  0.5191 -0.4989
 9093SOL     OW38914   0.023   2.289   8.601 -0.1736 -0.0077 -0.0424
 9093SOL    HW138915   4.672   2.259   8.607 -0.4849  0.9280 -0.0196
 9093SOL    HW238916   0.031   2.362   8.662 -3.4762 -0.3962  0.8427
 9094SOL     OW38917   2.995   3.323   2.179 -0.5690  0.1030 -0.3370
 9094SOL    HW138918   2.950   3.239   2.162 -1.0691 -0.0143  1.5806
 9094SOL    HW238919   2.993   3.313   2.274  0.1012  0.0848 -0.3239
 9095SOL     OW38920   3.628   2.812   3.770 -0.2154 -0.1953 -0.0545
 9095SOL    HW138921   3.592   2.778   3.688 -3.7532  0.8720  1.0659
 9095SOL    HW238922   3.553   2.863   3.799 -0.6860 -0.1821 -1.3370
 9096SOL     OW38923   3.807   2.841   8.590 -0.4053 -0.0375 -0.0745
 9096SOL    HW138924   3.811   2.862   8.684  2.4362  0.1044 -0.2265
 9096SOL    HW238925   3.721   2.875   8.567  0.5791  0.8709 -2.3205
 9097SOL     OW38926   1.301   4.314  17.153 -0.7287 -0.0425 -0.2234
 9097SOL    HW138927   1.281   4.403  17.180  2.7245  1.0965 -1.3238
 9097SOL    HW238928   1.278   4.274  17.237 -0.8044  0.0944 -0.1800
 9098SOL     OW38929   3.631   0.998   5.738 -0.4963 -0.2222 -0.7372
 9098SOL    HW138930   3.647   1.058   5.665 -2.4300  2.6653  1.2142
 9098SOL    HW238931   3.660   0.913   5.706  0.1299 -0.3468  0.1479
 9099SOL     OW38932   3.243   1.252   4.933  0.3179  0.3107  0.2214
 9099SOL    HW138933   3.153   1.238   4.902  1.1284 -1.9527 -1.1132
 9099SOL    HW238934   3.245   1.184   5.001 -1.0541 -0.8441 -0.8799
 9100SOL     OW38935   3.227   2.520   8.602  0.0454 -0.1730  0.0376
 9100SOL    HW138936   3.273   2.491   8.523  0.3453  1.5304 -0.4258
 9100SOL    HW238937   3.138   2.491   8.583  0.9572 -2.1133 -1.1995
 9101SOL     OW38938   1.199   2.176   7.797  0.2424 -0.0473  0.2068
 9101SOL    HW138939   1.247   2.242   7.747 -2.3649  0.9636 -0.9647
 9101SOL    HW238940   1.111   2.203   7.772  0.2195 -1.1541 -0.9317
 9102SOL     OW38941   4.724   1.542   6.376  0.1551 -0.5670 -0.7424
 9102SOL    HW138942   4.728   1.446   6.386 -0.3164 -0.3495  1.5419
 9102SOL    HW238943   0.006   1.545   6.283  0.0748 -0.4423 -0.7554
 9103SOL     OW38944   3.991   4.278   3.596  0.2180  0.7247  0.0362
 9103SOL    HW138945   3.997   4.213   3.665 -0.7052 -1.0510 -1.5724
 9103SOL    HW238946   3.988   4.354   3.655 -0.8571  1.3150 -0.7834
 9104SOL     OW38947   2.503   2.928   3.510  0.5048  0.2103  0.2746
 9104SOL    HW138948   2.561   2.859   3.541  0.2268  0.9959  2.5183
 9104SOL    HW238949   2.459   2.866   3.452  2.0353 -0.5367 -0.0965
 9105SOL     OW38950   1.031   0.841  11.475 -0.2024 -0.8460 -0.3614
 9105SOL    HW138951   0.955   0.881  11.517  0.0184  0.9701 -1.6854
 9105SOL    HW238952   1.094   0.859  11.545  2.7125 -1.8862 -2.7093
 9106SOL     OW38953   0.242   3.773   3.263 -0.0093 -0.5896 -0.2678
 9106SOL    HW138954   0.289   3.780   3.180 -1.3063  2.0427 -0.7682
 9106SOL    HW238955   0.154   3.754   3.230 -0.9262  2.5772  0.3933
 9107SOL     OW38956   1.208   4.171   4.960 -0.2877 -0.2707 -0.4984
 9107SOL    HW138957   1.225   4.207   5.047 -1.4848  0.4484 -0.5520
 9107SOL    HW238958   1.299   4.152   4.938  0.4065 -0.4770  2.5082
 9108SOL     OW38959   2.596   1.503   6.252 -0.3780 -0.3193 -0.1272
 9108SOL    HW138960   2.542   1.497   6.331  0.1325  0.2643  0.2631
 9108SOL    HW238961   2.523   1.495   6.191  1.8393  0.8820 -2.9817
 9109SOL     OW38962   4.620   1.711  17.079 -0.5209  0.2059  0.1703
 9109SOL    HW138963   4.586   1.655  17.149 -0.9679  1.1651  0.7260
 9109SOL    HW238964   4.670   1.640  17.040 -0.8621  0.1287 -0.1290
 9110SOL     OW38965   1.095   0.323   0.581  0.0223 -0.2371 -0.2290
 9110SOL    HW138966   1.180   0.353   0.549 -1.0456 -0.0163 -2.8662
 9110SOL    HW238967   1.044   0.350   0.505 -0.3465 -1.3800 -0.3866
 9111SOL     OW38968   4.654   0.276   1.525  0.1079  0.0717 -0.2205
 9111SOL    HW138969   4.709   0.297   1.449  1.1021  1.8077  0.9782
 9111SOL    HW238970   4.668   0.182   1.525 -1.7058 -0.1991  2.5256
 9112SOL     OW38971   2.296   0.788   6.114  0.8228  0.2137  0.4950
 9112SOL    HW138972   2.239   0.732   6.167  0.3990  0.8498  0.7117
 9112SOL    HW238973   2.312   0.857   6.178  0.1674  0.5208  0.3244
 9113SOL     OW38974   2.242   2.343   7.156  0.8429  0.4601  0.2797
 9113SOL    HW138975   2.165   2.333   7.099  1.4376  2.0367 -0.8054
 9113SOL    HW238976   2.231   2.422   7.208  1.0187 -0.0146  1.0297
 9114SOL     OW38977   2.478   2.276  12.385  0.1817  0.3650 -0.3704
 9114SOL    HW138978   2.529   2.258  12.464 -2.6487  0.0053  1.3593
 9114SOL    HW238979   2.445   2.189  12.361  4.2530 -1.3620  0.2547
 9115SOL     OW38980   2.748   0.298   4.446  0.1645  0.4144 -0.1206
 9115SOL    HW138981   2.744   0.315   4.352 -0.6632 -0.2238 -0.1962
 9115SOL    HW238982   2.721   0.207   4.457 -0.0445  0.7245  1.8753
 9116SOL     OW38983   3.449   0.095   9.268 -0.7656  0.3999 -0.4825
 9116SOL    HW138984   3.372   0.092   9.324  0.4053  0.6735  1.1358
 9116SOL    HW238985   3.412   0.043   9.197 -3.4663  1.0241  0.4996
 9117SOL     OW38986   1.218   2.740   9.430 -0.5875 -0.1244  0.5396
 9117SOL    HW138987   1.228   2.665   9.489  0.6292 -0.0655  0.4024
 9117SOL    HW238988   1.307   2.773   9.423 -0.4565 -0.8975 -1.3480
 9118SOL     OW38989   0.678   4.379   2.222  0.2113 -0.4971  0.0338
 9118SOL    HW138990   0.708   4.302   2.270 -0.5691  0.3510  1.8798
 9118SOL    HW238991   0.765   4.413   2.201 -0.1273  0.7206  0.5945
 9119SOL     OW38992   2.431   3.576   8.424  0.6462 -0.3583 -0.3422
 9119SOL    HW138993   2.374   3.573   8.500  1.5379 -0.4101  0.3204
 9119SOL    HW238994   2.463   3.664   8.444 -1.5131  0.0374  1.3571
 9120SOL     OW38995   2.996   4.568   9.194 -0.7593  0.0150 -0.0903
 9120SOL    HW138996   2.999   4.622   9.115 -0.2742 -1.1296 -0.8542
 9120SOL    HW238997   2.903   4.573   9.214 -0.6904  1.5971 -0.2026
 9121SOL     OW38998   0.350   1.451   8.654  0.1774 -0.3526  0.0026
 9121SOL    HW138999   0.414   1.411   8.596  0.1584 -0.3155 -0.0435
 9121SOL    HW239000   0.352   1.399   8.735  2.2081 -0.3377 -0.0251
 9122SOL     OW39001   1.789   0.151  12.534 -0.1744 -0.5166  0.0285
 9122SOL    HW139002   1.856   0.157  12.466 -0.2559  0.7895  0.0530
 9122SOL    HW239003   1.848   0.140  12.609 -0.5798  1.1811  0.5991
 9123SOL     OW39004   1.930   3.341   7.179 -0.4015  0.1557  0.1008
 9123SOL    HW139005   1.977   3.258   7.181  1.0422  0.9691 -0.5248
 9123SOL    HW239006   2.003   3.399   7.160 -0.2710 -0.0887 -0.1446
 9124SOL     OW39007   1.225   2.055   3.881 -0.1567 -0.2139 -0.2530
 9124SOL    HW139008   1.263   2.067   3.794  0.2578  1.4823  0.1654
 9124SOL    HW239009   1.204   1.961   3.881 -0.8247 -0.0707  1.1346
 9125SOL     OW39010   1.203   2.292   4.022  0.0036  0.4727 -0.2023
 9125SOL    HW139011   1.218   2.203   3.990 -3.6181  0.3418 -1.5036
 9125SOL    HW239012   1.290   2.331   4.019 -0.1841  0.7820 -1.5856
 9126SOL     OW39013   3.567   2.358  15.018  0.0065 -0.4992 -0.5215
 9126SOL    HW139014   3.531   2.362  15.107 -2.3526 -1.5851 -1.4023
 9126SOL    HW239015   3.584   2.451  15.004 -4.0225  0.3557  0.0604
 9127SOL     OW39016   0.022   1.818  13.975 -0.4797 -0.2977 -0.4366
 9127SOL    HW139017   0.108   1.806  14.015 -0.8615 -1.0582  0.1674
 9127SOL    HW239018   0.035   1.881  13.904 -1.2887 -0.0008 -0.3204
 9128SOL     OW39019   2.411   2.898   1.790  0.7154  0.3926 -0.1193
 9128SOL    HW139020   2.496   2.915   1.750  2.4729 -0.3007  3.3146
 9128SOL    HW239021   2.427   2.830   1.855 -0.2826 -0.6076 -0.9441
 9129SOL     OW39022   2.469   1.091  10.211 -0.1794 -0.0335  0.1928
 9129SOL    HW139023   2.448   1.179  10.179 -1.4223 -0.2187  0.5377
 9129SOL    HW239024   2.563   1.104  10.227  0.0090  0.3019 -1.1760
 9130SOL     OW39025   0.466   2.585   8.873 -0.8335  0.4424 -0.5291
 9130SOL    HW139026   0.478   2.611   8.964 -2.5822  2.2874 -0.8384
 9130SOL    HW239027   0.399   2.648   8.847 -2.0630 -0.5867  0.1509
 9131SOL     OW39028   0.138   2.051   7.420 -0.6300  0.2033  0.0238
 9131SOL    HW139029   0.185   2.064   7.503  0.1287  1.9757 -0.6917
 9131SOL    HW239030   0.082   1.977   7.446 -1.2998  0.5056 -0.5600
 9132SOL     OW39031   1.228   0.410   6.086 -0.4161  0.2973  0.3852
 9132SOL    HW139032   1.218   0.401   5.992 -0.9931 -1.9987  0.6556
 9132SOL    HW239033   1.321   0.390   6.092 -0.0589  1.5912 -0.8404
 9133SOL     OW39034   3.642   0.592   5.487  0.0282  0.4617 -0.3134
 9133SOL    HW139035   3.604   0.680   5.479 -0.3652  0.5477  2.3953
 9133SOL    HW239036   3.578   0.534   5.446  1.3714 -1.3548  0.1675
 9134SOL     OW39037   4.683   2.216   5.074  0.2478 -0.1598  0.4062
 9134SOL    HW139038   4.616   2.202   5.007  1.0743  0.6987 -0.6061
 9134SOL    HW239039   4.668   2.304   5.108  0.8843  0.7949 -1.7931
 9135SOL     OW39040   3.983   0.885  16.994  0.1709 -0.2793 -0.1018
 9135SOL    HW139041   4.076   0.892  16.971 -0.0166 -1.9557 -1.3094
 9135SOL    HW239042   3.976   0.938  17.074 -0.4263 -0.7917  0.1895
 9136SOL     OW39043   1.744   3.708  11.860 -0.2045  0.6294 -0.0437
 9136SOL    HW139044   1.813   3.733  11.799 -0.0087 -1.4648 -0.6777
 9136SOL    HW239045   1.704   3.643  11.803  1.2739 -0.8391  0.5900
 9137SOL     OW39046   1.747   4.712   7.600 -0.0564 -0.4574  0.1943
 9137SOL    HW139047   1.810   0.045   7.610 -1.5223  0.5893  1.8566
 9137SOL    HW239048   1.787   4.650   7.661 -1.5015 -0.1212  1.4630
 9138SOL     OW39049   0.060   0.694   4.474 -0.7968  0.1963 -0.2114
 9138SOL    HW139050   0.146   0.717   4.509 -0.7774  0.4313 -0.4029
 9138SOL    HW239051   0.086   0.606   4.447  0.9750  1.2154 -1.8433
 9139SOL     OW39052   0.825   4.151   1.632  0.1928 -0.3347 -0.4099
 9139SOL    HW139053   0.900   4.177   1.577 -0.5903  1.7674 -0.4981
 9139SOL    HW239054   0.833   4.218   1.701  1.0351 -0.9139  0.0489
 9140SOL     OW39055   4.378   4.139   4.929  0.8010 -0.4507  0.7480
 9140SOL    HW139056   4.393   4.050   4.960 -1.5099 -1.0141  0.2312
 9140SOL    HW239057   4.442   4.184   4.984  0.0607  0.0299  1.2227
 9141SOL     OW39058   2.270   2.362   7.897 -0.3627  0.0572  0.4602
 9141SOL    HW139059   2.351   2.328   7.936 -0.5806  1.5053  2.1546
 9141SOL    HW239060   2.288   2.455   7.882  2.6239 -0.9189 -2.1026
 9142SOL     OW39061   4.018   1.699   6.424  0.2420  0.1004 -0.0363
 9142SOL    HW139062   4.004   1.607   6.402  0.9199 -0.0268  0.0561
 9142SOL    HW239063   4.103   1.687   6.466  0.6528  3.4929  0.0479
 9143SOL     OW39064   0.133   4.243  10.944 -0.1276  0.0416  0.6086
 9143SOL    HW139065   0.069   4.201  10.887  0.4227  0.2927 -0.2084
 9143SOL    HW239066   0.114   4.334  10.921 -1.2564  0.2204  2.2826
 9144SOL     OW39067   0.790   2.227   6.500 -1.1883  0.0836 -0.0982
 9144SOL    HW139068   0.799   2.269   6.415  3.0326  1.3759  0.9585
 9144SOL    HW239069   0.698   2.238   6.523 -1.2196  1.0215 -0.6711
 9145SOL     OW39070   0.220   1.705  14.466 -0.5435  0.3778 -0.7185
 9145SOL    HW139071   0.297   1.762  14.457 -1.6224  1.5895 -2.2809
 9145SOL    HW239072   0.223   1.667  14.378  2.2380 -0.1778 -0.3737
 9146SOL     OW39073   3.737   2.742   1.975  0.2677 -0.3847 -0.8011
 9146SOL    HW139074   3.777   2.754   2.061 -0.0094 -1.7563 -0.4754
 9146SOL    HW239075   3.656   2.695   1.995 -1.1015  1.8816 -1.0335
 9147SOL     OW39076   3.672   4.234   2.886 -0.0806  0.1203 -0.1337
 9147SOL    HW139077   3.756   4.263   2.923 -0.5880 -0.1952  1.2397
 9147SOL    HW239078   3.668   4.291   2.809  0.0588  0.7075  0.3037
 9148SOL     OW39079   0.070   0.956   5.747  0.2859 -0.1013  0.3467
 9148SOL    HW139080   0.127   0.989   5.678  0.4533 -0.9513  0.0675
 9148SOL    HW239081   0.015   1.033   5.762  0.8424  0.1929  0.8731
 9149SOL     OW39082   2.276   4.236   7.885  0.0157 -0.2958  0.0911
 9149SOL    HW139083   2.338   4.308   7.877  0.9048 -1.1763 -0.9737
 9149SOL    HW239084   2.199   4.283   7.915 -1.0463 -1.0732 -1.4213
 9150SOL     OW39085   0.778   0.868   4.759 -0.4241  0.0427 -1.0508
 9150SOL    HW139086   0.734   0.934   4.706 -1.3995 -0.3990 -0.7842
 9150SOL    HW239087   0.713   0.798   4.752 -0.2786 -0.1928 -0.0534
 9151SOL     OW39088   3.249   1.925   5.492  0.0363 -0.4593 -0.0067
 9151SOL    HW139089   3.265   1.872   5.570  1.5409  2.5457  1.7566
 9151SOL    HW239090   3.206   1.869   5.427  1.3036 -3.1724  1.4964
 9152SOL     OW39091   0.248   0.810   9.920  0.4974 -0.3711 -0.3686
 9152SOL    HW139092   0.228   0.884   9.864  3.3783  0.5267 -0.2024
 9152SOL    HW239093   0.181   0.823   9.987 -0.9190  0.0312 -1.8668
 9153SOL     OW39094   2.441   1.091  15.845 -0.0066  0.3629  0.3353
 9153SOL    HW139095   2.456   1.177  15.805 -1.5998  0.0307 -0.9761
 9153SOL    HW239096   2.394   1.049  15.772 -2.3811  2.1160  0.8402
 9154SOL     OW39097   2.195   3.812   6.862  0.1255 -0.2032 -0.3911
 9154SOL    HW139098   2.155   3.875   6.802 -2.0706  1.1180  2.4346
 9154SOL    HW239099   2.126   3.815   6.928  1.7207 -3.5101  1.3748
 9155SOL     OW39100   3.326   2.796  17.675 -0.1899 -0.5559  0.3423
 9155SOL    HW139101   3.405   2.742  17.672 -0.7014 -1.3245  0.7660
 9155SOL    HW239102   3.250   2.739  17.682 -1.0809  0.8119  2.0219
 9156SOL     OW39103   1.862   2.829   1.871  0.1613  0.0147  0.4961
 9156SOL    HW139104   1.911   2.885   1.810 -0.6267 -0.4972 -0.5906
 9156SOL    HW239105   1.773   2.860   1.854  0.1157  0.1959  1.0869
 9157SOL     OW39106   1.435   1.067  14.189  0.1747  0.3417  0.3802
 9157SOL    HW139107   1.351   1.093  14.150  0.8010  0.5006 -0.8418
 9157SOL    HW239108   1.424   1.084  14.282 -2.6430 -1.3702  0.3551
 9158SOL     OW39109   4.458   1.938  17.320 -0.4406 -0.3220 -0.1280
 9158SOL    HW139110   4.417   2.009  17.369  2.3164  0.1902  1.4819
 9158SOL    HW239111   4.395   1.867  17.328  0.9196 -1.8027 -2.6756
 9159SOL     OW39112   2.465   0.357   6.706  0.0155  0.1571  0.2039
 9159SOL    HW139113   2.442   0.369   6.614  1.1562  2.2625  0.1953
 9159SOL    HW239114   2.383   0.356   6.755 -1.0119  1.0160 -1.5319
 9160SOL     OW39115   4.552   3.126  10.591 -0.3293 -0.2285 -0.0800
 9160SOL    HW139116   4.629   3.107  10.644 -2.3081 -0.6698  2.6586
 9160SOL    HW239117   4.497   3.057  10.629 -1.1843 -0.3002 -1.4419
 9161SOL     OW39118   0.938   0.377  11.666  0.0781  0.2168 -0.3964
 9161SOL    HW139119   0.993   0.300  11.657 -0.2459  0.3921 -3.9019
 9161SOL    HW239120   0.980   0.440  11.608 -2.4039  1.6509 -0.6789
 9162SOL     OW39121   1.467   3.981  16.235 -0.4054 -0.7219 -0.6628
 9162SOL    HW139122   1.463   4.064  16.283  0.0383 -0.3435 -1.2892
 9162SOL    HW239123   1.519   4.004  16.159 -1.8777  0.8305 -1.2123
 9163SOL     OW39124   0.889   4.038   3.362  0.0009 -0.0451 -0.2515
 9163SOL    HW139125   0.863   4.040   3.270  1.9403  1.6430 -0.7444
 9163SOL    HW239126   0.888   4.133   3.374  0.0846  0.0703 -1.2116
 9164SOL     OW39127   2.845   3.525   4.279  0.3384  0.0133 -0.4879
 9164SOL    HW139128   2.848   3.451   4.219 -1.5683  0.4608 -1.1548
 9164SOL    HW239129   2.762   3.517   4.327 -0.4537  1.2836 -1.6392
 9165SOL     OW39130   0.640   4.619   3.122 -0.2012 -0.2396  0.6194
 9165SOL    HW139131   0.641   4.713   3.140 -2.4782  0.0644 -0.8189
 9165SOL    HW239132   0.686   4.616   3.038 -1.2664  2.8419 -0.0871
 9166SOL     OW39133   4.387   3.546   1.071 -0.6130 -0.1394  0.6046
 9166SOL    HW139134   4.415   3.567   0.982 -0.2983  0.2747  0.8016
 9166SOL    HW239135   4.340   3.626   1.096  0.8499  0.7183  0.6087
 9167SOL     OW39136   2.489   3.713   2.178  0.6180 -0.2586 -0.3453
 9167SOL    HW139137   2.461   3.710   2.087 -2.4835  1.4469  0.5389
 9167SOL    HW239138   2.523   3.624   2.177  1.6675  0.1513 -0.8493
 9168SOL     OW39139   4.003   4.225  12.050 -0.6460 -0.1087 -0.2500
 9168SOL    HW139140   4.056   4.216  11.970 -1.7148  0.1525 -0.9937
 9168SOL    HW239141   4.044   4.149  12.091  0.1715 -0.7685 -2.2579
 9169SOL     OW39142   1.481   1.515   4.338 -0.3930 -0.1309  0.6599
 9169SOL    HW139143   1.477   1.471   4.253  1.0930  1.8945 -0.4764
 9169SOL    HW239144   1.396   1.505   4.380 -0.6349  1.1386  0.4626
 9170SOL     OW39145   1.134   3.080   6.348 -0.3350  0.1417 -0.3869
 9170SOL    HW139146   1.158   3.057   6.258  0.8471  0.8390 -0.2519
 9170SOL    HW239147   1.048   3.039   6.357 -1.5048  2.6003 -0.2582
 9171SOL     OW39148   0.249   1.139   4.716 -0.3787  0.7468 -0.4393
 9171SOL    HW139149   0.168   1.106   4.754 -0.5871 -1.0109 -2.3940
 9171SOL    HW239150   0.268   1.216   4.770  0.8421 -1.2309  1.9456
 9172SOL     OW39151   4.547   0.408   9.711 -0.1489  0.0742 -0.0523
 9172SOL    HW139152   4.482   0.448   9.655  1.0084  1.7678 -0.1923
 9172SOL    HW239153   4.519   0.434   9.799  1.6735 -0.6208  0.7542
 9173SOL     OW39154   2.519   1.806   6.671 -0.0045  0.1094  0.0920
 9173SOL    HW139155   2.568   1.887   6.656 -0.0338 -0.0951 -1.0668
 9173SOL    HW239156   2.473   1.833   6.750 -1.2852  0.3272 -0.7360
 9174SOL     OW39157   2.516   3.480   4.650 -0.4060  0.1902  0.0366
 9174SOL    HW139158   2.573   3.471   4.727 -1.1775 -0.9770  0.4622
 9174SOL    HW239159   2.562   3.544   4.595 -1.4649  0.9095 -0.0056
 9175SOL     OW39160   2.370   1.265  11.161  0.6006  0.2424  0.0503
 9175SOL    HW139161   2.295   1.310  11.123  0.5098 -0.4753 -0.6277
 9175SOL    HW239162   2.376   1.320  11.239 -0.3771 -1.0125  1.0223
 9176SOL     OW39163   2.394   2.743   6.771  0.7087  0.2856  0.6116
 9176SOL    HW139164   2.434   2.827   6.749 -0.2641  0.8495  0.9729
 9176SOL    HW239165   2.309   2.771   6.806  0.5207  0.5583 -0.0470
 9177SOL     OW39166   1.334   3.640   1.986  0.5856 -0.3208 -0.3676
 9177SOL    HW139167   1.289   3.715   1.948  0.1515 -1.0093 -1.2315
 9177SOL    HW239168   1.399   3.682   2.042  0.4420 -0.9310  0.2485
 9178SOL     OW39169   3.424   3.875   8.046  0.2291 -0.6143  0.1552
 9178SOL    HW139170   3.421   3.968   8.069 -0.9430 -0.9441  1.3300
 9178SOL    HW239171   3.333   3.853   8.027  0.0547 -0.6423  1.0396
 9179SOL     OW39172   1.179   0.396  16.054  0.1221 -0.0460 -0.1255
 9179SOL    HW139173   1.143   0.327  15.998 -1.3795  1.4441 -1.0063
 9179SOL    HW239174   1.258   0.416  16.004  2.0579 -0.7200  2.7370
 9180SOL     OW39175   4.139   1.391   2.672  0.4315 -0.0207 -0.4787
 9180SOL    HW139176   4.213   1.401   2.732  1.6223  2.8049 -2.4291
 9180SOL    HW239177   4.171   1.399   2.582  0.2882 -0.4118 -0.5671
 9181SOL     OW39178   4.022   2.903   8.434 -0.6760 -0.0067  0.8557
 9181SOL    HW139179   3.946   2.881   8.487 -2.0454  0.5099 -0.8803
 9181SOL    HW239180   3.987   2.975   8.381 -0.8064 -0.2810  0.5651
 9182SOL     OW39181   1.783   1.501   2.273  0.1167 -0.0789  0.3160
 9182SOL    HW139182   1.779   1.593   2.299 -1.0212 -0.1511  0.3970
 9182SOL    HW239183   1.722   1.465   2.338  1.1025 -1.4912  0.4709
 9183SOL     OW39184   0.056   2.694  16.430  0.5397  0.0132  0.1200
 9183SOL    HW139185   0.090   2.635  16.363  1.6437 -0.8177  1.4344
 9183SOL    HW239186   0.047   2.638  16.507 -1.4432  1.1978  0.7531
 9184SOL     OW39187   4.085   1.332   5.038 -0.4222 -0.0163  0.3170
 9184SOL    HW139188   4.018   1.365   4.978 -1.3199  0.2417  1.4542
 9184SOL    HW239189   4.114   1.249   5.001 -1.4334 -0.5332  0.6974
 9185SOL     OW39190   4.552   0.465  16.656 -0.0720  0.3389 -0.2834
 9185SOL    HW139191   4.549   0.490  16.564 -2.6620  0.4830 -0.1745
 9185SOL    HW239192   4.580   0.547  16.697 -0.0441  0.3378 -0.3008
 9186SOL     OW39193   4.360   4.473   9.096  0.4134 -0.1944  0.4198
 9186SOL    HW139194   4.282   4.431   9.059  1.0725 -0.0748 -1.0965
 9186SOL    HW239195   4.419   4.482   9.021 -0.3137  3.8575  0.3137
 9187SOL     OW39196   3.653   4.374   4.808 -0.0501  0.1029 -0.5949
 9187SOL    HW139197   3.581   4.426   4.773  1.1654  2.1543 -0.0741
 9187SOL    HW239198   3.696   4.440   4.864 -0.0440 -1.9542  1.8293
 9188SOL     OW39199   2.549   3.209   5.016 -0.1646 -0.1516 -0.2206
 9188SOL    HW139200   2.600   3.166   5.085  0.3303 -1.1661 -1.2164
 9188SOL    HW239201   2.464   3.214   5.060 -0.7833  2.7604 -1.7801
 9189SOL     OW39202   0.930   1.694   7.718  0.1484  0.1996 -0.0560
 9189SOL    HW139203   0.992   1.629   7.748 -2.0159 -2.2746 -0.9628
 9189SOL    HW239204   0.892   1.714   7.803 -0.3678 -0.5206 -0.1149
 9190SOL     OW39205   2.362   0.133   0.094 -0.0758 -0.1786 -0.2218
 9190SOL    HW139206   2.411   0.186   0.032 -0.0697  1.8481  1.5265
 9190SOL    HW239207   2.294   0.081   0.050  0.5324 -0.9948 -0.1929
 9191SOL     OW39208   3.998   4.019   4.094 -0.2138  0.2347  0.2327
 9191SOL    HW139209   4.075   4.031   4.149 -1.5761 -0.4586  2.2789
 9191SOL    HW239210   3.931   4.018   4.163  1.6332 -0.6229  1.9894
 9192SOL     OW39211   3.652   1.979  12.374 -0.0339 -0.6115 -0.2165
 9192SOL    HW139212   3.575   1.959  12.321 -0.5014 -4.5528  1.9446
 9192SOL    HW239213   3.652   2.074  12.368  3.6037 -0.7359 -2.4478
 9193SOL     OW39214   2.875   0.660   6.708  0.3017  0.4829  1.0396
 9193SOL    HW139215   2.780   0.649   6.705  0.3950 -0.1977  0.4831
 9193SOL    HW239216   2.898   0.574   6.743 -0.7600 -0.1524  0.1864
 9194SOL     OW39217   3.096   2.564   9.602  0.0782 -0.8936 -0.6190
 9194SOL    HW139218   3.073   2.603   9.518 -0.1931  0.0467 -0.1134
 9194SOL    HW239219   3.183   2.599   9.622 -0.6941 -0.4221  1.9326
 9195SOL     OW39220   4.191   3.036   2.804 -0.0018 -0.2111  0.6636
 9195SOL    HW139221   4.215   3.069   2.717  0.1894 -1.1219  0.3720
 9195SOL    HW239222   4.267   3.063   2.856  2.2005 -4.1128 -0.4969
 9196SOL     OW39223   3.214   1.423   8.446  0.2714 -0.0263 -0.3930
 9196SOL    HW139224   3.264   1.364   8.390  1.5961 -0.2717  1.0713
 9196SOL    HW239225   3.279   1.444   8.512 -0.9778  0.1573  0.7785
 9197SOL     OW39226   0.392   2.937   8.951 -0.0231  0.1978  0.4189
 9197SOL    HW139227   0.478   2.901   8.975 -0.2810 -1.1869 -0.7184
 9197SOL    HW239228   0.368   2.902   8.866 -1.9424  2.7033 -0.0623
 9198SOL     OW39229   4.408   4.088   4.002  0.1954 -0.2670 -0.1701
 9198SOL    HW139230   4.449   4.029   4.065 -1.0880  0.5753  1.4666
 9198SOL    HW239231   4.417   4.040   3.920  2.8784  1.7441 -1.0537
 9199SOL     OW39232   1.300   0.496  17.448  0.0807 -0.9342  0.6488
 9199SOL    HW139233   1.237   0.428  17.422 -1.2592 -0.7055  3.3107
 9199SOL    HW239234   1.335   0.453  17.526 -2.7493 -1.0819  1.8572
 9200SOL     OW39235   2.306   4.085   0.691 -0.2351  0.3621 -0.1633
 9200SOL    HW139236   2.305   4.174   0.727  0.3696 -0.8429  2.8542
 9200SOL    HW239237   2.345   4.095   0.605  0.7759 -2.0884  0.0175
 9201SOL     OW39238   2.583   3.575   7.155 -0.2417  0.1969 -0.3778
 9201SOL    HW139239   2.632   3.567   7.237 -2.1126 -2.0514  0.5223
 9201SOL    HW239240   2.643   3.615   7.092  0.1027 -1.9964 -1.4359
 9202SOL     OW39241   1.895   0.301   5.821  0.0712 -0.0795  0.0468
 9202SOL    HW139242   1.849   0.357   5.884 -0.6223 -0.2416 -0.3175
 9202SOL    HW239243   1.872   0.223   5.871  0.2041 -2.8997 -4.3468
 9203SOL     OW39244   4.627   0.705   4.672 -0.0004  0.8064  0.2000
 9203SOL    HW139245   4.682   0.690   4.596  0.9701  1.5258  0.7692
 9203SOL    HW239246   4.555   0.641   4.671  2.2669 -1.8085  3.8450
 9204SOL     OW39247   0.705   3.510   4.004 -0.0721 -0.0856  0.2421
 9204SOL    HW139248   0.668   3.486   3.918  3.3422  3.5556 -2.2182
 9204SOL    HW239249   0.663   3.437   4.050  1.2024 -0.8154  0.2653
 9205SOL     OW39250   0.279   2.872   9.320  0.8873 -0.0633 -0.2090
 9205SOL    HW139251   0.299   2.892   9.411  0.1361 -0.0959 -0.0385
 9205SOL    HW239252   0.354   2.892   9.264 -0.3684  0.8729 -1.5745
 9206SOL     OW39253   3.733   3.923   0.531 -0.2218  0.0258  0.4440
 9206SOL    HW139254   3.793   3.990   0.564 -2.6714  2.8464 -0.8258
 9206SOL    HW239255   3.793   3.869   0.479 -1.1144 -0.3653 -0.1874
 9207SOL     OW39256   3.505   4.273   0.240  0.1160  0.5810 -0.4975
 9207SOL    HW139257   3.518   4.223   0.160 -1.4286  0.3672 -0.6108
 9207SOL    HW239258   3.410   4.277   0.237  0.0588 -0.6114 -0.2184
 9208SOL     OW39259   1.862   4.558   5.362 -0.3999  0.0358 -0.0397
 9208SOL    HW139260   1.922   4.507   5.417 -0.3596 -0.5341 -0.6153
 9208SOL    HW239261   1.923   4.632   5.352 -1.3067  0.5178 -1.9568
 9209SOL     OW39262   4.688   1.628   3.181 -0.0864 -0.4268  0.0927
 9209SOL    HW139263   4.644   1.573   3.246 -2.7951 -1.5934 -2.6859
 9209SOL    HW239264   4.716   1.699   3.238  1.2645 -0.5206 -0.4644
 9210SOL     OW39265   3.453   4.694  12.351  0.0015 -0.0282  0.1211
 9210SOL    HW139266   3.377   4.655  12.307 -0.4973  0.7580  0.2786
 9210SOL    HW239267   3.487   4.615  12.393  2.1335 -0.3024 -2.0790
 9211SOL     OW39268   2.070   0.673   5.957 -0.2811 -0.7579  0.0517
 9211SOL    HW139269   1.982   0.699   5.986  0.4406 -0.0201  1.5727
 9211SOL    HW239270   2.123   0.715   6.024 -1.0536  2.8976 -1.6349
 9212SOL     OW39271   0.774   2.113   5.493 -0.1363  0.1792  0.5563
 9212SOL    HW139272   0.728   2.183   5.539 -0.6506 -1.1633  2.1044
 9212SOL    HW239273   0.707   2.067   5.441  1.7899 -2.1559  0.1395
 9213SOL     OW39274   0.451   1.309   2.187 -0.5938  0.4378  0.0770
 9213SOL    HW139275   0.518   1.378   2.192 -0.6294  0.5390 -0.8977
 9213SOL    HW239276   0.507   1.232   2.198  0.6256  1.1446 -1.3425
 9214SOL     OW39277   0.984   3.926   8.370 -0.2577 -0.4801  0.1422
 9214SOL    HW139278   0.980   3.929   8.275  0.7820  2.6921  0.1848
 9214SOL    HW239279   0.890   3.938   8.385  0.3779  4.3319  0.2481
 9215SOL     OW39280   3.476   2.825   5.222  0.4916 -0.3069  0.2153
 9215SOL    HW139281   3.547   2.806   5.160  1.5785 -0.2461  1.4259
 9215SOL    HW239282   3.406   2.775   5.181  0.3249 -0.6714  0.9460
 9216SOL     OW39283   4.713   1.607  10.194 -0.1114 -0.3463  0.4566
 9216SOL    HW139284   4.691   1.514  10.195 -1.9188  0.0582 -1.0966
 9216SOL    HW239285   4.630   1.637  10.232 -1.3296  0.3957 -2.8051
 9217SOL     OW39286   2.271   4.340   5.193 -0.3237  0.0671 -0.4963
 9217SOL    HW139287   2.198   4.279   5.204  1.0024 -1.4945 -0.4366
 9217SOL    HW239288   2.250   4.394   5.269  1.3632 -1.5884  1.1193
 9218SOL     OW39289   1.994   0.681   3.596 -0.6717  0.3048  0.7069
 9218SOL    HW139290   2.046   0.732   3.657  2.0247 -0.1074 -1.2745
 9218SOL    HW239291   2.064   0.632   3.552 -1.1115  0.3354 -0.0377
 9219SOL     OW39292   1.000   0.767   5.850  0.0312  0.1158  0.1574
 9219SOL    HW139293   0.944   0.837   5.818 -0.0632  0.3363  0.7962
 9219SOL    HW239294   0.992   0.774   5.945 -0.3861 -0.3403  0.1577
 9220SOL     OW39295   0.312   2.136  13.975 -0.7015  0.1325  0.5082
 9220SOL    HW139296   0.354   2.152  14.059  2.7496 -0.4705 -1.0887
 9220SOL    HW239297   0.240   2.199  13.979  0.5006  1.5063  0.7716
 9221SOL     OW39298   2.821   1.674  17.147 -0.1515 -0.5067  0.6244
 9221SOL    HW139299   2.817   1.701  17.056 -2.8096  0.9513  1.1531
 9221SOL    HW239300   2.742   1.719  17.176 -0.3064 -0.9214  0.8478
 9222SOL     OW39301   1.744   2.675  17.389  0.0065  0.0026  0.6126
 9222SOL    HW139302   1.803   2.694  17.316 -0.0235  1.9954  1.1174
 9222SOL    HW239303   1.742   2.580  17.377  0.2133  0.4601 -3.2129
 9223SOL     OW39304   4.425   4.715   2.813 -0.2646 -0.1855  0.1108
 9223SOL    HW139305   4.416   4.626   2.779 -1.7501 -0.7630  1.9669
 9223SOL    HW239306   4.483   0.022   2.752  0.7574  1.7186  2.5015
 9224SOL     OW39307   2.319   3.550   7.152  0.4305 -0.5467 -0.0263
 9224SOL    HW139308   2.291   3.639   7.131  0.8807 -0.1586  1.0198
 9224SOL    HW239309   2.414   3.560   7.152  0.2970  0.7094 -0.1059
 9225SOL     OW39310   0.679   3.216   7.822 -0.5802  0.6350 -0.1793
 9225SOL    HW139311   0.642   3.227   7.734 -0.5218 -1.7719 -0.5146
 9225SOL    HW239312   0.761   3.168   7.813 -0.7958  0.4807 -1.3829
 9226SOL     OW39313   2.553   2.351  11.685 -0.1799  0.1811  0.2803
 9226SOL    HW139314   2.632   2.316  11.725  0.8580  0.0805 -1.8843
 9226SOL    HW239315   2.562   2.444  11.664  0.8383  0.4172  1.8344
 9227SOL     OW39316   1.777   4.271  16.137 -0.1235 -0.1404 -0.1907
 9227SOL    HW139317   1.834   4.303  16.067  0.3367  0.5144  0.4876
 9227SOL    HW239318   1.735   4.194  16.098  0.4854 -0.9032  0.6609
 9228SOL     OW39319   2.482   1.155   2.147  0.2646  0.4316  0.1428
 9228SOL    HW139320   2.477   1.215   2.222  1.5146  3.4163 -2.1506
 9228SOL    HW239321   2.577   1.141   2.157 -0.0874 -1.4352  0.8959
 9229SOL     OW39322   3.167   4.348  14.333 -0.2310  0.5452  0.7550
 9229SOL    HW139323   3.168   4.362  14.239  0.4356 -0.4290  0.6088
 9229SOL    HW239324   3.107   4.418  14.357 -0.9301 -0.2909  1.4766
 9230SOL     OW39325   1.650   2.418   8.993 -0.1440  0.3042  0.0591
 9230SOL    HW139326   1.666   2.512   8.997 -0.0543  0.1820  2.3148
 9230SOL    HW239327   1.740   2.396   9.017 -0.1934 -0.8162 -0.7629
 9231SOL     OW39328   1.227   3.335   4.273  0.7108 -0.5306  0.2222
 9231SOL    HW139329   1.197   3.347   4.183  1.7763 -1.3764 -0.2464
 9231SOL    HW239330   1.197   3.246   4.290  0.3085 -1.0269 -2.9462
 9232SOL     OW39331   4.125   4.352   4.285 -0.6381  0.0019  0.8633
 9232SOL    HW139332   4.181   4.275   4.274 -1.9099 -0.9279  0.8550
 9232SOL    HW239333   4.158   4.406   4.214 -1.3932  0.1760  0.6480
 9233SOL     OW39334   3.585   0.715  17.575  0.2452  0.0817 -0.1996
 9233SOL    HW139335   3.565   0.683  17.663  0.3089  0.6477  0.0183
 9233SOL    HW239336   3.531   0.664  17.514 -0.7789  0.4585  0.4002
 9234SOL     OW39337   1.200   4.032   2.573  0.1147 -0.2569 -0.2131
 9234SOL    HW139338   1.146   4.027   2.493  1.6613  1.7097 -1.3766
 9234SOL    HW239339   1.252   3.952   2.564 -1.4183 -1.4534  1.6672
 9235SOL     OW39340   1.824   3.593   7.137  0.4277  0.1867  0.4832
 9235SOL    HW139341   1.843   3.501   7.157 -1.1956  0.1545  1.9114
 9235SOL    HW239342   1.805   3.630   7.223  1.3987  0.3756  0.6061
 9236SOL     OW39343   0.122   4.431   8.740  0.0152 -0.2103  0.6001
 9236SOL    HW139344   0.062   4.487   8.691  2.1231  0.5767 -1.0924
 9236SOL    HW239345   0.133   4.354   8.685  0.6931  0.3133  0.0099
 9237SOL     OW39346   3.999   1.506   4.491  0.3737  0.3919 -0.3308
 9237SOL    HW139347   4.032   1.562   4.562  0.2021 -0.3752  0.3562
 9237SOL    HW239348   4.054   1.523   4.415 -0.3845  0.3536 -0.8800
 9238SOL     OW39349   0.270   2.556  14.005 -0.1464 -0.4358  0.2279
 9238SOL    HW139350   0.214   2.573  14.081  1.2947 -2.2648  1.6792
 9238SOL    HW239351   0.245   2.464  13.995  1.6974 -0.9174  0.0808
 9239SOL     OW39352   2.163   1.141  15.410  0.4346  0.7153  0.3436
 9239SOL    HW139353   2.242   1.113  15.456  0.4598  1.2445  0.6201
 9239SOL    HW239354   2.178   1.097  15.326  0.0684  0.0611  0.6282
 9240SOL     OW39355   4.440   4.361   3.909 -0.1091  1.2881  0.5016
 9240SOL    HW139356   4.356   4.393   3.941 -0.6406 -0.3939  0.7766
 9240SOL    HW239357   4.429   4.270   3.938  1.4224  0.8783 -0.1657
 9241SOL     OW39358   4.409   3.835   5.292  0.3901  0.5913 -0.5920
 9241SOL    HW139359   4.474   3.787   5.240  1.6683  0.2686  1.3328
 9241SOL    HW239360   4.369   3.765   5.344  0.6731  1.9694  1.4651
 9242SOL     OW39361   1.649   1.880   9.398  0.3709 -0.2047 -0.4592
 9242SOL    HW139362   1.566   1.918   9.427  1.2938  2.0150 -0.6615
 9242SOL    HW239363   1.665   1.795   9.439  3.0087  1.0622  1.1919
 9243SOL     OW39364   0.215   0.386  10.762  0.3909  0.2313  0.0320
 9243SOL    HW139365   0.153   0.397  10.835 -0.9869 -1.3193 -0.8929
 9243SOL    HW239366   0.244   0.295  10.773  2.8338  1.2689  2.2614
 9244SOL     OW39367   4.609   3.028  14.908  0.2512 -0.2308 -0.1821
 9244SOL    HW139368   4.662   3.010  14.831  2.4590 -1.4373  1.6029
 9244SOL    HW239369   4.627   2.951  14.962 -1.6748  0.5503  1.6020
 9245SOL     OW39370   4.051   4.680   8.417  0.1025  0.4257 -0.0700
 9245SOL    HW139371   3.973   4.732   8.436 -1.2205 -1.0237 -1.5690
 9245SOL    HW239372   4.011   4.594   8.402  0.8900  0.4375 -2.1456
 9246SOL     OW39373   4.092   0.626  13.805 -0.6090 -0.3466 -0.7042
 9246SOL    HW139374   4.056   0.602  13.720  0.2983 -2.6430 -0.4252
 9246SOL    HW239375   4.059   0.559  13.864  0.9806 -1.3203 -0.9355
 9247SOL     OW39376   4.274   1.618   4.681  0.0327 -0.2994  0.7704
 9247SOL    HW139377   4.354   1.633   4.632 -0.5269  0.9450  0.2350
 9247SOL    HW239378   4.314   1.593   4.764  0.2283  1.6382  1.2579
 9248SOL     OW39379   4.046   1.724   0.088 -0.5138 -0.1171  0.4077
 9248SOL    HW139380   4.011   1.813   0.079  0.3795  0.0361 -1.5102
 9248SOL    HW239381   4.135   1.749   0.063 -1.0376  0.0628 -1.3040
 9249SOL     OW39382   2.949   3.486   5.904  0.2052 -0.4365 -0.0740
 9249SOL    HW139383   2.904   3.432   5.839  0.4673  0.5466 -1.0731
 9249SOL    HW239384   2.890   3.479   5.979  1.2621 -1.6305  0.6454
 9250SOL     OW39385   1.968   1.123   1.617  0.0418 -0.0795  0.0845
 9250SOL    HW139386   1.965   1.095   1.525  1.8878 -0.8500  0.2598
 9250SOL    HW239387   2.024   1.063   1.665 -0.8197 -0.5489  0.5078
 9251SOL     OW39388   4.437   0.459   1.493  0.4499  0.0757  0.1872
 9251SOL    HW139389   4.351   0.453   1.453 -0.8312  2.4806  2.5676
 9251SOL    HW239390   4.477   0.375   1.470 -0.2163 -0.1154 -0.2630
 9252SOL     OW39391   1.724   4.271  15.520 -0.1965  0.2249 -0.3179
 9252SOL    HW139392   1.798   4.284  15.460  1.7893 -1.2523  1.8037
 9252SOL    HW239393   1.758   4.319  15.595  0.9271  0.4991 -1.0019
 9253SOL     OW39394   4.337   1.601   8.792 -0.1087  0.5046  0.5365
 9253SOL    HW139395   4.371   1.625   8.706  0.7952  0.1046  0.7793
 9253SOL    HW239396   4.288   1.519   8.780  1.3958 -0.5012  1.2655
 9254SOL     OW39397   3.087   3.141   6.728  0.2056 -0.2601 -0.4212
 9254SOL    HW139398   3.144   3.086   6.674  0.3434  1.6518 -2.2318
 9254SOL    HW239399   3.117   3.131   6.819 -0.5932  0.3623 -0.0978
 9255SOL     OW39400   4.435   1.751  13.398  0.5178 -0.6136  0.1295
 9255SOL    HW139401   4.426   1.687  13.327 -0.4414  1.2332 -1.4382
 9255SOL    HW239402   4.344   1.768  13.423  0.5738 -0.0489 -0.0568
 9256SOL     OW39403   4.193   0.182   6.855  0.1588 -0.0316 -0.2969
 9256SOL    HW139404   4.286   0.177   6.878  0.6349 -1.4674 -2.5194
 9256SOL    HW239405   4.187   0.100   6.807 -0.5626 -0.1525  0.0054
 9257SOL     OW39406   0.265   4.310   8.005 -0.2031  0.2556 -0.1445
 9257SOL    HW139407   0.297   4.396   7.978 -0.4538 -0.2165 -1.8987
 9257SOL    HW239408   0.317   4.292   8.083 -2.2138  0.0407  1.1588
 9258SOL     OW39409   2.527   1.556   7.092 -0.1123 -0.1548  0.0753
 9258SOL    HW139410   2.602   1.501   7.113 -0.0640  0.0504  0.4495
 9258SOL    HW239411   2.485   1.586   7.173 -0.9983 -1.0358 -0.0548
 9259SOL     OW39412   1.232   0.630   2.711 -0.1339 -0.2180  0.4558
 9259SOL    HW139413   1.179   0.594   2.639 -2.6274  0.7968  1.7972
 9259SOL    HW239414   1.214   0.564   2.778  2.6303  1.2860  2.6888
 9260SOL     OW39415   1.979   2.642   7.160  0.1192 -0.0447  0.1711
 9260SOL    HW139416   1.944   2.726   7.192 -1.2473 -0.1434 -1.0789
 9260SOL    HW239417   1.955   2.649   7.068 -1.0730  3.2050  0.7147
 9261SOL     OW39418   0.472   0.925   5.736  0.7298  0.0113  0.4916
 9261SOL    HW139419   0.422   0.868   5.678  0.3825 -1.4753  2.2351
 9261SOL    HW239420   0.414   0.920   5.812  0.4283 -0.1677  0.2509
 9262SOL     OW39421   3.604   2.782   8.823  0.1522  0.5689 -0.1204
 9262SOL    HW139422   3.579   2.857   8.769 -2.0227  0.2946  0.4995
 9262SOL    HW239423   3.514   2.754   8.841  1.2737 -1.8340  1.7292
 9263SOL     OW39424   3.208   3.163   8.608  0.2267  0.2002  0.1517
 9263SOL    HW139425   3.174   3.083   8.567  2.1916 -0.0920 -0.8833
 9263SOL    HW239426   3.146   3.226   8.571  0.3860  0.5595  0.4976
 9264SOL     OW39427   2.703   2.157   8.517 -0.2302  0.5031 -0.2924
 9264SOL    HW139428   2.772   2.119   8.462  1.2189  1.4097  0.8924
 9264SOL    HW239429   2.627   2.125   8.469  0.1866  0.7149 -1.0908
 9265SOL     OW39430   0.156   1.973   6.035 -0.1856  0.0917  0.1557
 9265SOL    HW139431   0.207   2.011   6.106  0.5325 -1.0705  0.2566
 9265SOL    HW239432   0.171   1.879   6.043 -3.1875 -0.5248 -1.3109
 9266SOL     OW39433   3.795   4.008   5.658 -0.4366  0.2106  0.3055
 9266SOL    HW139434   3.793   3.955   5.578  3.4674 -1.6094  1.3872
 9266SOL    HW239435   3.883   4.047   5.655 -0.0827 -0.5889  0.2590
 9267SOL     OW39436   2.563   4.158  14.069  0.2646 -0.0488 -0.3435
 9267SOL    HW139437   2.618   4.080  14.078 -3.0762 -2.2813  0.5535
 9267SOL    HW239438   2.573   4.205  14.152  0.4608  0.1206 -0.4633
 9268SOL     OW39439   0.657   2.546   8.010 -0.4502  0.0936 -0.0512
 9268SOL    HW139440   0.712   2.625   8.005 -1.3691  0.8101  1.0696
 9268SOL    HW239441   0.722   2.476   8.006 -0.2345  0.3060 -0.2657
 9269SOL     OW39442   1.055   0.568  11.485 -0.1429  0.2280 -0.2488
 9269SOL    HW139443   1.019   0.648  11.448 -4.2926 -1.0582  1.0652
 9269SOL    HW239444   1.146   0.599  11.479 -0.6339  1.7257  0.0789
 9270SOL     OW39445   0.786   1.407   3.968 -0.3494  0.5987 -0.1524
 9270SOL    HW139446   0.767   1.491   4.011 -0.8304  0.0676  0.6887
 9270SOL    HW239447   0.758   1.344   4.036  2.0876 -0.4300 -0.1034
 9271SOL     OW39448   2.030   2.974   4.833 -0.1601 -0.4852 -0.1415
 9271SOL    HW139449   1.935   2.973   4.826 -0.0073 -2.3652 -1.6486
 9271SOL    HW239450   2.044   2.881   4.816  0.5801  0.0206 -2.2786
 9272SOL     OW39451   3.695   2.437   3.700  0.2382  0.2488 -0.3020
 9272SOL    HW139452   3.756   2.449   3.627 -0.4131  2.6507 -0.4277
 9272SOL    HW239453   3.751   2.405   3.770  0.4188  2.3164  0.4880
 9273SOL     OW39454   2.405   2.454  10.049  0.6260  0.0291  0.8207
 9273SOL    HW139455   2.351   2.489   9.978  0.8362 -0.2499  0.5213
 9273SOL    HW239456   2.361   2.476  10.131 -0.9401 -0.1845  0.0420
 9274SOL     OW39457   3.894   2.886  11.339  0.2217  0.3786  0.3116
 9274SOL    HW139458   3.910   2.792  11.331  1.0950  0.6536 -1.1558
 9274SOL    HW239459   3.837   2.911  11.267  1.2177 -0.6002 -0.8067
 9275SOL     OW39460   0.739   2.596  14.241 -0.3081  0.4417 -0.2466
 9275SOL    HW139461   0.834   2.584  14.228 -0.4276 -0.1751 -0.5460
 9275SOL    HW239462   0.678   2.553  14.182 -0.3779  2.0124 -1.3355
 9276SOL     OW39463   1.614   2.918   7.784  0.7891  0.1632 -0.2834
 9276SOL    HW139464   1.659   2.942   7.703  1.4386  0.3986  0.1386
 9276SOL    HW239465   1.682   2.922   7.852 -1.0384  1.1112  1.5019
 9277SOL     OW39466   1.078   2.619   7.868 -0.3715  0.1713  0.4345
 9277SOL    HW139467   1.140   2.569   7.922  0.0868  1.6671  1.2738
 9277SOL    HW239468   1.055   2.547   7.808 -1.5695  1.3545 -0.5333
 9278SOL     OW39469   1.925   0.489   8.439 -0.6069  0.2275 -0.1785
 9278SOL    HW139470   1.916   0.507   8.346  1.0279  1.5399 -0.0758
 9278SOL    HW239471   1.963   0.573   8.467 -2.0185  0.6719  0.4730
 9279SOL     OW39472   2.777   3.976  11.018 -0.4755  0.2742 -0.2635
 9279SOL    HW139473   2.719   4.049  10.996 -0.3130 -0.4676 -3.0897
 9279SOL    HW239474   2.749   3.948  11.105 -0.6478  0.3757 -0.2879
 9280SOL     OW39475   3.247   0.055   8.529  0.0913 -0.4437 -0.5273
 9280SOL    HW139476   3.238   4.718   8.472  1.9614 -1.0708  0.0339
 9280SOL    HW239477   3.186   0.117   8.488  1.0338 -0.7798 -2.4275
 9281SOL     OW39478   0.256   0.426  15.940  0.2541 -0.2540 -0.0021
 9281SOL    HW139479   0.313   0.352  15.916  0.7243  0.4334 -0.9766
 9281SOL    HW239480   0.278   0.442  16.032 -1.3990  0.8297  0.1914
 9282SOL     OW39481   2.701   2.371   7.622  0.0411 -0.0721 -0.6568
 9282SOL    HW139482   2.619   2.386   7.576  0.3151 -0.2744 -1.2098
 9282SOL    HW239483   2.741   2.454   7.594 -2.4207  1.8946  1.5771
 9283SOL     OW39484   3.375   4.061   2.630  0.5630 -0.5731  0.4653
 9283SOL    HW139485   3.323   4.128   2.673 -2.5538 -3.1594  0.7164
 9283SOL    HW239486   3.458   4.106   2.644 -0.4260  1.9553 -1.8210
 9284SOL     OW39487   2.065   3.976   5.954 -0.1471  0.1402 -0.0121
 9284SOL    HW139488   2.148   3.957   5.998 -1.0458  0.1315  1.6426
 9284SOL    HW239489   2.098   4.017   5.874  0.4366 -0.9594 -0.3316
 9285SOL     OW39490   1.720   3.649   1.861 -0.0629 -0.6943 -0.2602
 9285SOL    HW139491   1.683   3.563   1.837 -3.2142  1.1532 -2.0377
 9285SOL    HW239492   1.644   3.700   1.889 -0.9596 -0.6699 -2.7211
 9286SOL     OW39493   3.133   0.626   4.765  0.3832  0.4816 -0.3001
 9286SOL    HW139494   3.114   0.567   4.838 -0.6785  1.7013  0.4059
 9286SOL    HW239495   3.049   0.616   4.720  0.9024  0.0841 -1.1911
 9287SOL     OW39496   0.160   4.646   6.301 -1.1400 -0.3018 -0.1631
 9287SOL    HW139497   0.235   4.615   6.352 -1.3482  0.1261  0.3996
 9287SOL    HW239498   0.190   4.737   6.294 -2.1429  0.0179 -0.2378
 9288SOL     OW39499   3.348   0.419   3.195 -0.2285  0.6447 -0.4785
 9288SOL    HW139500   3.320   0.443   3.107 -1.3608 -2.9502 -1.0965
 9288SOL    HW239501   3.432   0.463   3.213  0.0634  0.3633 -1.1645
 9289SOL     OW39502   2.602   1.562  17.686  0.1842  0.0568 -0.8935
 9289SOL    HW139503   2.693   1.540  17.671  0.1645 -0.3928 -0.3530
 9289SOL    HW239504   2.584   1.523   0.019 -0.0784  1.7010 -0.1834
 9290SOL     OW39505   4.040   4.008   2.376  0.3289  0.2825 -0.3303
 9290SOL    HW139506   3.980   4.079   2.354  2.6703  3.0611  2.1605
 9290SOL    HW239507   4.082   3.992   2.291 -2.9234 -2.7317 -1.3506
 9291SOL     OW39508   2.280   2.211   9.979 -0.2446 -0.0025 -0.5467
 9291SOL    HW139509   2.320   2.286  10.022 -1.6484 -0.0569  0.8809
 9291SOL    HW239510   2.352   2.148   9.985  1.7218  2.2807 -0.0920
 9292SOL     OW39511   4.177   1.367   5.756 -0.3806 -0.5255 -0.3017
 9292SOL    HW139512   4.109   1.407   5.810  0.0443 -2.5043  1.7243
 9292SOL    HW239513   4.143   1.399   5.673 -0.2256  1.2370  0.3195
 9293SOL     OW39514   3.942   3.011  15.842  0.0035 -0.1607 -0.1799
 9293SOL    HW139515   3.878   3.024  15.913  1.4569 -1.3492  1.3508
 9293SOL    HW239516   4.006   2.961  15.892  3.5467  2.6427 -1.9720
 9294SOL     OW39517   2.532   0.747   0.950 -0.2043 -0.1106  0.1634
 9294SOL    HW139518   2.497   0.830   0.984 -0.8761 -0.3655  0.0904
 9294SOL    HW239519   2.613   0.750   1.000 -0.5479 -1.5480  0.7957
 9295SOL     OW39520   2.723   1.392   3.053 -0.6708  0.7313 -0.4612
 9295SOL    HW139521   2.746   1.484   3.062 -0.0997  0.5015  0.3841
 9295SOL    HW239522   2.684   1.401   2.966 -1.6883  0.4302 -0.0408
 9296SOL     OW39523   1.198   0.738   4.250 -0.2473  0.5704  0.1869
 9296SOL    HW139524   1.293   0.733   4.249 -0.3818 -1.7284 -0.9270
 9296SOL    HW239525   1.197   0.827   4.216  0.9540  0.3212 -0.4752
 9297SOL     OW39526   2.171   0.540   2.171 -0.2591  0.7639 -0.1987
 9297SOL    HW139527   2.129   0.610   2.221 -1.4125  0.4724 -0.7569
 9297SOL    HW239528   2.120   0.537   2.090  0.1850  0.8707 -0.4813
 9298SOL     OW39529   2.892   0.993   2.086  0.1315  0.8553  0.5079
 9298SOL    HW139530   2.820   1.034   2.135  2.2422  2.5798  2.1300
 9298SOL    HW239531   2.887   1.040   2.004 -0.7518 -0.2498 -0.0764
 9299SOL     OW39532   1.019   4.123  11.399  0.4385 -0.3590  0.1661
 9299SOL    HW139533   0.939   4.173  11.409  2.7262  3.5200 -1.0152
 9299SOL    HW239534   1.079   4.190  11.432  0.5319  0.8574 -2.4654
 9300SOL     OW39535   1.360   1.528  15.614 -0.3312 -0.0035  0.2964
 9300SOL    HW139536   1.423   1.486  15.672 -0.0875 -0.7061 -0.4811
 9300SOL    HW239537   1.412   1.607  15.598  0.0629 -0.0486  1.3818
 9301SOL     OW39538   1.517   0.789   5.564 -0.2816  0.0309 -0.6290
 9301SOL    HW139539   1.435   0.781   5.515 -0.6717 -3.4665  0.5573
 9301SOL    HW239540   1.533   0.883   5.565 -3.0201  0.4961 -0.3496
 9302SOL     OW39541   2.961   0.532   6.142 -0.2306 -0.2149 -0.1346
 9302SOL    HW139542   2.998   0.449   6.113  0.8880  0.3335 -0.2901
 9302SOL    HW239543   2.934   0.505   6.230  1.7725  0.6526  0.7602
 9303SOL     OW39544   0.494   2.551   2.625 -0.1820  0.3336  0.3445
 9303SOL    HW139545   0.500   2.635   2.579  1.0321  1.0427  1.7977
 9303SOL    HW239546   0.409   2.517   2.596  1.1807 -2.8681  0.0219
 9304SOL     OW39547   4.393   3.141  13.511  0.3926 -0.3166 -0.3343
 9304SOL    HW139548   4.304   3.175  13.518 -0.1014 -0.8657 -3.5596
 9304SOL    HW239549   4.402   3.158  13.417  1.0718 -2.6079 -0.6861
 9305SOL     OW39550   4.662   2.692   2.882 -1.0521 -0.1282  0.1725
 9305SOL    HW139551   4.668   2.635   2.959 -0.9435  0.6488  0.7456
 9305SOL    HW239552   4.651   2.778   2.923 -2.1774  1.1331 -2.8303
 9306SOL     OW39553   2.956   2.784  16.209  0.3142 -0.2311 -0.2618
 9306SOL    HW139554   2.958   2.783  16.304  1.6530  0.3853 -0.2930
 9306SOL    HW239555   2.982   2.694  16.191  0.1133 -0.6300  1.4719
 9307SOL     OW39556   1.044   1.488  17.578 -0.4174  0.0920  0.0297
 9307SOL    HW139557   0.970   1.430  17.594  0.7294 -0.8383  1.8935
 9307SOL    HW239558   1.101   1.429  17.528  0.0282  0.2011  0.4089
 9308SOL     OW39559   1.059   0.803   7.251 -0.5128 -0.6194 -0.4303
 9308SOL    HW139560   1.051   0.745   7.327  2.1596 -0.6155 -0.1330
 9308SOL    HW239561   0.967   0.819   7.231 -0.5290 -0.6974 -0.4201
 9309SOL     OW39562   1.162   3.352   6.999 -0.2141  0.6210  0.4979
 9309SOL    HW139563   1.093   3.404   7.041 -1.9140 -0.1314 -1.3621
 9309SOL    HW239564   1.183   3.289   7.069  0.4377 -1.3102 -1.4475
 9310SOL     OW39565   1.108   0.093   9.262 -0.6195  0.0513  0.5817
 9310SOL    HW139566   1.110   0.188   9.248 -1.9045 -0.0825 -0.5479
 9310SOL    HW239567   1.107   0.062   9.171  0.0985 -1.3768  1.0634
 9311SOL     OW39568   3.225   4.263   7.390 -0.5839  0.2826  0.1846
 9311SOL    HW139569   3.131   4.280   7.398 -0.8786 -0.6439 -1.2175
 9311SOL    HW239570   3.246   4.230   7.477 -0.1987  4.8124  1.7920
 9312SOL     OW39571   2.214   3.212  16.362  0.0674  0.2773 -0.2104
 9312SOL    HW139572   2.159   3.291  16.365  0.7845  0.7913 -0.6725
 9312SOL    HW239573   2.301   3.249  16.378 -1.2597  2.7197  1.4023
 9313SOL     OW39574   0.760   2.290   7.765  0.0644  0.1212 -0.0981
 9313SOL    HW139575   0.752   2.333   7.850 -0.3310 -4.2370  2.1078
 9313SOL    HW239576   0.668   2.280   7.738  1.0822  0.0426 -3.5400
 9314SOL     OW39577   2.773   3.519  10.021 -0.6694 -0.0489 -0.1610
 9314SOL    HW139578   2.686   3.497  10.055 -0.5926  0.4370  0.3407
 9314SOL    HW239579   2.829   3.464  10.075  0.3248  0.0142 -1.1184
 9315SOL     OW39580   4.286   3.748  11.819  0.0814  0.1191 -0.3399
 9315SOL    HW139581   4.205   3.747  11.768  0.0971  0.2164 -0.3679
 9315SOL    HW239582   4.325   3.687  11.757  2.8476  1.8412 -0.3166
 9316SOL     OW39583   3.058   2.742   9.392 -0.5390  0.2510 -0.3390
 9316SOL    HW139584   3.049   2.778   9.304 -1.7824 -0.3844 -0.4739
 9316SOL    HW239585   3.085   2.825   9.430 -0.8287 -0.2376  0.9549
 9317SOL     OW39586   3.782   1.221   2.016  0.0196  0.4130 -0.4839
 9317SOL    HW139587   3.857   1.163   2.005  1.3135  2.4005 -2.0105
 9317SOL    HW239588   3.722   1.159   2.057  1.8083 -0.5844  0.6065
 9318SOL     OW39589   4.480   3.204   6.841 -0.0927 -0.4784  0.4441
 9318SOL    HW139590   4.421   3.128   6.838 -1.4292  0.5678  0.3319
 9318SOL    HW239591   4.516   3.174   6.925  2.9754 -0.8927 -1.0222
 9319SOL     OW39592   3.264   4.572  15.992 -0.6384  0.4514 -0.2518
 9319SOL    HW139593   3.282   4.550  15.901  0.0406 -0.5638  0.1351
 9319SOL    HW239594   3.350   4.577  16.032 -0.4644 -1.2239 -0.4262
 9320SOL     OW39595   0.408   0.166   4.472 -0.4547 -0.5444  0.4170
 9320SOL    HW139596   0.459   0.089   4.448  0.8521  0.9337 -1.5806
 9320SOL    HW239597   0.320   0.129   4.461 -0.7888  0.9954 -2.2743
 9321SOL     OW39598   3.249   3.848   2.793 -0.0461  0.0962  0.5326
 9321SOL    HW139599   3.272   3.871   2.702  1.4845 -1.0009  0.6380
 9321SOL    HW239600   3.275   3.756   2.787 -0.6863  0.0449 -1.6775
 9322SOL     OW39601   4.570   0.034   1.809  0.5173  0.4799 -0.1291
 9322SOL    HW139602   4.533   0.053   1.895 -0.9565 -0.1877 -0.6161
 9322SOL    HW239603   4.555   4.681   1.788 -0.7818  0.7755 -0.4483
 9323SOL     OW39604   3.368   0.364  17.443  0.0986  0.1526 -0.4072
 9323SOL    HW139605   3.274   0.343  17.442 -0.3055  1.9211  0.2596
 9323SOL    HW239606   3.406   0.278  17.461 -0.5063 -0.2402 -1.0226
 9324SOL     OW39607   3.819   1.884   7.872  0.5227 -0.1653  0.1868
 9324SOL    HW139608   3.758   1.819   7.907  0.5539  1.3412  3.0982
 9324SOL    HW239609   3.822   1.851   7.783 -0.0808 -0.0813  0.1342
 9325SOL     OW39610   1.693   0.797  10.900  0.0793 -0.2545  0.3021
 9325SOL    HW139611   1.637   0.769  10.973  2.5267  0.1104  2.3633
 9325SOL    HW239612   1.753   0.853  10.951 -1.6596  0.1108  1.9466
 9326SOL     OW39613   2.591   0.819   9.058  0.2477  0.2048  0.3248
 9326SOL    HW139614   2.529   0.872   9.008 -0.0346 -0.1279  0.3221
 9326SOL    HW239615   2.593   0.748   8.995 -1.8203  1.4112 -1.0942
 9327SOL     OW39616   1.660   1.445   1.998 -0.2560 -0.5717 -0.2608
 9327SOL    HW139617   1.702   1.472   2.079 -0.1287 -0.1397 -0.4681
 9327SOL    HW239618   1.726   1.379   1.977  0.4961 -0.4557  1.8085
 9328SOL     OW39619   2.697   1.446   4.826 -0.3811 -0.1470 -0.0290
 9328SOL    HW139620   2.644   1.392   4.768 -0.3161  1.3646 -1.5130
 9328SOL    HW239621   2.669   1.443   4.917  0.0361  0.4163  0.1204
 9329SOL     OW39622   4.145   3.319   0.714 -0.2247  0.3903 -0.0244
 9329SOL    HW139623   4.125   3.230   0.688  1.3330 -0.6746  2.4255
 9329SOL    HW239624   4.220   3.306   0.772 -0.2084 -2.1280 -0.6174
 9330SOL     OW39625   1.046   0.887  12.018  0.1495 -0.1224  0.0608
 9330SOL    HW139626   1.094   0.864  12.097  2.5492  1.1263 -1.0448
 9330SOL    HW239627   0.988   0.959  12.045 -0.1855 -0.5102  0.3667
 9331SOL     OW39628   3.120   0.845   3.911 -0.3574 -0.2908 -0.7492
 9331SOL    HW139629   3.134   0.924   3.860  1.3079 -0.6344 -0.8351
 9331SOL    HW239630   3.024   0.842   3.915 -0.3056 -2.3432 -0.7331
 9332SOL     OW39631   4.196   2.803   7.322  0.7322  0.0650 -0.3336
 9332SOL    HW139632   4.145   2.883   7.322  1.8651  0.8008  2.7125
 9332SOL    HW239633   4.228   2.803   7.232  0.0967 -4.3531 -0.5536
 9333SOL     OW39634   1.203   2.022   9.217 -0.3106 -0.0360  0.2289
 9333SOL    HW139635   1.184   1.993   9.306 -1.6807 -1.7332 -0.6293
 9333SOL    HW239636   1.247   2.101   9.247 -2.3227  2.0512 -2.2957
 9334SOL     OW39637   1.463   3.458  10.218 -0.2100  0.3337 -0.1937
 9334SOL    HW139638   1.495   3.410  10.295  1.0117 -1.4208 -1.7915
 9334SOL    HW239639   1.549   3.463  10.177 -0.3275 -2.7177 -0.8092
 9335SOL     OW39640   1.118   0.648   1.993 -0.1144  0.0592  0.0694
 9335SOL    HW139641   1.122   0.621   2.085 -0.1610  1.2356  0.4159
 9335SOL    HW239642   1.207   0.619   1.973 -0.1195  1.0796 -1.4096
 9336SOL     OW39643   2.116   2.708  12.761 -0.1468 -0.1361  0.1572
 9336SOL    HW139644   2.170   2.718  12.839 -0.6425  0.1303  0.4663
 9336SOL    HW239645   2.041   2.660  12.796  0.9114  0.4196  3.1856
 9337SOL     OW39646   3.323   3.613  16.064  0.2241  0.4159 -0.3610
 9337SOL    HW139647   3.243   3.600  16.114  0.3535  0.2067 -0.2087
 9337SOL    HW239648   3.309   3.548  15.995  3.4185 -0.0437 -0.5743
 9338SOL     OW39649   0.874   4.307   6.537  0.6756 -0.2821 -0.0462
 9338SOL    HW139650   0.852   4.396   6.511 -0.6195 -1.0392 -1.5422
 9338SOL    HW239651   0.939   4.315   6.607  0.5116  0.1030  0.0633
 9339SOL     OW39652   0.091   3.862   7.101  0.0964 -0.1932  0.1678
 9339SOL    HW139653   0.151   3.787   7.103  0.6319  0.2386  0.4167
 9339SOL    HW239654   0.044   3.868   7.184 -0.7325  0.6840 -0.3722
 9340SOL     OW39655   0.204   0.763  12.453 -0.0712 -0.4806  0.0843
 9340SOL    HW139656   0.217   0.761  12.358 -0.2929  1.5078  0.0113
 9340SOL    HW239657   0.282   0.717  12.486  1.0013 -0.3389 -2.2283
 9341SOL     OW39658   1.665   3.015  17.440  0.1683 -0.0047  0.2382
 9341SOL    HW139659   1.748   3.055  17.413 -0.8072  0.5337 -1.9687
 9341SOL    HW239660   1.605   3.074  17.394  0.7149  0.6452  0.3568
 9342SOL     OW39661   0.208   0.053  15.116 -0.0027  0.7136  0.1336
 9342SOL    HW139662   0.173   0.015  15.197 -0.7051  0.2595 -0.3808
 9342SOL    HW239663   0.136   0.039  15.055 -0.4125  1.8702  0.3561
 9343SOL     OW39664   2.797   2.562   8.061 -0.2100  0.1730 -0.2150
 9343SOL    HW139665   2.819   2.469   8.066  3.8921  1.2558  1.2583
 9343SOL    HW239666   2.733   2.573   8.131 -1.2157  1.2273 -1.2957
 9344SOL     OW39667   0.575   4.353   6.674  0.1908  0.5950 -0.3814
 9344SOL    HW139668   0.615   4.300   6.743 -1.8927 -0.5631 -0.0726
 9344SOL    HW239669   0.490   4.371   6.716  0.6781 -1.7975  1.6193
 9345SOL     OW39670   0.082   3.642  11.092  0.6700  0.1186  0.2051
 9345SOL    HW139671   0.129   3.604  11.167  1.7719  1.6446  0.2870
 9345SOL    HW239672   0.112   3.583  11.023  3.3281  0.3909  1.1142
 9346SOL     OW39673   1.455   0.617   9.320 -0.3216 -0.3219  0.2824
 9346SOL    HW139674   1.364   0.588   9.315 -0.2493 -0.4767 -0.0931
 9346SOL    HW239675   1.474   0.630   9.227 -0.2085  0.3130  0.3941
 9347SOL     OW39676   2.439   2.203   7.656  0.0883  0.4638 -0.1202
 9347SOL    HW139677   2.513   2.169   7.706 -0.0729  1.0886  0.5573
 9347SOL    HW239678   2.468   2.293   7.641  2.4281  0.0996  2.2364
 9348SOL     OW39679   2.926   2.662   1.648  0.3374 -0.0505 -0.1290
 9348SOL    HW139680   2.838   2.644   1.616 -0.1523  0.3310  1.0135
 9348SOL    HW239681   2.973   2.579   1.634  1.4168  0.6410 -0.5990
 9349SOL     OW39682   2.943   1.568  15.850 -0.1558  0.0642 -0.0228
 9349SOL    HW139683   2.897   1.497  15.807 -1.8574  1.8505 -1.1887
 9349SOL    HW239684   2.989   1.597  15.772 -0.0777 -1.4927 -0.5374
 9350SOL     OW39685   4.392   1.891   5.763  0.2757 -1.0719  0.1084
 9350SOL    HW139686   4.410   1.969   5.709  0.4389 -0.9731  0.3037
 9350SOL    HW239687   4.458   1.905   5.831  0.0058 -1.0007  0.3534
 9351SOL     OW39688   0.297   3.613   6.553 -0.4727  0.2851  0.2776
 9351SOL    HW139689   0.276   3.600   6.461 -0.7550  1.2832  0.2044
 9351SOL    HW239690   0.286   3.708   6.561 -0.2289  0.3077  0.3636
 9352SOL     OW39691   2.391   1.763   3.637 -0.2736 -0.0267 -0.1180
 9352SOL    HW139692   2.480   1.731   3.631 -0.3298  0.0360 -1.2399
 9352SOL    HW239693   2.361   1.745   3.548 -0.0634  0.9103 -0.3794
 9353SOL     OW39694   1.355   0.936   6.594 -0.0948 -0.6608  0.0097
 9353SOL    HW139695   1.356   0.900   6.682  0.8848  1.3775  0.8361
 9353SOL    HW239696   1.294   1.007   6.614  0.7269  0.2833 -0.8294
 9354SOL     OW39697   1.870   1.849   3.847  0.1476 -0.0286 -0.4087
 9354SOL    HW139698   1.803   1.847   3.915  1.4856 -0.0132  0.9037
 9354SOL    HW239699   1.814   1.816   3.776 -1.3660  2.3006 -0.3048
 9355SOL     OW39700   1.702   2.201   9.298  0.2476 -0.0871  0.0003
 9355SOL    HW139701   1.718   2.125   9.243 -1.0690  0.4649 -1.1599
 9355SOL    HW239702   1.791   2.235   9.305 -0.0359  0.7396 -0.3841
 9356SOL     OW39703   1.103   1.675   9.003  0.1699 -0.0482  0.1563
 9356SOL    HW139704   1.077   1.597   9.052 -1.3649  0.4044  0.0603
 9356SOL    HW239705   1.041   1.741   9.033 -0.7893  0.3335 -2.6460
 9357SOL     OW39706   0.663   3.335   9.423  0.2030 -0.0531  0.2925
 9357SOL    HW139707   0.575   3.299   9.414  0.4179 -0.3232 -0.7520
 9357SOL    HW239708   0.696   3.304   9.507 -0.0566  1.2868  0.8903
 9358SOL     OW39709   1.378   0.465   3.823 -0.1897 -0.0640  0.0818
 9358SOL    HW139710   1.378   0.460   3.727 -1.3526 -1.5068  0.1610
 9358SOL    HW239711   1.415   0.552   3.834  0.0908  0.1067 -2.1435
 9359SOL     OW39712   4.669   1.183  17.436 -0.5544  0.0001 -0.0594
 9359SOL    HW139713   4.601   1.231  17.389 -1.0146  0.1625  0.7795
 9359SOL    HW239714   4.631   1.136  17.510  0.3419  1.5222  1.3682
 9360SOL     OW39715   4.401   1.440   0.665  0.5628 -0.3310  0.0292
 9360SOL    HW139716   4.435   1.525   0.694 -0.7974  0.3149 -0.2349
 9360SOL    HW239717   4.387   1.389   0.745 -1.5434 -0.4963 -0.4343
 9361SOL     OW39718   1.037   2.681  11.722  0.1066 -0.1065  0.0674
 9361SOL    HW139719   1.058   2.626  11.797 -1.0175  3.1849  2.7873
 9361SOL    HW239720   0.945   2.701  11.735 -0.1606 -1.3745  0.1076
 9362SOL     OW39721   0.915   4.478   7.908  0.7423  0.0462 -0.3614
 9362SOL    HW139722   0.882   4.550   7.963 -0.5341 -1.8699  1.4046
 9362SOL    HW239723   0.926   4.414   7.979 -0.7430 -0.2711 -0.4219
 9363SOL     OW39724   2.379   1.571   6.868 -0.3722 -0.6037 -0.0506
 9363SOL    HW139725   2.414   1.508   6.931 -2.9629 -1.7535  0.2053
 9363SOL    HW239726   2.348   1.644   6.922  0.0404  0.0562 -0.7023
 9364SOL     OW39727   4.272   3.740   7.901 -0.3934  0.0896  0.2696
 9364SOL    HW139728   4.279   3.804   7.830 -0.2805 -0.2971 -0.0621
 9364SOL    HW239729   4.347   3.761   7.957 -0.3406  1.2669 -0.2272
 9365SOL     OW39730   2.051   2.667   3.785 -0.3364 -0.5205 -0.3495
 9365SOL    HW139731   2.078   2.628   3.702  1.0589 -1.6197  0.6245
 9365SOL    HW239732   2.029   2.756   3.758  0.2476 -0.9492 -2.2272
 9366SOL     OW39733   3.211   3.441   8.466 -0.3006  0.8437 -0.6444
 9366SOL    HW139734   3.302   3.443   8.493 -0.7310 -0.1924  0.8946
 9366SOL    HW239735   3.165   3.508   8.517  2.6021  0.7616  2.0930
 9367SOL     OW39736   4.020   2.728   0.849  0.0485 -0.2589 -0.6847
 9367SOL    HW139737   4.063   2.778   0.919 -0.6023 -3.1643  1.7754
 9367SOL    HW239738   4.102   2.694   0.813  1.2455  2.3139 -0.4459
 9368SOL     OW39739   3.417   1.385  11.699  0.3303  0.4632 -0.6494
 9368SOL    HW139740   3.389   1.305  11.655 -0.9634  0.3154  0.4267
 9368SOL    HW239741   3.373   1.379  11.785 -0.5271 -1.1080 -1.1934
 9369SOL     OW39742   2.862   1.692   8.315  0.1457 -0.2822  0.2629
 9369SOL    HW139743   2.945   1.693   8.362  0.6399  0.5545 -0.6249
 9369SOL    HW239744   2.827   1.621   8.369 -3.1123  0.8234 -0.3928
 9370SOL     OW39745   0.060   1.335  11.389  0.6274 -0.4269  0.0846
 9370SOL    HW139746   4.704   1.325  11.393  0.3423  1.8622 -1.2135
 9370SOL    HW239747   0.090   1.244  11.395 -0.1332 -0.6332  0.6673
 9371SOL     OW39748   1.793   3.887   2.993 -0.1455  0.6142 -0.2061
 9371SOL    HW139749   1.701   3.902   3.015 -0.3658  1.6631 -1.7889
 9371SOL    HW239750   1.828   3.972   2.966 -0.4548  0.4945 -0.9993
 9372SOL     OW39751   0.888   3.448   9.288 -0.3205  0.6749 -0.2681
 9372SOL    HW139752   0.864   3.417   9.201 -0.7038 -0.0176  0.0852
 9372SOL    HW239753   0.809   3.428   9.337 -0.7160  0.9171 -0.8027
 9373SOL     OW39754   3.716   3.616  17.675  0.6241  0.2265 -0.2035
 9373SOL    HW139755   3.732   3.525  17.648  0.0310  0.3532 -0.9904
 9373SOL    HW239756   3.802   3.656  17.682  1.2547 -0.9601 -1.1347
 9374SOL     OW39757   3.136   3.444   8.036  0.2520 -0.0282  0.0095
 9374SOL    HW139758   3.195   3.508   7.997  0.5456  0.8073  1.8296
 9374SOL    HW239759   3.089   3.496   8.102 -0.7194 -0.5001 -0.3075
 9375SOL     OW39760   1.013   1.007   6.692  0.6195  0.7807 -0.3005
 9375SOL    HW139761   1.045   0.937   6.750 -1.0723  1.3707  1.3136
 9375SOL    HW239762   0.993   1.075   6.756 -1.0414  0.6118 -0.6621
 9376SOL     OW39763   4.117   4.036  12.418 -0.1307  0.5486  0.0628
 9376SOL    HW139764   4.067   4.018  12.497 -0.0798 -3.2337 -0.7482
 9376SOL    HW239765   4.172   3.958  12.420  1.1434  1.3659 -2.6437
 9377SOL     OW39766   1.343   3.436   1.678 -0.1231  0.1544  0.4608
 9377SOL    HW139767   1.436   3.456   1.684 -0.6368  2.3021  1.3661
 9377SOL    HW239768   1.315   3.491   1.605  2.8406  1.6877  0.4597
 9378SOL     OW39769   1.071   1.329   7.394  0.2187  0.3182  0.1050
 9378SOL    HW139770   0.988   1.337   7.441 -1.1051 -1.2620 -1.9949
 9378SOL    HW239771   1.094   1.420   7.375 -1.4043  0.6160 -0.4651
 9379SOL     OW39772   0.515   4.291   3.797  0.0538  0.4764 -0.2607
 9379SOL    HW139773   0.524   4.383   3.772  1.5113 -0.5735 -3.5466
 9379SOL    HW239774   0.423   4.269   3.782 -0.6021  3.2758 -0.3810
 9380SOL     OW39775   0.510   2.775   3.979 -0.4645  0.3781 -0.0048
 9380SOL    HW139776   0.506   2.682   3.959 -1.7276  0.5303 -0.4339
 9380SOL    HW239777   0.549   2.765   4.066  0.1822  1.6145 -0.1409
 9381SOL     OW39778   0.041   3.103   5.226 -0.2903 -0.3325 -0.1451
 9381SOL    HW139779   0.102   3.031   5.215  1.2839  0.7330  1.7566
 9381SOL    HW239780   4.697   3.059   5.204 -0.2276 -0.0954 -0.8640
 9382SOL     OW39781   0.782   3.794   6.480  0.0140  0.1853  0.0614
 9382SOL    HW139782   0.763   3.887   6.491 -2.3152 -0.2636 -0.2614
 9382SOL    HW239783   0.710   3.748   6.523  1.0066  1.4921  3.1036
 9383SOL     OW39784   0.090   1.220   5.375 -0.3204 -0.4475  0.1439
 9383SOL    HW139785   0.010   1.236   5.325 -0.1753  1.1327  0.4163
 9383SOL    HW239786   0.120   1.142   5.328 -1.0340 -1.2831  1.0599
 9384SOL     OW39787   3.809   2.881  15.621  0.0067  0.4514  0.0719
 9384SOL    HW139788   3.854   2.929  15.690  0.6940  0.4727 -0.3918
 9384SOL    HW239789   3.857   2.798  15.615 -1.3772 -0.3988  0.8332
 9385SOL     OW39790   0.536   4.089  17.429  0.8017  0.1069 -0.4996
 9385SOL    HW139791   0.521   4.120  17.340  0.6498  0.7390 -0.2550
 9385SOL    HW239792   0.620   4.133  17.439  0.6920  0.2440 -0.1496
 9386SOL     OW39793   2.349   4.310   0.858  0.1658 -0.2197  0.0490
 9386SOL    HW139794   2.440   4.279   0.857 -0.0235 -0.8520  2.7320
 9386SOL    HW239795   2.361   4.401   0.831 -1.6764  0.0842  0.2831
 9387SOL     OW39796   1.324   0.371   2.822 -0.1345  0.4335 -0.2077
 9387SOL    HW139797   1.354   0.345   2.735  1.5867  0.5125  0.3760
 9387SOL    HW239798   1.402   0.360   2.876  0.1758  2.8379 -0.1790
 9388SOL     OW39799   3.170   2.300  15.365 -0.6189 -0.0187 -0.1668
 9388SOL    HW139800   3.156   2.249  15.445  0.8833  1.4467  1.0490
 9388SOL    HW239801   3.104   2.368  15.379  0.1756  1.1411 -1.9385
 9389SOL     OW39802   2.700   0.353   6.169  0.3230  0.2798  0.0965
 9389SOL    HW139803   2.674   0.261   6.177 -0.1251  0.5024  1.3216
 9389SOL    HW239804   2.688   0.380   6.261 -1.1331 -2.6824  0.7798
 9390SOL     OW39805   2.673   3.487   3.935  0.2188 -0.1391  0.2133
 9390SOL    HW139806   2.722   3.443   4.005  0.1346  1.3730  1.2274
 9390SOL    HW239807   2.702   3.437   3.860 -0.1105  1.5914 -1.0694
 9391SOL     OW39808   0.602   3.255  11.664 -0.7114  0.6507 -0.3416
 9391SOL    HW139809   0.614   3.316  11.736  0.6733  3.0668 -2.6059
 9391SOL    HW239810   0.507   3.247  11.662 -0.7018  0.6314 -0.8070
 9392SOL     OW39811   2.280   1.018   9.205 -0.1650  0.4410 -0.1940
 9392SOL    HW139812   2.267   0.933   9.162  0.8063  1.3815 -2.3297
 9392SOL    HW239813   2.370   1.014   9.235 -0.1783 -0.5994 -0.2616
 9393SOL     OW39814   3.425   1.898   4.130 -0.9955 -0.8544  0.0308
 9393SOL    HW139815   3.382   1.929   4.209 -1.1198 -0.5299 -0.1625
 9393SOL    HW239816   3.351   1.906   4.070 -1.1756  1.0508  0.5072
 9394SOL     OW39817   0.745   1.610   4.138  0.7524  0.4191 -0.3138
 9394SOL    HW139818   0.724   1.686   4.084  2.5002  0.8562 -0.3767
 9394SOL    HW239819   0.744   1.644   4.227  1.6220  2.2954 -1.0222
 9395SOL     OW39820   3.527   1.617   8.455 -0.2834  0.3871  0.2933
 9395SOL    HW139821   3.503   1.684   8.391  0.4435  1.1769  0.8475
 9395SOL    HW239822   3.465   1.646   8.522  0.5186  1.2107  0.6874
 9396SOL     OW39823   4.422   1.625  12.246 -0.0007  0.0866  0.1115
 9396SOL    HW139824   4.391   1.694  12.187 -0.4099 -1.0334 -0.9645
 9396SOL    HW239825   4.517   1.624  12.233 -0.0618  1.0033 -0.4066
 9397SOL     OW39826   4.306   1.473  12.052  0.0646  0.6039  0.4312
 9397SOL    HW139827   4.215   1.503  12.053  0.6427  2.3585  0.5031
 9397SOL    HW239828   4.340   1.512  12.133  0.1079  0.3465  0.5359
 9398SOL     OW39829   3.825   3.146   6.318 -0.2407  0.4000 -0.3905
 9398SOL    HW139830   3.838   3.199   6.239 -0.8659  3.1409  1.3718
 9398SOL    HW239831   3.765   3.216   6.342  1.2810  1.6119 -0.1523
 9399SOL     OW39832   3.465   1.295  11.396 -0.3063 -0.4921  0.5168
 9399SOL    HW139833   3.517   1.360  11.442 -2.1785 -0.1816  2.1830
 9399SOL    HW239834   3.431   1.244  11.470 -2.9141 -0.3010 -0.5286
 9400SOL     OW39835   2.657   1.214   8.857 -0.3760 -0.6154 -0.1522
 9400SOL    HW139836   2.600   1.197   8.932  0.1894  1.2399  0.7174
 9400SOL    HW239837   2.677   1.306   8.878 -1.2483 -0.5733  0.4656
 9401SOL     OW39838   3.714   1.866   6.342  0.4651  0.2680  0.5655
 9401SOL    HW139839   3.714   1.961   6.331 -0.3192  0.2404  0.3611
 9401SOL    HW239840   3.794   1.847   6.391  0.5758  2.7663  1.3307
 9402SOL     OW39841   4.467   1.914  16.928 -0.0113 -0.1051  0.4217
 9402SOL    HW139842   4.506   1.999  16.907 -1.2222  1.1394  3.2140
 9402SOL    HW239843   4.538   1.861  16.964  2.3035  0.9214 -2.5843
 9403SOL     OW39844   0.002   2.873   9.341  0.7107 -0.0274  0.3259
 9403SOL    HW139845   4.713   2.953   9.296  2.1566  0.1620 -0.2475
 9403SOL    HW239846   0.097   2.880   9.338  0.7115  0.5166  1.7035
 9404SOL     OW39847   2.791   2.768  16.713 -0.2091 -0.2062  0.3992
 9404SOL    HW139848   2.820   2.735  16.798  1.9776 -0.4391 -0.4427
 9404SOL    HW239849   2.701   2.792  16.736  0.4651  4.7508 -2.0710
 9405SOL     OW39850   3.672   4.584   3.122 -0.7080 -0.6323 -0.1066
 9405SOL    HW139851   3.658   4.629   3.206 -0.2941  0.6566 -0.7322
 9405SOL    HW239852   3.738   4.520   3.148 -1.9286 -2.1171 -0.7082
 9406SOL     OW39853   0.798   0.227   9.705 -0.7024  0.2698 -0.4758
 9406SOL    HW139854   0.851   0.216   9.626 -0.7859  0.4662 -0.5585
 9406SOL    HW239855   0.761   0.139   9.714 -3.0707  1.0959 -2.0457
 9407SOL     OW39856   3.175   2.985   0.832 -0.2944 -0.4721 -0.2442
 9407SOL    HW139857   3.232   2.919   0.871 -0.0684 -0.5118 -0.6476
 9407SOL    HW239858   3.096   2.931   0.843 -0.1724 -1.0610 -2.2540
 9408SOL     OW39859   0.238   3.865   7.781  0.0067 -0.3504  0.2147
 9408SOL    HW139860   0.170   3.892   7.719 -1.3180 -1.3421  1.2361
 9408SOL    HW239861   0.277   3.792   7.732  1.5724  1.4858 -1.2560
 9409SOL     OW39862   4.539   2.937   5.224 -0.6147 -0.4453 -0.3933
 9409SOL    HW139863   4.507   2.865   5.278 -1.7712  0.1275 -0.3117
 9409SOL    HW239864   4.486   2.920   5.146  0.5933  2.7787 -1.9384
 9410SOL     OW39865   0.996   2.100   3.508  0.1575 -0.4706 -0.1617
 9410SOL    HW139866   1.079   2.070   3.544  0.2304  0.2028  0.2260
 9410SOL    HW239867   1.028   2.188   3.485 -0.2469 -0.1508  0.5117
 9411SOL     OW39868   2.340   0.254   9.204  0.2984 -0.0033 -0.0931
 9411SOL    HW139869   2.334   0.224   9.295  0.5891 -2.0969 -0.7544
 9411SOL    HW239870   2.312   0.346   9.205 -1.1516 -0.4152 -2.4010
 9412SOL     OW39871   0.626   0.064   8.793  0.1819  0.1613  0.5612
 9412SOL    HW139872   0.650   4.718   8.757 -0.5321  0.1896  0.0185
 9412SOL    HW239873   0.621   0.030   8.882  1.0026  2.3775  1.4510
 9413SOL     OW39874   2.183   4.146  16.762 -0.2855 -0.1000  0.2740
 9413SOL    HW139875   2.099   4.099  16.763 -0.4603  0.1832 -3.1854
 9413SOL    HW239876   2.246   4.074  16.758  0.0421  0.3144 -1.6659
 9414SOL     OW39877   1.334   1.770   5.294  0.2223 -0.1667 -0.3185
 9414SOL    HW139878   1.267   1.708   5.323 -0.4764  0.5201 -0.4843
 9414SOL    HW239879   1.345   1.747   5.202  1.4297  5.1969 -1.5093
 9415SOL     OW39880   3.626   3.162   4.364  0.3001  0.7533  0.6044
 9415SOL    HW139881   3.556   3.218   4.330  1.1106  1.8245  0.6927
 9415SOL    HW239882   3.593   3.081   4.327 -0.9958  1.9369 -0.8399
 9416SOL     OW39883   4.113   2.477  11.332 -0.1116 -0.6638  0.1883
 9416SOL    HW139884   4.107   2.487  11.427  0.2687 -0.1937  0.1586
 9416SOL    HW239885   4.034   2.528  11.314  0.0071 -0.0108  1.5876
 9417SOL     OW39886   0.818   0.986   1.520  0.6639 -0.0877 -0.3949
 9417SOL    HW139887   0.750   0.995   1.587  0.4368  0.6449 -0.7182
 9417SOL    HW239888   0.895   0.993   1.577  1.3906 -2.1291 -1.1413
 9418SOL     OW39889   4.472   1.609   7.639 -0.1307 -0.4475  0.3122
 9418SOL    HW139890   4.489   1.690   7.687 -0.5632 -0.2802  0.1894
 9418SOL    HW239891   4.516   1.548   7.697  0.8338  0.6075  0.6902
 9419SOL     OW39892   1.850   1.621   1.264  0.0859  0.3045 -0.0259
 9419SOL    HW139893   1.781   1.687   1.259 -2.7735 -2.6953 -0.7726
 9419SOL    HW239894   1.841   1.582   1.351 -0.1099 -1.3691 -0.7834
 9420SOL     OW39895   3.029   1.565  14.503 -0.7945 -0.2805 -0.6539
 9420SOL    HW139896   3.002   1.521  14.584  0.3448 -2.2858 -1.3637
 9420SOL    HW239897   3.082   1.639  14.531  0.7851 -2.2789  1.6833
 9421SOL     OW39898   1.437   1.508   7.492 -0.0992 -0.3967 -0.0675
 9421SOL    HW139899   1.364   1.560   7.458 -0.8809 -0.0037  2.1694
 9421SOL    HW239900   1.492   1.579   7.524 -1.7030  0.3135  1.1589
 9422SOL     OW39901   1.140   0.788   3.261 -0.6074  0.5403 -0.4225
 9422SOL    HW139902   1.052   0.827   3.256 -1.2432 -0.9083 -0.5163
 9422SOL    HW239903   1.197   0.865   3.257 -0.0979  0.0455 -2.4954
 9423SOL     OW39904   1.700   3.172  12.832 -0.2246  0.1746  0.4399
 9423SOL    HW139905   1.640   3.133  12.768  1.2397  1.1000 -1.4969
 9423SOL    HW239906   1.666   3.129  12.910 -2.7696 -1.5588 -1.6201
 9424SOL     OW39907   0.253   4.696   1.829 -0.3012 -0.9701  0.0916
 9424SOL    HW139908   0.213   4.611   1.846  0.7844 -1.5741 -0.3310
 9424SOL    HW239909   0.211   0.011   1.895 -0.1771  2.1378 -2.3879
 9425SOL     OW39910   1.852   4.097   6.101 -0.3626  0.1660 -1.1107
 9425SOL    HW139911   1.780   4.035   6.113 -0.3728  0.2825 -0.5738
 9425SOL    HW239912   1.931   4.057   6.064 -0.4151  1.1062 -2.2419
 9426SOL     OW39913   1.723   2.152  10.504 -0.1497 -0.5675  0.3379
 9426SOL    HW139914   1.819   2.158  10.499 -0.3261  2.4514  0.9081
 9426SOL    HW239915   1.705   2.139  10.411 -0.4651 -4.2175  0.8976
 9427SOL     OW39916   0.645   3.676   5.807 -0.5557  0.2711  0.1352
 9427SOL    HW139917   0.654   3.673   5.711 -0.1938  0.0670  0.1751
 9427SOL    HW239918   0.550   3.675   5.818 -0.5715  1.3741  0.0876
 9428SOL     OW39919   0.629   3.242   3.005 -0.2337  0.1040  0.4936
 9428SOL    HW139920   0.540   3.215   2.985  0.3655 -0.6103 -1.2790
 9428SOL    HW239921   0.671   3.167   2.962 -0.6574  0.2459 -0.1697
 9429SOL     OW39922   3.375   0.223   7.939 -0.5349  0.2194 -0.0464
 9429SOL    HW139923   3.469   0.217   7.923 -0.2584 -1.7774  2.3050
 9429SOL    HW239924   3.373   0.234   8.034  0.5790 -1.6990  0.2157
 9430SOL     OW39925   3.409   1.851  10.579  0.3794  0.6671 -0.2261
 9430SOL    HW139926   3.348   1.905  10.630  1.2096  2.0361 -0.6823
 9430SOL    HW239927   3.367   1.768  10.602 -0.8427  2.1741  2.9810
 9431SOL     OW39928   3.861   4.381   3.168  0.1181  0.0051 -0.8891
 9431SOL    HW139929   3.900   4.296   3.146  0.7346 -0.0800  0.5582
 9431SOL    HW239930   3.910   4.420   3.240  0.2337  0.1665 -1.0552
 9432SOL     OW39931   2.421   0.096   2.727 -0.0154 -0.0550  0.5732
 9432SOL    HW139932   2.372   0.042   2.664  2.0624 -0.5690 -0.6146
 9432SOL    HW239933   2.510   0.079   2.696  0.4310  0.7673  1.4196
 9433SOL     OW39934   2.767   2.385   6.794  0.3112  0.1237 -0.7049
 9433SOL    HW139935   2.733   2.319   6.854  2.9008 -0.4811  0.1072
 9433SOL    HW239936   2.694   2.446   6.795  0.0191 -0.2234 -1.8910
 9434SOL     OW39937   1.417   3.777   9.298  0.0132 -0.8113 -0.3918
 9434SOL    HW139938   1.474   3.793   9.373  0.4196  1.6462 -1.2080
 9434SOL    HW239939   1.390   3.687   9.319  0.7462 -0.2837  2.7118
 9435SOL     OW39940   1.010   0.040   0.939  1.1906  0.1312  0.1965
 9435SOL    HW139941   0.990   0.007   0.852  2.4211  0.8893 -0.3778
 9435SOL    HW239942   1.105   0.049   0.927  0.9978  0.2856 -1.1378
 9436SOL     OW39943   1.470   2.093   4.098  0.0015 -0.1401 -0.1766
 9436SOL    HW139944   1.412   2.064   4.028  0.0737  1.6470 -0.9778
 9436SOL    HW239945   1.537   2.025   4.106 -2.0362 -1.9347  1.3315
 9437SOL     OW39946   4.408   1.455   5.939  0.6242  0.4232 -0.2485
 9437SOL    HW139947   4.373   1.544   5.939  0.9215  0.5364 -2.9242
 9437SOL    HW239948   4.361   1.416   5.866  0.7263  1.1471 -0.6958
 9438SOL     OW39949   0.388   4.314  13.487 -0.4132  0.1324  0.5369
 9438SOL    HW139950   0.434   4.289  13.567  2.7918  2.5768 -0.5035
 9438SOL    HW239951   0.301   4.310  13.527  0.0013  3.8407  1.8061
 9439SOL     OW39952   2.544   2.988   6.771 -0.0404 -0.0016  0.2019
 9439SOL    HW139953   2.602   3.052   6.811  1.0447 -0.8737  0.0372
 9439SOL    HW239954   2.493   3.044   6.713  0.2322 -1.0466 -1.0531
 9440SOL     OW39955   0.326   1.132   8.056  0.3187 -0.0541 -0.0400
 9440SOL    HW139956   0.247   1.108   8.103  2.1079 -1.8857  2.0162
 9440SOL    HW239957   0.381   1.140   8.134  1.2395  0.7408 -0.7498
 9441SOL     OW39958   4.683   4.438   6.254  0.1487  0.0211  0.1063
 9441SOL    HW139959   0.015   4.500   6.267 -2.4071  2.3501  2.9380
 9441SOL    HW239960   4.627   4.459   6.329  0.9802  3.5484 -0.2228
 9442SOL     OW39961   2.041   2.723   1.525  0.2233  0.1735 -0.5666
 9442SOL    HW139962   1.961   2.765   1.494  0.3344  1.2602  0.6403
 9442SOL    HW239963   2.005   2.665   1.592  1.3722  0.3060  0.1710
 9443SOL     OW39964   1.088   4.067  13.089 -0.3629  0.2209 -0.2870
 9443SOL    HW139965   1.177   4.103  13.086 -0.4574  0.3575 -1.4397
 9443SOL    HW239966   1.080   4.039  12.998 -0.7369  2.4632 -0.9342
 9444SOL     OW39967   1.783   2.653   3.904 -0.6873 -0.3344  0.1111
 9444SOL    HW139968   1.740   2.616   3.827 -2.7054  1.0494  0.5969
 9444SOL    HW239969   1.857   2.697   3.862 -0.1196  2.0538  3.7072
 9445SOL     OW39970   1.979   4.386   4.639 -0.3404 -0.4149 -0.3350
 9445SOL    HW139971   1.897   4.362   4.682  0.9471 -3.8016  0.2613
 9445SOL    HW239972   1.979   4.316   4.573  0.1931 -0.8375  0.1213
 9446SOL     OW39973   2.222   2.211   6.041  0.1216 -0.8035 -0.4240
 9446SOL    HW139974   2.272   2.182   6.116  0.1453  0.8459  0.1934
 9446SOL    HW239975   2.295   2.212   5.979 -0.2786  0.9431 -0.8830
 9447SOL     OW39976   2.741   4.262  11.403  0.1789 -0.2384 -0.1158
 9447SOL    HW139977   2.679   4.190  11.417 -0.5700 -0.1149 -2.7949
 9447SOL    HW239978   2.795   4.264  11.482  0.9236 -0.1310 -0.6230
 9448SOL     OW39979   0.148   4.459   1.928  0.7438 -0.4523 -0.2941
 9448SOL    HW139980   0.080   4.391   1.927  0.5373 -0.2465 -0.3413
 9448SOL    HW239981   0.156   4.486   2.019 -0.6706 -0.0376 -0.2918
 9449SOL     OW39982   2.016   1.209  13.165  0.2822 -0.7137  0.5574
 9449SOL    HW139983   2.023   1.115  13.180 -0.2194 -1.0828 -1.4520
 9449SOL    HW239984   1.924   1.227  13.186 -0.1310  1.1844 -2.8436
 9450SOL     OW39985   2.095   3.923   2.763 -0.0054  0.0508  0.7620
 9450SOL    HW139986   2.037   3.855   2.729  2.2312 -1.6778  0.4088
 9450SOL    HW239987   2.029   3.987   2.789  0.1875  0.0232  1.3296
 9451SOL     OW39988   2.231   4.116   4.481  0.2697  0.4410 -0.7159
 9451SOL    HW139989   2.236   4.080   4.569  1.7743 -0.5822 -1.2247
 9451SOL    HW239990   2.138   4.125   4.460 -0.1335  3.1347  2.0988
 9452SOL     OW39991   1.509   0.132   6.535  0.5317  0.1750 -0.3546
 9452SOL    HW139992   1.534   0.189   6.463  1.7639 -0.1459 -0.1833
 9452SOL    HW239993   1.499   0.053   6.481 -4.4745  1.8470 -1.8781
 9453SOL     OW39994   4.431   3.669  14.036  0.3340 -0.0363 -0.1421
 9453SOL    HW139995   4.432   3.642  14.128 -0.3240  0.6367  0.0618
 9453SOL    HW239996   4.467   3.758  14.036  0.6082 -0.1376  2.7200
 9454SOL     OW39997   1.566   4.431  10.407 -0.1476  0.0663 -0.3987
 9454SOL    HW139998   1.518   4.394  10.333 -0.0382  1.0389 -0.9458
 9454SOL    HW239999   1.536   4.522  10.414 -1.6421 -0.4748  0.2687
 9455SOL     OW40000   3.350   3.291  17.472 -0.0924  0.2663 -0.5549
 9455SOL    HW140001   3.380   3.201  17.456 -0.1447  0.1313  0.1011
 9455SOL    HW240002   3.363   3.324  17.383  0.0308 -0.6103 -0.8665
 9456SOL     OW40003   0.354   3.800   3.618  0.1823  0.1671 -0.2976
 9456SOL    HW140004   0.414   3.871   3.596  0.0768  0.5782  0.7257
 9456SOL    HW240005   0.381   3.734   3.554 -0.4172  1.2198 -1.6456
 9457SOL     OW40006   4.562   4.554  17.660 -0.3419  0.2572  0.0914
 9457SOL    HW140007   4.484   4.610  17.659 -1.4452 -1.2655  0.2136
 9457SOL    HW240008   4.584   4.553  17.753  1.3194  2.3594 -0.3029
 9458SOL     OW40009   2.952   0.744  17.363 -0.1000 -0.7045 -0.4400
 9458SOL    HW140010   3.043   0.754  17.337 -0.4723  0.0862 -1.4087
 9458SOL    HW240011   2.925   0.710  17.278  3.2712 -1.3833 -1.2309
 9459SOL     OW40012   0.826   3.101   9.416 -1.0403 -0.2148 -0.5528
 9459SOL    HW140013   0.746   3.050   9.405  0.1387 -1.6071 -2.5922
 9459SOL    HW240014   0.816   3.176   9.358 -1.7543  1.5992  1.8819
 9460SOL     OW40015   1.332   4.425  15.698 -0.2392  0.2044  0.4000
 9460SOL    HW140016   1.363   4.422  15.788  1.5814  0.1305 -0.2400
 9460SOL    HW240017   1.275   4.348  15.700 -1.6000  1.1933 -0.1542
 9461SOL     OW40018   0.392   2.072   6.846 -0.6066  0.3372 -0.4191
 9461SOL    HW140019   0.443   2.021   6.910 -0.6845 -0.1845 -0.7792
 9461SOL    HW240020   0.317   2.099   6.899  0.5985  0.5050  1.2179
 9462SOL     OW40021   1.346   0.941   3.727  0.2758 -0.2844 -0.2535
 9462SOL    HW140022   1.322   1.015   3.671 -1.6342 -2.3751 -2.2238
 9462SOL    HW240023   1.297   0.961   3.806 -1.3147 -2.4820 -0.7012
 9463SOL     OW40024   4.083   0.627   7.052  0.6345 -0.0721  0.7440
 9463SOL    HW140025   4.140   0.695   7.017 -3.0241  1.1529 -2.9156
 9463SOL    HW240026   4.125   0.541   7.043  2.2241  0.6121  1.6497
 9464SOL     OW40027   4.379   0.890  12.932  0.0288  0.0493 -0.2923
 9464SOL    HW140028   4.414   0.944  12.862 -0.3582 -1.9507 -2.0099
 9464SOL    HW240029   4.397   0.808  12.886  0.8608 -1.2111  2.2817
 9465SOL     OW40030   3.584   4.630  16.036 -0.3829  0.1615  0.4038
 9465SOL    HW140031   3.599   4.536  16.044  3.9512  0.7818 -0.2148
 9465SOL    HW240032   3.657   4.649  15.977 -1.0787 -1.4005 -0.9677
 9466SOL     OW40033   4.587   0.619  15.740 -0.6568 -0.1963 -0.2486
 9466SOL    HW140034   4.618   0.560  15.809  1.0248 -0.6032 -1.3533
 9466SOL    HW240035   4.557   0.556  15.674 -1.3511 -0.0138 -0.1114
 9467SOL     OW40036   3.697   4.451   9.954 -0.0364 -0.2746 -0.0791
 9467SOL    HW140037   3.672   4.410   9.871 -0.6372  1.3977 -0.7385
 9467SOL    HW240038   3.613   4.488   9.982 -0.0151  0.9656 -1.6818
 9468SOL     OW40039   0.288   3.866  15.199  0.3008  0.4143 -0.4683
 9468SOL    HW140040   0.296   3.956  15.168 -1.1928  0.5876 -0.3652
 9468SOL    HW240041   0.195   3.862  15.223  0.3076  2.4789 -0.1443
 9469SOL     OW40042   2.428   2.218   8.927  0.2555 -0.7511  0.0265
 9469SOL    HW140043   2.519   2.220   8.900 -0.2330  1.2665 -1.4924
 9469SOL    HW240044   2.369   2.175   8.865  1.7034 -0.6893 -1.3799
 9470SOL     OW40045   4.613   2.988   1.280  0.2094  0.2427 -0.2835
 9470SOL    HW140046   4.569   2.924   1.336  1.4117 -0.3065  0.0502
 9470SOL    HW240047   4.651   3.042   1.350  1.2300  1.1323 -1.5330
 9471SOL     OW40048   2.720   2.752  16.077  0.1300 -0.1255 -0.6626
 9471SOL    HW140049   2.640   2.794  16.109  0.0073 -0.5782 -0.3844
 9471SOL    HW240050   2.784   2.788  16.139 -0.4960  0.8271 -0.5740
 9472SOL     OW40051   1.761   2.668   8.982 -0.5045  0.0121 -0.5161
 9472SOL    HW140052   1.855   2.654   8.974 -0.7412 -2.1887  0.4532
 9472SOL    HW240053   1.767   2.753   9.026  0.6115 -0.5241  0.3445
 9473SOL     OW40054   1.692   0.601   8.691  0.4437  0.1087 -0.3856
 9473SOL    HW140055   1.709   0.557   8.774  0.1955 -0.9920 -0.9103
 9473SOL    HW240056   1.695   0.524   8.634 -0.9066 -2.2185  2.7355
 9474SOL     OW40057   4.551   0.124  16.458 -0.2520 -0.0808 -0.5973
 9474SOL    HW140058   4.592   0.188  16.400 -1.6902 -0.3934 -1.9796
 9474SOL    HW240059   4.551   0.049  16.397 -0.8666  0.3370 -1.1116
 9475SOL     OW40060   4.692   0.068   4.222  0.5496 -0.1524  0.2818
 9475SOL    HW140061   4.702   0.036   4.132  0.0918  1.9042 -0.4856
 9475SOL    HW240062   4.632   4.738   4.251  2.1123 -1.8651 -0.5708
 9476SOL     OW40063   2.853   0.458   7.491  0.1659 -0.0450  0.3592
 9476SOL    HW140064   2.848   0.405   7.412 -0.3749  1.2402 -0.4696
 9476SOL    HW240065   2.931   0.511   7.473  0.5874 -1.8131 -2.8975
 9477SOL     OW40066   1.461   1.324   8.514 -0.4055  0.5142  0.4915
 9477SOL    HW140067   1.377   1.277   8.514 -0.7649  1.1550  0.7174
 9477SOL    HW240068   1.438   1.401   8.462  1.9001  1.9353  1.5803
 9478SOL     OW40069   3.026   2.501   3.484  0.0421 -0.0233  0.0103
 9478SOL    HW140070   3.049   2.413   3.515 -2.8654  0.0398  2.3299
 9478SOL    HW240071   3.110   2.533   3.451  0.4329 -1.3232 -0.2621
 9479SOL     OW40072   2.225   0.260   7.178 -0.1128  0.2091 -0.6744
 9479SOL    HW140073   2.232   0.298   7.265  0.9271 -3.3614  0.8029
 9479SOL    HW240074   2.130   0.267   7.170 -0.2488  0.9527  1.5287
 9480SOL     OW40075   0.330   4.471   9.565 -0.0805 -0.1978  0.6801
 9480SOL    HW140076   0.308   4.388   9.524  2.7073 -1.4827  1.8109
 9480SOL    HW240077   0.269   4.533   9.525  2.1191  3.1283  2.4951
 9481SOL     OW40078   3.299   4.380   8.020 -0.4502  0.6492 -0.7599
 9481SOL    HW140079   3.392   4.402   8.016 -0.0355 -0.9756  0.1042
 9481SOL    HW240080   3.260   4.448   7.964 -3.7549 -1.0040 -0.4593
 9482SOL     OW40081   3.714   1.896  12.904  0.1540  0.1410  0.2526
 9482SOL    HW140082   3.635   1.856  12.939 -0.0109  1.2160  1.0905
 9482SOL    HW240083   3.691   1.900  12.811 -2.4568  0.0005  0.8850
 9483SOL     OW40084   2.383   2.746   3.345 -0.0682 -0.2350  0.2846
 9483SOL    HW140085   2.306   2.787   3.308 -0.1959 -0.5528  0.1954
 9483SOL    HW240086   2.446   2.755   3.273 -3.0343 -0.3974 -2.3325
 9484SOL     OW40087   1.464   2.836   4.559 -0.0377  0.2059  0.2749
 9484SOL    HW140088   1.371   2.813   4.559  0.2927 -1.1005  1.3948
 9484SOL    HW240089   1.456   2.929   4.580  0.1847  0.5854 -1.3048
 9485SOL     OW40090   0.677   0.384   8.423  0.2770 -0.2686 -0.5537
 9485SOL    HW140091   0.632   0.377   8.339 -4.1875  1.3997  1.6988
 9485SOL    HW240092   0.678   0.293   8.452  0.1011  0.9023  3.1653
 9486SOL     OW40093   4.215   2.544  16.023 -0.1757  0.4910  0.3445
 9486SOL    HW140094   4.228   2.456  16.058 -0.0439 -0.5998 -2.3914
 9486SOL    HW240095   4.307   2.571  16.032  0.0429  0.1057 -0.7483
 9487SOL     OW40096   0.276   0.818   4.949 -0.5305  0.2319 -0.3982
 9487SOL    HW140097   0.228   0.747   4.990  3.0922 -1.7899  0.3923
 9487SOL    HW240098   0.365   0.785   4.960 -0.4655  0.8700  0.9902
 9488SOL     OW40099   2.938   2.654  11.002 -0.0018 -0.8192 -0.1682
 9488SOL    HW140100   3.010   2.705  10.965 -1.6749  1.4037 -0.3661
 9488SOL    HW240101   2.992   2.593  11.052  0.9499 -1.1110 -1.5519
 9489SOL     OW40102   1.893   1.767   3.147 -0.2620 -0.2129  0.1851
 9489SOL    HW140103   1.901   1.857   3.181 -1.7019 -1.1135  2.9068
 9489SOL    HW240104   1.891   1.710   3.223 -0.5127 -0.0886  0.2712
 9490SOL     OW40105   2.426   3.176   2.431 -0.2447  0.4153  0.6274
 9490SOL    HW140106   2.425   3.272   2.431 -3.2334  0.3797 -0.4552
 9490SOL    HW240107   2.398   3.160   2.521 -0.3377 -2.6135  0.0400
 9491SOL     OW40108   2.657   0.311  16.322  0.5580 -0.5852 -0.2975
 9491SOL    HW140109   2.621   0.231  16.284  0.6676  0.6876 -3.0949
 9491SOL    HW240110   2.614   0.370  16.260  0.6315  1.0915  1.2253
 9492SOL     OW40111   1.986   2.954  11.523 -0.8595  0.1348 -0.5164
 9492SOL    HW140112   1.957   3.014  11.592  0.9454  0.6438 -0.1723
 9492SOL    HW240113   1.987   2.869  11.567  2.6152  1.1285  1.3781
 9493SOL     OW40114   0.813   0.543   4.137 -0.0843 -0.1672 -0.4386
 9493SOL    HW140115   0.822   0.598   4.215  0.7314  0.4828 -0.9918
 9493SOL    HW240116   0.904   0.550   4.107 -0.1062 -2.2540 -0.9781
 9494SOL     OW40117   0.073   4.513   7.199 -0.2202 -0.0088  0.3221
 9494SOL    HW140118   0.093   4.602   7.226  0.4834 -0.4705  1.3452
 9494SOL    HW240119   0.053   4.472   7.283  1.7359  1.5390  1.5246
 9495SOL     OW40120   4.604   2.142   0.355 -0.2482  0.1013 -0.2951
 9495SOL    HW140121   4.567   2.134   0.443 -3.3767  1.3445 -1.4895
 9495SOL    HW240122   4.676   2.079   0.363 -0.4871 -0.3610 -1.9230
 9496SOL     OW40123   0.531   0.903   2.806 -0.4571 -0.5740 -0.3233
 9496SOL    HW140124   0.587   0.954   2.747 -1.2886  2.1506  1.2675
 9496SOL    HW240125   0.506   0.834   2.744 -0.7925  0.1180 -0.9578
 9497SOL     OW40126   2.125   2.372   1.887  0.7755  0.2650 -0.1912
 9497SOL    HW140127   2.194   2.437   1.903 -1.2113  1.9222  1.5851
 9497SOL    HW240128   2.104   2.350   1.977 -1.2864  0.6162 -0.5955
 9498SOL     OW40129   1.879   0.409   4.461 -0.2326  0.6976 -0.0976
 9498SOL    HW140130   1.783   0.409   4.470 -0.5420 -1.5494 -3.5106
 9498SOL    HW240131   1.907   0.348   4.529  1.6213  0.3227 -1.1889
 9499SOL     OW40132   2.004   1.169   4.066 -0.0038  0.0712 -0.0406
 9499SOL    HW140133   2.004   1.079   4.034  3.6285 -0.5514  1.6473
 9499SOL    HW240134   2.016   1.209   3.980 -1.6971  0.8743  0.0910
 9500SOL     OW40135   3.551   0.237   5.056  0.2557  0.3238 -0.3467
 9500SOL    HW140136   3.463   0.204   5.071  0.0452  0.8440 -0.4232
 9500SOL    HW240137   3.554   0.236   4.960 -0.7673 -2.2605 -0.3441
 9501SOL     OW40138   0.556   3.302   4.047 -0.2114  0.0107  0.3105
 9501SOL    HW140139   0.494   3.311   4.120 -0.7335 -0.3216 -0.0846
 9501SOL    HW240140   0.495   3.296   3.973  1.2087 -0.3998 -0.8348
 9502SOL     OW40141   1.239   0.117   2.279 -0.3728 -0.3719 -0.7311
 9502SOL    HW140142   1.299   0.072   2.220 -0.1923  0.6632 -1.3449
 9502SOL    HW240143   1.243   0.057   2.353 -1.6636 -0.0063 -0.3648
 9503SOL     OW40144   0.343   1.388  13.613 -0.5235 -0.2441 -0.4883
 9503SOL    HW140145   0.373   1.479  13.624 -2.3939  0.3269 -0.2046
 9503SOL    HW240146   0.254   1.416  13.594 -0.2790  0.6946 -0.2712
 9504SOL     OW40147   2.989   1.289   3.083  0.2335 -0.1805  0.0291
 9504SOL    HW140148   2.970   1.213   3.028 -0.7428  0.4534 -0.4965
 9504SOL    HW240149   2.909   1.340   3.080  1.3954  1.7062  1.6536
 9505SOL     OW40150   0.583   2.273   7.467  0.6133  0.6511  0.0672
 9505SOL    HW140151   0.676   2.254   7.475  0.2798 -0.9636  0.1334
 9505SOL    HW240152   0.545   2.190   7.438  0.4259  0.4120  1.0100
 9506SOL     OW40153   2.923   3.350   3.506  0.4507  0.2579 -0.6330
 9506SOL    HW140154   2.841   3.368   3.554  1.4376 -1.6598  1.8091
 9506SOL    HW240155   2.938   3.430   3.456  2.6986  0.6645  0.6967
 9507SOL     OW40156   1.215   4.266  14.443 -0.0448  0.2686 -0.1517
 9507SOL    HW140157   1.269   4.312  14.507 -0.3175 -1.1619  1.1288
 9507SOL    HW240158   1.217   4.316  14.361 -2.5701 -0.0062 -0.3982
 9508SOL     OW40159   2.162   0.903   8.067 -0.5028 -0.1089 -0.5964
 9508SOL    HW140160   2.139   0.898   8.160  0.8305  1.8122 -0.1734
 9508SOL    HW240161   2.256   0.885   8.072  0.0212  2.6543 -0.2506
 9509SOL     OW40162   2.929   3.817   6.520 -0.6049  0.2119  0.0534
 9509SOL    HW140163   2.987   3.892   6.535  0.1526 -0.0504 -1.5839
 9509SOL    HW240164   2.989   3.750   6.551 -0.6965 -1.6031 -3.7111
 9510SOL     OW40165   3.454   2.076   7.008 -0.0861  0.5631  0.0339
 9510SOL    HW140166   3.540   2.099   6.973 -0.3104  0.9631 -0.2559
 9510SOL    HW240167   3.461   2.096   7.101  2.1829 -0.5322  0.0753
 9511SOL     OW40168   2.783   2.709   8.845 -0.8972  0.1917  0.2659
 9511SOL    HW140169   2.864   2.757   8.860 -0.0875 -0.1874 -2.8187
 9511SOL    HW240170   2.788   2.649   8.919 -0.5022  0.2687  0.3003
 9512SOL     OW40171   4.517   3.139   7.104 -0.3619 -0.0748 -0.3268
 9512SOL    HW140172   4.468   3.158   7.184  1.7063 -0.2594  0.9828
 9512SOL    HW240173   4.600   3.123   7.149 -2.2836  0.9887  3.5399
 9513SOL     OW40174   0.702   4.233   7.768 -0.2854 -0.0695 -0.2979
 9513SOL    HW140175   0.674   4.305   7.825  0.1146 -0.1822  0.0390
 9513SOL    HW240176   0.710   4.285   7.688  0.6226  0.1551 -0.0639
 9514SOL     OW40177   0.408   2.876   3.597 -0.0484 -0.1848 -0.3112
 9514SOL    HW140178   0.370   2.790   3.580 -1.2608  0.1393  0.6956
 9514SOL    HW240179   0.336   2.939   3.604  0.5600  0.3847  0.9932
 9515SOL     OW40180   2.469   3.450   2.449  0.1980  0.3769  0.6371
 9515SOL    HW140181   2.409   3.525   2.449 -0.8995 -0.5008  0.0265
 9515SOL    HW240182   2.551   3.485   2.486 -1.0839  2.5442  1.4426
 9516SOL     OW40183   1.859   1.462   5.908  0.1583  0.1226 -0.4057
 9516SOL    HW140184   1.768   1.439   5.924 -0.2567  2.6166  0.6808
 9516SOL    HW240185   1.844   1.556   5.905  0.3311  0.1858  0.5389
 9517SOL     OW40186   1.486   1.752   3.045 -0.2637  0.4048 -0.0670
 9517SOL    HW140187   1.567   1.756   2.994  1.0083  0.2496  1.9335
 9517SOL    HW240188   1.519   1.746   3.134  3.2785 -0.2723 -1.4030
 9518SOL     OW40189   0.432   1.068  12.266  0.7656  1.2894 -0.6720
 9518SOL    HW140190   0.342   1.051  12.239  1.7194 -0.2516 -2.8944
 9518SOL    HW240191   0.418   1.163  12.263  0.7833  1.2338 -2.7706
 9519SOL     OW40192   4.615   3.396   3.658  0.2037  0.5356  0.8887
 9519SOL    HW140193   4.580   3.320   3.706 -0.5889 -0.5343 -1.3803
 9519SOL    HW240194   4.634   3.460   3.726 -0.7210  0.7281  0.9756
 9520SOL     OW40195   1.999   4.334   9.202 -0.1264  0.2324 -0.1819
 9520SOL    HW140196   2.066   4.386   9.158  0.5958 -0.8277 -0.3278
 9520SOL    HW240197   2.048   4.268   9.251 -1.8455 -2.5251 -2.2252
 9521SOL     OW40198   1.462   1.327   5.411 -0.1617 -0.0859 -0.3559
 9521SOL    HW140199   1.487   1.378   5.334 -1.8047  1.3759  0.0793
 9521SOL    HW240200   1.380   1.296   5.374 -0.7992  0.7906  0.3481
 9522SOL     OW40201   3.817   4.327  10.463  0.0962 -0.5405 -0.3045
 9522SOL    HW140202   3.878   4.379  10.515 -1.9341 -0.7611  2.2810
 9522SOL    HW240203   3.792   4.385  10.391 -0.4346 -0.6021 -0.1717
 9523SOL     OW40204   2.476   1.816  14.088  0.2246  0.1010  0.1182
 9523SOL    HW140205   2.399   1.760  14.092 -0.8757  1.7464  2.1594
 9523SOL    HW240206   2.547   1.758  14.117 -1.4180 -1.2835  1.4055
 9524SOL     OW40207   2.493   0.466   3.880  0.1817 -0.1278 -0.1392
 9524SOL    HW140208   2.479   0.384   3.832 -0.0259 -0.1595 -0.0256
 9524SOL    HW240209   2.513   0.426   3.964 -0.2265 -2.3185 -1.0812
 9525SOL     OW40210   1.925   0.788   8.648  0.0535  0.1439  0.4412
 9525SOL    HW140211   1.918   0.823   8.737 -1.2195 -0.5748  0.6302
 9525SOL    HW240212   1.862   0.716   8.648 -0.5162  0.6481  1.6811
 9526SOL     OW40213   1.204   1.298  15.603 -0.1899 -0.0865 -0.0267
 9526SOL    HW140214   1.270   1.363  15.627 -0.3395  0.5409 -1.3246
 9526SOL    HW240215   1.140   1.361  15.571  0.2216  2.1719  3.5139
 9527SOL     OW40216   3.499   2.391   2.934  0.4286  0.1163 -0.8246
 9527SOL    HW140217   3.525   2.308   2.972 -1.2076  0.2829  0.6862
 9527SOL    HW240218   3.484   2.366   2.843  1.2998 -1.5292 -0.5013
 9528SOL     OW40219   2.059   4.007   0.769 -0.0100 -0.0635 -0.7034
 9528SOL    HW140220   2.044   4.088   0.818  2.8452 -0.1644  0.3341
 9528SOL    HW240221   2.144   4.023   0.727 -1.4958  1.3079 -3.1333
 9529SOL     OW40222   1.394   1.905   8.714 -0.3497 -0.3958  0.0021
 9529SOL    HW140223   1.320   1.894   8.773 -0.0159 -0.6811  0.3709
 9529SOL    HW240224   1.421   1.993   8.741  2.0358 -0.8906 -0.8039
 9530SOL     OW40225   1.983   3.448   9.343 -0.0263  0.4830  0.0278
 9530SOL    HW140226   2.051   3.403   9.293  0.0617  0.6898 -0.0385
 9530SOL    HW240227   1.920   3.376   9.350  1.6261 -0.7915  1.8302
 9531SOL     OW40228   4.566   0.452  12.694 -0.4501 -0.1822  0.4190
 9531SOL    HW140229   4.554   0.358  12.683  2.1347 -0.2292 -2.0576
 9531SOL    HW240230   4.656   0.473  12.668 -0.8924  3.3343  1.7157
 9532SOL     OW40231   2.412   4.530  10.585 -0.0776  0.4697 -0.3257
 9532SOL    HW140232   2.452   4.615  10.569 -3.1121  1.4000 -2.9897
 9532SOL    HW240233   2.483   4.468  10.569  2.4006  2.8791  1.3601
 9533SOL     OW40234   4.548   0.854   2.545  0.4042  0.2157 -0.1129
 9533SOL    HW140235   4.615   0.843   2.613 -0.1143 -1.5214  0.1064
 9533SOL    HW240236   4.505   0.934   2.576 -1.8841 -1.6401  1.4945
 9534SOL     OW40237   3.089   0.159   4.204  0.2037 -0.0205 -0.6239
 9534SOL    HW140238   3.004   0.178   4.244  1.4530  0.4919  1.7490
 9534SOL    HW240239   3.106   0.248   4.174 -1.0455  0.0338 -1.1609
 9535SOL     OW40240   1.349   1.974   0.572 -0.3473  0.2921  0.0164
 9535SOL    HW140241   1.406   1.910   0.529  0.9878  2.2445 -1.1142
 9535SOL    HW240242   1.402   2.049   0.546  2.9205 -1.8528  0.4668
 9536SOL     OW40243   3.026   4.112  16.867 -0.0291  0.0869  0.0254
 9536SOL    HW140244   2.974   4.039  16.834 -2.1577  0.7570  1.9064
 9536SOL    HW240245   2.962   4.180  16.885  0.7488  0.6172  0.8090
 9537SOL     OW40246   0.288   3.879   6.541 -0.2702  0.0334  0.6856
 9537SOL    HW140247   0.312   3.959   6.588 -1.5178  1.6056 -1.3325
 9537SOL    HW240248   0.215   3.919   6.493  1.1055  1.7183 -0.0123
 9538SOL     OW40249   1.618   3.527  11.706 -0.4785 -0.1545 -0.1877
 9538SOL    HW140250   1.622   3.500  11.614  0.2390  0.5569 -0.3679
 9538SOL    HW240251   1.527   3.552  11.718 -1.0200 -2.3441  0.2425
 9539SOL     OW40252   0.730   2.184   0.925  0.1469 -0.3494  0.1550
 9539SOL    HW140253   0.734   2.157   0.834  0.3519  0.7328 -0.1606
 9539SOL    HW240254   0.656   2.245   0.926  0.7898  0.4667 -2.5996
 9540SOL     OW40255   0.991   3.737   0.238 -0.6556  0.1061  0.0377
 9540SOL    HW140256   0.956   3.663   0.188  0.7383 -0.0483 -0.6911
 9540SOL    HW240257   1.064   3.702   0.289  1.2812  1.2384 -1.9720
 9541SOL     OW40258   3.656   1.455   9.247 -0.3105 -0.6159 -0.6288
 9541SOL    HW140259   3.601   1.452   9.325  2.0515 -1.0587  1.0089
 9541SOL    HW240260   3.652   1.362   9.223 -0.5913 -0.2473 -2.0215
 9542SOL     OW40261   3.969   1.586   8.654 -0.0166  0.3225  0.4722
 9542SOL    HW140262   3.885   1.581   8.699 -0.0875  0.4132  0.3488
 9542SOL    HW240263   3.995   1.494   8.644  0.6722  0.6413 -0.6436
 9543SOL     OW40264   1.049   0.398   6.279  0.5790 -0.5532  0.2395
 9543SOL    HW140265   1.081   0.314   6.312  1.3404 -1.4272 -2.7278
 9543SOL    HW240266   1.111   0.404   6.205 -0.5421 -2.6471 -0.8668
 9544SOL     OW40267   1.798   0.395   6.328 -0.8037  0.3635  0.5460
 9544SOL    HW140268   1.845   0.387   6.411 -1.8173 -1.3336  0.9548
 9544SOL    HW240269   1.764   0.305   6.336 -0.2957  0.2410  1.3286
 9545SOL     OW40270   1.263   2.907   5.801  0.0457  0.5784 -0.2900
 9545SOL    HW140271   1.223   2.872   5.721  0.7037 -1.9221  0.4701
 9545SOL    HW240272   1.307   2.982   5.762 -0.4630  0.0836 -1.8000
 9546SOL     OW40273   0.251   4.244   4.354 -0.1317  0.0519  0.4493
 9546SOL    HW140274   0.163   4.266   4.324 -0.3627 -0.7933  0.5091
 9546SOL    HW240275   0.301   4.318   4.320 -2.0864  1.2808  0.2879
 9547SOL     OW40276   1.159   0.061   5.794  0.6093  0.0838 -0.1672
 9547SOL    HW140277   1.096   4.730   5.810 -0.3879  0.2631 -3.1339
 9547SOL    HW240278   1.187   0.038   5.705 -1.4437  1.1111 -1.1048
 9548SOL     OW40279   0.636   3.503   7.468 -0.0902  0.6433 -0.1854
 9548SOL    HW140280   0.657   3.592   7.438 -0.1292  0.9210  0.6084
 9548SOL    HW240281   0.609   3.458   7.388 -0.8221  0.7143  0.0152
 9549SOL     OW40282   4.201   0.579   3.916 -0.0088  0.6065 -0.3686
 9549SOL    HW140283   4.130   0.569   3.853 -0.5312  1.6980  0.0490
 9549SOL    HW240284   4.197   0.493   3.958  0.3922 -0.2273 -2.0110
 9550SOL     OW40285   3.044   4.723   6.185 -0.4513  0.4684  0.2382
 9550SOL    HW140286   3.026   4.733   6.278  1.6959 -0.1940  0.7165
 9550SOL    HW240287   2.954   4.714   6.153  0.2883 -2.6160 -0.9360
 9551SOL     OW40288   0.289   3.460   2.144  0.1912  0.3819  0.2886
 9551SOL    HW140289   0.270   3.552   2.164  1.2038  0.9459 -1.3641
 9551SOL    HW240290   0.375   3.445   2.183  1.6297  0.0611 -3.0242
 9552SOL     OW40291   3.323   4.185   2.265 -0.1557  0.4103 -0.1043
 9552SOL    HW140292   3.270   4.135   2.203  0.2608 -0.2391  0.0674
 9552SOL    HW240293   3.260   4.198   2.336  0.0851 -0.5510  0.2802
 9553SOL     OW40294   1.379   2.126  13.320  0.1200  0.1749  0.4927
 9553SOL    HW140295   1.337   2.051  13.363  1.5610 -1.4734 -0.9368
 9553SOL    HW240296   1.448   2.136  13.386  1.0566 -2.4339 -0.0755
 9554SOL     OW40297   1.138   4.144   6.950 -0.1971  0.0801 -0.1347
 9554SOL    HW140298   1.133   4.195   6.870  0.7352 -0.5346 -0.5842
 9554SOL    HW240299   1.217   4.098   6.923 -1.2326 -0.9344 -1.4660
 9555SOL     OW40300   1.709   0.192   3.846  0.0069 -0.0913 -1.0114
 9555SOL    HW140301   1.687   0.167   3.757 -3.0609 -0.9229 -0.0448
 9555SOL    HW240302   1.655   0.131   3.896  0.8592  0.7333  0.9206
 9556SOL     OW40303   4.287   2.628   7.490  0.1209  0.0499 -0.4650
 9556SOL    HW140304   4.286   2.703   7.431 -0.3301  0.3830 -0.0256
 9556SOL    HW240305   4.262   2.671   7.571  0.2889  0.1237 -0.4524
 9557SOL     OW40306   3.591   1.383   9.530  0.2873 -0.9568 -0.2578
 9557SOL    HW140307   3.561   1.471   9.553 -1.4212 -1.7318  0.4754
 9557SOL    HW240308   3.518   1.328   9.502  1.2370 -0.5447 -3.5460
 9558SOL     OW40309   3.781   2.689   6.867 -0.4733  0.3105 -0.5811
 9558SOL    HW140310   3.805   2.621   6.931  0.9167  0.9763 -0.4109
 9558SOL    HW240311   3.765   2.634   6.791 -1.0410 -0.7408  0.2906
 9559SOL     OW40312   3.033   4.650   3.774  0.2241  0.1340 -0.0805
 9559SOL    HW140313   3.062   4.571   3.819  1.5914  0.8609  0.3264
 9559SOL    HW240314   3.034   4.622   3.682 -0.8715 -2.4296  0.6819
 9560SOL     OW40315   4.529   2.627   7.020  0.2086 -0.3479  0.0838
 9560SOL    HW140316   4.572   2.671   6.947 -0.7947 -0.2584 -0.4563
 9560SOL    HW240317   4.544   2.539   6.985 -2.8405 -1.6591  1.9648
 9561SOL     OW40318   1.261   0.773  11.876 -0.2270  0.0016 -0.2969
 9561SOL    HW140319   1.317   0.764  11.954 -1.6987  2.9217  1.0762
 9561SOL    HW240320   1.187   0.817  11.917 -1.6208 -1.2044 -1.5589
 9562SOL     OW40321   0.728   0.172   0.032 -0.6783  0.9126  0.0966
 9562SOL    HW140322   0.733   0.181  17.690 -2.0195  0.6762  0.0011
 9562SOL    HW240323   0.685   0.087   0.037 -0.9734  1.0810  0.4151
 9563SOL     OW40324   4.300   3.439   6.966  0.4278 -0.1644 -0.2225
 9563SOL    HW140325   4.216   3.421   6.925 -0.2588 -1.8975  1.9357
 9563SOL    HW240326   4.330   3.353   6.995 -0.6914  0.1098  1.7409
 9564SOL     OW40327   1.702   0.567   9.437 -0.2614  0.2140 -0.0922
 9564SOL    HW140328   1.611   0.580   9.408 -0.6240 -3.3734 -0.6656
 9564SOL    HW240329   1.711   0.648   9.486 -1.1387 -0.2060  0.7684
 9565SOL     OW40330   4.648   1.222   9.232 -0.6532 -0.4153 -0.1340
 9565SOL    HW140331   4.708   1.273   9.286 -0.3255  0.6079 -1.4777
 9565SOL    HW240332   4.632   1.144   9.286  1.5498 -0.8791 -0.1610
 9566SOL     OW40333   1.958   2.184   5.264 -0.0088 -0.1517 -0.0391
 9566SOL    HW140334   1.890   2.244   5.232  1.4834  1.0724 -0.9395
 9566SOL    HW240335   1.904   2.110   5.292  0.4118 -1.6583 -3.1504
 9567SOL     OW40336   4.339   1.438  11.573 -0.0257  0.1123 -0.0050
 9567SOL    HW140337   4.349   1.530  11.597 -1.0510 -0.0126  0.8782
 9567SOL    HW240338   4.261   1.407  11.620  1.1993  1.3558  2.8869
 9568SOL     OW40339   2.052   0.593  11.137 -0.2084  0.4682 -0.3175
 9568SOL    HW140340   2.070   0.623  11.048  0.0589  0.3760 -0.2945
 9568SOL    HW240341   2.021   0.503  11.126  1.7097 -0.0949 -1.1582
 9569SOL     OW40342   1.628   4.304   4.361 -0.1326  0.3160 -0.6346
 9569SOL    HW140343   1.533   4.301   4.352 -0.3019 -0.5975  1.4425
 9569SOL    HW240344   1.652   4.228   4.414  1.4830  1.2365 -0.0470
   4.73886   4.73886  17.75332
